 Entering Gaussian System, Link 0=/Local/ce_dana/g09/g09
 Initial command:
 /Local/ce_dana/g09/l1.exe "/storage/ce_dana/alongd/scratch/g09/Gau-53255.inp" -scrdir="/storage/ce_dana/alongd/scratch/g09/"
 Entering Link 1 = /Local/ce_dana/g09/l1.exe PID=     53256.
  
 Copyright (c) 1988,1990,1992,1993,1995,1998,2003,2009,2013,
            Gaussian, Inc.  All Rights Reserved.
  
 This is part of the Gaussian(R) 09 program.  It is based on
 the Gaussian(R) 03 system (copyright 2003, Gaussian, Inc.),
 the Gaussian(R) 98 system (copyright 1998, Gaussian, Inc.),
 the Gaussian(R) 94 system (copyright 1995, Gaussian, Inc.),
 the Gaussian 92(TM) system (copyright 1992, Gaussian, Inc.),
 the Gaussian 90(TM) system (copyright 1990, Gaussian, Inc.),
 the Gaussian 88(TM) system (copyright 1988, Gaussian, Inc.),
 the Gaussian 86(TM) system (copyright 1986, Carnegie Mellon
 University), and the Gaussian 82(TM) system (copyright 1983,
 Carnegie Mellon University). Gaussian is a federally registered
 trademark of Gaussian, Inc.
  
 This software contains proprietary and confidential information,
 including trade secrets, belonging to Gaussian, Inc.
  
 This software is provided under written license and may be
 used, copied, transmitted, or stored only in accord with that
 written license.
  
 The following legend is applicable only to US Government
 contracts under FAR:
  
                    RESTRICTED RIGHTS LEGEND
  
 Use, reproduction and disclosure by the US Government is
 subject to restrictions as set forth in subparagraphs (a)
 and (c) of the Commercial Computer Software - Restricted
 Rights clause in FAR 52.227-19.
  
 Gaussian, Inc.
 340 Quinnipiac St., Bldg. 40, Wallingford CT 06492
  
  
 ---------------------------------------------------------------
 Warning -- This program may not be used in any manner that
 competes with the business of Gaussian, Inc. or will provide
 assistance to any competitor of Gaussian, Inc.  The licensee
 of this program is prohibited from giving any competitor of
 Gaussian, Inc. access to this program.  By using this program,
 the user acknowledges that Gaussian, Inc. is engaged in the
 business of creating and licensing software in the field of
 computational chemistry and represents and warrants to the
 licensee that it is not a competitor of Gaussian, Inc. and that
 it will not use this program in any manner prohibited above.
 ---------------------------------------------------------------
  

 Cite this work as:
 Gaussian 09, Revision D.01,
 M. J. Frisch, G. W. Trucks, H. B. Schlegel, G. E. Scuseria, 
 M. A. Robb, J. R. Cheeseman, G. Scalmani, V. Barone, B. Mennucci, 
 G. A. Petersson, H. Nakatsuji, M. Caricato, X. Li, H. P. Hratchian, 
 A. F. Izmaylov, J. Bloino, G. Zheng, J. L. Sonnenberg, M. Hada, 
 M. Ehara, K. Toyota, R. Fukuda, J. Hasegawa, M. Ishida, T. Nakajima, 
 Y. Honda, O. Kitao, H. Nakai, T. Vreven, J. A. Montgomery, Jr., 
 J. E. Peralta, F. Ogliaro, M. Bearpark, J. J. Heyd, E. Brothers, 
 K. N. Kudin, V. N. Staroverov, T. Keith, R. Kobayashi, J. Normand, 
 K. Raghavachari, A. Rendell, J. C. Burant, S. S. Iyengar, J. Tomasi, 
 M. Cossi, N. Rega, J. M. Millam, M. Klene, J. E. Knox, J. B. Cross, 
 V. Bakken, C. Adamo, J. Jaramillo, R. Gomperts, R. E. Stratmann, 
 O. Yazyev, A. J. Austin, R. Cammi, C. Pomelli, J. W. Ochterski, 
 R. L. Martin, K. Morokuma, V. G. Zakrzewski, G. A. Voth, 
 P. Salvador, J. J. Dannenberg, S. Dapprich, A. D. Daniels, 
 O. Farkas, J. B. Foresman, J. V. Ortiz, J. Cioslowski, 
 and D. J. Fox, Gaussian, Inc., Wallingford CT, 2013.
 
 ******************************************
 Gaussian 09:  ES64L-G09RevD.01 24-Apr-2013
                13-Nov-2022 
 ******************************************
 %chk=check.chk
 %mem=7168mb
 %NProcShared=10
 Will use up to   10 processors via shared memory.
 ----------------------------------------------------------------------
 #P opt=(modredundant, calcfc, noeigentest, maxStep=5) scf=(tight, dire
 ct) integral=(grid=ultrafine, Acc2E=12) guess=read b2plypd3/def2tzvp I
 Op(2/9=2000) scf=xqc
 ----------------------------------------------------------------------
 1/8=5,10=4,11=1,18=120,19=15,38=1/1,3;
 2/9=2000,12=2,17=6,18=5,40=1/2;
 3/5=44,7=101,11=9,16=1,25=1,30=1,71=2,74=-60,75=-5,116=-2,140=1/1,2,3;
 4/5=1/1;
 5/5=2,8=3,13=1,32=2,38=6,87=12/2,8;
 8/6=3,8=1,10=1,19=11,30=-1,87=12/1;
 9/15=3,16=-3,87=12/6;
 11/6=1,8=1,15=11,17=12,24=-1,27=1,28=-2,29=300,32=6,42=3,87=12/1,2,10;
 10/6=2,21=1,87=12/2;
 8/6=4,8=1,10=1,19=11,30=-1,87=12/11,4;
 10/5=1,20=4,87=12/2;
 11/12=2,14=11,16=1,17=2,28=-2,42=3,87=12/2,10,12;
 6/7=2,8=2,9=2,10=2/1;
 7/10=1,12=2,25=1,44=2,87=12/1,2,3,16;
 1/8=5,10=4,11=1,18=20,19=15/3(2);
 2/9=2000/2;
 99//99;
 2/9=2000/2;
 3/5=44,7=101,11=9,16=1,25=1,30=1,71=1,74=-60,75=-5/1,2,3;
 4/5=5,16=3,69=1/1;
 5/5=2,8=3,13=1,32=2,38=5,87=12/2,8;
 8/6=4,10=1,87=12/1;
 9/15=2,16=-3,87=12/6;
 10/5=1,87=12/2;
 7/12=2,87=12/1,2,3,16;
 1/8=5,11=1,18=20,19=15/3(-8);
 2/9=2000/2;
 6/7=2,8=2,9=2,10=2/1;
 99//99;
 Leave Link    1 at Sun Nov 13 03:57:58 2022, MaxMem=   939524096 cpu:         0.1
 (Enter /Local/ce_dana/g09/l101.exe)
 ------------------
 1-Propene-1,2-diol
 ------------------
 Symbolic Z-matrix:
 Charge =  0 Multiplicity = 1
 C                    -1.40994  -0.02702  -0.31272 
 C                     0.02135   0.21936   0.00119 
 O                     0.29153   1.51621   0.33086 
 C                     0.98309  -0.70412  -0.03872 
 O                     2.29775  -0.3054    0.18586 
 H                    -1.72469   0.58052  -1.16301 
 H                    -2.03611   0.24714   0.53787 
 H                    -1.57773  -1.07568  -0.55056 
 H                     1.24358   1.57033   0.50143 
 H                     0.8045   -1.73104  -0.32114 
 H                     2.71984  -0.92816   0.78618 
 
 The following ModRedundant input section has been read:
 D       1       2       3       9 S  45 8.0000                                
 D       2       4       5      11 F                                           
 D       2       4       5      11 F                                           
 
 NAtoms=     11 NQM=       11 NQMF=       0 NMMI=      0 NMMIF=      0
                NMic=       0 NMicF=      0.
                    Isotopes and Nuclear Properties:
 (Nuclear quadrupole moments (NQMom) in fm**2, nuclear magnetic moments (NMagM)
  in nuclear magnetons)

  Atom         1           2           3           4           5           6           7           8           9          10
 IAtWgt=          12          12          16          12          16           1           1           1           1           1
 AtmWgt=  12.0000000  12.0000000  15.9949146  12.0000000  15.9949146   1.0078250   1.0078250   1.0078250   1.0078250   1.0078250
 NucSpn=           0           0           0           0           0           1           1           1           1           1
 AtZEff=   0.0000000   0.0000000   0.0000000   0.0000000   0.0000000   0.0000000   0.0000000   0.0000000   0.0000000   0.0000000
 NQMom=    0.0000000   0.0000000   0.0000000   0.0000000   0.0000000   0.0000000   0.0000000   0.0000000   0.0000000   0.0000000
 NMagM=    0.0000000   0.0000000   0.0000000   0.0000000   0.0000000   2.7928460   2.7928460   2.7928460   2.7928460   2.7928460
 AtZNuc=   6.0000000   6.0000000   8.0000000   6.0000000   8.0000000   1.0000000   1.0000000   1.0000000   1.0000000   1.0000000

  Atom        11
 IAtWgt=           1
 AtmWgt=   1.0078250
 NucSpn=           1
 AtZEff=   0.0000000
 NQMom=    0.0000000
 NMagM=    2.7928460
 AtZNuc=   1.0000000
 Leave Link  101 at Sun Nov 13 03:57:58 2022, MaxMem=   939524096 cpu:         0.3
 (Enter /Local/ce_dana/g09/l103.exe)

 GradGradGradGradGradGradGradGradGradGradGradGradGradGradGradGradGradGrad
 Berny optimization.
 Initialization pass.
                           ----------------------------
                           !    Initial Parameters    !
                           ! (Angstroms and Degrees)  !
 --------------------------                            --------------------------
 ! Name  Definition              Value          Derivative Info.                !
 --------------------------------------------------------------------------------
 ! R1    R(1,2)                  1.4859         calculate D2E/DX2 analytically  !
 ! R2    R(1,6)                  1.0914         calculate D2E/DX2 analytically  !
 ! R3    R(1,7)                  1.0912         calculate D2E/DX2 analytically  !
 ! R4    R(1,8)                  1.0883         calculate D2E/DX2 analytically  !
 ! R5    R(2,3)                  1.3651         calculate D2E/DX2 analytically  !
 ! R6    R(2,4)                  1.3339         calculate D2E/DX2 analytically  !
 ! R7    R(3,9)                  0.9687         calculate D2E/DX2 analytically  !
 ! R8    R(4,5)                  1.392          calculate D2E/DX2 analytically  !
 ! R9    R(4,10)                 1.0799         calculate D2E/DX2 analytically  !
 ! R10   R(5,11)                 0.9625         calculate D2E/DX2 analytically  !
 ! A1    A(2,1,6)              110.4923         calculate D2E/DX2 analytically  !
 ! A2    A(2,1,7)              110.2674         calculate D2E/DX2 analytically  !
 ! A3    A(2,1,8)              110.7601         calculate D2E/DX2 analytically  !
 ! A4    A(6,1,7)              107.574          calculate D2E/DX2 analytically  !
 ! A5    A(6,1,8)              108.7638         calculate D2E/DX2 analytically  !
 ! A6    A(7,1,8)              108.9033         calculate D2E/DX2 analytically  !
 ! A7    A(1,2,3)              113.5278         calculate D2E/DX2 analytically  !
 ! A8    A(1,2,4)              124.986          calculate D2E/DX2 analytically  !
 ! A9    A(3,2,4)              121.4816         calculate D2E/DX2 analytically  !
 ! A10   A(2,3,9)              106.8647         calculate D2E/DX2 analytically  !
 ! A11   A(2,4,5)              118.541          calculate D2E/DX2 analytically  !
 ! A12   A(2,4,10)             123.1565         calculate D2E/DX2 analytically  !
 ! A13   A(5,4,10)             118.0825         calculate D2E/DX2 analytically  !
 ! A14   A(4,5,11)             109.2362         calculate D2E/DX2 analytically  !
 ! D1    D(6,1,2,3)             60.4657         calculate D2E/DX2 analytically  !
 ! D2    D(6,1,2,4)           -118.7615         calculate D2E/DX2 analytically  !
 ! D3    D(7,1,2,3)            -58.3252         calculate D2E/DX2 analytically  !
 ! D4    D(7,1,2,4)            122.4477         calculate D2E/DX2 analytically  !
 ! D5    D(8,1,2,3)           -178.943          calculate D2E/DX2 analytically  !
 ! D6    D(8,1,2,4)              1.8298         calculate D2E/DX2 analytically  !
 ! D7    D(1,2,3,9)           -179.1376         Scan                            !
 ! D8    D(4,2,3,9)              0.12           calculate D2E/DX2 analytically  !
 ! D9    D(1,2,4,5)            175.3411         calculate D2E/DX2 analytically  !
 ! D10   D(1,2,4,10)             0.8396         calculate D2E/DX2 analytically  !
 ! D11   D(3,2,4,5)             -3.828          calculate D2E/DX2 analytically  !
 ! D12   D(3,2,4,10)          -178.3295         calculate D2E/DX2 analytically  !
 ! D13   D(2,4,5,11)           135.1521         frozen, calculate D2E/DX2 analyt!
 ! D14   D(10,4,5,11)          -50.0646         calculate D2E/DX2 analytically  !
 --------------------------------------------------------------------------------
 Trust Radius=5.00D-02 FncErr=1.00D-07 GrdErr=1.00D-07
 Number of optimizations in scan=  46
 Number of steps in this run=     48 maximum allowed number of steps=    100.
 GradGradGradGradGradGradGradGradGradGradGradGradGradGradGradGradGradGrad

 Leave Link  103 at Sun Nov 13 03:57:58 2022, MaxMem=   939524096 cpu:         0.0
 (Enter /Local/ce_dana/g09/l202.exe)
                          Input orientation:                          
 ---------------------------------------------------------------------
 Center     Atomic      Atomic             Coordinates (Angstroms)
 Number     Number       Type             X           Y           Z
 ---------------------------------------------------------------------
      1          6           0       -1.409939   -0.027020   -0.312724
      2          6           0        0.021348    0.219364    0.001193
      3          8           0        0.291525    1.516209    0.330855
      4          6           0        0.983086   -0.704123   -0.038716
      5          8           0        2.297753   -0.305404    0.185858
      6          1           0       -1.724685    0.580522   -1.163005
      7          1           0       -2.036110    0.247144    0.537872
      8          1           0       -1.577727   -1.075681   -0.550560
      9          1           0        1.243584    1.570334    0.501426
     10          1           0        0.804501   -1.731042   -0.321138
     11          1           0        2.719840   -0.928157    0.786181
 ---------------------------------------------------------------------
                    Distance matrix (angstroms):
                    1          2          3          4          5
     1  C    0.000000
     2  C    1.485877   0.000000
     3  O    2.385525   1.365093   0.000000
     4  C    2.502023   1.333927   2.354722   0.000000
     5  O    3.751408   2.343395   2.713715   1.392034   0.000000
     6  H    1.091398   2.129419   2.678102   3.200994   4.334086
     7  H    1.091224   2.126483   2.659185   3.217593   4.383103
     8  H    1.088305   2.130402   3.314949   2.637765   4.019326
     9  H    3.202431   1.889236   0.968731   2.352184   2.174684
    10  H    2.794192   2.126337   3.351549   1.079915   2.125862
    11  H    4.367461   3.035600   3.475480   1.935707   0.962479
                    6          7          8          9         10
     6  H    0.000000
     7  H    1.760997   0.000000
     8  H    1.771918   1.773320   0.000000
     9  H    3.544105   3.536743   4.008474   0.000000
    10  H    3.528293   3.566537   2.481359   3.430523   0.000000
    11  H    5.082248   4.905308   4.503079   2.915969   2.353572
                   11
    11  H    0.000000
 Stoichiometry    C3H6O2
 Framework group  C1[X(C3H6O2)]
 Deg. of freedom    27
 Full point group                 C1      NOp   1
 Largest Abelian subgroup         C1      NOp   1
 Largest concise Abelian subgroup C1      NOp   1
                         Standard orientation:                         
 ---------------------------------------------------------------------
 Center     Atomic      Atomic             Coordinates (Angstroms)
 Number     Number       Type             X           Y           Z
 ---------------------------------------------------------------------
      1          6           0       -1.812422   -0.548905   -0.000157
      2          6           0       -0.432542    0.002149    0.010084
      3          8           0       -0.390658    1.366596    0.013053
      4          6           0        0.683109   -0.729018    0.001302
      5          8           0        1.907659   -0.072873   -0.086523
      6          1           0       -2.348242   -0.220833   -0.892578
      7          1           0       -2.368586   -0.191619    0.868058
      8          1           0       -1.793439   -1.636916    0.016595
      9          1           0        0.544564    1.619078    0.005801
     10          1           0        0.681583   -1.808545   -0.027603
     11          1           0        2.519246   -0.456309    0.550112
 ---------------------------------------------------------------------
 Rotational constants (GHZ):      9.9706966      3.8434174      2.8355217
 Leave Link  202 at Sun Nov 13 03:57:59 2022, MaxMem=   939524096 cpu:         0.0
 (Enter /Local/ce_dana/g09/l301.exe)
 Standard basis: def2TZVP (5D, 7F)
 Ernie: Thresh=  0.10000D-02 Tol=  0.10000D-05 Strict=F.
 There are   216 symmetry adapted cartesian basis functions of A   symmetry.
 There are   191 symmetry adapted basis functions of A   symmetry.
   191 basis functions,   303 primitive gaussians,   216 cartesian basis functions
    20 alpha electrons       20 beta electrons
       nuclear repulsion energy       177.8571121948 Hartrees.
 IExCor=  419 DFT=T Ex+Corr=B2PLYPD3 ExCW=0 ScaHFX=  0.530000
 ScaDFX=  0.470000  0.470000  0.730000  0.730000 ScalE2=  0.270000  0.270000
 IRadAn=      5 IRanWt=     -1 IRanGd=            0 ICorTp=0 IEmpDi=141
 NAtoms=   11 NActive=   11 NUniq=   11 SFac= 1.00D+00 NAtFMM=   60 NAOKFM=F Big=F
 Integral buffers will be    131072 words long.
 Regular integral format.
 Two-electron integral symmetry is turned on.
 R6Disp:  Grimme-D3(BJ) Dispersion energy=       -0.0052160111 Hartrees.
 Nuclear repulsion after empirical dispersion term =      177.8518961837 Hartrees.
 Leave Link  301 at Sun Nov 13 03:57:59 2022, MaxMem=   939524096 cpu:         0.1
 (Enter /Local/ce_dana/g09/l302.exe)
 NPDir=0 NMtPBC=     1 NCelOv=     1 NCel=       1 NClECP=     1 NCelD=      1
         NCelK=      1 NCelE2=     1 NClLst=     1 CellRange=     0.0.
 One-electron integrals computed using PRISM.
   1 Symmetry operations used in ECPInt.
 ECPInt:  NShTT=    3160 NPrTT=    9444 LenC2=    3133 LenP2D=    7875.
 LDataN:  DoStor=T MaxTD1= 6 Len=  172
 NBasis=   191 RedAO= T EigKep=  1.21D-04  NBF=   191
 NBsUse=   191 1.00D-06 EigRej= -1.00D+00 NBFU=   191
 Precomputing XC quadrature grid using
 IXCGrd= 4 IRadAn=           5 IRanWt=          -1 IRanGd=           0 AccXCQ= 0.00D+00.
 Generated NRdTot=       0 NPtTot=           0 NUsed=           0 NTot=          32
 NSgBfM=   215   215   215   215   215 MxSgAt=    11 MxSgA2=    11.
 Leave Link  302 at Sun Nov 13 03:57:59 2022, MaxMem=   939524096 cpu:         2.3
 (Enter /Local/ce_dana/g09/l303.exe)
 DipDrv:  MaxL=1.
 Leave Link  303 at Sun Nov 13 03:57:59 2022, MaxMem=   939524096 cpu:         0.1
 (Enter /Local/ce_dana/g09/l401.exe)
 Initial guess from the checkpoint file:  "check.chk"
 B after Tr=     0.000000    0.000000   -0.000000
         Rot=    1.000000    0.000000    0.000000   -0.000000 Ang=  -0.00 deg.
 Guess basis will be translated and rotated to current coordinates.
 JPrj=2 DoOrth=T DoCkMO=T.
 Leave Link  401 at Sun Nov 13 03:57:59 2022, MaxMem=   939524096 cpu:         0.7
 (Enter /Local/ce_dana/g09/l502.exe)
 Closed shell SCF:
 Using DIIS extrapolation, IDIIS=  1040.
 Integral symmetry usage will be decided dynamically.
 Keep R1 ints in memory in canonical form, NReq=173372322.
 IVT=      149658 IEndB=      149658 NGot=   939524096 MDV=   771260823
 LenX=   771260823 LenY=   771213726
 Requested convergence on RMS density matrix=1.00D-08 within  64 cycles.
 Requested convergence on MAX density matrix=1.00D-06.
 Requested convergence on             energy=1.00D-06.
 No special actions if energy rises.
 FoFCou: FMM=F IPFlag=           0 FMFlag=           0 FMFlg1=           0
         NFxFlg=           0 DoJE=F BraDBF=F KetDBF=F FulRan=T
         wScrn=  0.000000 ICntrl=     600 IOpCl=  0 I1Cent=           0 NGrid=           0
         NMat0=    1 NMatS0=  18336 NMatT0=    0 NMatD0=    1 NMtDS0=    0 NMtDT0=    0
 Symmetry not used in FoFCou.

 Cycle   1  Pass 1  IDiag  1:
 E= -267.943842017688    
 DIIS: error= 3.12D-08 at cycle   1 NSaved=   1.
 NSaved= 1 IEnMin= 1 EnMin= -267.943842017688     IErMin= 1 ErrMin= 3.12D-08
 ErrMax= 3.12D-08  0.00D+00 EMaxC= 1.00D-01 BMatC= 4.97D-13 BMatP= 4.97D-13
 IDIUse=1 WtCom= 1.00D+00 WtEn= 0.00D+00
 Coeff-Com:  0.100D+01
 Coeff:      0.100D+01
 Gap=     0.325 Goal=   None    Shift=    0.000
 RMSDP=5.27D-09 MaxDP=1.71D-07              OVMax= 1.89D-07

 SCF Done:  E(RB2PLYPD3) =  -267.943842018     A.U. after    1 cycles
            NFock=  1  Conv=0.53D-08     -V/T= 2.0032
 KE= 2.670941502780D+02 PE=-9.846649839398D+02 EE= 2.717750954604D+02
 Leave Link  502 at Sun Nov 13 03:58:03 2022, MaxMem=   939524096 cpu:        30.1
 (Enter /Local/ce_dana/g09/l508.exe)
 QCSCF skips out because SCF is already converged.
 Leave Link  508 at Sun Nov 13 03:58:03 2022, MaxMem=   939524096 cpu:         0.0
 (Enter /Local/ce_dana/g09/l801.exe)
 DoSCS=T DFT=T ScalE2(SS,OS)=  0.270000  0.270000
 ExpMin= 9.52D-02 ExpMax= 2.70D+04 ExpMxC= 9.22D+02 IAcc=3 IRadAn=         5 AccDes= 0.00D+00
 HarFok:  IExCor=  205 AccDes= 0.00D+00 IRadAn=         5 IDoV=-2 UseB2=F ITyADJ=14
 ICtDFT= 12500011 ScaDFX=  1.000000  1.000000  1.000000  1.000000
 Largest valence mixing into a core orbital is  9.10D-05
 Largest core mixing into a valence orbital is  1.79D-05
 Range of M.O.s used for correlation:     6   191
 NBasis=   191 NAE=    20 NBE=    20 NFC=     5 NFV=     0
 NROrb=    186 NOA=    15 NOB=    15 NVA=   171 NVB=   171

 **** Warning!!: The largest alpha MO coefficient is  0.18797215D+02

 Leave Link  801 at Sun Nov 13 03:58:03 2022, MaxMem=   939524096 cpu:         0.7
 (Enter /Local/ce_dana/g09/l906.exe)
 DoSCS=T DFT=T ScalE2(SS,OS)=  0.270000  0.270000
 Frozen-core derivative calculation, NFC=   5 NFV=   0.
 FulOut=F Deriv=T AODrv=T NAtomX=    11
   MMem=           0  MDisk=          15 MDiskD=          15
  W3Min=      825120 MinDsk=     2923772 NBas6D=         216
 NBas2D=       23874    NTT=       23436    LW2=     7400000
    MDV=   939059146 MDiskM=       21691 NBas2p=       23808
 Disk-based method using ON**2 memory for 15 occupieds at a time.
 Permanent disk used for amplitudes=    14458050 words.
 Estimated scratch disk usage=   275519744 words.
 IMap=   1   2   3   4   5   6   7   8   9  10  11  12  13  14  15  16  17  18  19  20
 Actual    scratch disk usage=   266187008 words.
 JobTyp=1 Pass  1:  I=   6 to  20 NPSUse= 10 ParTrn=T ParDer=T DoDerP=T.
 (rs|ai) integrals will be sorted in core.
 Spin components of T(2) and E(2):
     alpha-alpha T2 =       0.5317006522D-01 E2=     -0.3925460050D-01
     alpha-beta  T2 =       0.3064523434D+00 E2=     -0.2343017546D+00
     beta-beta   T2 =       0.5317006522D-01 E2=     -0.3925460050D-01
 The integrals were generated   1 times.
 E2(B2PLYPD3) =    -0.3128109556D+00 E(B2PLYPD3) =    -0.26825665297326D+03
 Leave Link  906 at Sun Nov 13 04:05:24 2022, MaxMem=   939524096 cpu:      4380.4
 (Enter /Local/ce_dana/g09/l1101.exe)
 Using compressed Sx but separate Hx and Fx, NAtomX=    11.
 Will process     12 centers per pass.
   1 Symmetry operations used in ECPInt.
 ECPInt:  NShTT=    3160 NPrTT=    9444 LenC2=    3133 LenP2D=    7875.
 LDataN:  DoStor=T MaxTD1= 7 Len=  274
 R6Disp: Adding Grimme-D3(BJ) dispersion energy 1st derivatives to the gradient.
 Leave Link 1101 at Sun Nov 13 04:05:25 2022, MaxMem=   939524096 cpu:         5.4
 (Enter /Local/ce_dana/g09/l1102.exe)
 Leave Link 1102 at Sun Nov 13 04:05:25 2022, MaxMem=   939524096 cpu:         0.0
 (Enter /Local/ce_dana/g09/l1110.exe)
 Forming Gx(P) for the SCF density, NAtomX=    11.
 Integral derivatives from FoFJK, PRISM(SPDF).
 Do as many integral derivatives as possible in FoFJK.
 G2DrvN: MDV=     939523904.
 G2DrvN: will do    12 centers at a time, making    1 passes.
 Calling FoFCou, ICntrl=  3107 FMM=F I1Cent=   0 AccDes= 1.00D-12.
 FoFJK:  IHMeth= 1 ICntrl=    3107 DoSepK=F KAlg= 0 I1Cent=   0 FoldK=F
 IRaf=         0 NMat=   1 IRICut=       1 DoRegI=T DoRafI=F ISym2E= 0.
 FoFCou: FMM=F IPFlag=           0 FMFlag=      100000 FMFlg1=           0
         NFxFlg=           0 DoJE=F BraDBF=F KetDBF=F FulRan=T
         wScrn=  0.000000 ICntrl=    3107 IOpCl=  0 I1Cent=           0 NGrid=           0
         NMat0=    1 NMatS0=      1 NMatT0=    0 NMatD0=    1 NMtDS0=    0 NMtDT0=    0
 Symmetry not used in FoFCou.
 End of G2Drv F.D. properties file   721 does not exist.
 End of G2Drv F.D. properties file   722 does not exist.
 End of G2Drv F.D. properties file   788 does not exist.
 Leave Link 1110 at Sun Nov 13 04:06:12 2022, MaxMem=   939524096 cpu:       466.9
 (Enter /Local/ce_dana/g09/l1002.exe)
 Minotr:  Closed shell wavefunction.
          IDoAtm=11111111111
          Frozen-core window.
          Direct CPHF calculation.
          Differentiating once with respect to electric field.
                with respect to dipole field.
          Differentiating once with respect to nuclear coordinates.
          Requested convergence is 1.0D-08 RMS, and 1.0D-07 maximum.
          Secondary convergence is 1.0D-12 RMS, and 1.0D-12 maximum.
          NewPWx=T KeepS1=T KeepF1=T KeepIn=T MapXYZ=F SortEE=F KeepMc=T.
          MDV=     939523796 using IRadAn=       1.
 Generate precomputed XC quadrature information.
 Keep R1 ints in memory in canonical form, NReq=173227683.
 FoFCou: FMM=F IPFlag=           0 FMFlag=           0 FMFlg1=           0
         NFxFlg=           0 DoJE=F BraDBF=F KetDBF=F FulRan=T
         wScrn=  0.000000 ICntrl=     600 IOpCl=  0 I1Cent=           0 NGrid=           0
         NMat0=    1 NMatS0=  18336 NMatT0=    0 NMatD0=    1 NMtDS0=    0 NMtDT0=    0
 Symmetry not used in FoFCou.
          Solving linear equations simultaneously, MaxMat=       0.
          There are    36 degrees of freedom in the 1st order CPHF.  IDoFFX=6 NUNeed=    36.
     33 vectors produced by pass  0 Test12= 9.50D-15 2.78D-09 XBig12= 2.68D+01 3.56D+00.
 AX will form    33 AO Fock derivatives at one time.
     33 vectors produced by pass  1 Test12= 9.50D-15 2.78D-09 XBig12= 2.00D+00 2.12D-01.
     33 vectors produced by pass  2 Test12= 9.50D-15 2.78D-09 XBig12= 3.61D-02 4.05D-02.
     33 vectors produced by pass  3 Test12= 9.50D-15 2.78D-09 XBig12= 2.72D-04 2.32D-03.
     33 vectors produced by pass  4 Test12= 9.50D-15 2.78D-09 XBig12= 1.40D-06 1.53D-04.
     33 vectors produced by pass  5 Test12= 9.50D-15 2.78D-09 XBig12= 4.19D-09 8.83D-06.
     18 vectors produced by pass  6 Test12= 9.50D-15 2.78D-09 XBig12= 1.49D-11 4.09D-07.
      3 vectors produced by pass  7 Test12= 9.50D-15 2.78D-09 XBig12= 4.72D-14 2.45D-08.
 InvSVY:  IOpt=1 It=  1 EMax= 6.22D-15
 Solved reduced A of dimension   219 with    36 vectors.
 FullF1:  Do perturbations    1 to    36.
 Saving first derivative matrices.
 End of Minotr F.D. properties file   721 does not exist.
 End of Minotr F.D. properties file   722 does not exist.
 End of Minotr F.D. properties file   788 does not exist.
 Leave Link 1002 at Sun Nov 13 04:07:24 2022, MaxMem=   939524096 cpu:       701.9
 (Enter /Local/ce_dana/g09/l811.exe)
 MDV=   939524096.
 DoSCS=T DFT=T ScalE2(SS,OS)=  0.270000  0.270000
 Form MO integral derivatives with frozen-active canonical formalism.
 MOERI=1 MOERIx=1 NAtoms=    11 NAtomX=    11.
 Discarding MO integrals.
 MO basis two electron integral derivatives will not be stored on disk.
 IAlg= 3 DoFC=T DoPWx=T Debug=F.
 Frozen-core window:  NFC=   5 NFV=   0.
 Reordered first order wavefunction length =     23392800
 In DefCFB: NBatch=  1 ICI= 20 ICA=171 LFMax= 43
            Large arrays: LIAPS=   564382080 LIARS=   186157440 words.
 In StABat: MaxSiz= 36 MinSiz= 36 NAtomB=  6
 DoIAMN: NPSUse= 10.
 Leave Link  811 at Sun Nov 13 04:10:51 2022, MaxMem=   939524096 cpu:      1570.5
 (Enter /Local/ce_dana/g09/l804.exe)
 Frozen-core window:  NFC=   5 NFV=   0.
 Closed-shell transformation, MDV=   939524096 ITran=4 ISComp=1.
 Semi-Direct transformation.
 ModeAB=           2 MOrb=            20 LenV=     938294593
 LASXX=     64835695 LTotXX=    64835695 LenRXX=    64835695
 LTotAB=    65841480 MaxLAS=    89525520 LenRXY=    89525520
 NonZer=   129671390 LenScr=   195270656 LnRSAI=           0
 LnScr1=           0 LExtra=           0 Total=    349631871
 MaxDsk=          -1 SrtSym=           F ITran=            4
 DoSDTr:  NPSUse= 10
 JobTyp=0 Pass  1:  I=   1 to  20.
 (rs|ai) integrals will be sorted in core.
 Complete sort for first half transformation.
 First half transformation complete.
 Begin second half transformation for I=  10.
 Begin second half transformation for I=  20.
 Begin second half transformation for I=  10.
 Begin second half transformation for I=  20.
 Complete sort for second half transformation.
 Second half transformation complete.
 SymMOI:  orbitals are not symmetric.
 DoSCS=T DFT=T ScalE2(SS,OS)=  0.270000  0.270000
 Spin components of T(2) and E(2):
     alpha-alpha T2 =       0.5317006522D-01 E2=     -0.3925460050D-01
     alpha-beta  T2 =       0.3064523434D+00 E2=     -0.2343017546D+00
     beta-beta   T2 =       0.5317006522D-01 E2=     -0.3925460050D-01
 E2(B2PLYPD3) =    -0.3128109556D+00 E(B2PLYPD3) =    -0.26825665297326D+03
 Leave Link  804 at Sun Nov 13 04:11:28 2022, MaxMem=   939524096 cpu:       210.6
 (Enter /Local/ce_dana/g09/l1002.exe)
 Minotr:  Closed shell wavefunction.
          Computing MP2/KS-MP2 derivatives.
          Using Z-Vector for PSCF gradient.
          Skipping F1 and S1 gradient terms here.
          IDoAtm=11111111111
          Frozen-core window.
          Direct CPHF calculation.
          Differentiating once with respect to electric field.
                with respect to dipole field.
          Differentiating once with respect to nuclear coordinates.
          Requested convergence is 1.0D-10 RMS, and 1.0D-09 maximum.
          NewPWx=T KeepS1=F KeepF1=F KeepIn=T MapXYZ=F SortEE=F KeepMc=T.
          MDV=     939523796 using IRadAn=       5.
 Using stored XC quadrature information.
 Keep R1 ints in memory in canonical form, NReq=173224411.
 FoFCou: FMM=F IPFlag=           0 FMFlag=           0 FMFlg1=           0
         NFxFlg=           0 DoJE=F BraDBF=F KetDBF=F FulRan=T
         wScrn=  0.000000 ICntrl=     600 IOpCl=  0 I1Cent=           0 NGrid=           0
         NMat0=    1 NMatS0=  18336 NMatT0=    0 NMatD0=    1 NMtDS0=    0 NMtDT0=    0
 Symmetry not used in FoFCou.
          Solving linear equations separately, MaxMat=       0.
          There are     1 degrees of freedom in the 1st order CPHF.  IDoFFX=0 NUNeed=     1.
 LinEq1:  Iter=  0 NonCon=     1 RMS=1.75D-03 Max=3.17D-02 NDo=     1
 AX will form     1 AO Fock derivatives at one time.
 LinEq1:  Iter=  1 NonCon=     1 RMS=5.81D-04 Max=5.56D-03 NDo=     1
 LinEq1:  Iter=  2 NonCon=     1 RMS=1.94D-04 Max=2.59D-03 NDo=     1
 LinEq1:  Iter=  3 NonCon=     1 RMS=1.16D-04 Max=1.66D-03 NDo=     1
 LinEq1:  Iter=  4 NonCon=     1 RMS=2.73D-05 Max=3.94D-04 NDo=     1
 LinEq1:  Iter=  5 NonCon=     1 RMS=9.25D-06 Max=1.53D-04 NDo=     1
 LinEq1:  Iter=  6 NonCon=     1 RMS=4.02D-06 Max=7.02D-05 NDo=     1
 LinEq1:  Iter=  7 NonCon=     1 RMS=1.27D-06 Max=2.36D-05 NDo=     1
 LinEq1:  Iter=  8 NonCon=     1 RMS=5.59D-07 Max=1.05D-05 NDo=     1
 LinEq1:  Iter=  9 NonCon=     1 RMS=2.51D-07 Max=5.52D-06 NDo=     1
 LinEq1:  Iter= 10 NonCon=     1 RMS=1.26D-07 Max=2.05D-06 NDo=     1
 LinEq1:  Iter= 11 NonCon=     1 RMS=5.05D-08 Max=6.81D-07 NDo=     1
 LinEq1:  Iter= 12 NonCon=     1 RMS=1.16D-08 Max=1.22D-07 NDo=     1
 LinEq1:  Iter= 13 NonCon=     1 RMS=2.99D-09 Max=3.66D-08 NDo=     1
 LinEq1:  Iter= 14 NonCon=     1 RMS=6.51D-10 Max=8.14D-09 NDo=     1
 LinEq1:  Iter= 15 NonCon=     1 RMS=1.58D-10 Max=2.00D-09 NDo=     1
 LinEq1:  Iter= 16 NonCon=     0 RMS=3.15D-11 Max=3.38D-10 NDo=     1
 Linear equations converged to 1.000D-10 1.000D-09 after    16 iterations.
 End of Minotr F.D. properties file   721 does not exist.
 End of Minotr F.D. properties file   722 does not exist.
 End of Minotr F.D. properties file   788 does not exist.
 Leave Link 1002 at Sun Nov 13 04:12:08 2022, MaxMem=   939524096 cpu:       341.3
 (Enter /Local/ce_dana/g09/l1102.exe)
 Use density number 2.
 Symmetrizing basis deriv contribution to polar:
 IMax=3 JMax=2 DiffMx= 0.00D+00
 Leave Link 1102 at Sun Nov 13 04:12:08 2022, MaxMem=   939524096 cpu:         0.1
 (Enter /Local/ce_dana/g09/l1110.exe)
 Forming Gx(P) for generalized density number  2 NAtomX=    11.
 Integral derivatives from FoFJK, PRISM(SPDF).
 Do as many integral derivatives as possible in FoFJK.
 G2DrvN: MDV=     939523904.
 G2DrvN: will do    12 centers at a time, making    1 passes.
 Calling FoFCou, ICntrl=  3107 FMM=F I1Cent=   0 AccDes= 1.00D-12.
 FoFJK:  IHMeth= 1 ICntrl=    3107 DoSepK=F KAlg= 0 I1Cent=   0 FoldK=F
 IRaf=         0 NMat=   1 IRICut=       1 DoRegI=T DoRafI=F ISym2E= 0.
 FoFCou: FMM=F IPFlag=           0 FMFlag=      100000 FMFlg1=           0
         NFxFlg=           0 DoJE=F BraDBF=F KetDBF=F FulRan=T
         wScrn=  0.000000 ICntrl=    3107 IOpCl=  0 I1Cent=           0 NGrid=           0
         NMat0=    1 NMatS0=      1 NMatT0=    0 NMatD0=    1 NMtDS0=    0 NMtDT0=    0
 Symmetry not used in FoFCou.
 End of G2Drv F.D. properties file   721 does not exist.
 End of G2Drv F.D. properties file   722 does not exist.
 End of G2Drv F.D. properties file   788 does not exist.
 Leave Link 1110 at Sun Nov 13 04:12:57 2022, MaxMem=   939524096 cpu:       486.6
 (Enter /Local/ce_dana/g09/l1112.exe)
 MP22nd: MDV=     939524096
 DoSCS=T DFT=T ScalE2(SS,OS)=  0.270000  0.270000
 Using stored XC quadrature information.
 This link is doing NAtomX=    11 total of    36 degrees of freedom.
 Using ON3 I/O method in MakUI.
 Frozen-core window:  NFC=   5 NFV=   0.
 Using Ix for Sx.
 Use MO integrals over full window.
 Using OV2 memory method for fx*t*t/D, MaxI=    20 DoOO2=F NP=  10.
 R2 and R3 integrals will be kept in memory, NReq=   554378580.
 FoFCou: FMM=F IPFlag=           0 FMFlag=           0 FMFlg1=           0
         NFxFlg=           0 DoJE=F BraDBF=F KetDBF=F FulRan=T
         wScrn=  0.000000 ICntrl=     600 IOpCl=  0 I1Cent=           0 NGrid=           0
         NMat0=    1 NMatS0=      1 NMatT0=    0 NMatD0=    1 NMtDS0=    0 NMtDT0=    0
 Symmetry not used in FoFCou.
 DD1Dir will call FoFMem   1 times, MxPair=       610
 NAB=   210 NAA=   190 NBB=     0.
 Symmetry is being used.
 FoFJK:  IHMeth= 1 ICntrl=       0 DoSepK=F KAlg= 0 I1Cent=   0 FoldK=F
 IRaf=         0 NMat=  36 IRICut=      90 DoRegI=T DoRafI=T ISym2E= 2.
 R6Disp: Adding Grimme-D3(BJ) dispersion energy 1st derivatives to the gradient.
 Discarding MO integrals.
 Leave Link 1112 at Sun Nov 13 04:16:53 2022, MaxMem=   939524096 cpu:      2015.4
 (Enter /Local/ce_dana/g09/l601.exe)
 Copying SCF densities to generalized density rwf, IOpCl= 0 IROHF=0.

 **********************************************************************

            Population analysis using the SCF density.

 **********************************************************************

 Orbital symmetries:
       Occupied  (A) (A) (A) (A) (A) (A) (A) (A) (A) (A) (A) (A)
                 (A) (A) (A) (A) (A) (A) (A) (A)
       Virtual   (A) (A) (A) (A) (A) (A) (A) (A) (A) (A) (A) (A)
                 (A) (A) (A) (A) (A) (A) (A) (A) (A) (A) (A) (A)
                 (A) (A) (A) (A) (A) (A) (A) (A) (A) (A) (A) (A)
                 (A) (A) (A) (A) (A) (A) (A) (A) (A) (A) (A) (A)
                 (A) (A) (A) (A) (A) (A) (A) (A) (A) (A) (A) (A)
                 (A) (A) (A) (A) (A) (A) (A) (A) (A) (A) (A) (A)
                 (A) (A) (A) (A) (A) (A) (A) (A) (A) (A) (A) (A)
                 (A) (A) (A) (A) (A) (A) (A) (A) (A) (A) (A) (A)
                 (A) (A) (A) (A) (A) (A) (A) (A) (A) (A) (A) (A)
                 (A) (A) (A) (A) (A) (A) (A) (A) (A) (A) (A) (A)
                 (A) (A) (A) (A) (A) (A) (A) (A) (A) (A) (A) (A)
                 (A) (A) (A) (A) (A) (A) (A) (A) (A) (A) (A) (A)
                 (A) (A) (A) (A) (A) (A) (A) (A) (A) (A) (A) (A)
                 (A) (A) (A) (A) (A) (A) (A) (A) (A) (A) (A) (A)
                 (A) (A) (A)
 The electronic state is 1-A.
 Alpha  occ. eigenvalues --  -19.74985 -19.74320 -10.66975 -10.64865 -10.61161
 Alpha  occ. eigenvalues --   -1.20533  -1.17618  -0.89070  -0.79621  -0.66872
 Alpha  occ. eigenvalues --   -0.61392  -0.59911  -0.51719  -0.49681  -0.46685
 Alpha  occ. eigenvalues --   -0.46302  -0.44215  -0.43061  -0.40577  -0.25942
 Alpha virt. eigenvalues --    0.06552   0.09287   0.10109   0.12165   0.13579
 Alpha virt. eigenvalues --    0.17371   0.17595   0.19893   0.21746   0.24299
 Alpha virt. eigenvalues --    0.25825   0.29413   0.30253   0.32175   0.33614
 Alpha virt. eigenvalues --    0.37200   0.40027   0.42021   0.43252   0.45470
 Alpha virt. eigenvalues --    0.46071   0.49102   0.50431   0.51354   0.52573
 Alpha virt. eigenvalues --    0.53397   0.56289   0.57834   0.60641   0.61238
 Alpha virt. eigenvalues --    0.61857   0.66741   0.70259   0.71025   0.75095
 Alpha virt. eigenvalues --    0.79144   0.79512   0.83516   0.90140   0.93645
 Alpha virt. eigenvalues --    0.96266   0.98427   1.02058   1.04565   1.11671
 Alpha virt. eigenvalues --    1.12688   1.16088   1.20569   1.22703   1.32150
 Alpha virt. eigenvalues --    1.34285   1.42942   1.48218   1.51114   1.54554
 Alpha virt. eigenvalues --    1.57106   1.60803   1.62596   1.64211   1.66537
 Alpha virt. eigenvalues --    1.67243   1.70839   1.74549   1.78211   1.81630
 Alpha virt. eigenvalues --    1.85631   1.89696   1.93745   1.94882   1.95740
 Alpha virt. eigenvalues --    1.99784   2.03597   2.07571   2.11312   2.21052
 Alpha virt. eigenvalues --    2.21550   2.22199   2.24583   2.25603   2.29884
 Alpha virt. eigenvalues --    2.36233   2.37723   2.40572   2.41542   2.46363
 Alpha virt. eigenvalues --    2.48973   2.52502   2.56222   2.59556   2.62984
 Alpha virt. eigenvalues --    2.64417   2.70726   2.70903   2.75480   2.82648
 Alpha virt. eigenvalues --    2.84035   2.86099   2.87905   2.93928   2.95567
 Alpha virt. eigenvalues --    3.04411   3.08377   3.08918   3.10168   3.11810
 Alpha virt. eigenvalues --    3.17920   3.21828   3.24933   3.27077   3.29078
 Alpha virt. eigenvalues --    3.33521   3.35731   3.39004   3.39515   3.42618
 Alpha virt. eigenvalues --    3.45676   3.48872   3.49756   3.52639   3.57317
 Alpha virt. eigenvalues --    3.59396   3.75696   3.80356   3.81143   3.88256
 Alpha virt. eigenvalues --    3.93869   3.99755   4.04726   4.05941   4.14707
 Alpha virt. eigenvalues --    4.24871   4.45382   4.48371   4.50684   4.58832
 Alpha virt. eigenvalues --    4.61000   4.64015   4.70498   4.79065   4.89793
 Alpha virt. eigenvalues --    4.98205   5.06030   5.44093   5.45833   5.52301
 Alpha virt. eigenvalues --    5.62981   5.66483   5.71270   5.86968   5.96660
 Alpha virt. eigenvalues --    6.03114   6.06550   6.18795   6.39639   6.50667
 Alpha virt. eigenvalues --    6.54594   6.63903   6.67910   6.83261   6.92873
 Alpha virt. eigenvalues --    6.97853   7.01617   7.16622   7.19296   7.33037
 Alpha virt. eigenvalues --    7.46538  22.78938  22.87299  23.45807  44.27391
 Alpha virt. eigenvalues --   44.58354
          Condensed to atoms (all electrons):
               1          2          3          4          5          6
     1  C    4.853470   0.323838  -0.051941  -0.052579  -0.002182   0.403731
     2  C    0.323838   5.082447   0.333764   0.442952  -0.120087  -0.030300
     3  O   -0.051941   0.333764   7.953579  -0.090703  -0.002002   0.005131
     4  C   -0.052579   0.442952  -0.090703   5.063938   0.285028  -0.012528
     5  O   -0.002182  -0.120087  -0.002002   0.285028   8.074329  -0.000214
     6  H    0.403731  -0.030300   0.005131  -0.012528  -0.000214   0.581735
     7  H    0.401930  -0.041920   0.003984   0.002277   0.000448  -0.043779
     8  H    0.436545  -0.066068   0.003325   0.006833   0.000218  -0.022774
     9  H    0.005065  -0.049003   0.309287  -0.003343   0.017881  -0.000197
    10  H   -0.004801  -0.093056   0.005246   0.453502  -0.046947  -0.000599
    11  H   -0.000375   0.003293   0.000520  -0.045490   0.300492  -0.000127
               7          8          9         10         11
     1  C    0.401930   0.436545   0.005065  -0.004801  -0.000375
     2  C   -0.041920  -0.066068  -0.049003  -0.093056   0.003293
     3  O    0.003984   0.003325   0.309287   0.005246   0.000520
     4  C    0.002277   0.006833  -0.003343   0.453502  -0.045490
     5  O    0.000448   0.000218   0.017881  -0.046947   0.300492
     6  H   -0.043779  -0.022774  -0.000197  -0.000599  -0.000127
     7  H    0.582500  -0.025232  -0.000203   0.000832   0.000212
     8  H   -0.025232   0.558423  -0.000567  -0.001411  -0.000029
     9  H   -0.000203  -0.000567   0.382601   0.002157  -0.001667
    10  H    0.000832  -0.001411   0.002157   0.583904  -0.004656
    11  H    0.000212  -0.000029  -0.001667  -0.004656   0.415644
 Mulliken charges:
               1
     1  C   -0.312700
     2  C    0.214140
     3  O   -0.470190
     4  C   -0.049888
     5  O   -0.506965
     6  H    0.119921
     7  H    0.118952
     8  H    0.110735
     9  H    0.337987
    10  H    0.105827
    11  H    0.332182
 Sum of Mulliken charges =   0.00000
 Mulliken charges with hydrogens summed into heavy atoms:
               1
     1  C    0.036907
     2  C    0.214140
     3  O   -0.132203
     4  C    0.055939
     5  O   -0.174783
 APT charges:
               1
     1  C    0.063429
     2  C    0.467038
     3  O   -0.633656
     4  C    0.154051
     5  O   -0.644828
     6  H   -0.013078
     7  H   -0.008524
     8  H    0.006413
     9  H    0.280780
    10  H    0.033622
    11  H    0.294754
 Sum of APT charges =   0.00000
 APT charges with hydrogens summed into heavy atoms:
               1
     1  C    0.048240
     2  C    0.467038
     3  O   -0.352876
     4  C    0.187673
     5  O   -0.350074
 Electronic spatial extent (au):  <R**2>=            444.1979
 Charge=              0.0000 electrons
 Dipole moment (field-independent basis, Debye):
    X=              0.8789    Y=             -1.6077    Z=              1.0355  Tot=              2.1046
 Quadrupole moment (field-independent basis, Debye-Ang):
   XX=            -26.5078   YY=            -29.4292   ZZ=            -31.5422
   XY=              0.6688   XZ=              3.2083   YZ=             -0.5229
 Traceless Quadrupole moment (field-independent basis, Debye-Ang):
   XX=              2.6519   YY=             -0.2695   ZZ=             -2.3825
   XY=              0.6688   XZ=              3.2083   YZ=             -0.5229
 Octapole moment (field-independent basis, Debye-Ang**2):
  XXX=             15.6798  YYY=              2.2660  ZZZ=              0.4322  XYY=              9.2943
  XXY=             -3.7068  XXZ=              8.5315  XZZ=              2.4192  YZZ=              2.5968
  YYZ=              0.1590  XYZ=             -1.4426
 Hexadecapole moment (field-independent basis, Debye-Ang**3):
 XXXX=           -324.6689 YYYY=           -142.6459 ZZZZ=            -40.1783 XXXY=            -16.6730
 XXXZ=             22.8512 YYYX=              6.0922 YYYZ=             -0.2542 ZZZX=              2.3193
 ZZZY=             -0.3053 XXYY=            -83.6633 XXZZ=            -61.9864 YYZZ=            -34.7248
 XXYZ=             -3.8407 YYXZ=              0.9473 ZZXY=             -1.6776
 N-N= 1.778518961837D+02 E-N=-9.846649846115D+02  KE= 2.670941502780D+02
  Exact polarizability:  58.302  -4.021  45.398   1.085  -0.316  32.899
 Approx polarizability:  60.257  -7.098  51.154   1.067  -0.653  39.681
 No NMR shielding tensors so no spin-rotation constants.
 Leave Link  601 at Sun Nov 13 04:16:54 2022, MaxMem=   939524096 cpu:         1.8
 (Enter /Local/ce_dana/g09/l701.exe)
 Compute integral second derivatives.
 ... and contract with generalized density number  2.
 R6Disp: Adding Grimme-D3(BJ) dispersion energy 2nd derivatives to the Hessian.
   1 Symmetry operations used in ECPInt.
 ECPInt:  NShTT=    3160 NPrTT=    9444 LenC2=    3133 LenP2D=    7875.
 LDataN:  DoStor=T MaxTD1= 8 Len=  415
 Leave Link  701 at Sun Nov 13 04:16:54 2022, MaxMem=   939524096 cpu:         5.8
 (Enter /Local/ce_dana/g09/l702.exe)
 L702 exits ... SP integral derivatives will be done elsewhere.
 Leave Link  702 at Sun Nov 13 04:16:54 2022, MaxMem=   939524096 cpu:         0.0
 (Enter /Local/ce_dana/g09/l703.exe)
 Compute integral second derivatives, UseDBF=F ICtDFT=           0.
 Integral derivatives from FoFJK, PRISM(SPDF).
 Calling FoFJK, ICntrl=  10100127 FMM=F ISym2X=0 I1Cent= 0 IOpClX= 0 NMat=1 NMatS=1 NMatT=0.
 FoFJK:  IHMeth= 1 ICntrl=10100127 DoSepK=F KAlg= 0 I1Cent=   0 FoldK=F
 IRaf=         0 NMat=   1 IRICut=       1 DoRegI=T DoRafI=F ISym2E= 0.
 FoFCou: FMM=F IPFlag=           0 FMFlag=      100000 FMFlg1=         800
         NFxFlg=           0 DoJE=F BraDBF=F KetDBF=F FulRan=T
         wScrn=  0.000000 ICntrl=10100127 IOpCl=  0 I1Cent=           0 NGrid=           0
         NMat0=    1 NMatS0=      1 NMatT0=    0 NMatD0=    1 NMtDS0=    0 NMtDT0=    0
 Symmetry not used in FoFCou.
 Leave Link  703 at Sun Nov 13 04:19:16 2022, MaxMem=   939524096 cpu:      1418.7
 (Enter /Local/ce_dana/g09/l716.exe)
 Dipole        = 3.70403022D-01-5.96113549D-01 3.99228861D-01
 Polarizability= 5.83024192D+01-4.02075236D+00 4.53979947D+01
                 1.08503998D+00-3.16057118D-01 3.28993507D+01
 ***** Axes restored to original set *****
 -------------------------------------------------------------------
 Center     Atomic                   Forces (Hartrees/Bohr)
 Number     Number              X              Y              Z
 -------------------------------------------------------------------
      1        6           0.000000328    0.000000407   -0.000000043
      2        6          -0.000000439    0.000000661    0.000000156
      3        8          -0.000000238   -0.000000662    0.000000161
      4        6           0.000000286    0.000000322   -0.000000122
      5        8          -0.000000129    0.000000109   -0.000000117
      6        1           0.000000031    0.000000113    0.000000186
      7        1          -0.000000021   -0.000000190    0.000000126
      8        1          -0.000000051   -0.000000209   -0.000000248
      9        1           0.000000128   -0.000000045    0.000000337
     10        1          -0.000000027   -0.000000263   -0.000000403
     11        1           0.000000131   -0.000000243   -0.000000033
 -------------------------------------------------------------------
 Cartesian Forces:  Max     0.000000662 RMS     0.000000266
 Force constants in Cartesian coordinates: 
                1             2             3             4             5 
      1  0.510510D+00
      2 -0.458202D-02  0.594241D+00
      3 -0.789759D-02  0.100552D-01  0.547254D+00
      4 -0.231277D+00 -0.108365D-01 -0.318262D-01  0.763250D+00
      5 -0.210954D-01 -0.872880D-01 -0.739261D-02 -0.147533D+00  0.687216D+00
      6 -0.327764D-01 -0.605068D-02 -0.785380D-01  0.723790D-01  0.888606D-01
      7 -0.904913D-02 -0.438946D-01 -0.112027D-01 -0.115832D+00 -0.487254D-01
      8 -0.757296D-02 -0.146943D-01 -0.434696D-02 -0.139094D-02 -0.280760D+00
      9 -0.392024D-02 -0.115764D-01 -0.449051D-03 -0.130264D-01 -0.579044D-01
     10 -0.237475D-01  0.145332D-01  0.856826D-04 -0.311426D+00  0.232531D+00
     11 -0.272396D-02  0.109801D-01  0.185704D-02  0.195755D+00 -0.292967D+00
     12 -0.471275D-02  0.541235D-02  0.218115D-03  0.552623D-04 -0.157204D-01
     13  0.275577D-02  0.714912D-02 -0.321155D-02 -0.561024D-01 -0.247638D-01
     14  0.229637D-02 -0.169230D-02 -0.430736D-02  0.238789D-01  0.319109D-02
     15 -0.215139D-02 -0.125488D-02  0.110155D-01 -0.681509D-02 -0.281599D-02
     16 -0.650331D-01  0.391231D-01 -0.577063D-01 -0.154327D-01  0.228893D-01
     17  0.389920D-01 -0.130001D+00  0.115080D+00  0.796424D-03  0.273781D-02
     18 -0.570409D-01  0.115481D+00 -0.208109D+00 -0.381787D-02  0.375955D-02
     19 -0.129577D+00  0.356324D-01  0.117613D+00 -0.250378D-01  0.120879D-01
     20  0.356858D-01 -0.641433D-01 -0.530221D-01 -0.134071D-02  0.253767D-03
     21  0.117376D+00 -0.532657D-01 -0.210410D+00 -0.502531D-02  0.192497D-02
     22 -0.555197D-01 -0.359733D-01 -0.867259D-02  0.104372D-02 -0.334745D-01
     23 -0.404992D-01 -0.300739D+00 -0.576206D-01  0.935415D-03 -0.568960D-02
     24 -0.947580D-02 -0.568030D-01 -0.592453D-01  0.823552D-03 -0.663103D-02
     25  0.157373D-02 -0.202824D-02 -0.802952D-03 -0.142503D-01 -0.856231D-02
     26  0.168059D-03 -0.683485D-02 -0.167105D-02 -0.490585D-01 -0.738492D-02
     27 -0.690213D-04 -0.237791D-02  0.132443D-02 -0.131843D-01 -0.396378D-02
     28  0.468860D-03  0.471135D-03  0.116162D-02  0.919732D-02  0.186595D-01
     29 -0.771865D-03 -0.241574D-03  0.969376D-03 -0.852338D-02 -0.153067D-01
     30  0.525969D-03  0.761474D-03 -0.428787D-02  0.116544D-03  0.271029D-02
     31 -0.110508D-02  0.405644D-03  0.245981D-02 -0.413287D-02 -0.201297D-02
     32  0.103289D-03  0.413730D-03  0.399123D-03 -0.268221D-02 -0.400354D-02
     33  0.142304D-03 -0.381081D-03  0.122705D-02  0.320720D-03 -0.282727D-02
                6             7             8             9            10 
      6  0.195144D+00
      7 -0.218791D-01  0.587120D+00
      8 -0.509733D-01  0.517623D-01  0.397134D+00
      9 -0.620921D-01  0.102774D+00  0.867233D-01  0.718439D-01
     10  0.725119D-03  0.571429D-02 -0.170484D-01 -0.270337D-02  0.665131D+00
     11 -0.168095D-01  0.182166D-01 -0.696979D-01 -0.157496D-01 -0.144641D+00
     12 -0.573490D-01  0.297026D-02 -0.191350D-01  0.115980D-01  0.667684D-01
     13 -0.108062D-01  0.655930D-02  0.776826D-02  0.410914D-02 -0.253357D+00
     14  0.250013D-02  0.686470D-02  0.812010D-02  0.513896D-02 -0.376536D-01
     15  0.564599D-02  0.770031D-03  0.317590D-02 -0.493097D-02 -0.512673D-01
     16 -0.276988D-01  0.257543D-02  0.432754D-04  0.165559D-02  0.462677D-03
     17 -0.602290D-02  0.388519D-04  0.872760D-03  0.276090D-03 -0.115244D-03
     18 -0.338246D-02  0.355790D-03 -0.365130D-03  0.164381D-03  0.857328D-03
     19  0.262455D-01  0.298610D-02  0.151891D-03 -0.625956D-03 -0.578960D-03
     20  0.527293D-02  0.346473D-04  0.662557D-03  0.469136D-04 -0.166718D-03
     21  0.892042D-02  0.686438D-03  0.748288D-03  0.000000D+00 -0.962325D-03
     22 -0.599662D-02 -0.787228D-02 -0.829441D-03 -0.180576D-02  0.373593D-05
     23 -0.442617D-03 -0.167317D-02  0.132057D-02 -0.178086D-03  0.143694D-02
     24 -0.447039D-02 -0.205785D-02 -0.186341D-03  0.893649D-03  0.432418D-03
     25 -0.466265D-02 -0.469989D+00 -0.361728D-01 -0.835831D-01  0.470617D-02
     26 -0.999563D-02  0.115136D-01 -0.453839D-01 -0.578070D-02 -0.443701D-02
     27 -0.268909D-02 -0.728045D-01 -0.131689D-01 -0.258515D-01 -0.352978D-03
     28  0.690776D-02 -0.236072D-02  0.513629D-02 -0.131430D-02 -0.587951D-01
     29 -0.560799D-02  0.352921D-02  0.471219D-03 -0.126810D-02 -0.327488D-01
     30 -0.139812D-02 -0.228064D-02 -0.299157D-02  0.960512D-02 -0.130695D-01
     31 -0.243760D-02  0.147307D-03 -0.184746D-02 -0.155972D-02 -0.281143D-01
     32 -0.731126D-03  0.233329D-02  0.195492D-02  0.271923D-03 -0.116903D-01
     33  0.209040D-03  0.266819D-02  0.519695D-03 -0.780514D-03 -0.513446D-03
               11            12            13            14            15 
     11  0.775917D+00
     12  0.117267D+00  0.139982D+00
     13 -0.613290D-01 -0.280077D-01  0.437499D+00
     14 -0.107540D+00  0.335055D-02 -0.668040D-01  0.334580D+00
     15 -0.731835D-02 -0.480449D-01  0.188338D+00 -0.208192D+00  0.241648D+00
     16 -0.271440D-02 -0.217311D-02 -0.385351D-02 -0.468586D-03  0.200037D-02
     17  0.298234D-03  0.223313D-03 -0.280434D-03  0.211830D-03 -0.150288D-04
     18 -0.113458D-02  0.237185D-03 -0.903747D-03 -0.264094D-04 -0.104826D-03
     19 -0.340598D-02  0.162368D-03 -0.174267D-02  0.115881D-02 -0.232523D-02
     20  0.593462D-04 -0.691342D-03 -0.742053D-04  0.528650D-04  0.365950D-03
     21 -0.289604D-03  0.456371D-03  0.105449D-03  0.423714D-03 -0.807528D-03
     22  0.491060D-03  0.361316D-04  0.579881D-03  0.280335D-03  0.424662D-03
     23 -0.175237D-03  0.924883D-04 -0.631414D-03  0.454969D-03  0.878318D-04
     24  0.140892D-03 -0.301161D-03 -0.314930D-05  0.192519D-03 -0.171431D-03
     25  0.730453D-02  0.229615D-02 -0.295148D-02 -0.181755D-02  0.574427D-03
     26 -0.526233D-02 -0.217756D-02  0.869050D-03  0.308190D-02  0.367385D-03
     27  0.336397D-03  0.638244D-03 -0.829329D-04 -0.888383D-03 -0.318251D-02
     28 -0.342026D-01 -0.141083D-01 -0.160583D-01 -0.334558D-01 -0.105032D-01
     29 -0.320787D+00 -0.772662D-01 -0.585404D-02 -0.136261D-02 -0.259214D-02
     30 -0.823643D-01 -0.441602D-01 -0.258022D-02 -0.281427D-02 -0.897690D-03
     31  0.272500D-01 -0.232867D-01 -0.113329D+00  0.105720D+00 -0.119045D+00
     32  0.917472D-02 -0.113547D-01  0.143950D+00 -0.239098D+00  0.218191D+00
     33  0.406502D-02 -0.327482D-02 -0.146957D+00  0.204622D+00 -0.200170D+00
               16            17            18            19            20 
     16  0.748550D-01
     17 -0.452971D-01  0.136851D+00
     18  0.642262D-01 -0.127543D+00  0.224402D+00
     19  0.541618D-02 -0.292822D-02 -0.714061D-02  0.145804D+00
     20 -0.111963D-01  0.464265D-02  0.149481D-01 -0.417301D-01  0.641347D-01
     21  0.144705D-01 -0.710991D-02 -0.205831D-01 -0.128436D+00  0.576974D-01
     22  0.553851D-03  0.889908D-02  0.337404D-02  0.310146D-02  0.184618D-01
     23 -0.268026D-02 -0.156026D-01 -0.486301D-02 -0.932228D-03 -0.610501D-02
     24  0.503151D-02  0.245163D-01  0.700542D-02 -0.558200D-02 -0.241291D-01
     25 -0.748816D-04  0.152612D-03 -0.186844D-04  0.226176D-03  0.155433D-03
     26  0.391195D-03  0.681669D-04 -0.531684D-04  0.507830D-03  0.610854D-04
     27  0.527671D-03  0.808084D-04  0.240368D-03 -0.373547D-03 -0.923347D-05
     28  0.695342D-04 -0.213053D-03  0.292980D-05 -0.126365D-03  0.119930D-03
     29  0.165074D-03 -0.119860D-04 -0.562167D-04 -0.158967D-03  0.361341D-03
     30 -0.509668D-03  0.550327D-03  0.220614D-03  0.728302D-03 -0.410370D-03
     31  0.461486D-03 -0.449432D-04  0.105503D-03 -0.470668D-03  0.503487D-04
     32 -0.255375D-03 -0.661387D-04 -0.146829D-03 -0.383344D-03  0.199490D-04
     33  0.176048D-03 -0.361112D-04 -0.910432D-04 -0.265899D-03 -0.691695D-04
               21            22            23            24            25 
     21  0.226916D+00
     22  0.219883D-02  0.588330D-01
     23 -0.510014D-03  0.435039D-01  0.326209D+00
     24 -0.466094D-02  0.111650D-01  0.634042D-01  0.598100D-01
     25  0.157914D-04 -0.453119D-03  0.437031D-03 -0.156296D-03  0.482782D+00
     26  0.195195D-03 -0.177742D-02 -0.160136D-03 -0.543825D-03  0.413638D-01
     27  0.114656D-03 -0.657786D-03 -0.109454D-03  0.664653D-03  0.870745D-01
     28 -0.120850D-03 -0.389403D-03  0.784004D-04 -0.138583D-03 -0.148082D-02
     29  0.863980D-04  0.512968D-03  0.547795D-03  0.716475D-04 -0.401331D-04
     30  0.149775D-03  0.100140D-03  0.150110D-03  0.500595D-03  0.293380D-03
     31 -0.308684D-03  0.118858D-03  0.246232D-04 -0.388039D-04 -0.882585D-04
     32  0.992487D-04 -0.945101D-04 -0.605282D-04 -0.323031D-04 -0.792438D-03
     33 -0.943530D-04 -0.166048D-03 -0.108177D-04 -0.251371D-04 -0.103054D-02
               26            27            28            29            30 
     26  0.599233D-01
     27  0.183369D-01  0.289373D-01
     28 -0.142553D-04 -0.937100D-04  0.680178D-01
     29  0.760954D-03  0.290478D-03  0.444262D-01  0.335367D+00
     30  0.901452D-04 -0.829939D-03  0.172201D-01  0.847282D-01  0.409372D-01
     31  0.473657D-03  0.166433D-04  0.145716D-02 -0.536292D-03 -0.544342D-03
     32  0.113073D-02  0.147311D-02 -0.100575D-02  0.202072D-03 -0.410032D-03
     33  0.123231D-02  0.633340D-03  0.986612D-03  0.644565D-03  0.160492D-03
               31            32            33 
     31  0.145055D+00
     32 -0.129483D+00  0.230332D+00
     33  0.144639D+00 -0.207760D+00  0.202205D+00
 FormGI is forming the generalized inverse of G from B-inverse, IUseBI=4.
 Force constants in internal coordinates: 
                1             2             3             4             5 
      1  0.325256D+00
      2  0.774780D-02  0.338865D+00
      3  0.751929D-02  0.333566D-02  0.339460D+00
      4  0.293786D-02  0.216687D-02  0.205909D-02  0.347513D+00
      5  0.179950D-01  0.334590D-03  0.426614D-03  0.133244D-03  0.406987D+00
      6  0.130569D-01 -0.126826D-02 -0.910743D-03  0.000000D+00  0.312466D-01
      7 -0.589297D-03  0.656723D-04 -0.303281D-04 -0.271653D-03  0.111821D-01
      8  0.179569D-02  0.137958D-02  0.117750D-02  0.321860D-03  0.130295D-01
      9  0.204224D-03 -0.402752D-04 -0.132644D-03  0.659664D-03 -0.189855D-02
     10 -0.147080D-03 -0.203103D-03 -0.138853D-03 -0.407479D-04 -0.187899D-02
     11  0.158291D-01  0.371595D-02 -0.680522D-02 -0.676460D-02 -0.364437D-02
     12  0.155379D-01 -0.670714D-02  0.404607D-02 -0.657465D-02 -0.334542D-02
     13  0.138580D-01 -0.601755D-02 -0.598074D-02  0.471936D-02  0.841108D-02
     14 -0.176286D-01  0.584236D-02  0.573569D-02 -0.901988D-03  0.135976D-02
     15 -0.148241D-01  0.468429D-02 -0.107983D-02  0.490553D-02 -0.145804D-02
     16 -0.144788D-01 -0.109046D-02  0.451061D-02  0.474743D-02 -0.150065D-02
     17  0.126064D-01 -0.319788D-02 -0.355765D-02  0.611783D-02  0.212746D-01
     18  0.152147D-01  0.370900D-02  0.402010D-02 -0.549527D-02 -0.442733D-01
     19 -0.278174D-01 -0.518332D-03 -0.455092D-03 -0.622860D-03  0.230001D-01
     20  0.433808D-02 -0.186020D-03 -0.982590D-04  0.105144D-02  0.504854D-01
     21  0.377474D-02  0.289947D-03  0.296128D-03  0.900331D-03 -0.270867D-01
     22 -0.217921D-02 -0.239995D-03 -0.233542D-03 -0.335839D-03  0.169092D-01
     23 -0.160575D-02 -0.729064D-04 -0.368815D-04 -0.566500D-03  0.100987D-01
     24  0.111679D-02 -0.224695D-03  0.350028D-03  0.230018D-04  0.786340D-03
     25 -0.100185D-02 -0.352017D-03  0.577106D-02 -0.482777D-02 -0.117108D-02
     26 -0.108937D-02  0.265476D-03  0.516169D-02 -0.480773D-02 -0.152559D-02
     27  0.112137D-02 -0.569205D-02  0.389233D-03  0.466635D-02  0.153520D-02
     28  0.103386D-02 -0.507455D-02 -0.220136D-03  0.468638D-02  0.118068D-02
     29 -0.277888D-04  0.402672D-02 -0.402218D-02 -0.343687D-04  0.124575D-03
     30 -0.115308D-03  0.464421D-02 -0.463155D-02 -0.143339D-04 -0.229940D-03
     31 -0.302149D-03  0.537872D-03 -0.602138D-03  0.368992D-04 -0.808353D-03
     32  0.140679D-03 -0.175947D-04  0.233512D-04 -0.272455D-04 -0.105185D-02
     33 -0.620960D-05 -0.101491D-02  0.100428D-02 -0.972188D-05  0.125847D-03
     34  0.193073D-03 -0.726198D-03  0.684478D-03  0.429257D-04  0.673029D-03
     35 -0.426962D-03 -0.335438D-03  0.367547D-03 -0.323454D-04 -0.185373D-03
     36 -0.227680D-03 -0.467235D-04  0.477497D-04  0.203022D-04  0.361809D-03
     37  0.130346D-04  0.972877D-05 -0.318865D-03 -0.534042D-04 -0.346010D-02
     38 -0.227735D-03 -0.274867D-03 -0.276848D-04 -0.957730D-04 -0.346245D-02
                6             7             8             9            10 
      6  0.607146D+00
      7 -0.340799D-02  0.502432D+00
      8  0.287462D-01 -0.353167D-02  0.375609D+00
      9  0.282103D-02  0.154149D-03  0.115644D-01  0.365522D+00
     10 -0.138306D-02 -0.248732D-03  0.193928D-02 -0.382522D-03  0.523288D+00
     11 -0.134471D-03 -0.326690D-03  0.407557D-02  0.117376D-04 -0.753000D-03
     12  0.992881D-03 -0.527689D-03  0.246775D-02  0.100692D-03  0.508217D-03
     13  0.702851D-03  0.124588D-02 -0.252065D-02  0.438485D-03  0.538629D-04
     14 -0.505734D-03  0.552597D-04 -0.250075D-02 -0.178560D-04  0.944652D-04
     15 -0.423418D-03 -0.274090D-03 -0.109355D-02 -0.232334D-03  0.183397D-03
     16 -0.694308D-03 -0.205664D-03 -0.521513D-03 -0.324065D-03 -0.820173D-04
     17 -0.305558D-01  0.372310D-02 -0.248175D-02 -0.392840D-03  0.325257D-04
     18  0.185049D-02 -0.825691D-03  0.787528D-02 -0.281545D-02  0.128140D-03
     19  0.287136D-01 -0.289800D-02 -0.540195D-02  0.320584D-02 -0.162880D-03
     20 -0.350281D-02  0.356742D-01  0.538322D-02 -0.137980D-02  0.266292D-03
     21  0.283710D-01  0.372340D-02  0.444037D-01 -0.104242D-01  0.358241D-02
     22  0.161272D-03 -0.334576D-02 -0.463368D-01  0.797119D-02  0.376230D-05
     23 -0.283473D-01 -0.378385D-03  0.203875D-02  0.251944D-02 -0.351860D-02
     24  0.346437D-02 -0.458938D-03  0.546373D-01  0.781446D-03  0.157873D-01
     25  0.508667D-03 -0.288692D-03  0.114270D-03 -0.111850D-03  0.118493D-04
     26 -0.383184D-03 -0.220260D-03  0.875516D-03  0.666771D-04  0.199550D-03
     27  0.594113D-03  0.179761D-03 -0.897409D-03 -0.160475D-03  0.469793D-04
     28 -0.297738D-03  0.248194D-03 -0.136163D-03  0.180524D-04  0.234680D-03
     29  0.350676D-03 -0.288217D-04 -0.223050D-03 -0.107212D-03 -0.220350D-03
     30 -0.541175D-03  0.396110D-04  0.538197D-03  0.713149D-04 -0.326487D-04
     31 -0.190648D-03  0.613589D-03  0.555665D-03  0.388008D-04  0.576277D-03
     32  0.455060D-03  0.563356D-03 -0.613622D-04 -0.183685D-03  0.398409D-03
     33  0.957958D-03 -0.643643D-04  0.400688D-03  0.505187D-03  0.184905D-02
     34  0.122371D-03 -0.530335D-04 -0.126553D-02 -0.412467D-03  0.118907D-02
     35  0.447063D-03 -0.400381D-04  0.118682D-02  0.728080D-03  0.204920D-02
     36 -0.388523D-03 -0.287073D-04 -0.479399D-03 -0.189574D-03  0.138923D-02
     37  0.487261D-03  0.854924D-03  0.346252D-02  0.416208D-05  0.180726D-02
     38  0.267031D-02  0.663047D-03  0.217970D-02  0.122724D-02  0.260484D-02
               11            12            13            14            15 
     11  0.105369D+00
     12 -0.190724D-01  0.105580D+00
     13 -0.210476D-01 -0.211090D-01  0.105547D+00
     14 -0.386347D-01 -0.389383D-01  0.101337D-01  0.560040D-01
     15 -0.382127D-01  0.982423D-02 -0.386740D-01  0.686626D-02  0.552397D-01
     16  0.979456D-02 -0.382263D-01 -0.383928D-01  0.693139D-02  0.751711D-02
     17 -0.105799D-01 -0.112581D-01  0.200633D-01  0.670043D-02 -0.268890D-02
     18  0.102720D-01  0.108165D-01 -0.128313D-01 -0.779273D-02 -0.233596D-03
     19  0.273017D-03  0.476463D-03 -0.723156D-02  0.109230D-02  0.293554D-02
     20 -0.203556D-02 -0.190751D-02  0.543368D-02  0.855451D-03 -0.123259D-02
     21  0.155097D-02  0.209110D-02 -0.146013D-02 -0.137979D-02 -0.362595D-03
     22 -0.822721D-03 -0.104856D-02  0.141556D-02  0.610005D-03 -0.121267D-03
     23 -0.953699D-03 -0.822033D-03  0.429127D-04  0.771604D-03  0.543010D-03
     24 -0.879653D-03  0.177269D-02 -0.310630D-03 -0.375149D-03  0.105355D-03
     25 -0.292601D-02  0.919088D-02 -0.696280D-02  0.102860D-01 -0.842776D-02
     26  0.247398D-04  0.627152D-02 -0.696859D-02  0.102639D-01 -0.954678D-02
     27 -0.913361D-02  0.289799D-02  0.696904D-02 -0.103226D-01  0.838306D-03
     28 -0.618286D-02 -0.213708D-04  0.696325D-02 -0.103447D-01 -0.280713D-03
     29  0.491335D-02 -0.497989D-02  0.293170D-04  0.298943D-04  0.102137D-01
     30  0.786409D-02 -0.789925D-02  0.235259D-04  0.776864D-05  0.909467D-02
     31  0.187988D-02 -0.191555D-02 -0.395604D-04  0.373833D-04 -0.943201D-03
     32 -0.863884D-03  0.983381D-03 -0.929841D-04 -0.207070D-04  0.106416D-03
     33 -0.589887D-02  0.566611D-02  0.820278D-04  0.988193D-04  0.134170D-02
     34 -0.304289D-02  0.295389D-02  0.107888D-03  0.393041D-04  0.575447D-03
     35 -0.265720D-02  0.260274D-02 -0.115116D-03  0.424218D-04  0.181657D-03
     36  0.198776D-03 -0.109485D-03 -0.892554D-04 -0.170935D-04 -0.584592D-03
     37  0.125686D-02 -0.147982D-02 -0.190157D-03  0.701679D-04 -0.166881D-03
     38 -0.145451D-02  0.107010D-02 -0.132341D-03  0.125412D-03  0.526185D-03
               16            17            18            19            20 
     16  0.550354D-01
     17 -0.247567D-02  0.145340D+00
     18 -0.315730D-03 -0.554332D-01  0.126952D+00
     19  0.277788D-02 -0.899089D-01 -0.715127D-01  0.161419D+00
     20 -0.124388D-02  0.212435D-01 -0.572789D-02 -0.155118D-01  0.197097D+00
     21 -0.489302D-03 -0.662425D-03  0.101361D-01 -0.947247D-02 -0.149861D-01
     22 -0.390797D-04 -0.515106D-02 -0.853372D-02  0.136841D-01  0.745866D-02
     23  0.474056D-03  0.578474D-02 -0.158956D-02 -0.419458D-02  0.749782D-02
     24 -0.328212D-03 -0.186185D-02  0.301394D-02 -0.114503D-02  0.369694D-02
     25 -0.869319D-03 -0.317320D-02  0.181601D-02  0.140633D-02 -0.583402D-03
     26  0.248441D-03 -0.242128D-02  0.200583D-02  0.377951D-03 -0.807337D-03
     27  0.847024D-02  0.224842D-02 -0.178255D-02 -0.416845D-03  0.833899D-03
     28  0.958800D-02  0.300035D-02 -0.159273D-02 -0.144522D-02  0.609964D-03
     29 -0.102247D-01 -0.339545D-03 -0.130771D-03  0.513044D-03  0.993723D-04
     30 -0.910695D-02  0.412376D-03  0.590457D-04 -0.515334D-03 -0.124563D-03
     31  0.986783D-03  0.378609D-03 -0.624463D-03  0.199728D-03 -0.111293D-02
     32 -0.111949D-03 -0.133008D-03  0.912122D-03 -0.741925D-03 -0.826651D-03
     33 -0.129025D-02  0.146165D-03  0.111773D-03 -0.221202D-03 -0.288859D-03
     34 -0.637707D-03  0.177507D-03 -0.103951D-04 -0.144559D-03 -0.269187D-03
     35 -0.482062D-04 -0.761688D-03  0.307671D-04  0.674499D-03 -0.801526D-03
     36  0.604334D-03 -0.730346D-03 -0.914008D-04  0.751142D-03 -0.781854D-03
     37  0.526492D-03 -0.105329D-04  0.509395D-03 -0.507153D-03 -0.281692D-02
     38 -0.117837D-03 -0.629303D-03  0.193692D-03  0.440702D-03 -0.275595D-02
               21            22            23            24            25 
     21  0.144978D+00
     22 -0.634206D-01  0.907728D-01
     23 -0.811907D-01 -0.273582D-01  0.108316D+00
     24  0.157649D-01 -0.664961D-02 -0.893955D-02  0.171293D+00
     25  0.333777D-03 -0.156976D-03 -0.900527D-04  0.674622D-03  0.140808D-01
     26  0.318027D-03 -0.212487D-03 -0.114384D-03  0.940443D-04  0.993872D-02
     27 -0.246278D-03  0.263444D-03  0.698372D-04  0.574651D-03 -0.260321D-02
     28 -0.262028D-03  0.207933D-03  0.455056D-04 -0.592589D-05 -0.674528D-02
     29 -0.570414D-04  0.784751D-04 -0.105854D-04  0.207310D-04 -0.302099D-02
     30 -0.727918D-04  0.229638D-04 -0.349170D-04 -0.559846D-03 -0.716306D-02
     31  0.270185D-03 -0.131577D-03 -0.121457D-04 -0.126796D-02 -0.229521D-02
     32  0.452421D-03 -0.264242D-03  0.301005D-04 -0.673783D-03  0.168935D-02
     33  0.772525D-03 -0.103758D-02  0.147526D-02  0.303838D-02  0.284613D-02
     34  0.776762D-04  0.932388D-03 -0.138723D-02  0.127527D-02  0.176839D-02
     35  0.675646D-03 -0.943204D-03  0.137532D-02  0.241577D-02 -0.157461D-02
     36 -0.192019D-04  0.102676D-02 -0.148718D-02  0.652666D-03 -0.265235D-02
     37  0.142434D-02 -0.314829D-02  0.909585D-03 -0.117518D-02 -0.640411D-03
     38  0.225569D-02  0.173031D-02 -0.328384D-02  0.535904D-03  0.376801D-03
               26            27            28            29            30 
     26  0.130958D-01
     27 -0.672985D-02  0.140758D-01
     28 -0.357280D-02  0.994920D-02  0.131217D-01
     29 -0.662078D-02 -0.300313D-02 -0.660292D-02  0.130737D-01
     30 -0.346373D-02 -0.712977D-02 -0.343044D-02  0.947394D-02  0.131733D-01
     31  0.158411D-02 -0.231407D-02  0.156525D-02 -0.226254D-02  0.161678D-02
     32 -0.143365D-02  0.163750D-02 -0.148551D-02  0.119049D-02 -0.193252D-02
     33 -0.243759D-03  0.285470D-02 -0.235186D-03  0.684062D-03 -0.240583D-02
     34 -0.128676D-03  0.176771D-02 -0.129355D-03  0.549767D-03 -0.134730D-02
     35  0.316913D-02 -0.159987D-02  0.314387D-02 -0.317948D-02  0.156425D-02
     36  0.328421D-02 -0.268686D-02  0.324970D-02 -0.331378D-02  0.262278D-02
     37  0.618872D-04 -0.583630D-03  0.118669D-03 -0.143983D-03  0.558315D-03
     38 -0.543657D-04  0.459646D-03  0.284787D-04 -0.114141D-04 -0.442581D-03
               31            32            33            34            35 
     31  0.100157D-01
     32  0.628163D-02  0.929604D-02
     33  0.686534D-03  0.365774D-02  0.201476D-01
     34 -0.890256D-03  0.933292D-03  0.497687D-02  0.975626D-02
     35  0.485669D-02  0.294345D-03  0.168227D-01  0.293487D-02  0.219336D-01
     36  0.327990D-02 -0.243010D-02  0.165195D-02  0.771427D-02  0.804581D-02
     37  0.177345D-03 -0.488703D-03 -0.734929D-02  0.274045D-02 -0.659866D-02
     38  0.166560D-02  0.207808D-02  0.690569D-02 -0.166939D-02  0.645002D-02
               36            37            38 
     36  0.141081D-01
     37  0.349108D-02  0.711290D-02
     38 -0.212506D-02 -0.268885D-02  0.570740D-02
 Leave Link  716 at Sun Nov 13 04:19:17 2022, MaxMem=   939524096 cpu:         0.1
 (Enter /Local/ce_dana/g09/l103.exe)

 GradGradGradGradGradGradGradGradGradGradGradGradGradGradGradGradGradGrad
 Berny optimization.
 Red2BG is reusing G-inverse.
 Internal  Forces:  Max     0.000000581 RMS     0.000000145
 Search for a local minimum.
 Step number   1 out of a maximum of   48 on scan point     1 out of    46
 All quantities printed in internal units (Hartrees-Bohrs-Radians)
 RMS Force = .14864D-06 SwitMx=.10000D-02 MixMth= 2
 Mixed Optimization -- En-DIIS/RFO-DIIS
 Second derivative matrix not updated -- analytic derivatives used.
 ITU=  0
     Eigenvalues ---    0.00299   0.01401   0.02359   0.04085   0.05740
     Eigenvalues ---    0.05751   0.11209   0.12486   0.13258   0.14821
     Eigenvalues ---    0.15540   0.17172   0.18503   0.20202   0.24391
     Eigenvalues ---    0.33569   0.33704   0.34696   0.35330   0.36660
     Eigenvalues ---    0.40629   0.43340   0.51047   0.52444   0.62506
     Eigenvalues --- 1000.000001000.000001000.000001000.000001000.00000
     Eigenvalues --- 1000.000001000.000001000.000001000.000001000.00000
     Eigenvalues --- 1000.000001000.000001000.00000
 RFO step:  Lambda= 0.00000000D+00 EMin= 2.98816907D-03
 Linear search not attempted -- first point.
 Iteration  1 RMS(Cart)=  0.00000079 RMS(Int)=  0.00000000
 Iteration  1 RMS(Cart)=  0.00000000 RMS(Int)=  0.00000000
 ITry= 1 IFail=0 DXMaxC= 1.63D-06 DCOld= 1.00D+10 DXMaxT= 5.00D-02 DXLimC= 3.00D+00 Rises=F
 Variable       Old X    -DE/DX   Delta X   Delta X   Delta X     New X
                                 (Linear)    (Quad)   (Total)
    R1        2.80790  -0.00000   0.00000  -0.00000  -0.00000   2.80790
    R2        2.06244  -0.00000   0.00000  -0.00000  -0.00000   2.06244
    R3        2.06211   0.00000   0.00000   0.00000   0.00000   2.06211
    R4        2.05660   0.00000   0.00000   0.00000   0.00000   2.05660
    R5        2.57965  -0.00000   0.00000  -0.00000  -0.00000   2.57965
    R6        2.52076   0.00000   0.00000   0.00000   0.00000   2.52076
    R7        1.83064   0.00000   0.00000   0.00000   0.00000   1.83064
    R8        2.63056  -0.00000   0.00000  -0.00000  -0.00000   2.63056
    R9        2.04074   0.00000   0.00000   0.00000   0.00000   2.04075
   R10        1.81882   0.00000   0.00000   0.00000   0.00000   1.81882
    A1        1.92845   0.00000   0.00000   0.00000   0.00000   1.92845
    A2        1.92453  -0.00000   0.00000  -0.00000  -0.00000   1.92453
    A3        1.93313   0.00000   0.00000   0.00000   0.00000   1.93313
    A4        1.87752   0.00000   0.00000   0.00000   0.00000   1.87752
    A5        1.89829  -0.00000   0.00000  -0.00000  -0.00000   1.89829
    A6        1.90072  -0.00000   0.00000  -0.00000  -0.00000   1.90072
    A7        1.98143   0.00000   0.00000   0.00000   0.00000   1.98143
    A8        2.18142  -0.00000   0.00000  -0.00000  -0.00000   2.18142
    A9        2.12025  -0.00000   0.00000  -0.00000  -0.00000   2.12025
   A10        1.86514   0.00000   0.00000   0.00000   0.00000   1.86514
   A11        2.06893   0.00000   0.00000   0.00000   0.00000   2.06893
   A12        2.14949  -0.00000   0.00000  -0.00000  -0.00000   2.14949
   A13        2.06093  -0.00000   0.00000   0.00000   0.00000   2.06093
   A14        1.90653   0.00000   0.00000   0.00000   0.00000   1.90653
    D1        1.05532   0.00000   0.00000  -0.00000  -0.00000   1.05532
    D2       -2.07278   0.00000   0.00000  -0.00000  -0.00000  -2.07278
    D3       -1.01797  -0.00000   0.00000  -0.00000  -0.00000  -1.01797
    D4        2.13711  -0.00000   0.00000  -0.00000  -0.00000   2.13711
    D5       -3.12315   0.00000   0.00000   0.00000   0.00000  -3.12315
    D6        0.03194   0.00000   0.00000  -0.00000  -0.00000   0.03194
    D7       -3.12654   0.00000   0.00000   0.00000  -0.00000  -3.12654
    D8        0.00209   0.00000   0.00000   0.00000   0.00000   0.00209
    D9        3.06028   0.00000   0.00000   0.00000   0.00000   3.06028
   D10        0.01465  -0.00000   0.00000  -0.00000  -0.00000   0.01465
   D11       -0.06681   0.00000   0.00000   0.00000   0.00000  -0.06681
   D12       -3.11244  -0.00000   0.00000  -0.00000  -0.00000  -3.11244
   D13        2.35885  -0.00000   0.00000   0.00000  -0.00000   2.35885
   D14       -0.87379   0.00000   0.00000   0.00000   0.00000  -0.87379
         Item               Value     Threshold  Converged?
 Maximum Force            0.000001     0.000450     YES
 RMS     Force            0.000000     0.000300     YES
 Maximum Displacement     0.000002     0.001800     YES
 RMS     Displacement     0.000001     0.001200     YES
 Predicted change in Energy=-1.213607D-12
 Optimization completed.
    -- Stationary point found.
                           ----------------------------
                           !   Optimized Parameters   !
                           ! (Angstroms and Degrees)  !
 --------------------------                            --------------------------
 ! Name  Definition              Value          Derivative Info.                !
 --------------------------------------------------------------------------------
 ! R1    R(1,2)                  1.4859         -DE/DX =    0.0                 !
 ! R2    R(1,6)                  1.0914         -DE/DX =    0.0                 !
 ! R3    R(1,7)                  1.0912         -DE/DX =    0.0                 !
 ! R4    R(1,8)                  1.0883         -DE/DX =    0.0                 !
 ! R5    R(2,3)                  1.3651         -DE/DX =    0.0                 !
 ! R6    R(2,4)                  1.3339         -DE/DX =    0.0                 !
 ! R7    R(3,9)                  0.9687         -DE/DX =    0.0                 !
 ! R8    R(4,5)                  1.392          -DE/DX =    0.0                 !
 ! R9    R(4,10)                 1.0799         -DE/DX =    0.0                 !
 ! R10   R(5,11)                 0.9625         -DE/DX =    0.0                 !
 ! A1    A(2,1,6)              110.4923         -DE/DX =    0.0                 !
 ! A2    A(2,1,7)              110.2674         -DE/DX =    0.0                 !
 ! A3    A(2,1,8)              110.7601         -DE/DX =    0.0                 !
 ! A4    A(6,1,7)              107.574          -DE/DX =    0.0                 !
 ! A5    A(6,1,8)              108.7638         -DE/DX =    0.0                 !
 ! A6    A(7,1,8)              108.9033         -DE/DX =    0.0                 !
 ! A7    A(1,2,3)              113.5278         -DE/DX =    0.0                 !
 ! A8    A(1,2,4)              124.986          -DE/DX =    0.0                 !
 ! A9    A(3,2,4)              121.4816         -DE/DX =    0.0                 !
 ! A10   A(2,3,9)              106.8647         -DE/DX =    0.0                 !
 ! A11   A(2,4,5)              118.541          -DE/DX =    0.0                 !
 ! A12   A(2,4,10)             123.1565         -DE/DX =    0.0                 !
 ! A13   A(5,4,10)             118.0825         -DE/DX =    0.0                 !
 ! A14   A(4,5,11)             109.2362         -DE/DX =    0.0                 !
 ! D1    D(6,1,2,3)             60.4657         -DE/DX =    0.0                 !
 ! D2    D(6,1,2,4)           -118.7615         -DE/DX =    0.0                 !
 ! D3    D(7,1,2,3)            -58.3252         -DE/DX =    0.0                 !
 ! D4    D(7,1,2,4)            122.4477         -DE/DX =    0.0                 !
 ! D5    D(8,1,2,3)           -178.943          -DE/DX =    0.0                 !
 ! D6    D(8,1,2,4)              1.8298         -DE/DX =    0.0                 !
 ! D7    D(1,2,3,9)           -179.1376         -DE/DX =    0.0                 !
 ! D8    D(4,2,3,9)              0.12           -DE/DX =    0.0                 !
 ! D9    D(1,2,4,5)            175.3411         -DE/DX =    0.0                 !
 ! D10   D(1,2,4,10)             0.8396         -DE/DX =    0.0                 !
 ! D11   D(3,2,4,5)             -3.828          -DE/DX =    0.0                 !
 ! D12   D(3,2,4,10)          -178.3295         -DE/DX =    0.0                 !
 ! D13   D(2,4,5,11)           135.1521         -DE/DX =    0.0                 !
 ! D14   D(10,4,5,11)          -50.0646         -DE/DX =    0.0                 !
 --------------------------------------------------------------------------------
 Lowest energy point so far.  Saving SCF results.
 Iteration  1 RMS(Cart)=  0.01741214 RMS(Int)=  0.01479629
 Iteration  2 RMS(Cart)=  0.00083860 RMS(Int)=  0.01478112
 Iteration  3 RMS(Cart)=  0.00000256 RMS(Int)=  0.01478112
 Iteration  4 RMS(Cart)=  0.00000029 RMS(Int)=  0.01478112
 Iteration  1 RMS(Cart)=  0.00744087 RMS(Int)=  0.00629294
 Iteration  2 RMS(Cart)=  0.00317659 RMS(Int)=  0.00701944
 Iteration  3 RMS(Cart)=  0.00135335 RMS(Int)=  0.00769837
 Iteration  4 RMS(Cart)=  0.00057610 RMS(Int)=  0.00803621
 Iteration  5 RMS(Cart)=  0.00024515 RMS(Int)=  0.00818748
 Iteration  6 RMS(Cart)=  0.00010430 RMS(Int)=  0.00825311
 Iteration  7 RMS(Cart)=  0.00004438 RMS(Int)=  0.00828126
 Iteration  8 RMS(Cart)=  0.00001888 RMS(Int)=  0.00829327
 Iteration  9 RMS(Cart)=  0.00000803 RMS(Int)=  0.00829839
 Iteration 10 RMS(Cart)=  0.00000342 RMS(Int)=  0.00830057
 Iteration 11 RMS(Cart)=  0.00000145 RMS(Int)=  0.00830149
 Iteration 12 RMS(Cart)=  0.00000062 RMS(Int)=  0.00830189
 GradGradGradGradGradGradGradGradGradGradGradGradGradGradGradGradGradGrad

 Leave Link  103 at Sun Nov 13 04:19:17 2022, MaxMem=   939524096 cpu:         0.1
 (Enter /Local/ce_dana/g09/l202.exe)
                          Input orientation:                          
 ---------------------------------------------------------------------
 Center     Atomic      Atomic             Coordinates (Angstroms)
 Number     Number       Type             X           Y           Z
 ---------------------------------------------------------------------
      1          6           0       -1.409043   -0.027878   -0.309427
      2          6           0        0.016765    0.214435    0.031514
      3          8           0        0.285398    1.510664    0.364842
      4          6           0        0.981427   -0.704886   -0.029066
      5          8           0        2.295163   -0.306601    0.201649
      6          1           0       -1.710797    0.593597   -1.154349
      7          1           0       -2.049080    0.231420    0.535510
      8          1           0       -1.571832   -1.072551   -0.567498
      9          1           0        1.249210    1.590565    0.428248
     10          1           0        0.805708   -1.726325   -0.332447
     11          1           0        2.720257   -0.940294    0.788265
 ---------------------------------------------------------------------
                    Distance matrix (angstroms):
                    1          2          3          4          5
     1  C    0.000000
     2  C    1.485896   0.000000
     3  O    2.385975   1.365093   0.000000
     4  C    2.500258   1.333940   2.355479   0.000000
     5  O    3.749670   2.343399   2.714451   1.392035   0.000000
     6  H    1.091411   2.129438   2.670907   3.193805   4.323980
     7  H    1.091239   2.126504   2.667467   3.221706   4.390146
     8  H    1.088321   2.130443   3.315351   2.635188   4.016455
     9  H    3.198411   1.889458   0.969195   2.355832   2.178212
    10  H    2.791124   2.126370   3.351869   1.079932   2.125876
    11  H    4.369044   3.035612   3.480664   1.935711   0.962492
                    6          7          8          9         10
     6  H    0.000000
     7  H    1.761031   0.000000
     8  H    1.771935   1.773339   0.000000
     9  H    3.501456   3.568963   4.005243   0.000000
    10  H    3.519994   3.568743   2.476966   3.431779   0.000000
    11  H    5.075510   4.917659   4.503066   2.949380   2.353580
                   11
    11  H    0.000000
 Stoichiometry    C3H6O2
 Framework group  C1[X(C3H6O2)]
 Deg. of freedom    27
 Full point group                 C1      NOp   1
 RotChk:  IX=0 Diff= 1.09D-02
 Largest Abelian subgroup         C1      NOp   1
 Largest concise Abelian subgroup C1      NOp   1
                         Standard orientation:                         
 ---------------------------------------------------------------------
 Center     Atomic      Atomic             Coordinates (Angstroms)
 Number     Number       Type             X           Y           Z
 ---------------------------------------------------------------------
[...]
           D10         -0.09425   0.72179   1.51147   2.21514   2.81363
           D11          0.33322  -0.35897  -0.95876  -1.52099  -1.92410
           D12       -177.37004-178.36664-179.23372-179.96506 179.56734
           D13        135.15210 135.15210 135.15210 135.15211 135.15211
           D14        -47.06867 -46.77170 -46.51072 -46.34485 -46.27939
                          41        42        43        44        45
     Eigenvalues --  -268.25101-268.25280-268.25438-268.25561-268.25639
           R1           1.48824   1.48746   1.48675   1.48624   1.48595
           R2           1.09183   1.09178   1.09171   1.09161   1.09150
           R3           1.09119   1.09109   1.09106   1.09108   1.09115
           R4           1.08871   1.08857   1.08846   1.08838   1.08833
           R5           1.37322   1.37042   1.36802   1.36630   1.36529
           R6           1.33311   1.33332   1.33351   1.33370   1.33385
           R7           0.96557   0.96660   0.96757   0.96831   0.96872
           R8           1.38590   1.38816   1.39004   1.39134   1.39199
           R9           1.08121   1.08072   1.08032   1.08005   1.07992
           R10          0.96267   0.96266   0.96264   0.96260   0.96254
           A1         110.93120 110.93592 110.88849 110.78453 110.63980
           A2         109.76106 109.77972 109.84980 109.97072 110.12608
           A3         111.03393 110.93814 110.85991 110.80311 110.76929
           A4         107.41033 107.46307 107.50834 107.54350 107.56345
           A5         108.49661 108.52559 108.57068 108.62847 108.69633
           A6         109.11559 109.11101 109.07966 109.02880 108.96533
           A7         113.84972 113.73739 113.66426 113.60152 113.56546
           A8         124.28611 124.48676 124.68487 124.84907 124.94696
           A9         121.76818 121.67918 121.58000 121.51758 121.48412
           A10        108.18720 107.73155 107.34445 107.03633 106.88608
           A11        120.19373 119.67440 119.21569 118.86610 118.63798
           A12        122.07642 122.44506 122.76511 122.99807 123.12831
           A13        117.71027 117.84985 117.96502 118.04125 118.07942
           A14        108.75504 108.79068 108.86091 108.96774 109.10481
           D1          57.23531  57.64104  58.18799  58.85052  59.55573
           D2        -126.28212-125.89335-124.84267-123.18278-121.11475
           D3         -61.30709 -60.98124 -60.50522 -59.89806 -59.22539
           D4         115.17549 115.48436 116.46411 118.06864 120.10413
           D5         177.96536 178.34648 178.86608 179.49412-179.83393
           D6          -5.55207  -5.18792  -4.16458  -2.53918  -0.50442
           D7         140.86250 148.86247 156.86249 164.86247 172.86246
           D8         -35.71928 -27.71434 -20.21230 -13.18015  -6.49308
           D9        -178.41893-178.72632-179.59557 178.98476 177.16442
           D10          3.22787   3.33273   3.13788   2.59360   1.77093
           D11         -2.20326  -2.52856  -2.85416  -3.20096  -3.55625
           D12        179.44354 179.53050 179.87928-179.59213-178.94973
           D13        135.15210 135.15210 135.15208 135.15206 135.15201
           D14        -46.42405 -46.81314 -47.45024 -48.27697 -49.21988
                          46
     Eigenvalues --  -268.25665
           R1           1.48590
           R2           1.09139
           R3           1.09123
           R4           1.08830
           R5           1.36509
           R6           1.33394
           R7           0.96875
           R8           1.39203
           R9           1.07992
           R10          0.96248
           A1         110.48782
           A2         110.27807
           A3         110.75618
           A4         107.57063
           A5         108.76695
           A6         108.90107
           A7         113.53540
           A8         124.97267
           A9         121.48678
           A10        106.87346
           A11        118.54640
           A12        123.15377
           A13        118.07644
           A14        109.24171
           D1          60.38126
           D2        -118.80031
           D3         -58.40940
           D4         122.40903
           D5        -179.02896
           D6           1.78947
           D7        -179.13751
           D8           0.07605
           D9         175.28912
           D10          0.83015
           D11         -3.83097
           D12       -178.28994
           D13        135.15196
           D14        -50.10493
 Largest change from initial coordinates is atom    8       0.000 Angstoms.
 Leave Link  103 at Sun Nov 13 06:59:07 2022, MaxMem=   939524096 cpu:         0.1
 (Enter /Local/ce_dana/g09/l202.exe)
                          Input orientation:                          
 ---------------------------------------------------------------------
 Center     Atomic      Atomic             Coordinates (Angstroms)
 Number     Number       Type             X           Y           Z
 ---------------------------------------------------------------------
      1          6           0       -1.375474   -0.004112   -0.450501
      2          6           0        0.028004    0.222056   -0.018071
      3          8           0        0.299421    1.523074    0.293639
      4          6           0        0.966922   -0.722588    0.055951
      5          8           0        2.266148   -0.344938    0.383270
      6          1           0       -1.599383    0.582489   -1.343195
      7          1           0       -2.067720    0.310099    0.332350
      8          1           0       -1.546401   -1.056083   -0.670830
      9          1           0        1.233708    1.562580    0.546652
     10          1           0        0.789109   -1.754125   -0.209658
     11          1           0        2.618843   -0.956305    1.037636
 ---------------------------------------------------------------------
                    Distance matrix (angstroms):
                    1          2          3          4          5
     1  C    0.000000
     2  C    1.485899   0.000000
     3  O    2.385647   1.365093   0.000000
     4  C    2.501903   1.333941   2.354793   0.000000
     5  O    3.751365   2.343468   2.713948   1.392029   0.000000
     6  H    1.091393   2.129379   2.677570   3.201056   4.333951
     7  H    1.091232   2.126642   2.660106   3.217436   4.383386
     8  H    1.088304   2.130372   3.315012   2.637465   4.019002
     9  H    3.202603   1.889349   0.968746   2.352436   2.175144
    10  H    2.793916   2.126329   3.351586   1.079923   2.125797
    11  H    4.367585   3.035705   3.475712   1.935762   0.962476
                    6          7          8          9         10
     6  H    0.000000
     7  H    1.760962   0.000000
     8  H    1.771948   1.773301   0.000000
     9  H    3.543798   3.537522   4.008574   0.000000
    10  H    3.528394   3.565986   2.480835   3.430773   0.000000
    11  H    5.082291   4.905618   4.503118   2.916239   2.353761
                   11
    11  H    0.000000
 Stoichiometry    C3H6O2
 Framework group  C1[X(C3H6O2)]
 Deg. of freedom    27
 Full point group                 C1      NOp   1
 RotChk:  IX=0 Diff= 1.58D-15
 Largest Abelian subgroup         C1      NOp   1
 Largest concise Abelian subgroup C1      NOp   1
                         Standard orientation:                         
 ---------------------------------------------------------------------
 Center     Atomic      Atomic             Coordinates (Angstroms)
 Number     Number       Type             X           Y           Z
 ---------------------------------------------------------------------
      1          6           0       -1.812341   -0.549068   -0.000332
      2          6           0       -0.432555    0.002265    0.010457
      3          8           0       -0.390756    1.366715    0.013006
      4          6           0        0.683087   -0.728943    0.001625
      5          8           0        1.907687   -0.072980   -0.086751
      6          1           0       -2.348176   -0.220133   -0.892421
      7          1           0       -2.368730   -0.192903    0.868210
      8          1           0       -1.793060   -1.637090    0.015258
      9          1           0        0.544430    1.619399    0.006164
     10          1           0        0.681478   -1.808469   -0.027579
     11          1           0        2.519459   -0.456207    0.549828
 ---------------------------------------------------------------------
 Rotational constants (GHZ):      9.9691302      3.8434313      2.8354134
 Leave Link  202 at Sun Nov 13 06:59:07 2022, MaxMem=   939524096 cpu:         0.0
 (Enter /Local/ce_dana/g09/l601.exe)
 Copying SCF densities to generalized density rwf, IOpCl= 0 IROHF=0.

 **********************************************************************

            Population analysis using the SCF density.

 **********************************************************************

 Orbital symmetries:
       Occupied  (A) (A) (A) (A) (A) (A) (A) (A) (A) (A) (A) (A)
                 (A) (A) (A) (A) (A) (A) (A) (A)
       Virtual   (A) (A) (A) (A) (A) (A) (A) (A) (A) (A) (A) (A)
                 (A) (A) (A) (A) (A) (A) (A) (A) (A) (A) (A) (A)
                 (A) (A) (A) (A) (A) (A) (A) (A) (A) (A) (A) (A)
                 (A) (A) (A) (A) (A) (A) (A) (A) (A) (A) (A) (A)
                 (A) (A) (A) (A) (A) (A) (A) (A) (A) (A) (A) (A)
                 (A) (A) (A) (A) (A) (A) (A) (A) (A) (A) (A) (A)
                 (A) (A) (A) (A) (A) (A) (A) (A) (A) (A) (A) (A)
                 (A) (A) (A) (A) (A) (A) (A) (A) (A) (A) (A) (A)
                 (A) (A) (A) (A) (A) (A) (A) (A) (A) (A) (A) (A)
                 (A) (A) (A) (A) (A) (A) (A) (A) (A) (A) (A) (A)
                 (A) (A) (A) (A) (A) (A) (A) (A) (A) (A) (A) (A)
                 (A) (A) (A) (A) (A) (A) (A) (A) (A) (A) (A) (A)
                 (A) (A) (A) (A) (A) (A) (A) (A) (A) (A) (A) (A)
                 (A) (A) (A) (A) (A) (A) (A) (A) (A) (A) (A) (A)
                 (A) (A) (A)
 The electronic state is 1-A.
 Alpha  occ. eigenvalues --  -19.74984 -19.74321 -10.66976 -10.64865 -10.61162
 Alpha  occ. eigenvalues --   -1.20532  -1.17618  -0.89070  -0.79619  -0.66873
 Alpha  occ. eigenvalues --   -0.61391  -0.59910  -0.51719  -0.49680  -0.46686
 Alpha  occ. eigenvalues --   -0.46302  -0.44214  -0.43062  -0.40574  -0.25942
 Alpha virt. eigenvalues --    0.06553   0.09286   0.10110   0.12164   0.13578
 Alpha virt. eigenvalues --    0.17371   0.17596   0.19894   0.21744   0.24300
 Alpha virt. eigenvalues --    0.25828   0.29415   0.30252   0.32176   0.33614
 Alpha virt. eigenvalues --    0.37201   0.40028   0.42022   0.43253   0.45467
 Alpha virt. eigenvalues --    0.46069   0.49099   0.50429   0.51346   0.52578
 Alpha virt. eigenvalues --    0.53396   0.56289   0.57835   0.60641   0.61238
 Alpha virt. eigenvalues --    0.61856   0.66738   0.70257   0.71028   0.75093
 Alpha virt. eigenvalues --    0.79135   0.79519   0.83519   0.90138   0.93645
 Alpha virt. eigenvalues --    0.96265   0.98430   1.02057   1.04567   1.11670
 Alpha virt. eigenvalues --    1.12685   1.16089   1.20570   1.22706   1.32150
 Alpha virt. eigenvalues --    1.34280   1.42946   1.48212   1.51114   1.54553
 Alpha virt. eigenvalues --    1.57105   1.60803   1.62600   1.64212   1.66536
 Alpha virt. eigenvalues --    1.67242   1.70841   1.74550   1.78206   1.81625
 Alpha virt. eigenvalues --    1.85626   1.89689   1.93751   1.94886   1.95743
 Alpha virt. eigenvalues --    1.99779   2.03603   2.07563   2.11308   2.21057
 Alpha virt. eigenvalues --    2.21547   2.22187   2.24583   2.25602   2.29887
 Alpha virt. eigenvalues --    2.36227   2.37734   2.40567   2.41527   2.46364
 Alpha virt. eigenvalues --    2.48977   2.52493   2.56209   2.59563   2.62987
 Alpha virt. eigenvalues --    2.64408   2.70727   2.70905   2.75478   2.82647
 Alpha virt. eigenvalues --    2.84037   2.86097   2.87903   2.93920   2.95570
 Alpha virt. eigenvalues --    3.04410   3.08389   3.08918   3.10168   3.11800
 Alpha virt. eigenvalues --    3.17917   3.21828   3.24939   3.27067   3.29073
 Alpha virt. eigenvalues --    3.33522   3.35724   3.39005   3.39521   3.42618
 Alpha virt. eigenvalues --    3.45670   3.48886   3.49758   3.52645   3.57315
 Alpha virt. eigenvalues --    3.59389   3.75692   3.80340   3.81152   3.88267
 Alpha virt. eigenvalues --    3.93872   3.99756   4.04726   4.05943   4.14697
 Alpha virt. eigenvalues --    4.24873   4.45386   4.48380   4.50675   4.58829
 Alpha virt. eigenvalues --    4.60984   4.64015   4.70501   4.79044   4.89788
 Alpha virt. eigenvalues --    4.98208   5.06030   5.44088   5.45831   5.52297
 Alpha virt. eigenvalues --    5.62971   5.66486   5.71263   5.86974   5.96665
 Alpha virt. eigenvalues --    6.03109   6.06557   6.18790   6.39645   6.50663
 Alpha virt. eigenvalues --    6.54592   6.63901   6.67909   6.83260   6.92875
 Alpha virt. eigenvalues --    6.97850   7.01612   7.16618   7.19293   7.33039
 Alpha virt. eigenvalues --    7.46537  22.78923  22.87294  23.45792  44.27389
 Alpha virt. eigenvalues --   44.58348
          Condensed to atoms (all electrons):
               1          2          3          4          5          6
     1  C    4.853417   0.323819  -0.051939  -0.052514  -0.002171   0.403685
     2  C    0.323819   5.082569   0.333779   0.442809  -0.120069  -0.030249
     3  O   -0.051939   0.333779   7.953550  -0.090687  -0.001992   0.005135
     4  C   -0.052514   0.442809  -0.090687   5.063992   0.285044  -0.012530
     5  O   -0.002171  -0.120069  -0.001992   0.285044   8.074275  -0.000214
     6  H    0.403685  -0.030249   0.005135  -0.012530  -0.000214   0.581710
     7  H    0.401966  -0.041971   0.003983   0.002281   0.000447  -0.043790
     8  H    0.436542  -0.066058   0.003324   0.006830   0.000218  -0.022755
     9  H    0.005067  -0.049007   0.309277  -0.003337   0.017876  -0.000197
    10  H   -0.004795  -0.093082   0.005246   0.453528  -0.046959  -0.000599
    11  H   -0.000374   0.003295   0.000518  -0.045509   0.300491  -0.000127
               7          8          9         10         11
     1  C    0.401966   0.436542   0.005067  -0.004795  -0.000374
     2  C   -0.041971  -0.066058  -0.049007  -0.093082   0.003295
     3  O    0.003983   0.003324   0.309277   0.005246   0.000518
     4  C    0.002281   0.006830  -0.003337   0.453528  -0.045509
     5  O    0.000447   0.000218   0.017876  -0.046959   0.300491
     6  H   -0.043790  -0.022755  -0.000197  -0.000599  -0.000127
     7  H    0.582557  -0.025247  -0.000203   0.000833   0.000212
     8  H   -0.025247   0.558415  -0.000567  -0.001415  -0.000029
     9  H   -0.000203  -0.000567   0.382612   0.002157  -0.001665
    10  H    0.000833  -0.001415   0.002157   0.583923  -0.004652
    11  H    0.000212  -0.000029  -0.001665  -0.004652   0.415662
 Mulliken charges:
               1
     1  C   -0.312701
     2  C    0.214165
     3  O   -0.470192
     4  C   -0.049908
     5  O   -0.506947
     6  H    0.119931
     7  H    0.118931
     8  H    0.110741
     9  H    0.337987
    10  H    0.105815
    11  H    0.332178
 Sum of Mulliken charges =  -0.00000
 Mulliken charges with hydrogens summed into heavy atoms:
               1
     1  C    0.036902
     2  C    0.214165
     3  O   -0.132205
     4  C    0.055907
     5  O   -0.174769
 Electronic spatial extent (au):  <R**2>=            444.2117
 Charge=             -0.0000 electrons
 Dipole moment (field-independent basis, Debye):
    X=              0.8791    Y=             -1.6068    Z=              1.0355  Tot=              2.1040
 Quadrupole moment (field-independent basis, Debye-Ang):
   XX=            -26.5071   YY=            -29.4283   ZZ=            -31.5433
   XY=              0.6704   XZ=              3.2090   YZ=             -0.5204
 Traceless Quadrupole moment (field-independent basis, Debye-Ang):
   XX=              2.6525   YY=             -0.2687   ZZ=             -2.3838
   XY=              0.6704   XZ=              3.2090   YZ=             -0.5204
 Octapole moment (field-independent basis, Debye-Ang**2):
  XXX=             15.6863  YYY=              2.2705  ZZZ=              0.4282  XYY=              9.2950
  XXY=             -3.7057  XXZ=              8.5302  XZZ=              2.4174  YZZ=              2.5972
  YYZ=              0.1571  XYZ=             -1.4398
 Hexadecapole moment (field-independent basis, Debye-Ang**3):
 XXXX=           -324.6357 YYYY=           -142.6565 ZZZZ=            -40.1805 XXXY=            -16.6716
 XXXZ=             22.8484 YYYX=              6.0958 YYYZ=             -0.2431 ZZZX=              2.3131
 ZZZY=             -0.3031 XXYY=            -83.6698 XXZZ=            -61.9902 YYZZ=            -34.7284
 XXYZ=             -3.8412 YYXZ=              0.9504 ZZXY=             -1.6764
 N-N= 1.778488698180D+02 E-N=-9.846588283698D+02  KE= 2.670939734710D+02
 No NMR shielding tensors so no spin-rotation constants.
 Leave Link  601 at Sun Nov 13 06:59:07 2022, MaxMem=   939524096 cpu:         1.6
 (Enter /Local/ce_dana/g09/l9999.exe)

 Test job not archived.
 1\1\GINC-TECH-WN197\Scan\RB2PLYPD3-FC\def2TZVP\C3H6O2\ALONGD\13-Nov-20
 22\0\\#P opt=(modredundant, calcfc, noeigentest, maxStep=5) scf=(tight
 , direct) integral=(grid=ultrafine, Acc2E=12) guess=read b2plypd3/def2
 tzvp IOp(2/9=2000) scf=xqc\\1-Propene-1,2-diol\\0,1\C,-1.3754740088,-0
 .0041120543,-0.4505005064\C,0.0280038255,0.2220555788,-0.0180713019\O,
 0.2994205276,1.5230736487,0.2936385863\C,0.9669222096,-0.7225882774,0.
 0559508192\O,2.26614758,-0.3449376365,0.3832696357\H,-1.5993832399,0.5
 824889843,-1.3431950509\H,-2.067720156,0.3100985187,0.3323497203\H,-1.
 5464005754,-1.0560833804,-0.6708304864\H,1.2337078229,1.5625801645,0.5
 466519361\H,0.7891085424,-1.7541245483,-0.2096577398\H,2.6188434722,-0
 .956304998,1.0376363878\\Version=ES64L-G09RevD.01\State=1-A\HF=-267.94
 3842,-267.9436213,-267.9429357,-267.9418584,-267.9404983,-267.9389722,
 -267.9374085,-267.9359255,-267.9346225,-267.9335727,-267.9328259,-267.
 9323912,-267.932251,-267.9323512,-267.9326272,-267.9330029,-267.933407
 5,-267.9337837,-267.9340923,-267.9343152,-267.9344534,-267.934523,-267
 .9345446,-267.9345302,-267.9344735,-267.9343526,-267.9341413,-267.9338
 235,-267.9334025,-267.9329039,-267.9323763,-267.9318916,-267.9315236,-
 267.931362,-267.9314766,-267.931918,-267.9327064,-267.933825,-267.9352
 286,-267.9368316,-267.938524,-267.9401785,-267.9416544,-267.9428184,-2
 67.9435693,-267.9438417\MP2=-268.256653,-268.2563918,-268.2556396,-268
 .2544707,-268.2529934,-268.2513371,-268.2496357,-268.2480139,-268.2465
 797,-268.2454203,-268.2445975,-268.2441394,-268.2440295,-268.2442086,-
 268.2445918,-268.2450863,-268.2456071,-268.246087,-268.2464801,-268.24
 67652,-268.2469443,-268.2470382,-268.2470745,-268.2470693,-268.2470146
 ,-268.2468812,-268.2466361,-268.2462595,-268.2457546,-268.2451509,-268
 .244504,-268.2438928,-268.2434136,-268.2431701,-268.2432538,-268.24372
 51,-268.244598,-268.245842,-268.2473926,-268.2491555,-268.2510071,-268
 .2527999,-268.2543807,-268.2556111,-268.2563882,-268.2566529\RMSD=5.26
 9e-09,7.517e-09,2.696e-09,3.490e-09,5.833e-09,6.113e-09,8.295e-09,4.89
 2e-09,7.029e-09,9.309e-09,8.636e-09,8.587e-09,4.279e-09,9.948e-09,7.60
 0e-09,3.078e-09,9.245e-09,7.366e-09,9.146e-09,8.408e-09,6.006e-09,3.63
 9e-09,2.129e-09,8.379e-09,4.068e-09,6.742e-09,7.877e-09,8.792e-09,9.51
 2e-09,1.985e-09,2.224e-09,4.178e-09,8.585e-09,4.279e-09,1.778e-09,2.85
 1e-09,7.924e-09,8.331e-09,6.347e-09,4.552e-09,7.045e-09,4.096e-09,9.00
 1e-09,5.307e-09,3.227e-09,4.233e-09\PG=C01 [X(C3H6O2)]\\@



 WE LOSE BECAUSE WE WIN

 GAMBLERS,

 RECOLLECTING WHICH,

 TOSS THEIR DICE AGAIN....


                          EMILY DICKINSON  BOLTS OF MELODY NO. 533
 Job cpu time:       1 days  2 hours  1 minutes 25.2 seconds.
 File lengths (MBytes):  RWF=   6141 Int=      0 D2E=      0 Chk=      8 Scr=      1
 Normal termination of Gaussian 09 at Sun Nov 13 06:59:09 2022.
