 Entering Gaussian System, Link 0=g03
 Input=QMfiles//AAAOFKFEDKWQNN-UHFFFAOYAY.gjf
 Output=QMfiles//AAAOFKFEDKWQNN-UHFFFAOYAY.log
 Initial command:
 /opt/g03/l1.exe /scratch/nickv/Gau-32331.inp -scrdir=/scratch/nickv/
 Entering Link 1 = /opt/g03/l1.exe PID=     32333.
  
 Copyright (c) 1988,1990,1992,1993,1995,1998,2003,2004, Gaussian, Inc.
                  All Rights Reserved.
  
 This is the Gaussian(R) 03 program.  It is based on the
 the Gaussian(R) 98 system (copyright 1998, Gaussian, Inc.),
 the Gaussian(R) 94 system (copyright 1995, Gaussian, Inc.),
 the Gaussian 92(TM) system (copyright 1992, Gaussian, Inc.),
 the Gaussian 90(TM) system (copyright 1990, Gaussian, Inc.),
 the Gaussian 88(TM) system (copyright 1988, Gaussian, Inc.),
 the Gaussian 86(TM) system (copyright 1986, Carnegie Mellon
 University), and the Gaussian 82(TM) system (copyright 1983,
 Carnegie Mellon University). Gaussian is a federally registered
 trademark of Gaussian, Inc.
  
 This software contains proprietary and confidential information,
 including trade secrets, belonging to Gaussian, Inc.
  
 This software is provided under written license and may be
 used, copied, transmitted, or stored only in accord with that
 written license.
  
 The following legend is applicable only to US Government
 contracts under FAR:
  
                    RESTRICTED RIGHTS LEGEND
  
 Use, reproduction and disclosure by the US Government is
 subject to restrictions as set forth in subparagraphs (a)
 and (c) of the Commercial Computer Software - Restricted
 Rights clause in FAR 52.227-19.
  
 Gaussian, Inc.
 340 Quinnipiac St., Bldg. 40, Wallingford CT 06492
  
  
 ---------------------------------------------------------------
 Warning -- This program may not be used in any manner that
 competes with the business of Gaussian, Inc. or will provide
 assistance to any competitor of Gaussian, Inc.  The licensee
 of this program is prohibited from giving any competitor of
 Gaussian, Inc. access to this program.  By using this program,
 the user acknowledges that Gaussian, Inc. is engaged in the
 business of creating and licensing software in the field of
 computational chemistry and represents and warrants to the
 licensee that it is not a competitor of Gaussian, Inc. and that
 it will not use this program in any manner prohibited above.
 ---------------------------------------------------------------
  

 Cite this work as:
 Gaussian 03, Revision D.01,
 M. J. Frisch, G. W. Trucks, H. B. Schlegel, G. E. Scuseria, 
 M. A. Robb, J. R. Cheeseman, J. A. Montgomery, Jr., T. Vreven, 
 K. N. Kudin, J. C. Burant, J. M. Millam, S. S. Iyengar, J. Tomasi, 
 V. Barone, B. Mennucci, M. Cossi, G. Scalmani, N. Rega, 
 G. A. Petersson, H. Nakatsuji, M. Hada, M. Ehara, K. Toyota, 
 R. Fukuda, J. Hasegawa, M. Ishida, T. Nakajima, Y. Honda, O. Kitao, 
 H. Nakai, M. Klene, X. Li, J. E. Knox, H. P. Hratchian, J. B. Cross, 
 V. Bakken, C. Adamo, J. Jaramillo, R. Gomperts, R. E. Stratmann, 
 O. Yazyev, A. J. Austin, R. Cammi, C. Pomelli, J. W. Ochterski, 
 P. Y. Ayala, K. Morokuma, G. A. Voth, P. Salvador, J. J. Dannenberg, 
 V. G. Zakrzewski, S. Dapprich, A. D. Daniels, M. C. Strain, 
 O. Farkas, D. K. Malick, A. D. Rabuck, K. Raghavachari, 
 J. B. Foresman, J. V. Ortiz, Q. Cui, A. G. Baboul, S. Clifford, 
 J. Cioslowski, B. B. Stefanov, G. Liu, A. Liashenko, P. Piskorz, 
 I. Komaromi, R. L. Martin, D. J. Fox, T. Keith, M. A. Al-Laham, 
 C. Y. Peng, A. Nanayakkara, M. Challacombe, P. M. W. Gill, 
 B. Johnson, W. Chen, M. W. Wong, C. Gonzalez, and J. A. Pople, 
 Gaussian, Inc., Wallingford CT, 2004.
 
 ******************************************
 Gaussian 03:  AM64L-G03RevD.01 13-Oct-2005
                 1-Jun-2011 
 ******************************************
 %chk=/home/nickv/JP10_pyrolysis/JP10SeedMechQM/QMfiles/RMGrunCHKfile.chk
 %mem=6MW
 %nproc=1
 Will use up to    1 processors via shared memory.
 --------------------------------------------
 # pm3 opt=(verytight,gdiis) freq IOP(2/16=3)
 --------------------------------------------
 1/7=1,14=-1,18=50,19=11,26=3,38=1/1,3;
 2/9=110,16=3,17=6,18=5,40=1/2;
 3/5=2,11=9,12=1,16=1,25=1,30=1/1;
 4/5=3,11=1,20=7,22=1,24=3,35=1,68=1/1,2;
 6/7=2,8=2,9=2,10=2/1;
 7//16;
 1/14=-1,18=50,19=11/3(3);
 2/9=110,16=3/2;
 6/7=2,8=2,9=2,10=2/1;
 99//99;
 2/9=110,16=3/2;
 3/5=2,11=9,12=1,16=1,25=1,30=1/1;
 4/5=5,11=1,16=3,20=7,22=1,24=3,35=1,68=1/1,2;
 7//16;
 1/14=-1,18=50,19=11/3(-4);
 2/9=110,16=3/2;
 6/7=2,8=2,9=2,10=2/1;
 99//99;
 -----------------------------------------------------------
 InChI=1/C9H14O2/c1-6(2)9-5-8(11-10)4-7(9)3/h4-6,8,10H,1-3H3
 -----------------------------------------------------------
 Symbolic Z-matrix:
 Charge =  0 Multiplicity = 1
 C                    -1.5335   -0.2668   -0.338 
 C                    -0.0567    0.0423   -0.3305 
 C                     0.917    -0.8488   -0.186 
 C                     2.2643   -0.199    -0.2243 
 C                     1.8691    1.228    -0.4186 
 C                     0.5518    1.3586   -0.4783 
 C                    -0.172     2.6542   -0.6664 
 C                    -1.9112   -1.1717   -1.5129 
 C                    -1.9902   -0.8523    1.0001 
 H                    -3.0948   -0.9967    1.0105 
 H                    -1.5118   -1.8379    1.2031 
 H                     0.7616   -1.9155   -0.0573 
 H                    -3.0142   -1.3225   -1.5553 
 H                     2.8655   -0.5431   -1.0996 
 H                    -1.6022   -0.7086   -2.4782 
 H                    -1.4293   -2.173    -1.4331 
 H                     2.5746    2.0494   -0.5008 
 H                    -0.8407    2.837     0.2044 
 H                     0.5263    3.5176   -0.7553 
 H                    -0.7852    2.6072   -1.5941 
 H                    -1.7379   -0.1603    1.8362 
 O                     2.9553   -0.3425    1.0371 
 O                     3.5366   -1.527     1.0393 
 H                     2.961    -2.1096    1.672 
 H                    -2.1033    0.681    -0.4764 
 

 GradGradGradGradGradGradGradGradGradGradGradGradGradGradGradGradGradGrad
 Berny optimization.
 Initialization pass.
                           ----------------------------
                           !    Initial Parameters    !
                           ! (Angstroms and Degrees)  !
 --------------------------                            --------------------------
 ! Name  Definition              Value          Derivative Info.                !
 --------------------------------------------------------------------------------
 ! R1    R(1,2)                  1.5088         estimate D2E/DX2                !
 ! R2    R(1,8)                  1.5303         estimate D2E/DX2                !
 ! R3    R(1,9)                  1.5303         estimate D2E/DX2                !
 ! R4    R(1,25)                 1.1145         estimate D2E/DX2                !
 ! R5    R(2,3)                  1.3278         estimate D2E/DX2                !
 ! R6    R(2,6)                  1.4577         estimate D2E/DX2                !
 ! R7    R(3,4)                  1.4963         estimate D2E/DX2                !
 ! R8    R(3,12)                 1.0856         estimate D2E/DX2                !
 ! R9    R(4,5)                  1.4934         estimate D2E/DX2                !
 ! R10   R(4,14)                 1.1162         estimate D2E/DX2                !
 ! R11   R(4,22)                 1.4454         estimate D2E/DX2                !
 ! R12   R(5,6)                  1.3251         estimate D2E/DX2                !
 ! R13   R(5,17)                 1.0859         estimate D2E/DX2                !
 ! R14   R(6,7)                  1.4959         estimate D2E/DX2                !
 ! R15   R(7,18)                 1.113          estimate D2E/DX2                !
 ! R16   R(7,19)                 1.114          estimate D2E/DX2                !
 ! R17   R(7,20)                 1.113          estimate D2E/DX2                !
 ! R18   R(8,13)                 1.1141         estimate D2E/DX2                !
 ! R19   R(8,15)                 1.1143         estimate D2E/DX2                !
 ! R20   R(8,16)                 1.1141         estimate D2E/DX2                !
 ! R21   R(9,10)                 1.114          estimate D2E/DX2                !
 ! R22   R(9,11)                 1.1142         estimate D2E/DX2                !
 ! R23   R(9,21)                 1.1143         estimate D2E/DX2                !
 ! R24   R(22,23)                1.3195         estimate D2E/DX2                !
 ! R25   R(23,24)                1.0349         estimate D2E/DX2                !
 ! A1    A(2,1,8)              111.5016         estimate D2E/DX2                !
 ! A2    A(2,1,9)              111.4774         estimate D2E/DX2                !
 ! A3    A(2,1,25)             109.0748         estimate D2E/DX2                !
 ! A4    A(8,1,9)              111.803          estimate D2E/DX2                !
 ! A5    A(8,1,25)             106.3401         estimate D2E/DX2                !
 ! A6    A(9,1,25)             106.3421         estimate D2E/DX2                !
 ! A7    A(1,2,3)              125.5079         estimate D2E/DX2                !
 ! A8    A(1,2,6)              126.3761         estimate D2E/DX2                !
 ! A9    A(3,2,6)              108.116          estimate D2E/DX2                !
 ! A10   A(2,3,4)              111.4733         estimate D2E/DX2                !
 ! A11   A(2,3,12)             124.5657         estimate D2E/DX2                !
 ! A12   A(4,3,12)             123.961          estimate D2E/DX2                !
 ! A13   A(3,4,5)              100.3705         estimate D2E/DX2                !
 ! A14   A(3,4,14)             111.7872         estimate D2E/DX2                !
 ! A15   A(3,4,22)             111.408          estimate D2E/DX2                !
 ! A16   A(5,4,14)             109.5765         estimate D2E/DX2                !
 ! A17   A(5,4,22)             109.5675         estimate D2E/DX2                !
 ! A18   A(14,4,22)            113.343          estimate D2E/DX2                !
 ! A19   A(4,5,6)              111.2912         estimate D2E/DX2                !
 ! A20   A(4,5,17)             124.1047         estimate D2E/DX2                !
 ! A21   A(6,5,17)             124.604          estimate D2E/DX2                !
 ! A22   A(2,6,5)              108.749          estimate D2E/DX2                !
 ! A23   A(2,6,7)              126.36           estimate D2E/DX2                !
 ! A24   A(5,6,7)              124.8909         estimate D2E/DX2                !
 ! A25   A(6,7,18)             109.5452         estimate D2E/DX2                !
 ! A26   A(6,7,19)             112.2093         estimate D2E/DX2                !
 ! A27   A(6,7,20)             109.5599         estimate D2E/DX2                !
 ! A28   A(18,7,19)            108.1643         estimate D2E/DX2                !
 ! A29   A(18,7,20)            109.1494         estimate D2E/DX2                !
 ! A30   A(19,7,20)            108.1531         estimate D2E/DX2                !
 ! A31   A(1,8,13)             110.7088         estimate D2E/DX2                !
 ! A32   A(1,8,15)             110.5414         estimate D2E/DX2                !
 ! A33   A(1,8,16)             111.697          estimate D2E/DX2                !
 ! A34   A(13,8,15)            107.327          estimate D2E/DX2                !
 ! A35   A(13,8,16)            108.0184         estimate D2E/DX2                !
 ! A36   A(15,8,16)            108.3979         estimate D2E/DX2                !
 ! A37   A(1,9,10)             110.7111         estimate D2E/DX2                !
 ! A38   A(1,9,11)             111.6912         estimate D2E/DX2                !
 ! A39   A(1,9,21)             110.544          estimate D2E/DX2                !
 ! A40   A(10,9,11)            108.0208         estimate D2E/DX2                !
 ! A41   A(10,9,21)            107.3375         estimate D2E/DX2                !
 ! A42   A(11,9,21)            108.3863         estimate D2E/DX2                !
 ! A43   A(4,22,23)            107.5296         estimate D2E/DX2                !
 ! A44   A(22,23,24)           105.1505         estimate D2E/DX2                !
 ! D1    D(8,1,2,3)            -62.8867         estimate D2E/DX2                !
 ! D2    D(8,1,2,6)            117.1448         estimate D2E/DX2                !
 ! D3    D(9,1,2,3)             62.8445         estimate D2E/DX2                !
 ! D4    D(2,1,8,13)          -175.2966         estimate D2E/DX2                !
 ! D5    D(2,1,8,15)           -56.502          estimate D2E/DX2                !
 ! D6    D(9,1,8,13)            59.1523         estimate D2E/DX2                !
 ! D7    D(2,1,9,10)           175.3016         estimate D2E/DX2                !
 ! D8    D(2,1,9,11)           -64.2785         estimate D2E/DX2                !
 ! D9    D(8,1,9,10)           -59.1341         estimate D2E/DX2                !
 ! D10   D(1,2,3,4)           -179.9291         estimate D2E/DX2                !
 ! D11   D(1,2,3,12)             0.1478         estimate D2E/DX2                !
 ! D12   D(6,2,3,4)              0.0442         estimate D2E/DX2                !
 ! D13   D(1,2,6,5)            179.9346         estimate D2E/DX2                !
 ! D14   D(1,2,6,7)             -0.0364         estimate D2E/DX2                !
 ! D15   D(3,2,6,5)             -0.0384         estimate D2E/DX2                !
 ! D16   D(2,3,4,5)             -0.0328         estimate D2E/DX2                !
 ! D17   D(2,3,4,14)          -116.1354         estimate D2E/DX2                !
 ! D18   D(12,3,4,5)           179.8908         estimate D2E/DX2                !
 ! D19   D(3,4,5,6)              0.008          estimate D2E/DX2                !
 ! D20   D(3,4,5,17)          -179.9361         estimate D2E/DX2                !
 ! D21   D(14,4,5,6)           117.7539         estimate D2E/DX2                !
 ! D22   D(3,4,22,23)           83.328          estimate D2E/DX2                !
 ! D23   D(5,4,22,23)         -166.5171         estimate D2E/DX2                !
 ! D24   D(4,5,6,2)              0.0169         estimate D2E/DX2                !
 ! D25   D(4,5,6,7)            179.9884         estimate D2E/DX2                !
 ! D26   D(17,5,6,2)           179.9606         estimate D2E/DX2                !
 ! D27   D(2,6,7,18)            59.9384         estimate D2E/DX2                !
 ! D28   D(2,6,7,19)          -179.9122         estimate D2E/DX2                !
 ! D29   D(5,6,7,18)          -120.0281         estimate D2E/DX2                !
 ! D30   D(4,22,23,24)        -105.4247         estimate D2E/DX2                !
 --------------------------------------------------------------------------------
 Trust Radius=3.00D-01 FncErr=1.00D-07 GrdErr=1.00D-06
 Number of steps in this run= 109 maximum allowed number of steps= 150.
 GradGradGradGradGradGradGradGradGradGradGradGradGradGradGradGradGradGrad

                          Input orientation:                          
 ---------------------------------------------------------------------
 Center     Atomic     Atomic              Coordinates (Angstroms)
 Number     Number      Type              X           Y           Z
 ---------------------------------------------------------------------
    1          6             0       -1.533500   -0.266800   -0.338000
    2          6             0       -0.056700    0.042300   -0.330500
    3          6             0        0.917000   -0.848800   -0.186000
    4          6             0        2.264300   -0.199000   -0.224300
    5          6             0        1.869100    1.228000   -0.418600
    6          6             0        0.551800    1.358600   -0.478300
    7          6             0       -0.172000    2.654200   -0.666400
    8          6             0       -1.911200   -1.171700   -1.512900
    9          6             0       -1.990200   -0.852300    1.000100
   10          1             0       -3.094800   -0.996700    1.010500
   11          1             0       -1.511800   -1.837900    1.203100
   12          1             0        0.761600   -1.915500   -0.057300
   13          1             0       -3.014200   -1.322500   -1.555300
   14          1             0        2.865500   -0.543100   -1.099600
   15          1             0       -1.602200   -0.708600   -2.478200
   16          1             0       -1.429300   -2.173000   -1.433100
   17          1             0        2.574600    2.049400   -0.500800
   18          1             0       -0.840700    2.837000    0.204400
   19          1             0        0.526300    3.517600   -0.755300
   20          1             0       -0.785200    2.607200   -1.594100
   21          1             0       -1.737900   -0.160300    1.836200
   22          8             0        2.955300   -0.342500    1.037100
   23          8             0        3.536600   -1.527000    1.039300
   24          1             0        2.961000   -2.109600    1.672000
   25          1             0       -2.103300    0.681000   -0.476400
 ---------------------------------------------------------------------
                    Distance matrix (angstroms):
                    1          2          3          4          5
     1  C    0.000000
     2  C    1.508820   0.000000
     3  C    2.523248   1.327792   0.000000
     4  C    3.800106   2.335925   1.496304   0.000000
     5  C    3.717339   2.263261   2.296453   1.493407   0.000000
     6  C    2.647657   1.457657   2.256419   2.328796   1.325104
     7  C    3.239409   2.635933   3.699691   3.777798   2.502307
     8  C    1.530324   2.512178   3.140644   4.476766   4.609417
     9  C    1.530326   2.511818   3.139850   4.475123   4.608097
    10  H    2.188347   3.479634   4.189036   5.557068   5.624226
    11  H    2.200867   2.829204   2.967657   4.356879   4.843567
    12  H    2.839804   2.139447   1.085616   2.287437   3.352415
    13  H    2.188331   3.479888   4.189715   5.558451   5.625278
    14  H    4.472983   3.077899   2.173654   1.116242   2.143215
    15  H    2.186404   2.750461   3.408842   4.504396   4.476862
    16  H    2.200841   2.829719   2.968819   4.358963   4.845147
    17  H    4.718874   3.313788   3.353550   2.286491   1.085903
    18  H    3.226104   2.951461   4.102078   4.363726   3.212480
    19  H    4.328810   3.549374   4.420656   4.137115   2.675583
    20  H    3.224533   2.950612   4.101727   4.364695   3.213923
    21  H    2.186382   2.749922   3.407612   4.501640   4.474589
    22  O    4.695312   3.330247   2.430428   1.445408   2.401117
    23  O    5.402867   4.153415   2.970458   2.231371   3.534976
    24  H    5.257047   4.212742   3.036399   2.780600   4.086860
    25  H    1.114518   2.148906   3.398063   4.462498   4.010301
                    6          7          8          9         10
     6  C    0.000000
     7  C    1.495944   0.000000
     8  C    3.679563   4.287061   0.000000
     9  C    3.679064   4.287029   2.534448   0.000000
    10  H    4.589298   4.968282   2.792684   1.114047   0.000000
    11  H    4.159707   5.046688   2.824889   1.114219   1.802942
    12  H    3.307716   4.703697   3.133029   3.133830   4.105632
    13  H    4.589617   4.968137   1.114068   2.792800   2.587658
    14  H    3.058706   4.431342   4.835578   5.299261   6.339042
    15  H    3.593415   4.078788   1.114337   3.502822   3.805507
    16  H    4.160360   5.046830   1.114090   2.824769   3.182570
    17  H    2.137623   2.817271   5.614466   5.613374   6.610964
    18  H    2.142616   1.113045   4.490519   3.945304   4.519737
    19  H    2.176846   1.113995   5.338998   5.339497   6.050564
    20  H    2.142797   1.113037   3.943926   4.488879   5.010618
    21  H    3.592589   4.078782   3.502775   1.114263   1.795139
    22  O    3.311645   4.654259   5.556338   4.971844   6.085425
    23  O    4.420275   5.843420   6.026482   5.567969   6.652632
    24  H    4.738823   6.162596   5.895895   5.152343   6.192644
    25  H    2.740201   2.767587   2.131603   2.131631   2.451249
                   11         12         13         14         15
    11  H    0.000000
    12  H    2.600573   0.000000
    13  H    3.183020   4.105158   0.000000
    14  H    5.112699   2.719608   5.948613   0.000000
    15  H    3.851683   3.592341   1.795094   4.678490   0.000000
    16  H    2.658693   2.599841   1.802829   4.605768   1.807373
    17  H    5.891777   4.382248   6.611835   2.676610   5.381666
    18  H    4.827263   5.022162   5.012194   5.182799   4.510821
    19  H    6.055622   5.482805   6.049935   4.698902   5.035838
    20  H    5.301999   5.020872   4.518018   4.847322   3.527556
    21  H    1.807285   3.593546   3.805512   5.473276   4.351218
    22  O    4.713678   2.912792   6.581479   2.147974   5.767336
    23  O    5.060616   3.009001   7.048883   2.448127   6.280912
    24  H    4.505511   2.804552   6.836520   3.185092   6.325326
    25  H    3.084712   3.889101   2.451077   5.155169   2.487829
                   16         17         18         19         20
    16  H    0.000000
    17  H    5.893137   0.000000
    18  H    5.303580   3.575178   0.000000
    19  H    6.055304   2.532966   1.803588   0.000000
    20  H    4.826085   3.576968   1.813971   1.803454   0.000000
    21  H    3.851560   5.379777   3.528675   5.036807   4.509285
    22  O    5.355122   2.869016   5.021178   4.900317   5.441993
    23  O    5.584822   4.010984   6.237172   6.142515   6.534857
    24  H    5.377769   4.708253   6.409027   6.594310   6.851980
    25  H    3.084618   4.873999   2.589591   3.878000   2.587834
                   21         22         23         24         25
    21  H    0.000000
    22  O    4.764230   0.000000
    23  O    5.506657   1.319452   0.000000
    24  H    5.089832   1.877704   1.034914   0.000000
    25  H    2.487855   5.378445   6.243483   6.168485   0.000000
 Stoichiometry    C9H14O2
 Framework group  C1[X(C9H14O2)]
 Deg. of freedom    69
 Full point group                 C1
 Largest Abelian subgroup         C1      NOp   1
 Largest concise Abelian subgroup C1      NOp   1
                         Standard orientation:                         
 ---------------------------------------------------------------------
 Center     Atomic     Atomic              Coordinates (Angstroms)
 Number     Number      Type              X           Y           Z
 ---------------------------------------------------------------------
    1          6             0       -2.048178   -0.451482    0.099123
    2          6             0       -0.641509    0.056755   -0.099661
    3          6             0        0.412959   -0.690936   -0.403120
    4          6             0        1.654011    0.136032   -0.524927
    5          6             0        1.102484    1.493008   -0.233896
    6          6             0       -0.199672    1.441792    0.006245
    7          6             0       -1.056955    2.623779    0.331541
    8          6             0       -2.605057   -1.076428   -1.181978
    9          6             0       -2.133509   -1.414827    1.285117
   10          1             0       -3.189518   -1.715950    1.472924
   11          1             0       -1.537634   -2.339560    1.108242
   12          1             0        0.384368   -1.766566   -0.547222
   13          1             0       -3.671059   -1.370152   -1.045908
   14          1             0        2.066170    0.114367   -1.562063
   15          1             0       -2.566872   -0.345479   -2.022217
   16          1             0       -2.032659   -1.984665   -1.479740
   17          1             0        1.696349    2.402065   -0.222693
   18          1             0       -1.521588    2.482439    1.333043
   19          1             0       -0.475251    3.573665    0.349512
   20          1             0       -1.859967    2.723313   -0.432734
   21          1             0       -1.757365   -0.926517    2.213369
   22          8             0        2.625452   -0.218486    0.484935
   23          8             0        3.292339   -1.268058    0.043782
   24          1             0        2.929836   -2.068329    0.590778
   25          1             0       -2.714582    0.407555    0.344303
 ---------------------------------------------------------------------
 Rotational constants (GHZ):      1.5251346      0.7478473      0.5814776
 Standard basis: VSTO-3G (5D, 7F)
 There are    58 symmetry adapted basis functions of A   symmetry.
 Integral buffers will be    131072 words long.
 Raffenetti 1 integral format.
 Two-electron integral symmetry is turned on.
    58 basis functions,   174 primitive gaussians,    58 cartesian basis functions
    31 alpha electrons       31 beta electrons
       nuclear repulsion energy       338.0860685955 Hartrees.
 NAtoms=   25 NActive=   25 NUniq=   25 SFac= 7.50D-01 NAtFMM=   80 NAOKFM=F Big=F
 Simple Huckel Guess.
 Initial guess orbital symmetries:
       Occupied  (A) (A) (A) (A) (A) (A) (A) (A) (A) (A) (A) (A)
                 (A) (A) (A) (A) (A) (A) (A) (A) (A) (A) (A) (A)
                 (A) (A) (A) (A) (A) (A) (A)
       Virtual   (A) (A) (A) (A) (A) (A) (A) (A) (A) (A) (A) (A)
                 (A) (A) (A) (A) (A) (A) (A) (A) (A) (A) (A) (A)
                 (A) (A) (A)
 The electronic state of the initial guess is 1-A.
 RHF-PM3 calculation of energy and first derivatives.
 MO and density RWFs will be updated without deorthogonalization.
 Closed-shell calculation:      31 occupied levels.
 NNHCO=    0.
 References:
  H: (PM3): J. J. P. STEWART, J. COMP. CHEM.     10, 209 (1989).
  C: (PM3): J. J. P. STEWART, J. COMP. CHEM.     10, 209 (1989).
  O: (PM3): J. J. P. STEWART, J. COMP. CHEM.     10, 209 (1989).
 Ext34=T Pulay=F Camp-King=F BShift= 0.00D+00
 It=  1 PL= 0.106D+01 DiagD=T ESCF=     15.236308 Diff= 0.109D+02 RMSDP= 0.192D+00.
 It=  2 PL= 0.952D-01 DiagD=T ESCF=      1.357295 Diff=-0.139D+02 RMSDP= 0.664D-02.
 It=  3 PL= 0.374D-01 DiagD=F ESCF=      0.226641 Diff=-0.113D+01 RMSDP= 0.393D-02.
 It=  4 PL= 0.902D-02 DiagD=F ESCF=     -0.035480 Diff=-0.262D+00 RMSDP= 0.547D-03.
 It=  5 PL= 0.526D-02 DiagD=F ESCF=      0.047630 Diff= 0.831D-01 RMSDP= 0.292D-03.
 It=  6 PL= 0.333D-02 DiagD=F ESCF=      0.045942 Diff=-0.169D-02 RMSDP= 0.457D-03.
 It=  7 PL= 0.588D-03 DiagD=F ESCF=      0.043377 Diff=-0.256D-02 RMSDP= 0.340D-04.
 It=  8 PL= 0.285D-03 DiagD=F ESCF=      0.044902 Diff= 0.152D-02 RMSDP= 0.158D-04.
 It=  9 PL= 0.161D-03 DiagD=F ESCF=      0.044896 Diff=-0.516D-05 RMSDP= 0.213D-04.
 It= 10 PL= 0.394D-04 DiagD=F ESCF=      0.044891 Diff=-0.589D-05 RMSDP= 0.235D-05.
 It= 11 PL= 0.214D-04 DiagD=F ESCF=      0.044894 Diff= 0.320D-05 RMSDP= 0.120D-05.
 It= 12 PL= 0.133D-04 DiagD=F ESCF=      0.044894 Diff=-0.273D-07 RMSDP= 0.192D-05.
 It= 13 PL= 0.290D-05 DiagD=F ESCF=      0.044894 Diff=-0.437D-07 RMSDP= 0.148D-06.
 It= 14 PL= 0.124D-05 DiagD=F ESCF=      0.044894 Diff= 0.268D-07 RMSDP= 0.685D-07.
 Energy=    0.001649847630 NIter=  15.
 Dipole moment=      -0.719289      -0.203416      -0.068492

 **********************************************************************

            Population analysis using the SCF density.

 **********************************************************************

 Orbital symmetries:
       Occupied  (A) (A) (A) (A) (A) (A) (A) (A) (A) (A) (A) (A)
                 (A) (A) (A) (A) (A) (A) (A) (A) (A) (A) (A) (A)
                 (A) (A) (A) (A) (A) (A) (A)
       Virtual   (A) (A) (A) (A) (A) (A) (A) (A) (A) (A) (A) (A)
                 (A) (A) (A) (A) (A) (A) (A) (A) (A) (A) (A) (A)
                 (A) (A) (A)
 The electronic state is 1-A.
 Alpha  occ. eigenvalues --   -1.53082  -1.36314  -1.29773  -1.19849  -1.12062
 Alpha  occ. eigenvalues --   -0.99666  -0.96833  -0.88448  -0.79103  -0.71867
 Alpha  occ. eigenvalues --   -0.70948  -0.66701  -0.65060  -0.60982  -0.58753
 Alpha  occ. eigenvalues --   -0.57057  -0.54743  -0.54403  -0.52691  -0.52072
 Alpha  occ. eigenvalues --   -0.50692  -0.48742  -0.48617  -0.47609  -0.46067
 Alpha  occ. eigenvalues --   -0.45427  -0.44822  -0.43183  -0.40748  -0.40107
 Alpha  occ. eigenvalues --   -0.34599
 Alpha virt. eigenvalues --    0.00140   0.06424   0.08964   0.10593   0.11386
 Alpha virt. eigenvalues --    0.12446   0.12669   0.13305   0.13477   0.13869
 Alpha virt. eigenvalues --    0.14256   0.14695   0.14925   0.15414   0.15431
 Alpha virt. eigenvalues --    0.15639   0.15751   0.15925   0.16131   0.16998
 Alpha virt. eigenvalues --    0.17154   0.17801   0.17970   0.19921   0.20500
 Alpha virt. eigenvalues --    0.21333   0.21966
          Condensed to atoms (all electrons):
              1          2          3          4          5          6
     1  C    4.020801   0.000000   0.000000   0.000000   0.000000   0.000000
     2  C    0.000000   4.059723   0.000000   0.000000   0.000000   0.000000
     3  C    0.000000   0.000000   4.199178   0.000000   0.000000   0.000000
     4  C    0.000000   0.000000   0.000000   3.905918   0.000000   0.000000
     5  C    0.000000   0.000000   0.000000   0.000000   4.177922   0.000000
     6  C    0.000000   0.000000   0.000000   0.000000   0.000000   4.072143
     7  C    0.000000   0.000000   0.000000   0.000000   0.000000   0.000000
     8  C    0.000000   0.000000   0.000000   0.000000   0.000000   0.000000
     9  C    0.000000   0.000000   0.000000   0.000000   0.000000   0.000000
    10  H    0.000000   0.000000   0.000000   0.000000   0.000000   0.000000
    11  H    0.000000   0.000000   0.000000   0.000000   0.000000   0.000000
    12  H    0.000000   0.000000   0.000000   0.000000   0.000000   0.000000
    13  H    0.000000   0.000000   0.000000   0.000000   0.000000   0.000000
    14  H    0.000000   0.000000   0.000000   0.000000   0.000000   0.000000
    15  H    0.000000   0.000000   0.000000   0.000000   0.000000   0.000000
    16  H    0.000000   0.000000   0.000000   0.000000   0.000000   0.000000
    17  H    0.000000   0.000000   0.000000   0.000000   0.000000   0.000000
    18  H    0.000000   0.000000   0.000000   0.000000   0.000000   0.000000
    19  H    0.000000   0.000000   0.000000   0.000000   0.000000   0.000000
    20  H    0.000000   0.000000   0.000000   0.000000   0.000000   0.000000
    21  H    0.000000   0.000000   0.000000   0.000000   0.000000   0.000000
    22  O    0.000000   0.000000   0.000000   0.000000   0.000000   0.000000
    23  O    0.000000   0.000000   0.000000   0.000000   0.000000   0.000000
    24  H    0.000000   0.000000   0.000000   0.000000   0.000000   0.000000
    25  H    0.000000   0.000000   0.000000   0.000000   0.000000   0.000000
              7          8          9         10         11         12
     1  C    0.000000   0.000000   0.000000   0.000000   0.000000   0.000000
     2  C    0.000000   0.000000   0.000000   0.000000   0.000000   0.000000
     3  C    0.000000   0.000000   0.000000   0.000000   0.000000   0.000000
     4  C    0.000000   0.000000   0.000000   0.000000   0.000000   0.000000
     5  C    0.000000   0.000000   0.000000   0.000000   0.000000   0.000000
     6  C    0.000000   0.000000   0.000000   0.000000   0.000000   0.000000
     7  C    4.052819   0.000000   0.000000   0.000000   0.000000   0.000000
     8  C    0.000000   4.110719   0.000000   0.000000   0.000000   0.000000
     9  C    0.000000   0.000000   4.109986   0.000000   0.000000   0.000000
    10  H    0.000000   0.000000   0.000000   0.959215   0.000000   0.000000
    11  H    0.000000   0.000000   0.000000   0.000000   0.958241   0.000000
    12  H    0.000000   0.000000   0.000000   0.000000   0.000000   0.880667
    13  H    0.000000   0.000000   0.000000   0.000000   0.000000   0.000000
    14  H    0.000000   0.000000   0.000000   0.000000   0.000000   0.000000
    15  H    0.000000   0.000000   0.000000   0.000000   0.000000   0.000000
    16  H    0.000000   0.000000   0.000000   0.000000   0.000000   0.000000
    17  H    0.000000   0.000000   0.000000   0.000000   0.000000   0.000000
    18  H    0.000000   0.000000   0.000000   0.000000   0.000000   0.000000
    19  H    0.000000   0.000000   0.000000   0.000000   0.000000   0.000000
    20  H    0.000000   0.000000   0.000000   0.000000   0.000000   0.000000
    21  H    0.000000   0.000000   0.000000   0.000000   0.000000   0.000000
    22  O    0.000000   0.000000   0.000000   0.000000   0.000000   0.000000
    23  O    0.000000   0.000000   0.000000   0.000000   0.000000   0.000000
    24  H    0.000000   0.000000   0.000000   0.000000   0.000000   0.000000
    25  H    0.000000   0.000000   0.000000   0.000000   0.000000   0.000000
             13         14         15         16         17         18
     1  C    0.000000   0.000000   0.000000   0.000000   0.000000   0.000000
     2  C    0.000000   0.000000   0.000000   0.000000   0.000000   0.000000
     3  C    0.000000   0.000000   0.000000   0.000000   0.000000   0.000000
     4  C    0.000000   0.000000   0.000000   0.000000   0.000000   0.000000
     5  C    0.000000   0.000000   0.000000   0.000000   0.000000   0.000000
     6  C    0.000000   0.000000   0.000000   0.000000   0.000000   0.000000
     7  C    0.000000   0.000000   0.000000   0.000000   0.000000   0.000000
     8  C    0.000000   0.000000   0.000000   0.000000   0.000000   0.000000
     9  C    0.000000   0.000000   0.000000   0.000000   0.000000   0.000000
    10  H    0.000000   0.000000   0.000000   0.000000   0.000000   0.000000
    11  H    0.000000   0.000000   0.000000   0.000000   0.000000   0.000000
    12  H    0.000000   0.000000   0.000000   0.000000   0.000000   0.000000
    13  H    0.958881   0.000000   0.000000   0.000000   0.000000   0.000000
    14  H    0.000000   0.903563   0.000000   0.000000   0.000000   0.000000
    15  H    0.000000   0.000000   0.956380   0.000000   0.000000   0.000000
    16  H    0.000000   0.000000   0.000000   0.957312   0.000000   0.000000
    17  H    0.000000   0.000000   0.000000   0.000000   0.875573   0.000000
    18  H    0.000000   0.000000   0.000000   0.000000   0.000000   0.949431
    19  H    0.000000   0.000000   0.000000   0.000000   0.000000   0.000000
    20  H    0.000000   0.000000   0.000000   0.000000   0.000000   0.000000
    21  H    0.000000   0.000000   0.000000   0.000000   0.000000   0.000000
    22  O    0.000000   0.000000   0.000000   0.000000   0.000000   0.000000
    23  O    0.000000   0.000000   0.000000   0.000000   0.000000   0.000000
    24  H    0.000000   0.000000   0.000000   0.000000   0.000000   0.000000
    25  H    0.000000   0.000000   0.000000   0.000000   0.000000   0.000000
             19         20         21         22         23         24
     1  C    0.000000   0.000000   0.000000   0.000000   0.000000   0.000000
     2  C    0.000000   0.000000   0.000000   0.000000   0.000000   0.000000
     3  C    0.000000   0.000000   0.000000   0.000000   0.000000   0.000000
     4  C    0.000000   0.000000   0.000000   0.000000   0.000000   0.000000
     5  C    0.000000   0.000000   0.000000   0.000000   0.000000   0.000000
     6  C    0.000000   0.000000   0.000000   0.000000   0.000000   0.000000
     7  C    0.000000   0.000000   0.000000   0.000000   0.000000   0.000000
     8  C    0.000000   0.000000   0.000000   0.000000   0.000000   0.000000
     9  C    0.000000   0.000000   0.000000   0.000000   0.000000   0.000000
    10  H    0.000000   0.000000   0.000000   0.000000   0.000000   0.000000
    11  H    0.000000   0.000000   0.000000   0.000000   0.000000   0.000000
    12  H    0.000000   0.000000   0.000000   0.000000   0.000000   0.000000
    13  H    0.000000   0.000000   0.000000   0.000000   0.000000   0.000000
    14  H    0.000000   0.000000   0.000000   0.000000   0.000000   0.000000
    15  H    0.000000   0.000000   0.000000   0.000000   0.000000   0.000000
    16  H    0.000000   0.000000   0.000000   0.000000   0.000000   0.000000
    17  H    0.000000   0.000000   0.000000   0.000000   0.000000   0.000000
    18  H    0.000000   0.000000   0.000000   0.000000   0.000000   0.000000
    19  H    0.952157   0.000000   0.000000   0.000000   0.000000   0.000000
    20  H    0.000000   0.951951   0.000000   0.000000   0.000000   0.000000
    21  H    0.000000   0.000000   0.954928   0.000000   0.000000   0.000000
    22  O    0.000000   0.000000   0.000000   6.090515   0.000000   0.000000
    23  O    0.000000   0.000000   0.000000   0.000000   6.185380   0.000000
    24  H    0.000000   0.000000   0.000000   0.000000   0.000000   0.818364
    25  H    0.000000   0.000000   0.000000   0.000000   0.000000   0.000000
             25
     1  C    0.000000
     2  C    0.000000
     3  C    0.000000
     4  C    0.000000
     5  C    0.000000
     6  C    0.000000
     7  C    0.000000
     8  C    0.000000
     9  C    0.000000
    10  H    0.000000
    11  H    0.000000
    12  H    0.000000
    13  H    0.000000
    14  H    0.000000
    15  H    0.000000
    16  H    0.000000
    17  H    0.000000
    18  H    0.000000
    19  H    0.000000
    20  H    0.000000
    21  H    0.000000
    22  O    0.000000
    23  O    0.000000
    24  H    0.000000
    25  H    0.938231
 Mulliken atomic charges:
              1
     1  C   -0.020801
     2  C   -0.059723
     3  C   -0.199178
     4  C    0.094082
     5  C   -0.177922
     6  C   -0.072143
     7  C   -0.052819
     8  C   -0.110719
     9  C   -0.109986
    10  H    0.040785
    11  H    0.041759
    12  H    0.119333
    13  H    0.041119
    14  H    0.096437
    15  H    0.043620
    16  H    0.042688
    17  H    0.124427
    18  H    0.050569
    19  H    0.047843
    20  H    0.048049
    21  H    0.045072
    22  O   -0.090515
    23  O   -0.185380
    24  H    0.181636
    25  H    0.061769
 Sum of Mulliken charges=   0.00000
 Atomic charges with hydrogens summed into heavy atoms:
              1
     1  C    0.040967
     2  C   -0.059723
     3  C   -0.079845
     4  C    0.190519
     5  C   -0.053495
     6  C   -0.072143
     7  C    0.093642
     8  C    0.016708
     9  C    0.017630
    10  H    0.000000
    11  H    0.000000
    12  H    0.000000
    13  H    0.000000
    14  H    0.000000
    15  H    0.000000
    16  H    0.000000
    17  H    0.000000
    18  H    0.000000
    19  H    0.000000
    20  H    0.000000
    21  H    0.000000
    22  O   -0.090515
    23  O   -0.003744
    24  H    0.000000
    25  H    0.000000
 Sum of Mulliken charges=   0.00000
 ***** Axes restored to original set *****
 -------------------------------------------------------------------
 Center     Atomic                   Forces (Hartrees/Bohr)
 Number     Number              X              Y              Z
 -------------------------------------------------------------------
    1          6           0.001816560    0.001331549   -0.000527250
    2          6          -0.048672347    0.001712835   -0.001996477
    3          6           0.006620749   -0.043984918    0.004632073
    4          6           0.005974111    0.000542761    0.000362818
    5          6           0.042917936    0.022824900    0.002364885
    6          6          -0.039734909    0.037725346   -0.006407550
    7          6          -0.000379734   -0.009091730    0.000307631
    8          6           0.001088821   -0.001313219   -0.000964984
    9          6           0.001123995   -0.001100951    0.001328592
   10          1           0.011229771    0.000237356    0.000184494
   11          1          -0.005067409    0.010299280   -0.001164286
   12          1           0.002434670   -0.004089855    0.000983487
   13          1           0.011237817    0.000261838    0.000434343
   14          1           0.001735201   -0.002364260    0.001326822
   15          1          -0.002772945   -0.006468531    0.009487848
   16          1          -0.005001808    0.010153643   -0.001769400
   17          1           0.005154493    0.000131608    0.000810530
   18          1           0.005049206   -0.000545281   -0.009630478
   19          1          -0.007078163   -0.009243383    0.001007772
   20          1           0.004283724    0.002158304    0.009747045
   21          1          -0.002196514   -0.008615030   -0.007704273
   22          8          -0.032269357    0.059620424   -0.007397650
   23          8           0.005995809   -0.108481553    0.047192383
   24          1           0.034392332    0.043713447   -0.042109797
   25          1           0.002117992    0.004585421   -0.000498578
 -------------------------------------------------------------------
 Cartesian Forces:  Max     0.108481553 RMS     0.021517123

 GradGradGradGradGradGradGradGradGradGradGradGradGradGradGradGradGradGrad
 Berny optimization.
 Internal  Forces:  Max     0.075945610 RMS     0.013925080
 Search for a local minimum.
 Step number   1 out of a maximum of 109
 All quantities printed in internal units (Hartrees-Bohrs-Radians)
 Swaping is turned off.
 Second derivative matrix not updated -- first step.
 RFO step:  Lambda= 5.04665007D-03.
 Linear search not attempted -- option 19 set.
 Iteration  1 RMS(Cart)=  0.04835980 RMS(Int)=  0.00206205
 Iteration  2 RMS(Cart)=  0.00333328 RMS(Int)=  0.00025872
 Iteration  3 RMS(Cart)=  0.00002837 RMS(Int)=  0.00025760
 Iteration  4 RMS(Cart)=  0.00000000 RMS(Int)=  0.00025760
 Variable       Old X    -DE/DX   Delta X   Delta X   Delta X     New X
                                 (Linear)    (Quad)   (Total)
    R1        2.85126  -0.01520   0.00000  -0.04620  -0.04620   2.80505
    R2        2.89189  -0.00820   0.00000  -0.02524  -0.02524   2.86665
    R3        2.89190  -0.00826   0.00000  -0.02437  -0.02437   2.86752
    R4        2.10613   0.00288   0.00000   0.00752   0.00752   2.11366
    R5        2.50916   0.04119   0.00000   0.06750   0.06748   2.57665
    R6        2.75457   0.02090   0.00000   0.06663   0.06657   2.82114
    R7        2.82760   0.02426   0.00000   0.06353   0.06358   2.89118
    R8        2.05152   0.00379   0.00000   0.00910   0.00910   2.06062
    R9        2.82213   0.02274   0.00000   0.06023   0.06027   2.88240
   R10        2.10939   0.00062   0.00000   0.00183   0.00183   2.11122
   R11        2.73142   0.00237   0.00000   0.00390   0.00390   2.73533
   R12        2.50408   0.04548   0.00000   0.07529   0.07527   2.57935
   R13        2.05206   0.00339   0.00000   0.00856   0.00856   2.06062
   R14        2.82692  -0.01557   0.00000  -0.04794  -0.04794   2.77898
   R15        2.10335  -0.01066   0.00000  -0.03292  -0.03292   2.07043
   R16        2.10515  -0.01168   0.00000  -0.03474  -0.03474   2.07040
   R17        2.10333  -0.01058   0.00000  -0.03295  -0.03295   2.07038
   R18        2.10528  -0.01118   0.00000  -0.03416  -0.03416   2.07113
   R19        2.10579  -0.01168   0.00000  -0.03574  -0.03574   2.07005
   R20        2.10533  -0.01142   0.00000  -0.03435  -0.03435   2.07097
   R21        2.10524  -0.01116   0.00000  -0.03406  -0.03406   2.07118
   R22        2.10557  -0.01150   0.00000  -0.03456  -0.03456   2.07100
   R23        2.10565  -0.01163   0.00000  -0.03542  -0.03542   2.07023
   R24        2.49340   0.07595   0.00000   0.12117   0.12117   2.61457
   R25        1.95570  -0.06948   0.00000  -0.16382  -0.16382   1.79189
    A1        1.94607  -0.00182   0.00000  -0.02176  -0.02254   1.92353
    A2        1.94565  -0.00212   0.00000  -0.02362  -0.02439   1.92125
    A3        1.90371  -0.00418   0.00000  -0.01008  -0.00995   1.89377
    A4        1.95133  -0.00053   0.00000  -0.01667  -0.01761   1.93372
    A5        1.85599   0.00460   0.00000   0.03974   0.03987   1.89586
    A6        1.85602   0.00456   0.00000   0.03868   0.03882   1.89484
    A7        2.19053   0.00574   0.00000   0.00960   0.00968   2.20021
    A8        2.20568  -0.00835   0.00000  -0.02552  -0.02543   2.18025
    A9        1.88698   0.00261   0.00000   0.01592   0.01567   1.90265
   A10        1.94558  -0.00666   0.00000  -0.03550  -0.03565   1.90992
   A11        2.17408   0.00643   0.00000   0.03721   0.03727   2.21136
   A12        2.16353   0.00023   0.00000  -0.00172  -0.00165   2.16188
   A13        1.75180   0.01044   0.00000   0.04376   0.04357   1.79536
   A14        1.95105  -0.00267   0.00000  -0.00847  -0.00901   1.94205
   A15        1.94444   0.00601   0.00000   0.01704   0.01685   1.96129
   A16        1.91247  -0.00015   0.00000   0.01286   0.01277   1.92524
   A17        1.91231  -0.00657   0.00000  -0.01984  -0.02000   1.89231
   A18        1.97821  -0.00549   0.00000  -0.03622  -0.03655   1.94166
   A19        1.94240  -0.00658   0.00000  -0.03449  -0.03474   1.90766
   A20        2.16604  -0.00073   0.00000  -0.00581  -0.00583   2.16020
   A21        2.17475   0.00731   0.00000   0.04028   0.04023   2.21498
   A22        1.89803   0.00019   0.00000   0.01032   0.01006   1.90809
   A23        2.20540  -0.00736   0.00000  -0.02360  -0.02352   2.18188
   A24        2.17976   0.00717   0.00000   0.01327   0.01335   2.19311
   A25        1.91192   0.00229   0.00000   0.01499   0.01497   1.92689
   A26        1.95842  -0.00122   0.00000  -0.01186  -0.01188   1.94654
   A27        1.91218   0.00291   0.00000   0.01963   0.01961   1.93179
   A28        1.88782  -0.00059   0.00000  -0.00473  -0.00475   1.88307
   A29        1.90502  -0.00308   0.00000  -0.01528  -0.01531   1.88971
   A30        1.88763  -0.00048   0.00000  -0.00367  -0.00370   1.88393
   A31        1.93223   0.00110   0.00000   0.00643   0.00636   1.93859
   A32        1.92931   0.00198   0.00000   0.01192   0.01185   1.94116
   A33        1.94948  -0.00008   0.00000   0.00249   0.00251   1.95199
   A34        1.87321   0.00049   0.00000   0.00342   0.00327   1.87648
   A35        1.88528  -0.00130   0.00000  -0.01003  -0.01001   1.87527
   A36        1.89190  -0.00231   0.00000  -0.01507  -0.01504   1.87686
   A37        1.93227   0.00094   0.00000   0.00639   0.00638   1.93865
   A38        1.94938  -0.00019   0.00000   0.00301   0.00299   1.95237
   A39        1.92936   0.00219   0.00000   0.01245   0.01236   1.94171
   A40        1.88532  -0.00175   0.00000  -0.01070  -0.01064   1.87468
   A41        1.87339   0.00075   0.00000   0.00284   0.00275   1.87615
   A42        1.89170  -0.00204   0.00000  -0.01489  -0.01498   1.87672
   A43        1.87675   0.02191   0.00000   0.07977   0.07977   1.95651
   A44        1.83522  -0.01216   0.00000  -0.07504  -0.07504   1.76018
    D1       -1.09758   0.00134   0.00000   0.01735   0.01736  -1.08022
    D2        2.04456   0.00101   0.00000   0.03230   0.03174   2.07630
    D3        1.09684  -0.00238   0.00000  -0.03953  -0.03897   1.05787
    D4       -3.05950  -0.00260   0.00000  -0.04835  -0.04823  -3.10773
    D5       -0.98615  -0.00003   0.00000  -0.03242  -0.03228  -1.01842
    D6        1.03240   0.00201   0.00000   0.01258   0.01231   1.04472
    D7        3.05959   0.00225   0.00000   0.04636   0.04619   3.10577
    D8       -1.12187   0.00053   0.00000   0.03917   0.03906  -1.08282
    D9       -1.03208  -0.00220   0.00000  -0.01354  -0.01325  -1.04534
   D10       -3.14036  -0.00162   0.00000  -0.00770  -0.00738   3.13545
   D11        0.00258  -0.00008   0.00000  -0.00131  -0.00093   0.00165
   D12        0.00077  -0.00134   0.00000  -0.02038  -0.01986  -0.01909
   D13        3.14045   0.00016   0.00000  -0.02196  -0.02174   3.11871
   D14       -0.00063   0.00019   0.00000  -0.00724  -0.00740  -0.00804
   D15       -0.00067  -0.00013   0.00000  -0.00915  -0.00945  -0.01012
   D16       -0.00057   0.00210   0.00000   0.03804   0.03834   0.03776
   D17       -2.02695  -0.00224   0.00000   0.00325   0.00354  -2.02341
   D18        3.13969   0.00058   0.00000   0.03174   0.03214  -3.11136
   D19        0.00014  -0.00217   0.00000  -0.04383  -0.04414  -0.04400
   D20       -3.14048  -0.00088   0.00000  -0.01788  -0.01864   3.12406
   D21        2.05519  -0.00006   0.00000  -0.02655  -0.02623   2.02896
   D22        1.45435  -0.00539   0.00000  -0.04695  -0.04673   1.40762
   D23       -2.90627   0.00662   0.00000   0.00335   0.00313  -2.90314
   D24        0.00029   0.00154   0.00000   0.03494   0.03459   0.03489
   D25        3.14139   0.00151   0.00000   0.02048   0.02013  -3.12167
   D26        3.14091   0.00023   0.00000   0.00880   0.00806  -3.13422
   D27        1.04612  -0.00001   0.00000   0.00409   0.00426   1.05039
   D28       -3.14006   0.00000   0.00000   0.00063   0.00062  -3.13944
   D29       -2.09489   0.00002   0.00000   0.02108   0.02092  -2.07397
   D30       -1.84001   0.00159   0.00000   0.09053   0.09053  -1.74947
         Item               Value     Threshold  Converged?
 Maximum Force            0.075946     0.000002     NO 
 RMS     Force            0.013925     0.000001     NO 
 Maximum Displacement     0.162368     0.000006     NO 
 RMS     Displacement     0.048810     0.000004     NO 
 Predicted change in Energy=-2.242216D-02
 GradGradGradGradGradGradGradGradGradGradGradGradGradGradGradGradGradGrad

                          Input orientation:                          
 ---------------------------------------------------------------------
 Center     Atomic     Atomic              Coordinates (Angstroms)
 Number     Number      Type              X           Y           Z
 ---------------------------------------------------------------------
    1          6             0       -1.556891   -0.229799   -0.349013
    2          6             0       -0.096047    0.033049   -0.334760
    3          6             0        0.885615   -0.898896   -0.170570
    4          6             0        2.252431   -0.213827   -0.227441
    5          6             0        1.888041    1.257940   -0.393748
    6          6             0        0.531424    1.379614   -0.482236
    7          6             0       -0.205807    2.637760   -0.672351
    8          6             0       -1.912661   -1.149509   -1.501726
    9          6             0       -1.990788   -0.832147    0.974428
   10          1             0       -3.073772   -0.999417    0.995152
   11          1             0       -1.506277   -1.797091    1.162019
   12          1             0        0.748846   -1.971180   -0.027245
   13          1             0       -2.993492   -1.325659   -1.546195
   14          1             0        2.846930   -0.567615   -1.104690
   15          1             0       -1.609249   -0.717734   -2.461653
   16          1             0       -1.424117   -2.126185   -1.409804
   17          1             0        2.623005    2.061052   -0.456027
   18          1             0       -0.873556    2.821220    0.176677
   19          1             0        0.473664    3.493034   -0.757133
   20          1             0       -0.812332    2.596931   -1.583832
   21          1             0       -1.743645   -0.170520    1.811885
   22          8             0        2.995966   -0.364491    1.005292
   23          8             0        3.622521   -1.595277    1.088162
   24          1             0        3.021498   -2.063921    1.652323
   25          1             0       -2.091206    0.742670   -0.489913
 ---------------------------------------------------------------------
                    Distance matrix (angstroms):
                    1          2          3          4          5
     1  C    0.000000
     2  C    1.484371   0.000000
     3  C    2.538773   1.363503   0.000000
     4  C    3.811295   2.363856   1.529947   0.000000
     5  C    3.752722   2.332476   2.388850   1.525299   0.000000
     6  C    2.639890   1.492885   2.326842   2.359204   1.364934
     7  C    3.186356   2.628789   3.735093   3.791099   2.523039
     8  C    1.516966   2.461775   3.108879   4.455030   4.633440
     9  C    1.517427   2.460200   3.096639   4.453282   4.613641
    10  H    2.167953   3.420745   4.128651   5.520899   5.625326
    11  H    2.177655   2.752909   2.881614   4.308737   4.824419
    12  H    2.907295   2.196666   1.090431   2.321451   3.443734
    13  H    2.167481   3.421819   4.137866   5.522226   5.642028
    14  H    4.480938   3.100759   2.197517   1.117211   2.181183
    15  H    2.168887   2.716087   3.392083   4.489788   4.517805
    16  H    2.176967   2.753503   2.894270   4.309536   4.843042
    17  H    4.767702   3.394222   3.444023   2.316171   1.090431
    18  H    3.170491   2.939385   4.129712   4.375685   3.224229
    19  H    4.260187   3.531920   4.450034   4.145528   2.669861
    20  H    3.173255   2.940533   4.135352   4.374121   3.240558
    21  H    2.169762   2.713688   3.372487   4.486575   4.482684
    22  O    4.751925   3.393276   2.474231   1.447472   2.411865
    23  O    5.545837   4.301617   3.091926   2.348694   3.653125
    24  H    5.322686   4.250278   3.040101   2.747330   4.062743
    25  H    1.118499   2.123274   3.414408   4.455442   4.013622
                    6          7          8          9         10
     6  C    0.000000
     7  C    1.470573   0.000000
     8  C    3.661881   4.236109   0.000000
     9  C    3.657228   4.235362   2.497631   0.000000
    10  H    4.565074   4.922890   2.757735   1.096021   0.000000
    11  H    4.116705   4.972327   2.771289   1.095928   1.766683
    12  H    3.388526   4.750773   3.151643   3.131507   4.074558
    13  H    4.568976   4.923766   1.095993   2.757264   2.563459
    14  H    3.088806   4.447533   4.811439   5.272213   6.296864
    15  H    3.591579   4.053466   1.095422   3.459091   3.764793
    16  H    4.120091   4.972251   1.095911   2.771319   3.126464
    17  H    2.199944   2.895094   5.654507   5.630621   6.627643
    18  H    2.118104   1.095626   4.434351   3.902782   4.484208
    19  H    2.132005   1.095611   5.272776   5.270580   5.986394
    20  H    2.121569   1.095599   3.905544   4.437570   4.969808
    21  H    3.583552   4.052506   3.459335   1.095520   1.767303
    22  O    3.365800   4.698867   5.567406   5.008729   6.102864
    23  O    4.568480   5.972780   6.127354   5.666087   6.723395
    24  H    4.755496   6.158361   5.927064   5.205748   6.222327
    25  H    2.698879   2.679436   2.153133   2.152772   2.491128
                   11         12         13         14         15
    11  H    0.000000
    12  H    2.555432   0.000000
    13  H    3.125456   4.090109   0.000000
    14  H    5.059643   2.744601   5.905936   0.000000
    15  H    3.782408   3.613597   1.767417   4.660624   0.000000
    16  H    2.594094   2.580167   1.767026   4.556761   1.767596
    17  H    5.878291   4.467126   6.648557   2.716762   5.445747
    18  H    4.764455   5.063681   4.965785   5.193084   4.475067
    19  H    5.965629   5.519609   5.988621   4.716148   4.997447
    20  H    5.227685   5.072265   4.488383   4.861495   3.520319
    21  H    1.767598   3.582916   3.764725   5.453208   4.310525
    22  O    4.727271   2.949089   6.580845   2.124969   5.775162
    23  O    5.133299   3.105390   7.126300   2.542878   6.383000
    24  H    4.562054   2.827454   6.852418   3.141739   6.338835
    25  H    3.085678   3.955368   2.491552   5.145871   2.500563
                   16         17         18         19         20
    16  H    0.000000
    17  H    5.901003   0.000000
    18  H    5.224639   3.633746   0.000000
    19  H    5.966839   2.600174   1.771535   0.000000
    20  H    4.765752   3.655223   1.775795   1.772066   0.000000
    21  H    3.782327   5.402867   3.518731   4.993790   4.478506
    22  O    5.336045   2.856189   5.080212   4.934435   5.475100
    23  O    5.655993   4.092956   6.367964   6.261894   6.661988
    24  H    5.398517   4.649659   6.419780   6.570896   6.847955
    25  H    3.085698   4.895209   2.499477   3.770208   2.504089
                   21         22         23         24         25
    21  H    0.000000
    22  O    4.811666   0.000000
    23  O    5.599058   1.383572   0.000000
    24  H    5.130011   1.818615   0.948227   0.000000
    25  H    2.500597   5.416712   6.372048   6.213362   0.000000
 Stoichiometry    C9H14O2
 Framework group  C1[X(C9H14O2)]
 Deg. of freedom    69
 Full point group                 C1
 Largest Abelian subgroup         C1      NOp   1
 Largest concise Abelian subgroup C1      NOp   1
                         Standard orientation:                         
 ---------------------------------------------------------------------
 Center     Atomic     Atomic              Coordinates (Angstroms)
 Number     Number      Type              X           Y           Z
 ---------------------------------------------------------------------
    1          6             0       -2.068395   -0.463561    0.103406
    2          6             0       -0.683367    0.030442   -0.099112
    3          6             0        0.406985   -0.734441   -0.391046
    4          6             0        1.637533    0.164415   -0.527235
    5          6             0        1.082760    1.549821   -0.211937
    6          6             0       -0.261792    1.458798    0.004720
    7          6             0       -1.158455    2.582913    0.312852
    8          6             0       -2.579201   -1.125090   -1.162549
    9          6             0       -2.110838   -1.431066    1.271619
   10          1             0       -3.133370   -1.778452    1.458732
   11          1             0       -1.491515   -2.316909    1.090571
   12          1             0        0.427840   -1.816931   -0.520743
   13          1             0       -3.613913   -1.464905   -1.039685
   14          1             0        2.045953    0.137646   -1.566772
   15          1             0       -2.558765   -0.430136   -2.009054
   16          1             0       -1.977053   -1.998434   -1.437700
   17          1             0        1.688614    2.456325   -0.196798
   18          1             0       -1.625253    2.441326    1.293897
   19          1             0       -0.617271    3.535342    0.331899
   20          1             0       -1.952920    2.661118   -0.437511
   21          1             0       -1.749944   -0.958629    2.191794
   22          8             0        2.660800   -0.151081    0.446707
   23          8             0        3.422433   -1.241876    0.066768
   24          1             0        3.026083   -1.926942    0.588998
   25          1             0       -2.725739    0.409840    0.340281
 ---------------------------------------------------------------------
 Rotational constants (GHZ):      1.5308439      0.7310532      0.5690628
 Standard basis: VSTO-3G (5D, 7F)
 There are    58 symmetry adapted basis functions of A   symmetry.
 Integral buffers will be    131072 words long.
 Raffenetti 1 integral format.
 Two-electron integral symmetry is turned on.
    58 basis functions,   174 primitive gaussians,    58 cartesian basis functions
    31 alpha electrons       31 beta electrons
       nuclear repulsion energy       336.1862234740 Hartrees.
 NAtoms=   25 NActive=   25 NUniq=   25 SFac= 7.50D-01 NAtFMM=   80 NAOKFM=F Big=F
 Initial guess read from the read-write file:
 Initial guess orbital symmetries:
       Occupied  (A) (A) (A) (A) (A) (A) (A) (A) (A) (A) (A) (A)
                 (A) (A) (A) (A) (A) (A) (A) (A) (A) (A) (A) (A)
                 (A) (A) (A) (A) (A) (A) (A)
       Virtual   (A) (A) (A) (A) (A) (A) (A) (A) (A) (A) (A) (A)
                 (A) (A) (A) (A) (A) (A) (A) (A) (A) (A) (A) (A)
                 (A) (A) (A)
 RHF-PM3 calculation of energy and first derivatives.
 MO and density RWFs will be updated without deorthogonalization.
 Closed-shell calculation:      31 occupied levels.
 NNHCO=    0.
 References:
  H: (PM3): J. J. P. STEWART, J. COMP. CHEM.     10, 209 (1989).
  C: (PM3): J. J. P. STEWART, J. COMP. CHEM.     10, 209 (1989).
  O: (PM3): J. J. P. STEWART, J. COMP. CHEM.     10, 209 (1989).
 Ext34=T Pulay=F Camp-King=F BShift= 0.00D+00
 It=  1 PL= 0.999D+00 DiagD=T ESCF=      8.818737 Diff= 0.448D+01 RMSDP= 0.192D+00.
 It=  2 PL= 0.458D-01 DiagD=T ESCF=      0.119762 Diff=-0.870D+01 RMSDP= 0.444D-02.
 It=  3 PL= 0.137D-01 DiagD=F ESCF=     -0.450576 Diff=-0.570D+00 RMSDP= 0.204D-02.
 It=  4 PL= 0.529D-02 DiagD=F ESCF=     -0.533920 Diff=-0.833D-01 RMSDP= 0.283D-03.
 It=  5 PL= 0.325D-02 DiagD=F ESCF=     -0.511645 Diff= 0.223D-01 RMSDP= 0.161D-03.
 It=  6 PL= 0.202D-02 DiagD=F ESCF=     -0.512185 Diff=-0.540D-03 RMSDP= 0.236D-03.
 It=  7 PL= 0.233D-03 DiagD=F ESCF=     -0.512918 Diff=-0.733D-03 RMSDP= 0.171D-04.
 It=  8 PL= 0.146D-03 DiagD=F ESCF=     -0.512501 Diff= 0.417D-03 RMSDP= 0.992D-05.
 It=  9 PL= 0.105D-03 DiagD=F ESCF=     -0.512503 Diff=-0.201D-05 RMSDP= 0.171D-04.
 It= 10 PL= 0.186D-04 DiagD=F ESCF=     -0.512507 Diff=-0.359D-05 RMSDP= 0.116D-05.
 It= 11 PL= 0.102D-04 DiagD=F ESCF=     -0.512504 Diff= 0.223D-05 RMSDP= 0.591D-06.
 It= 12 PL= 0.597D-05 DiagD=F ESCF=     -0.512504 Diff=-0.726D-08 RMSDP= 0.799D-06.
 It= 13 PL= 0.146D-05 DiagD=F ESCF=     -0.512504 Diff=-0.824D-08 RMSDP= 0.878D-07.
 Energy=   -0.018834555545 NIter=  14.
 Dipole moment=      -0.799140      -0.184156      -0.088799
 ***** Axes restored to original set *****
 -------------------------------------------------------------------
 Center     Atomic                   Forces (Hartrees/Bohr)
 Number     Number              X              Y              Z
 -------------------------------------------------------------------
    1          6          -0.001253526    0.002653378   -0.000628736
    2          6           0.022678016   -0.000091940    0.001180972
    3          6          -0.003654302    0.016993871   -0.002993441
    4          6          -0.000404916   -0.003833910    0.008345038
    5          6          -0.016451108   -0.007355396    0.000441704
    6          6           0.014896524   -0.013063599    0.003921168
    7          6          -0.000074258   -0.002155593   -0.000347762
    8          6          -0.002235724   -0.000324252   -0.002413242
    9          6          -0.002526865    0.000288883    0.002203460
   10          1          -0.001448829   -0.000315490   -0.000131221
   11          1           0.001103021   -0.001587518    0.000205748
   12          1           0.001634261    0.001564163    0.000013532
   13          1          -0.001438284   -0.000323546    0.000069399
   14          1          -0.001230176   -0.000539225    0.001246702
   15          1           0.000482738    0.000407758   -0.001421484
   16          1           0.001083190   -0.001601328    0.000258815
   17          1          -0.000072604   -0.002449238    0.001156954
   18          1          -0.001822786    0.000521156    0.001017041
   19          1           0.000811413    0.001233014   -0.000159171
   20          1          -0.001693201    0.000240101   -0.001217247
   21          1           0.000449569    0.000757766    0.001212293
   22          8          -0.022680222    0.042433496   -0.009711335
   23          8           0.013065409   -0.032286304   -0.002559850
   24          1           0.000731321   -0.001638254    0.000417540
   25          1           0.000051339    0.000472007   -0.000106878
 -------------------------------------------------------------------
 Cartesian Forces:  Max     0.042433496 RMS     0.008451043

 GradGradGradGradGradGradGradGradGradGradGradGradGradGradGradGradGradGrad
 Berny optimization.
 Use GDIIS/GDPIS optimizer.
 Internal  Forces:  Max     0.036297887 RMS     0.005521221
 Search for a local minimum.
 Step number   2 out of a maximum of 109
 All quantities printed in internal units (Hartrees-Bohrs-Radians)
 Swaping is turned off.
   2   1  0.3812339E-02  0.2156380E-01  0.1767935    
 Update second derivatives using D2CorL and points  1  2
 Trust test= 9.14D-01 RLast= 3.74D-01 DXMaxT set to 4.24D-01
 RFO step:  Lambda= 5.62645328D-04.
 DIIS coeff's:      1.03064     -0.03064
 Cosine:  1.000 >  0.866
 Length:  1.002
 GDIIS step was calculated using  2 of the last  2 vectors.
 Iteration  1 RMS(Cart)=  0.03717220 RMS(Int)=  0.00032303
 Iteration  2 RMS(Cart)=  0.00070631 RMS(Int)=  0.00005624
 Iteration  3 RMS(Cart)=  0.00000026 RMS(Int)=  0.00005624
 Variable       Old X    -DE/DX   Delta X   Delta X   Delta X     New X
                                  (DIIS)     (GDIIS)  (Total)
    R1        2.80505   0.00557  -0.00142   0.00986   0.00844   2.81350
    R2        2.86665   0.00428  -0.00077   0.00874   0.00797   2.87462
    R3        2.86752   0.00408  -0.00075   0.00799   0.00725   2.87477
    R4        2.11366   0.00040   0.00023   0.00168   0.00191   2.11557
    R5        2.57665  -0.01630   0.00207  -0.01635  -0.01432   2.56233
    R6        2.82114  -0.01335   0.00204  -0.02497  -0.02291   2.79823
    R7        2.89118  -0.01138   0.00195  -0.02008  -0.01819   2.87300
    R8        2.06062  -0.00174   0.00028  -0.00273  -0.00245   2.05817
    R9        2.88240  -0.01132   0.00185  -0.01991  -0.01804   2.86435
   R10        2.11122  -0.00146   0.00006  -0.00322  -0.00316   2.10806
   R11        2.73533  -0.01554   0.00012  -0.02871  -0.02859   2.70673
   R12        2.57935  -0.01791   0.00231  -0.01779  -0.01543   2.56392
   R13        2.06062  -0.00192   0.00026  -0.00325  -0.00299   2.05763
   R14        2.77898   0.00135  -0.00147   0.00081  -0.00066   2.77832
   R15        2.07043   0.00199  -0.00101   0.00275   0.00174   2.07218
   R16        2.07040   0.00148  -0.00106   0.00122   0.00016   2.07056
   R17        2.07038   0.00194  -0.00101   0.00269   0.00168   2.07206
   R18        2.07113   0.00147  -0.00105   0.00139   0.00034   2.07147
   R19        2.07005   0.00154  -0.00110   0.00143   0.00033   2.07038
   R20        2.07097   0.00193  -0.00105   0.00234   0.00128   2.07225
   R21        2.07118   0.00148  -0.00104   0.00132   0.00028   2.07146
   R22        2.07100   0.00192  -0.00106   0.00234   0.00128   2.07229
   R23        2.07023   0.00149  -0.00109   0.00130   0.00021   2.07045
   R24        2.61457   0.03630   0.00371   0.04996   0.05368   2.66825
   R25        1.79189   0.00059  -0.00502  -0.00797  -0.01299   1.77889
    A1        1.92353   0.00091  -0.00069   0.00609   0.00536   1.92889
    A2        1.92125   0.00127  -0.00075   0.00553   0.00474   1.92600
    A3        1.89377  -0.00097  -0.00030  -0.00842  -0.00872   1.88505
    A4        1.93372  -0.00048  -0.00054   0.00068   0.00010   1.93382
    A5        1.89586  -0.00045   0.00122  -0.00246  -0.00123   1.89463
    A6        1.89484  -0.00034   0.00119  -0.00188  -0.00069   1.89415
    A7        2.20021   0.00389   0.00030   0.01367   0.01399   2.21420
    A8        2.18025  -0.00443  -0.00078  -0.01457  -0.01533   2.16492
    A9        1.90265   0.00054   0.00048   0.00088   0.00132   1.90396
   A10        1.90992  -0.00005  -0.00109  -0.00092  -0.00215   1.90777
   A11        2.21136   0.00150   0.00114   0.00812   0.00927   2.22063
   A12        2.16188  -0.00145  -0.00005  -0.00731  -0.00734   2.15454
   A13        1.79536  -0.00180   0.00133  -0.00119   0.00013   1.79550
   A14        1.94205  -0.00040  -0.00028  -0.00536  -0.00566   1.93639
   A15        1.96129   0.00383   0.00052   0.01249   0.01303   1.97432
   A16        1.92524   0.00159   0.00039   0.00923   0.00962   1.93486
   A17        1.89231  -0.00358  -0.00061  -0.01405  -0.01463   1.87768
   A18        1.94166   0.00014  -0.00112  -0.00122  -0.00235   1.93931
   A19        1.90766   0.00036  -0.00106   0.00017  -0.00098   1.90667
   A20        2.16020  -0.00193  -0.00018  -0.00955  -0.00987   2.15033
   A21        2.21498   0.00158   0.00123   0.01011   0.01119   2.22618
   A22        1.90809   0.00094   0.00031   0.00035   0.00060   1.90869
   A23        2.18188  -0.00382  -0.00072  -0.01270  -0.01354   2.16834
   A24        2.19311   0.00288   0.00041   0.01271   0.01300   2.20611
   A25        1.92689   0.00042   0.00046   0.00286   0.00331   1.93021
   A26        1.94654   0.00023  -0.00036   0.00142   0.00105   1.94760
   A27        1.93179   0.00060   0.00060   0.00359   0.00419   1.93598
   A28        1.88307  -0.00023  -0.00015  -0.00045  -0.00061   1.88247
   A29        1.88971  -0.00123  -0.00047  -0.00787  -0.00834   1.88137
   A30        1.88393   0.00014  -0.00011   0.00000  -0.00012   1.88381
   A31        1.93859  -0.00003   0.00019   0.00092   0.00111   1.93970
   A32        1.94116   0.00022   0.00036   0.00256   0.00292   1.94408
   A33        1.95199  -0.00027   0.00008  -0.00326  -0.00318   1.94881
   A34        1.87648  -0.00023   0.00010   0.00141   0.00150   1.87798
   A35        1.87527   0.00036  -0.00031   0.00027  -0.00003   1.87524
   A36        1.87686  -0.00004  -0.00046  -0.00188  -0.00234   1.87452
   A37        1.93865   0.00007   0.00020   0.00093   0.00113   1.93978
   A38        1.95237  -0.00042   0.00009  -0.00371  -0.00362   1.94875
   A39        1.94171   0.00010   0.00038   0.00192   0.00230   1.94401
   A40        1.87468   0.00045  -0.00033   0.00047   0.00015   1.87483
   A41        1.87615   0.00012   0.00008   0.00207   0.00215   1.87830
   A42        1.87672  -0.00030  -0.00046  -0.00160  -0.00207   1.87465
   A43        1.95651  -0.01421   0.00244  -0.03504  -0.03259   1.92392
   A44        1.76018   0.00310  -0.00230   0.00937   0.00707   1.76725
    D1       -1.08022  -0.00022   0.00053  -0.00722  -0.00673  -1.08696
    D2        2.07630  -0.00028   0.00097  -0.00585  -0.00485   2.07144
    D3        1.05787   0.00063  -0.00119   0.00141   0.00024   1.05811
    D4       -3.10773   0.00057  -0.00148  -0.02583  -0.02731  -3.13503
    D5       -1.01842   0.00041  -0.00099  -0.02174  -0.02272  -1.04114
    D6        1.04472  -0.00133   0.00038  -0.03742  -0.03706   1.00765
    D7        3.10577  -0.00058   0.00142   0.01796   0.01937   3.12514
    D8       -1.08282  -0.00024   0.00120   0.01670   0.01789  -1.06493
    D9       -1.04534   0.00111  -0.00041   0.02987   0.02948  -1.01586
   D10        3.13545  -0.00054  -0.00023  -0.02200  -0.02216   3.11329
   D11        0.00165  -0.00021  -0.00003  -0.00643  -0.00634  -0.00469
   D12       -0.01909  -0.00054  -0.00061  -0.02333  -0.02395  -0.04304
   D13        3.11871   0.00050  -0.00067   0.01469   0.01403   3.13275
   D14       -0.00804  -0.00021  -0.00023  -0.01023  -0.01025  -0.01829
   D15       -0.01012   0.00042  -0.00029   0.01574   0.01550   0.00538
   D16        0.03776   0.00038   0.00117   0.02177   0.02293   0.06070
   D17       -2.02341  -0.00028   0.00011   0.01414   0.01426  -2.00915
   D18       -3.11136   0.00008   0.00098   0.00682   0.00793  -3.10343
   D19       -0.04400  -0.00013  -0.00135  -0.01190  -0.01324  -0.05724
   D20        3.12406  -0.00088  -0.00057  -0.04023  -0.04062   3.08344
   D21        2.02896  -0.00084  -0.00080  -0.01450  -0.01528   2.01368
   D22        1.40762   0.00143  -0.00143   0.02187   0.02051   1.42812
   D23       -2.90314  -0.00080   0.00010   0.01887   0.01890  -2.88424
   D24        0.03489  -0.00013   0.00106  -0.00111  -0.00010   0.03478
   D25       -3.12167   0.00051   0.00062   0.02375   0.02455  -3.09712
   D26       -3.13422   0.00059   0.00025   0.02796   0.02837  -3.10585
   D27        1.05039   0.00022   0.00013   0.00800   0.00814   1.05852
   D28       -3.13944   0.00036   0.00002   0.01027   0.01030  -3.12914
   D29       -2.07397  -0.00057   0.00064  -0.02079  -0.02017  -2.09413
   D30       -1.74947  -0.00034   0.00277  -0.01208  -0.00931  -1.75878
         Item               Value     Threshold  Converged?
 Maximum Force            0.036298     0.000002     NO 
 RMS     Force            0.005521     0.000001     NO 
 Maximum Displacement     0.141443     0.000006     NO 
 RMS     Displacement     0.037291     0.000004     NO 
 Predicted change in Energy=-2.474517D-03
 GradGradGradGradGradGradGradGradGradGradGradGradGradGradGradGradGradGrad

                          Input orientation:                          
 ---------------------------------------------------------------------
 Center     Atomic     Atomic              Coordinates (Angstroms)
 Number     Number      Type              X           Y           Z
 ---------------------------------------------------------------------
    1          6             0       -1.550372   -0.219277   -0.349259
    2          6             0       -0.082394    0.026938   -0.316710
    3          6             0        0.893606   -0.897032   -0.137170
    4          6             0        2.250730   -0.216077   -0.213970
    5          6             0        1.886170    1.246267   -0.375676
    6          6             0        0.537229    1.364049   -0.461138
    7          6             0       -0.218170    2.606936   -0.675976
    8          6             0       -1.911798   -1.135099   -1.508843
    9          6             0       -2.017001   -0.811046    0.972218
   10          1             0       -3.099725   -0.982158    0.968391
   11          1             0       -1.533258   -1.773454    1.177910
   12          1             0        0.767129   -1.967827    0.016511
   13          1             0       -2.991972   -1.317903   -1.546321
   14          1             0        2.830578   -0.580610   -1.094491
   15          1             0       -1.616065   -0.699125   -2.469469
   16          1             0       -1.416207   -2.109672   -1.424539
   17          1             0        2.625625    2.044710   -0.411614
   18          1             0       -0.900496    2.793295    0.161951
   19          1             0        0.447312    3.472681   -0.766318
   20          1             0       -0.819609    2.546466   -1.590796
   21          1             0       -1.789653   -0.143958    1.811097
   22          8             0        3.011948   -0.341359    0.992868
   23          8             0        3.663176   -1.593587    1.031659
   24          1             0        3.096346   -2.077750    1.606489
   25          1             0       -2.063033    0.764592   -0.499202
 ---------------------------------------------------------------------
                    Distance matrix (angstroms):
                    1          2          3          4          5
     1  C    0.000000
     2  C    1.488839   0.000000
     3  C    2.545067   1.355925   0.000000
     4  C    3.803511   2.347995   1.520324   0.000000
     5  C    3.736086   2.316351   2.373984   1.515751   0.000000
     6  C    2.622502   1.480762   2.311806   2.343923   1.356768
     7  C    3.141494   2.608427   3.715394   3.778666   2.523856
     8  C    1.521182   2.473506   3.131845   4.455103   4.623801
     9  C    1.521261   2.471085   3.116051   4.469291   4.613470
    10  H    2.172253   3.431333   4.144418   5.532831   5.624192
    11  H    2.178992   2.753236   2.896069   4.322189   4.819215
    12  H    2.926094   2.193585   1.089135   2.307124   3.425852
    13  H    2.172129   3.433101   4.154582   5.520426   5.633973
    14  H    4.458549   3.075624   2.183678   1.115539   2.178550
    15  H    2.174824   2.741110   3.431798   4.502523   4.520417
    16  H    2.178950   2.751627   2.909133   4.300885   4.823706
    17  H    4.750629   3.378428   3.424771   2.300166   1.088851
    18  H    3.123982   2.924233   4.114218   4.373541   3.232313
    19  H    4.218440   3.515093   4.437274   4.142987   2.679522
    20  H    3.118455   2.918013   4.111668   4.353651   3.238561
    21  H    2.174871   2.733405   3.400403   4.520043   4.497374
    22  O    4.757202   3.380176   2.464372   1.432342   2.379252
    23  O    5.565676   4.298080   3.085752   2.333265   3.633608
    24  H    5.373161   4.269988   3.047376   2.737693   4.054946
    25  H    1.119510   2.121407   3.410833   4.433015   3.980387
                    6          7          8          9         10
     6  C    0.000000
     7  C    1.470222   0.000000
     8  C    3.652555   4.191047   0.000000
     9  C    3.648238   4.199397   2.504345   0.000000
    10  H    4.558034   4.887626   2.751590   1.096168   0.000000
    11  H    4.100892   4.934994   2.787370   1.096606   1.767446
    12  H    3.373781   4.730624   3.193241   3.162736   4.102459
    13  H    4.563524   4.884244   1.096174   2.747819   2.539313
    14  H    3.072830   4.430629   4.792627   5.274791   6.291678
    15  H    3.595379   4.012576   1.095598   3.466769   3.755028
    16  H    4.100097   4.923620   1.096590   2.791385   3.135543
    17  H    2.197077   2.910869   5.648301   5.623550   6.621629
    18  H    2.120858   1.096548   4.387091   3.859326   4.443084
    19  H    2.132499   1.095693   5.229568   5.238861   5.952837
    20  H    2.124911   1.096486   3.841031   4.390408   4.919304
    21  H    3.584901   4.027717   3.466883   1.095633   1.768904
    22  O    3.338679   4.680934   5.579593   5.050878   6.145223
    23  O    4.554952   5.968689   6.143671   5.734136   6.790779
    24  H    4.761317   6.175917   5.972888   5.305955   6.324459
    25  H    2.668738   2.613235   2.156635   2.156347   2.505932
                   11         12         13         14         15
    11  H    0.000000
    12  H    2.584261   0.000000
    13  H    3.123589   4.122582   0.000000
    14  H    5.062583   2.723329   5.886412   0.000000
    15  H    3.803211   3.670057   1.768674   4.655883   0.000000
    16  H    2.626688   2.619867   1.767700   4.525721   1.766767
    17  H    5.865259   4.442719   6.644706   2.720410   5.454844
    18  H    4.720991   5.046821   4.918782   5.184862   4.430960
    19  H    5.935033   5.505836   5.948678   4.713473   4.956028
    20  H    5.180419   5.047773   4.433338   4.832058   3.455469
    21  H    1.766895   3.617204   3.754460   5.475367   4.319906
    22  O    4.769070   2.939028   6.591523   2.108839   5.790878
    23  O    5.201602   3.091548   7.142337   2.497970   6.397526
    24  H    4.659346   2.822297   6.898202   3.099573   6.381289
    25  H    3.087887   3.967605   2.509217   5.109928   2.494834
                   16         17         18         19         20
    16  H    0.000000
    17  H    5.883988   0.000000
    18  H    5.178996   3.650053   0.000000
    19  H    5.921877   2.628682   1.771957   0.000000
    20  H    4.697148   3.675849   1.771888   1.772774   0.000000
    21  H    3.804318   5.406051   3.483926   4.972641   4.444349
    22  O    5.345966   2.795556   5.081702   4.921280   5.449374
    23  O    5.665632   4.049290   6.389697   6.264310   6.641737
    24  H    5.436109   4.614000   6.464404   6.592032   6.851329
    25  H    3.088046   4.861058   2.429866   3.702287   2.431616
                   21         22         23         24         25
    21  H    0.000000
    22  O    4.874816   0.000000
    23  O    5.695813   1.411977   0.000000
    24  H    5.258745   1.843559   0.941351   0.000000
    25  H    2.497535   5.404150   6.379186   6.255560   0.000000
 Stoichiometry    C9H14O2
 Framework group  C1[X(C9H14O2)]
 Deg. of freedom    69
 Full point group                 C1
 Largest Abelian subgroup         C1      NOp   1
 Largest concise Abelian subgroup C1      NOp   1
                         Standard orientation:                         
 ---------------------------------------------------------------------
 Center     Atomic     Atomic              Coordinates (Angstroms)
 Number     Number      Type              X           Y           Z
 ---------------------------------------------------------------------
    1          6             0       -2.068611   -0.450410    0.094729
    2          6             0       -0.668617    0.021279   -0.090121
    3          6             0        0.419619   -0.743881   -0.352430
    4          6             0        1.638937    0.151477   -0.504035
    5          6             0        1.086094    1.529461   -0.199030
    6          6             0       -0.251448    1.438556    0.009626
    7          6             0       -1.169939    2.554034    0.280988
    8          6             0       -2.579485   -1.114546   -1.174887
    9          6             0       -2.153519   -1.405506    1.275754
   10          1             0       -3.182684   -1.748110    1.433944
[...]
 387,0.00002675,-0.01397800,-0.01981384,0.00114397,-0.14161297,-0.18258
 406,0.00246105,0.00251294,0.00745439,0.00044459,0.00030581,0.00049565,
 -0.00038904,0.00001501,0.00000012,-0.00000955,0.00002096,0.00000369,0.
 00001542,0.00000238,0.00000207,-0.00000691,-0.00000268,-0.00000141,0.0
 0000002,-0.00028150,-0.00004375,0.00006284,0.00000151,0.00000253,0.000
 00459,0.00002609,-0.00054012,-0.00016847,-0.00000393,-0.00000383,-0.00
 000600,-0.00000233,-0.00000142,0.00000026,0.15186533,0.19864571,0.0000
 0693,-0.00005210,-0.00012977,-0.00068933,0.00059417,0.00544079,-0.0000
 6710,0.00025575,-0.00068758,0.00228433,0.00188786,0.00518307,0.0011364
 2,0.00404405,-0.03806129,-0.00193503,-0.00126291,0.00948446,0.00015888
 ,-0.00042300,-0.00321506,-0.00000816,0.00000540,0.00001479,0.00000405,
 0.00000106,0.00001559,-0.00000160,0.00000250,-0.00000449,-0.00000111,-
 0.00000002,-0.00000025,-0.00001548,0.00008784,0.00057894,0.00000230,-0
 .00000362,-0.00000311,0.00001294,-0.00003309,0.00003235,-0.00000535,-0
 .00000248,0.00000069,0.00000129,-0.00000031,0.00000056,-0.00069147,-0.
 00498790,0.02153024,0.00022682,-0.00042105,0.00005840,0.00012575,-0.00
 011240,0.00003319,-0.00011359,-0.00001748,-0.00002126,-0.00002357,-0.0
 0005027,-0.00052799,0.00013226,0.00084528,-0.00007145,-0.00926880,0.00
 845303,0.00822004,-0.14590268,0.02552535,0.12466331,-0.00001050,0.0000
 2963,-0.00000197,-0.00002659,-0.00000419,-0.00000966,-0.00000452,-0.00
 000870,0.00000097,0.00000355,0.00000757,-0.00000295,0.00000776,0.00000
 166,0.00000423,-0.00000162,-0.00000255,-0.00000133,0.00002568,-0.00007
 773,0.00002445,0.00000160,-0.00000047,-0.00000006,0.00000194,0.0000026
 7,0.00000562,-0.00001590,0.00000834,0.00021206,0.16560964,0.00000191,-
 0.00061223,-0.00005924,0.00008385,-0.00075389,0.00009162,-0.00008448,0
 .00015894,0.00003262,0.00017065,0.00038167,0.00090096,0.00044284,-0.00
 159667,0.00055713,0.01749130,-0.00428012,-0.01549621,0.02605002,-0.045
 87046,-0.03127470,-0.00002687,0.00003621,-0.00000079,-0.00004014,-0.00
 001474,-0.00000196,-0.00000332,-0.00000654,0.00000003,0.00000761,0.000
 01045,-0.00000803,-0.00002894,-0.00000780,-0.00001952,-0.00000550,-0.0
 0000216,0.00000434,-0.00003137,0.00010108,-0.00001587,0.00000915,0.000
 00050,-0.00000007,0.00000696,0.00001080,0.00001305,-0.00005561,-0.0000
 6575,-0.00030773,-0.02910075,0.05016926,-0.00004227,-0.00010315,0.0000
 5732,0.00011483,-0.00003459,0.00016535,0.00001205,-0.00006371,-0.00003
 912,-0.00003857,-0.00012114,-0.00031199,-0.00037549,0.00064571,-0.0004
 5624,-0.00050346,-0.00235673,0.00627693,0.12492912,-0.03091398,-0.1820
 0401,-0.00000307,0.00000361,-0.00002373,-0.00000814,0.00003026,0.00002
 917,0.00000092,0.00000101,-0.00000616,0.00000106,-0.00000294,-0.000012
 33,-0.00000296,-0.00000602,0.00000226,0.00000108,-0.00000007,0.0000033
 7,0.00000200,-0.00004599,-0.00000595,-0.00000039,-0.00000086,-0.000006
 49,-0.00000071,0.00000243,0.00000645,-0.00000198,0.00004452,0.00017964
 ,-0.14505677,0.03476700,0.21056095,-0.00008829,-0.00012313,0.00000800,
 -0.00140054,0.00118973,-0.00031900,0.00021139,0.00029977,-0.00002565,0
 .00011086,0.00005138,0.00002485,0.00001346,0.00098946,-0.00012611,0.01
 203714,0.01024294,-0.00052122,-0.14662112,-0.12928699,0.00695512,0.000
 01881,-0.00001743,0.00000428,0.00001808,-0.00001605,0.00000184,0.00000
 369,0.00000387,-0.00000309,-0.00000501,-0.00000735,0.00000570,-0.00004
 956,0.00001918,-0.00000277,0.00000312,0.00000446,0.00000261,-0.0000015
 9,0.00000174,-0.00000500,-0.00000428,0.00000541,-0.00000054,-0.0000045
 3,-0.00000869,-0.00000441,-0.00033996,-0.00033800,0.00001658,-0.019052
 85,-0.01546071,0.00838421,0.16960628,0.00013612,0.00011046,-0.00000407
 ,0.00147048,-0.00127665,0.00036190,-0.00020227,-0.00029013,0.00001679,
 -0.00022671,-0.00007313,-0.00001710,0.00113921,-0.00102263,0.00021824,
 -0.01104445,-0.02253051,0.00226213,-0.12625426,-0.19215481,0.00791345,
 0.00000234,0.00000067,0.00000116,0.00000419,-0.00000083,0.00000123,-0.
 00000220,-0.00000146,0.00000320,0.00000039,0.00000316,0.00000226,0.000
 06541,-0.00001435,0.00000073,-0.00000161,-0.00000217,-0.00000339,0.000
 00784,0.00002342,-0.00000845,0.00000041,-0.00000342,0.00000328,0.00000
 120,0.00000222,-0.00000260,0.00056936,-0.00026019,0.00007696,-0.004361
 06,0.00116455,0.00359363,0.14698372,0.22024817,-0.00002446,-0.00002022
 ,0.00002186,-0.00035632,0.00032862,0.00055530,0.00002952,0.00005799,-0
 .00006167,0.00005746,0.00000482,0.00005888,-0.00015822,0.00023239,0.00
 004165,0.00214838,0.00409601,0.00303673,0.00655724,0.00767677,-0.04128
 677,0.00000022,0.00000576,0.00000708,0.00000098,-0.00000538,0.00000934
 ,0.00000029,-0.00000116,-0.00000158,-0.00000184,0.00000003,0.00000093,
 -0.00001002,-0.00000176,-0.00003203,0.00000091,0.00000198,-0.00000055,
 -0.00000195,-0.00001904,0.00000644,-0.00000311,0.00000577,0.00000110,0
 .00000067,-0.00000173,0.00000113,-0.00009465,-0.00000688,-0.00008217,0
 .01867731,0.01508311,-0.00253823,-0.00727079,-0.00952327,0.04235029,0.
 00022631,-0.00043994,0.00009430,0.00013886,-0.00016717,0.00000791,-0.0
 0012021,-0.00003131,0.00002151,-0.00018480,0.00017626,0.00046404,0.000
 19393,0.00086642,-0.00007293,-0.00719593,0.00529169,-0.01182310,-0.104
 76200,-0.00636751,-0.11269883,-0.00002661,0.00000245,-0.00000115,-0.00
 001176,0.00003164,-0.00000395,-0.00000149,-0.00000223,0.00000096,0.000
 00262,0.00000087,-0.00000738,0.00000657,-0.00000115,-0.00000387,-0.000
 00389,-0.00000773,0.00000162,-0.00000887,0.00008341,-0.00002312,0.0000
 1078,0.00002912,-0.00000483,0.00000266,0.00000789,0.00000359,0.0000215
 4,-0.00003480,-0.00022473,0.00866982,0.00151869,0.01311457,-0.01444344
 ,-0.00834343,-0.01954792,0.11791091,0.00002117,-0.00054376,0.00023357,
 0.00002935,-0.00063503,0.00012811,-0.00004633,0.00016293,-0.00006961,0
 .00044201,-0.00004783,-0.00095741,0.00036669,-0.00170321,-0.00014694,0
 .01398930,0.00101437,0.01936907,-0.00596007,-0.03956302,-0.00819577,-0
 .00003433,-0.00001397,0.00000662,-0.00002891,0.00003231,-0.00001661,-0
 .00000523,-0.00000353,-0.00000256,0.00000871,0.00000673,-0.00001221,-0
 .00003261,0.00000004,0.00001589,-0.00000358,-0.00000642,0.00000021,0.0
 0002193,-0.00017996,0.00005735,0.00002881,0.00006639,-0.00001474,0.000
 00589,0.00001173,0.00000316,-0.00011046,-0.00000236,0.00032922,-0.0008
 1117,0.00226383,-0.00469310,-0.01454549,-0.00397541,-0.01790760,0.0076
 4339,0.04362892,0.00008121,0.00017599,-0.00000896,-0.00013852,0.000226
 14,0.00011897,-0.00001507,0.00001237,-0.00003252,-0.00000689,0.0000268
 1,-0.00005674,0.00033586,-0.00017491,-0.00020875,-0.00531973,0.0047001
 5,-0.00123595,-0.11306331,-0.00864816,-0.22929070,0.00000947,-0.000016
 40,0.00003259,0.00001269,-0.00001178,-0.00001690,-0.00000051,0.0000016
 4,0.00000406,-0.00000263,-0.00000205,0.00000907,0.00001222,0.00000603,
 -0.00000594,0.00000030,-0.00000187,-0.00000495,0.00000413,-0.00000593,
 0.00000718,0.00001407,0.00004961,-0.00000504,-0.00000050,-0.00000303,-
 0.00001253,0.00000257,-0.00001019,0.00006705,-0.00617858,-0.00388355,-
 0.03169001,-0.00710890,-0.00492164,-0.00200199,0.13065986,0.01160994,0
 .26470321,0.00468251,0.00553484,0.00804318,-0.00049861,0.00001124,0.00
 054349,-0.00015351,0.00006062,0.00002198,-0.00001348,-0.00002255,0.000
 01061,-0.00000125,0.00002863,-0.00001489,0.00003334,-0.00005585,0.0000
 3659,0.00000034,-0.00000366,0.00001322,-0.00026906,-0.00077828,0.00102
 575,-0.05076679,-0.03271379,-0.03929030,-0.01326003,-0.02071098,-0.021
 92599,0.00459853,0.00907802,0.00752748,0.00000330,0.00003699,0.0000267
 5,-0.00000404,-0.00002752,-0.00002411,0.00001301,0.00000429,0.00000972
 ,0.00011112,0.00016709,0.00015120,-0.00002592,-0.00003713,-0.00003052,
 -0.00000432,-0.00000408,0.00000548,0.00001570,0.00002910,-0.00002491,-
 0.00000471,0.00000118,0.00000184,0.00000133,0.00000919,-0.00000149,0.0
 5529810,0.00198691,0.00903548,0.00602997,0.00023444,0.00031055,-0.0002
 6869,0.00005860,0.00000640,-0.00000086,0.00002869,0.00004036,0.0000237
 0,-0.00000156,-0.00001800,0.00000031,0.00003518,0.00000492,-0.00001110
 ,-0.00001732,-0.00000430,0.00003171,-0.00071936,-0.00056583,0.00119159
 ,-0.03221338,-0.14421019,-0.12449603,-0.00772203,-0.00326383,-0.006533
 08,-0.00120642,-0.02809616,-0.01940936,-0.00000514,-0.00002969,-0.0000
 0930,-0.00000380,-0.00005424,-0.00001055,-0.00000410,-0.00000636,-0.00
 000206,0.00008735,0.00022933,0.00016743,-0.00002503,-0.00002149,-0.000
 00167,0.00000111,-0.00000151,0.00000298,0.00005196,0.00007207,-0.00008
 084,0.00000654,-0.00000567,-0.00000349,-0.00000007,-0.00000044,-0.0000
 0154,0.03929434,0.16650322,-0.00141706,-0.01140575,-0.02197482,0.00093
 060,-0.00003899,-0.00050216,0.00006390,-0.00004572,-0.00005645,0.00001
 480,0.00001338,-0.00001631,-0.00001993,-0.00002561,-0.00000567,-0.0000
 3282,0.00003083,-0.00006931,-0.00000813,-0.00000227,-0.00001537,0.0010
 3769,0.00128601,-0.00202264,-0.03827514,-0.12247543,-0.18594184,-0.007
 90811,-0.00641420,-0.00435113,0.00168276,-0.00424998,0.00240067,-0.000
 00633,-0.00001759,-0.00000045,0.00003183,0.00007281,0.00008295,-0.0000
 0654,-0.00000218,-0.00001119,-0.00012598,-0.00030288,-0.00027245,0.000
 01987,0.00007685,0.00008447,0.00000208,0.00000682,0.00000140,-0.000004
 95,-0.00000021,0.00000804,-0.00000248,-0.00000139,0.00000367,0.0000018
 5,0.00000045,-0.00000613,0.04432493,0.14279983,0.21426926,-0.00022767,
 0.00054345,0.00115456,-0.00209578,-0.00196747,0.00025447,-0.03359567,-
 0.00132484,-0.03144529,-0.10336545,0.01427630,-0.10234758,-0.00778037,
 0.01940511,-0.01369150,0.00040846,-0.00007954,-0.00121318,0.00006914,0
 .00021295,0.00038143,0.00010399,0.00002578,0.00002210,-0.00017084,-0.0
 0000475,-0.00006943,-0.00000988,-0.00001772,0.00003373,0.00002353,0.00
 001531,-0.00001021,-0.00037137,-0.00028916,0.00061559,-0.00000749,0.00
 001030,0.00000943,0.00872939,-0.00147300,0.00428135,0.00001129,-0.0000
 0768,0.00001102,0.00001798,0.00001600,0.00000414,0.00010038,0.00021121
 ,-0.00013978,-0.00002728,0.00000523,-0.00001027,-0.00001623,0.00003802
 ,-0.00000838,0.00003965,-0.00010151,0.00001272,0.00000338,-0.00000946,
 -0.00001056,0.20308500,0.00012161,0.00020213,0.00025468,-0.00116424,0.
 00015796,0.00171696,-0.00514764,0.00635484,-0.00994503,0.02018366,-0.0
 6477189,-0.00452652,0.02129948,-0.01522943,0.02959552,0.00102744,-0.00
 253806,-0.00073023,0.00034290,-0.00008909,-0.00117317,-0.00002301,-0.0
 0000287,0.00000836,-0.00006037,-0.00000994,-0.00002618,-0.00000955,-0.
 00000827,0.00001314,0.00001170,0.00001505,0.00000055,-0.00002249,-0.00
 007845,0.00047801,-0.00000241,-0.00000910,-0.00001183,-0.00535188,0.00
 622525,-0.00559846,0.00000340,-0.00000690,0.00000727,0.00000183,0.0000
 0841,-0.00000488,-0.00038760,-0.00087915,-0.00008593,0.00009413,-0.000
 17846,0.00006112,-0.00001555,0.00002329,0.00000810,-0.00008496,0.00014
 616,0.00001847,0.00001404,-0.00000716,-0.00001292,-0.10999181,0.177413
 34,-0.00001802,0.00016839,-0.00009041,0.00025234,0.00035724,-0.0003258
 3,-0.02195690,-0.00473833,-0.00465543,-0.09555182,-0.01330588,-0.26808
 550,-0.00673888,0.02096670,-0.00336378,-0.00102315,-0.00311572,0.00012
 368,0.00033024,0.00018735,-0.00036340,-0.00008211,0.00001610,0.0000453
 6,-0.00004208,0.00001783,-0.00003992,-0.00000553,-0.00001433,0.0000221
 5,0.00000286,0.00001304,-0.00000832,-0.00087907,-0.00014442,-0.0002586
 2,-0.00001159,-0.00001625,-0.00001679,-0.01554229,0.00389684,-0.019884
 13,0.00002009,-0.00000646,0.00002080,0.00002079,0.00002423,-0.00000327
 ,0.00025454,0.00069491,-0.00035842,0.00003183,-0.00008666,0.00001408,-
 0.00002093,0.00005093,-0.00002081,0.00000810,-0.00000990,0.00001102,-0
 .00000057,-0.00001058,-0.00000791,0.13977662,0.02583744,0.36088025,0.0
 0006905,0.00006413,0.00007254,-0.00026674,0.00004490,-0.00001470,-0.00
 184577,0.00114617,-0.00156559,-0.02703793,0.01831532,-0.01940386,-0.00
 013003,-0.00144481,0.00023716,-0.00005227,0.00017897,-0.00015062,-0.00
 002816,0.00001891,0.00004048,-0.00004996,0.00000556,0.00001637,-0.0000
 7008,-0.00000757,-0.00003259,-0.00001023,-0.00000561,0.00001525,0.0000
 1957,0.00001434,-0.00000110,0.00004142,-0.00002671,0.00007132,-0.00000
 440,-0.00001032,-0.00001297,-0.00018009,0.00003535,-0.00246823,0.00000
 800,-0.00000325,0.00001156,0.00001225,0.00001156,0.00000131,-0.0001613
 5,-0.00003360,-0.00006426,0.00000220,0.00000939,-0.00001617,-0.0000136
 9,0.00000226,-0.00000092,0.00000126,0.00000556,0.00001137,0.00001647,-
 0.00000675,-0.00001272,-0.03732510,0.05891273,0.02885883,0.13798901,-0
 .00006581,0.00005374,0.00006989,-0.00017284,-0.00001029,-0.00000723,-0
 .00036528,0.00039576,-0.00119463,0.01398691,-0.00842988,0.02631882,0.0
 0141029,0.00114960,0.00102367,-0.00028047,-0.00051872,0.00007399,0.000
 21360,0.00004972,-0.00003868,0.00003701,-0.00000013,-0.00001159,0.0000
 1238,-0.00000206,0.00001299,0.00000331,0.00000559,-0.00000699,0.000006
 89,-0.00000784,-0.00000190,0.00017322,-0.00019391,0.00013932,0.0000020
 5,0.00000872,0.00000972,0.00115424,0.00024617,0.00254027,-0.00000583,-
 0.00000128,-0.00000632,0.00000304,-0.00000579,0.00000729,0.00005706,0.
 00003775,-0.00017766,-0.00000570,-0.00004916,0.00002314,-0.00000657,0.
 00003362,-0.00000813,-0.00000101,-0.00004157,-0.00000615,-0.00000940,-
 0.00000155,0.00000539,0.05429028,-0.08871475,-0.06335837,-0.09087720,0
 .11905610,-0.00000380,-0.00001068,0.00002558,0.00011963,0.00010480,-0.
 00027106,-0.00067569,0.00031971,0.00019313,-0.02280402,0.03430253,0.01
 032601,-0.00392570,0.00075308,-0.00456935,0.00010267,0.00080467,-0.000
 07464,-0.00023202,0.00001727,0.00034016,-0.00000674,-0.00000367,0.0000
 1216,-0.00000719,0.00000255,-0.00000575,0.00000218,-0.00000315,0.00000
 782,-0.00000722,-0.00000217,-0.00000240,0.00004817,-0.00001989,-0.0001
 3920,-0.00000362,0.00000182,-0.00000143,0.00002541,0.00116445,-0.00285
 388,0.00000749,0.00000347,0.00000661,0.00000661,0.00000287,-0.00000278
 ,-0.00004415,-0.00003072,0.00001746,-0.00002891,0.00007881,-0.00003772
 ,0.00000360,-0.00002372,-0.00000563,0.00002780,-0.00001529,0.00000300,
 -0.00000765,0.00000153,-0.00000116,0.01552644,-0.05206328,-0.06490531,
 0.16642602,0.03075989,0.56120020,-0.00003390,-0.00003088,-0.00002860,0
 .00000323,-0.00011321,-0.00002820,0.00004958,-0.00001010,0.00039894,-0
 .00346756,0.00447068,-0.00191088,-0.00060573,-0.00009036,-0.00025297,0
 .00005397,0.00022687,-0.00004488,-0.00004266,-0.00001526,0.00001985,0.
 00001677,-0.00000422,-0.00000040,0.00002911,0.00000881,0.00001195,0.00
 000574,-0.00000113,-0.00000331,-0.00001603,-0.00000635,-0.00000257,-0.
 00006581,0.00001571,-0.00015903,-0.00000016,0.00000524,0.00000484,-0.0
 0010542,0.00046418,0.00000161,0.00000065,0.00000292,-0.00000214,-0.000
 00263,-0.00000310,-0.00000301,0.00006591,0.00000062,0.00000268,-0.0000
 0468,0.00001103,-0.00000045,0.00000725,-0.00000691,-0.00000016,0.00000
 210,0.00000206,-0.00000528,-0.00001062,0.00000454,0.00000570,-0.027514
 74,0.02027108,-0.02763578,-0.07096955,0.02044578,-0.15455092,0.1026039
 4,0.00001290,-0.00000284,0.00000296,0.00000817,0.00007862,0.00000456,-
 0.00004919,-0.00015189,-0.00003038,0.00482324,-0.00487760,0.00192763,0
 .00070587,-0.00004914,0.00038302,-0.00007756,-0.00029217,0.00003744,0.
 00000213,-0.00000008,-0.00003288,-0.00000561,0.00000176,0.00000335,-0.
 00000515,0.00000425,-0.00000359,-0.00000030,-0.00000319,0.00000222,-0.
 00000483,0.00000302,-0.00000011,-0.00006294,0.00008267,-0.00005250,-0.
 00000066,-0.00000215,-0.00000215,0.00027953,-0.00040488,-0.00004943,0.
 00000168,-0.00000042,0.00000122,-0.00000166,0.00000205,-0.00000344,0.0
 0008650,-0.00000416,0.00005010,0.00000712,-0.00000062,0.00000195,0.000
 00388,-0.00000231,0.00000329,-0.00000042,0.00000705,0.00000033,0.00000
 264,0.00000058,0.00000034,0.02626210,-0.01799684,0.03261106,0.01367073
 ,-0.02305834,-0.01614812,-0.04565779,0.04666751,-0.00002088,-0.0000087
 5,-0.00000980,0.00000634,-0.00003686,0.00000087,0.00002565,-0.00005713
 ,0.00014131,0.00039543,-0.00113200,-0.00013833,0.00035466,0.00015478,0
 .00039546,0.00000820,-0.00004790,0.00000366,0.00005123,-0.00000092,-0.
 00003375,0.00001433,0.00000084,-0.00000908,0.00001428,-0.00000075,0.00
 000782,0.00000120,0.00000298,-0.00000564,0.00000085,-0.00000215,0.0000
 0172,0.00002398,-0.00003097,0.00002726,0.00000183,0.00000233,0.0000039
 6,0.00008112,-0.00016107,-0.00001762,-0.00000375,-0.00000075,-0.000004
 38,-0.00000292,-0.00000290,0.00000213,0.00000009,0.00002324,-0.0000120
 6,0.00000226,-0.00001542,0.00001029,-0.00000015,0.00000601,0.00000109,
 -0.00000376,-0.00000609,-0.00000322,-0.00000041,0.00000021,0.00000352,
 -0.01311189,0.01618091,0.00126950,-0.17201956,0.00384061,-0.49926193,0
 .18417938,-0.01870991,0.49762810,-0.08103940,0.08593174,-0.01645486,-0
 .01646084,0.02054912,-0.00465606,-0.00249838,-0.00116283,-0.00006765,-
 0.00010873,0.00034340,-0.00002905,0.00006938,0.00010247,-0.00001319,-0
 .00228769,-0.00048158,-0.00014379,-0.00106517,-0.00142886,0.00004873,0
 .00514870,-0.00300890,0.00045571,0.00599477,-0.00589901,0.00209293,-0.
 00021090,-0.00073933,0.00041834,-0.00033375,-0.00025239,0.00114137,0.0
 0010236,-0.00004523,0.00001087,-0.00009049,-0.00072842,-0.00020950,-0.
 00001752,-0.00004548,0.00001331,0.00009644,0.00037796,0.00043514,-0.00
 001922,-0.00039168,-0.00074779,0.00001071,-0.00001488,-0.00000024,-0.0
 0036940,-0.00099997,-0.00047343,0.00001649,0.00002083,0.00000399,-0.00
 046794,-0.00089443,0.00068436,0.00023661,0.00014487,-0.00028564,-0.000
 08207,-0.00002285,-0.00004637,-0.00001308,-0.00000626,0.00000186,0.000
 00128,-0.00000042,0.00000215,0.09338928,0.08610563,-0.21315634,0.03341
 371,0.00248956,0.00458100,0.00007782,-0.00084990,-0.00041255,0.0000598
 6,0.00002735,0.00019751,-0.00000200,0.00000351,-0.00004717,0.00000524,
 -0.00081859,0.00024875,-0.00006636,-0.00116666,-0.00062911,0.00002392,
 0.00525447,-0.01672548,-0.00391154,0.00245522,-0.00881343,0.00779523,-
 0.00075267,-0.00084475,0.00074943,-0.00030508,-0.00000034,0.00067990,-
 0.00001893,-0.00002869,-0.00000174,-0.00079262,-0.00126620,-0.00057111
 ,-0.00001268,-0.00002091,-0.00000731,0.00038291,-0.00041983,-0.0010141
 1,-0.00047998,-0.00059411,-0.00128493,-0.00000800,0.00000814,-0.000001
 15,-0.00005261,-0.00092963,-0.00075178,0.00002305,0.00000571,-0.000006
 13,-0.00016998,-0.00062285,0.00086041,0.00009041,0.00008426,0.00070222
 ,-0.00004500,-0.00002554,-0.00003671,-0.00002027,-0.00000214,0.0000020
 4,0.00000935,0.00000026,0.00000307,-0.09134786,0.23941431,-0.01649602,
 0.03342963,-0.04540623,-0.00194467,0.00151629,0.00348653,-0.00009808,0
 .00001599,0.00025518,0.00000799,-0.00000762,-0.00009850,0.00000774,0.0
 0001071,0.00001982,-0.00012614,-0.00003143,0.00026762,0.00002501,-0.00
 000670,0.00042836,0.00583675,-0.01812814,0.00210436,-0.00582274,0.0207
 1622,-0.00665238,0.00058306,0.00077107,-0.00021899,0.00129457,0.000643
 24,-0.00215287,0.00001253,-0.00000408,-0.00002359,-0.00036097,-0.00058
 524,0.00007427,0.00001157,0.00000252,0.00000508,0.00057705,-0.00089594
 ,-0.00095684,-0.00087465,-0.00123875,-0.00187638,0.00000095,-0.0000017
 8,0.00000874,-0.00002726,-0.00035855,-0.00018083,0.00000422,-0.0000066
 1,-0.00006286,0.00000882,0.00029401,-0.00037515,-0.00042187,0.00058896
 ,-0.00159717,-0.00001962,-0.00000363,0.00000381,0.00000022,-0.00000382
 ,0.00000139,0.00000240,0.00000159,-0.00000107,0.01781907,-0.03671792,0
 .05294860\\0.,0.,-0.00000001,-0.00000004,-0.00000002,0.,0.00000005,0.,
 0.,-0.00000001,-0.00000001,0.00000006,0.00000003,0.,-0.00000001,0.,0.0
 0000002,0.,0.00000002,-0.00000001,0.,0.,0.,0.00000001,0.,0.,0.,0.,0.,0
 .,0.,0.,0.,-0.00000002,0.,0.,0.,0.,0.,0.,0.,-0.00000002,0.,0.,0.,0.,0.
 ,0.,0.,0.,0.,-0.00000001,0.00000001,0.,0.,0.,0.,-0.00000001,0.,0.,0.,0
 .,0.,0.,0.,-0.00000002,0.,0.,0.,0.,0.,0.,0.,0.,0.\\\@


 Where a calculator on the ENIAC is equipped with 18,000
 vacuum tubes and weighs 30 tons, computers inthe future
 may  have only 1,000 vacuum tubes and weigh only 1 1/2 tons.
              ---Popular Mechanics, March 1949
 Job cpu time:  0 days  0 hours  0 minutes 18.7 seconds.
 File lengths (MBytes):  RWF=     13 Int=      0 D2E=      0 Chk=     17 Scr=      1
 Normal termination of Gaussian 03 at Wed Jun  1 15:20:18 2011.
