 Entering Gaussian System, Link 0=g03
 Input=QMfiles//AAAVTDCFEWFTIY-UHFFFAOYAZ.gjf
 Output=QMfiles//AAAVTDCFEWFTIY-UHFFFAOYAZ.log
 Initial command:
 /opt/g03/l1.exe /scratch/nickv/Gau-22623.inp -scrdir=/scratch/nickv/
 Entering Link 1 = /opt/g03/l1.exe PID=     22625.
  
 Copyright (c) 1988,1990,1992,1993,1995,1998,2003,2004, Gaussian, Inc.
                  All Rights Reserved.
  
 This is the Gaussian(R) 03 program.  It is based on the
 the Gaussian(R) 98 system (copyright 1998, Gaussian, Inc.),
 the Gaussian(R) 94 system (copyright 1995, Gaussian, Inc.),
 the Gaussian 92(TM) system (copyright 1992, Gaussian, Inc.),
 the Gaussian 90(TM) system (copyright 1990, Gaussian, Inc.),
 the Gaussian 88(TM) system (copyright 1988, Gaussian, Inc.),
 the Gaussian 86(TM) system (copyright 1986, Carnegie Mellon
 University), and the Gaussian 82(TM) system (copyright 1983,
 Carnegie Mellon University). Gaussian is a federally registered
 trademark of Gaussian, Inc.
  
 This software contains proprietary and confidential information,
 including trade secrets, belonging to Gaussian, Inc.
  
 This software is provided under written license and may be
 used, copied, transmitted, or stored only in accord with that
 written license.
  
 The following legend is applicable only to US Government
 contracts under FAR:
  
                    RESTRICTED RIGHTS LEGEND
  
 Use, reproduction and disclosure by the US Government is
 subject to restrictions as set forth in subparagraphs (a)
 and (c) of the Commercial Computer Software - Restricted
 Rights clause in FAR 52.227-19.
  
 Gaussian, Inc.
 340 Quinnipiac St., Bldg. 40, Wallingford CT 06492
  
  
 ---------------------------------------------------------------
 Warning -- This program may not be used in any manner that
 competes with the business of Gaussian, Inc. or will provide
 assistance to any competitor of Gaussian, Inc.  The licensee
 of this program is prohibited from giving any competitor of
 Gaussian, Inc. access to this program.  By using this program,
 the user acknowledges that Gaussian, Inc. is engaged in the
 business of creating and licensing software in the field of
 computational chemistry and represents and warrants to the
 licensee that it is not a competitor of Gaussian, Inc. and that
 it will not use this program in any manner prohibited above.
 ---------------------------------------------------------------
  

 Cite this work as:
 Gaussian 03, Revision D.01,
 M. J. Frisch, G. W. Trucks, H. B. Schlegel, G. E. Scuseria, 
 M. A. Robb, J. R. Cheeseman, J. A. Montgomery, Jr., T. Vreven, 
 K. N. Kudin, J. C. Burant, J. M. Millam, S. S. Iyengar, J. Tomasi, 
 V. Barone, B. Mennucci, M. Cossi, G. Scalmani, N. Rega, 
 G. A. Petersson, H. Nakatsuji, M. Hada, M. Ehara, K. Toyota, 
 R. Fukuda, J. Hasegawa, M. Ishida, T. Nakajima, Y. Honda, O. Kitao, 
 H. Nakai, M. Klene, X. Li, J. E. Knox, H. P. Hratchian, J. B. Cross, 
 V. Bakken, C. Adamo, J. Jaramillo, R. Gomperts, R. E. Stratmann, 
 O. Yazyev, A. J. Austin, R. Cammi, C. Pomelli, J. W. Ochterski, 
 P. Y. Ayala, K. Morokuma, G. A. Voth, P. Salvador, J. J. Dannenberg, 
 V. G. Zakrzewski, S. Dapprich, A. D. Daniels, M. C. Strain, 
 O. Farkas, D. K. Malick, A. D. Rabuck, K. Raghavachari, 
 J. B. Foresman, J. V. Ortiz, Q. Cui, A. G. Baboul, S. Clifford, 
 J. Cioslowski, B. B. Stefanov, G. Liu, A. Liashenko, P. Piskorz, 
 I. Komaromi, R. L. Martin, D. J. Fox, T. Keith, M. A. Al-Laham, 
 C. Y. Peng, A. Nanayakkara, M. Challacombe, P. M. W. Gill, 
 B. Johnson, W. Chen, M. W. Wong, C. Gonzalez, and J. A. Pople, 
 Gaussian, Inc., Wallingford CT, 2004.
 
 ******************************************
 Gaussian 03:  AM64L-G03RevD.01 13-Oct-2005
                29-May-2011 
 ******************************************
 %chk=/home/nickv/JP10_pyrolysis/JP10SeedMechQM/QMfiles/RMGrunCHKfile.chk
 %mem=6MW
 %nproc=1
 Will use up to    1 processors via shared memory.
 --------------------------------------------
 # pm3 opt=(verytight,gdiis) freq IOP(2/16=3)
 --------------------------------------------
 1/7=1,14=-1,18=50,19=11,26=3,38=1/1,3;
 2/9=110,16=3,17=6,18=5,40=1/2;
 3/5=2,11=9,12=1,16=1,25=1,30=1/1;
 4/5=3,11=1,20=7,22=1,24=3,35=1,68=1/1,2;
 6/7=2,8=2,9=2,10=2/1;
 7//16;
 1/14=-1,18=50,19=11/3(3);
 2/9=110,16=3/2;
 6/7=2,8=2,9=2,10=2/1;
 99//99;
 2/9=110,16=3/2;
 3/5=2,11=9,12=1,16=1,25=1,30=1/1;
 4/5=5,11=1,16=3,20=7,22=1,24=3,35=1,68=1/1,2;
 7//16;
 1/14=-1,18=50,19=11/3(-4);
 2/9=110,16=3/2;
 6/7=2,8=2,9=2,10=2/1;
 99//99;
 ------------------------------------------------
 InChI=1/C9H16/c1-2-3-6-9-7-4-5-8-9/h2,9H,1,3-8H2
 ------------------------------------------------
 Symbolic Z-matrix:
 Charge =  0 Multiplicity = 1
 C                     0.752    -1.2237   -0.4992 
 C                     2.0541   -0.9099    0.2449 
 C                     2.7531    0.3044   -0.2996 
 C                     2.986     1.3917    0.4391 
 H                     0.3672   -2.2008   -0.1236 
 H                     0.9819   -1.3789   -1.5798 
 H                     1.8528   -0.8304    1.3388 
 H                     3.0756    0.2961   -1.34 
 H                     2.6763    1.451     1.4812 
 C                    -0.3426   -0.1509   -0.365 
 C                    -0.8496    0.0782    1.0558 
 C                    -2.243     0.6779    0.9007 
 C                    -2.6758    0.4128   -0.5383 
 C                    -1.6108   -0.4928   -1.1375 
 H                     0.046     0.817    -0.7657 
 H                    -0.1718    0.7461    1.6365 
 H                    -0.9283   -0.8913    1.6033 
 H                    -2.9537    0.2196    1.6274 
 H                    -2.2193    1.775     1.0999 
 H                    -3.6885   -0.0492   -0.597 
 H                    -2.7052    1.3724   -1.1067 
 H                    -1.9035   -1.557    -0.9692 
 H                    -1.4936   -0.334    -2.2346 
 H                     2.7486   -1.7731    0.1275 
 H                     3.4921    2.2497    0.0009 
 

 GradGradGradGradGradGradGradGradGradGradGradGradGradGradGradGradGradGrad
 Berny optimization.
 Initialization pass.
                           ----------------------------
                           !    Initial Parameters    !
                           ! (Angstroms and Degrees)  !
 --------------------------                            --------------------------
 ! Name  Definition              Value          Derivative Info.                !
 --------------------------------------------------------------------------------
 ! R1    R(1,2)                  1.5322         estimate D2E/DX2                !
 ! R2    R(1,5)                  1.1153         estimate D2E/DX2                !
 ! R3    R(1,6)                  1.1156         estimate D2E/DX2                !
 ! R4    R(1,10)                 1.5385         estimate D2E/DX2                !
 ! R5    R(2,3)                  1.5032         estimate D2E/DX2                !
 ! R6    R(2,7)                  1.1151         estimate D2E/DX2                !
 ! R7    R(2,24)                 1.1141         estimate D2E/DX2                !
 ! R8    R(3,4)                  1.335          estimate D2E/DX2                !
 ! R9    R(3,8)                  1.0893         estimate D2E/DX2                !
 ! R10   R(4,9)                  1.0888         estimate D2E/DX2                !
 ! R11   R(4,25)                 1.0883         estimate D2E/DX2                !
 ! R12   R(10,11)                1.5258         estimate D2E/DX2                !
 ! R13   R(10,14)                1.5238         estimate D2E/DX2                !
 ! R14   R(10,15)                1.1173         estimate D2E/DX2                !
 ! R15   R(11,12)                1.5249         estimate D2E/DX2                !
 ! R16   R(11,16)                1.1148         estimate D2E/DX2                !
 ! R17   R(11,17)                1.1162         estimate D2E/DX2                !
 ! R18   R(12,13)                1.5259         estimate D2E/DX2                !
 ! R19   R(12,18)                1.115          estimate D2E/DX2                !
 ! R20   R(12,19)                1.1153         estimate D2E/DX2                !
 ! R21   R(13,14)                1.521          estimate D2E/DX2                !
 ! R22   R(13,20)                1.1147         estimate D2E/DX2                !
 ! R23   R(13,21)                1.1157         estimate D2E/DX2                !
 ! R24   R(14,22)                1.1165         estimate D2E/DX2                !
 ! R25   R(14,23)                1.1147         estimate D2E/DX2                !
 ! A1    A(2,1,5)              108.0041         estimate D2E/DX2                !
 ! A2    A(2,1,6)              108.8904         estimate D2E/DX2                !
 ! A3    A(2,1,10)             114.7998         estimate D2E/DX2                !
 ! A4    A(5,1,6)              105.9871         estimate D2E/DX2                !
 ! A5    A(5,1,10)             109.6363         estimate D2E/DX2                !
 ! A6    A(6,1,10)             109.1536         estimate D2E/DX2                !
 ! A7    A(1,2,3)              112.6255         estimate D2E/DX2                !
 ! A8    A(1,2,7)              109.7306         estimate D2E/DX2                !
 ! A9    A(1,2,24)             108.657          estimate D2E/DX2                !
 ! A10   A(3,2,7)              112.4385         estimate D2E/DX2                !
 ! A11   A(3,2,24)             107.3281         estimate D2E/DX2                !
 ! A12   A(7,2,24)             105.7322         estimate D2E/DX2                !
 ! A13   A(2,3,4)              122.5905         estimate D2E/DX2                !
 ! A14   A(2,3,8)              118.522          estimate D2E/DX2                !
 ! A15   A(4,3,8)              118.8864         estimate D2E/DX2                !
 ! A16   A(3,4,9)              121.6256         estimate D2E/DX2                !
 ! A17   A(3,4,25)             120.0308         estimate D2E/DX2                !
 ! A18   A(9,4,25)             118.3428         estimate D2E/DX2                !
 ! A19   A(1,10,11)            114.981          estimate D2E/DX2                !
 ! A20   A(1,10,14)            113.0445         estimate D2E/DX2                !
 ! A21   A(1,10,15)            108.9848         estimate D2E/DX2                !
 ! A22   A(11,10,14)           103.2502         estimate D2E/DX2                !
 ! A23   A(11,10,15)           108.6287         estimate D2E/DX2                !
 ! A24   A(14,10,15)           107.5788         estimate D2E/DX2                !
 ! A25   A(10,11,12)           105.5431         estimate D2E/DX2                !
 ! A26   A(10,11,16)           111.8996         estimate D2E/DX2                !
 ! A27   A(10,11,17)           110.4722         estimate D2E/DX2                !
 ! A28   A(12,11,16)           111.8976         estimate D2E/DX2                !
 ! A29   A(12,11,17)           109.0901         estimate D2E/DX2                !
 ! A30   A(16,11,17)           107.924          estimate D2E/DX2                !
 ! A31   A(11,12,13)           106.6652         estimate D2E/DX2                !
 ! A32   A(11,12,18)           110.7628         estimate D2E/DX2                !
 ! A33   A(11,12,19)           110.4432         estimate D2E/DX2                !
 ! A34   A(13,12,18)           111.2499         estimate D2E/DX2                !
 ! A35   A(13,12,19)           110.2043         estimate D2E/DX2                !
 ! A36   A(18,12,19)           107.5456         estimate D2E/DX2                !
 ! A37   A(12,13,14)           106.0432         estimate D2E/DX2                !
 ! A38   A(12,13,20)           112.2946         estimate D2E/DX2                !
 ! A39   A(12,13,21)           109.7853         estimate D2E/DX2                !
 ! A40   A(14,13,20)           111.6313         estimate D2E/DX2                !
 ! A41   A(14,13,21)           109.2597         estimate D2E/DX2                !
 ! A42   A(20,13,21)           107.8015         estimate D2E/DX2                !
 ! A43   A(10,14,13)           104.4445         estimate D2E/DX2                !
 ! A44   A(10,14,22)           110.8324         estimate D2E/DX2                !
 ! A45   A(10,14,23)           112.3014         estimate D2E/DX2                !
 ! A46   A(13,14,22)           108.9397         estimate D2E/DX2                !
 ! A47   A(13,14,23)           112.119          estimate D2E/DX2                !
 ! A48   A(22,14,23)           108.1625         estimate D2E/DX2                !
 ! D1    D(5,1,2,3)            172.9683         estimate D2E/DX2                !
 ! D2    D(5,1,2,7)            -60.9606         estimate D2E/DX2                !
 ! D3    D(6,1,2,3)             58.3042         estimate D2E/DX2                !
 ! D4    D(2,1,10,11)          -62.6747         estimate D2E/DX2                !
 ! D5    D(2,1,10,14)          179.0975         estimate D2E/DX2                !
 ! D6    D(5,1,10,11)           59.0859         estimate D2E/DX2                !
 ! D7    D(1,2,3,4)            118.9619         estimate D2E/DX2                !
 ! D8    D(1,2,3,8)            -60.6507         estimate D2E/DX2                !
 ! D9    D(7,2,3,4)             -5.6363         estimate D2E/DX2                !
 ! D10   D(2,3,4,9)             -0.0728         estimate D2E/DX2                !
 ! D11   D(2,3,4,25)          -179.7357         estimate D2E/DX2                !
 ! D12   D(8,3,4,9)            179.5385         estimate D2E/DX2                !
 ! D13   D(1,10,11,12)        -156.7381         estimate D2E/DX2                !
 ! D14   D(1,10,11,16)          81.3227         estimate D2E/DX2                !
 ! D15   D(14,10,11,12)        -33.1399         estimate D2E/DX2                !
 ! D16   D(1,10,14,13)         162.541          estimate D2E/DX2                !
 ! D17   D(1,10,14,22)          45.3715         estimate D2E/DX2                !
 ! D18   D(11,10,14,13)         37.675          estimate D2E/DX2                !
 ! D19   D(10,11,12,13)         16.0868         estimate D2E/DX2                !
 ! D20   D(10,11,12,18)        137.2913         estimate D2E/DX2                !
 ! D21   D(16,11,12,13)        138.0273         estimate D2E/DX2                !
 ! D22   D(11,12,13,14)          7.3231         estimate D2E/DX2                !
 ! D23   D(11,12,13,20)        129.4954         estimate D2E/DX2                !
 ! D24   D(18,12,13,14)       -113.5707         estimate D2E/DX2                !
 ! D25   D(12,13,14,10)        -27.9565         estimate D2E/DX2                !
 ! D26   D(12,13,14,22)         90.5107         estimate D2E/DX2                !
 ! D27   D(20,13,14,10)       -150.5506         estimate D2E/DX2                !
 --------------------------------------------------------------------------------
 Trust Radius=3.00D-01 FncErr=1.00D-07 GrdErr=1.00D-06
 Number of steps in this run= 110 maximum allowed number of steps= 150.
 GradGradGradGradGradGradGradGradGradGradGradGradGradGradGradGradGradGrad

                          Input orientation:                          
 ---------------------------------------------------------------------
 Center     Atomic     Atomic              Coordinates (Angstroms)
 Number     Number      Type              X           Y           Z
 ---------------------------------------------------------------------
    1          6             0        0.752000   -1.223700   -0.499200
    2          6             0        2.054100   -0.909900    0.244900
    3          6             0        2.753100    0.304400   -0.299600
    4          6             0        2.986000    1.391700    0.439100
    5          1             0        0.367200   -2.200800   -0.123600
    6          1             0        0.981900   -1.378900   -1.579800
    7          1             0        1.852800   -0.830400    1.338800
    8          1             0        3.075600    0.296100   -1.340000
    9          1             0        2.676300    1.451000    1.481200
   10          6             0       -0.342600   -0.150900   -0.365000
   11          6             0       -0.849600    0.078200    1.055800
   12          6             0       -2.243000    0.677900    0.900700
   13          6             0       -2.675800    0.412800   -0.538300
   14          6             0       -1.610800   -0.492800   -1.137500
   15          1             0        0.046000    0.817000   -0.765700
   16          1             0       -0.171800    0.746100    1.636500
   17          1             0       -0.928300   -0.891300    1.603300
   18          1             0       -2.953700    0.219600    1.627400
   19          1             0       -2.219300    1.775000    1.099900
   20          1             0       -3.688500   -0.049200   -0.597000
   21          1             0       -2.705200    1.372400   -1.106700
   22          1             0       -1.903500   -1.557000   -0.969200
   23          1             0       -1.493600   -0.334000   -2.234600
   24          1             0        2.748600   -1.773100    0.127500
   25          1             0        3.492100    2.249700    0.000900
 ---------------------------------------------------------------------
                    Distance matrix (angstroms):
                    1          2          3          4          5
     1  C    0.000000
     2  C    1.532194   0.000000
     3  C    2.525734   1.503199   0.000000
     4  C    3.565316   2.490685   1.334969   0.000000
     5  H    1.115290   2.155887   3.464033   4.481161   0.000000
     6  H    1.115633   2.167742   2.758543   3.970969   1.781543
     7  H    2.178231   1.115105   2.186931   2.651666   2.494718
     8  H    2.901009   2.238260   1.089269   2.091307   3.879377
     9  H    3.844338   2.736680   2.119396   1.088762   4.609010
    10  C    1.538525   2.586934   3.129686   3.755765   2.182700
    11  C    2.584200   3.172597   3.855869   4.100906   2.839970
    12  C    3.813899   4.627770   5.151819   5.297643   4.018613
    13  C    3.798615   4.973418   5.435226   5.828339   4.032708
    14  C    2.554303   3.939098   4.514557   5.212253   2.803166
    15  H    2.175756   2.834777   2.794351   3.228842   3.102028
    16  H    3.048726   3.103791   3.535339   3.438352   3.474578
    17  H    2.711900   3.277241   4.313170   4.678589   2.524934
    18  H    4.509740   5.316497   6.023959   6.169758   4.466846
    19  H    4.514194   5.118756   5.370850   5.261057   4.898359
    20  H    4.594242   5.867457   6.458149   6.906421   4.615430
    21  H    4.365893   5.448546   5.620060   5.897426   4.813926
    22  H    2.717291   4.189913   5.059357   5.880931   2.507109
    23  H    2.974206   4.366435   4.710227   5.494864   3.376957
    24  H    2.163563   1.114104   2.120953   3.188952   2.432498
    25  H    4.452275   3.480007   2.102525   1.088265   5.439435
                    6          7          8          9         10
     6  H    0.000000
     7  H    3.094761   0.000000
     8  H    2.691971   3.152810   0.000000
     9  H    4.499894   2.429653   3.074476   0.000000
    10  C    2.176700   2.860845   3.582531   3.884365   0.000000
    11  C    3.524758   2.865067   4.603752   3.807560   1.525847
    12  C    4.558869   4.386625   5.783944   5.013400   2.429079
    13  C    4.204008   5.057397   5.808179   5.813881   2.406577
    14  C    2.775409   4.271131   4.756649   5.386574   1.523805
    15  H    2.522032   3.226046   3.127241   3.516958   1.117319
    16  H    4.023833   2.583212   4.428054   2.938142   2.199951
    17  H    3.744161   2.794313   5.109222   4.300514   2.182989
    18  H    5.322620   4.928309   6.720400   5.764948   3.305264
    19  H    5.232166   4.840163   6.014667   4.921104   3.062193
    20  H    4.954456   5.921453   6.813540   6.861501   3.355475
    21  H    4.624736   5.622114   5.884768   5.971930   2.907308
    22  H    2.954672   4.468177   5.325684   6.002257   2.185997
    23  H    2.765625   4.920772   4.698396   5.863571   2.203118
    24  H    2.488272   1.777186   2.557748   3.497507   3.525565
    25  H    4.686838   3.736883   2.405834   1.869422   4.538908
                   11         12         13         14         15
    11  C    0.000000
    12  C    1.524880   0.000000
    13  C    2.447063   1.525882   0.000000
    14  C    2.390822   2.434024   1.520979   0.000000
    15  H    2.160043   2.834741   2.761029   2.144481   0.000000
    16  H    1.114772   2.199073   3.333296   3.361647   2.413095
    17  H    1.116190   2.164364   3.056286   2.852471   3.078914
    18  H    2.184939   1.115001   2.191988   3.155244   3.883557
    19  H    2.181090   1.115290   2.178917   3.243324   3.087039
    20  H    3.287451   2.204824   1.114653   2.192204   3.837350
    21  H    3.129634   2.173848   1.115695   2.162783   2.827340
    22  H    2.808061   2.933695   2.159221   1.116477   3.078610
    23  H    3.378073   3.378705   2.198350   1.114711   2.419264
    24  H    4.151638   5.614384   5.886048   4.716329   3.848437
    25  H    4.967755   6.014280   6.458168   5.903969   3.809975
                   16         17         18         19         20
    16  H    0.000000
    17  H    1.804016   0.000000
    18  H    2.831299   2.310179   0.000000
    19  H    2.353472   3.004871   1.799130   0.000000
    20  H    4.241250   3.628933   2.357995   2.892356   0.000000
    21  H    3.786227   3.952950   2.977583   2.295053   1.802115
    22  H    3.884936   2.830535   3.316860   3.934861   2.366056
    23  H    4.230743   3.919136   4.165742   4.011659   2.753258
    24  H    4.141520   4.058959   6.223888   6.181796   6.703207
    25  H    4.284876   5.654512   6.950910   5.835515   7.563296
                   21         22         23         24         25
    21  H    0.000000
    22  H    3.040232   0.000000
    23  H    2.377380   1.806927   0.000000
    24  H    6.415712   4.784505   5.064266   0.000000
    25  H    6.356332   6.674171   6.044019   4.092889   0.000000
 Stoichiometry    C9H16
 Framework group  C1[X(C9H16)]
 Deg. of freedom    69
 Full point group                 C1
 Largest Abelian subgroup         C1      NOp   1
 Largest concise Abelian subgroup C1      NOp   1
                         Standard orientation:                         
 ---------------------------------------------------------------------
 Center     Atomic     Atomic              Coordinates (Angstroms)
 Number     Number      Type              X           Y           Z
 ---------------------------------------------------------------------
    1          6             0        0.660393   -1.288992    0.361797
    2          6             0        1.992408   -0.625160    0.726052
    3          6             0        2.685424   -0.026808   -0.466135
    4          6             0        2.958001    1.276652   -0.560127
    5          1             0        0.277995   -1.814631    1.268079
    6          1             0        0.848851   -2.083968   -0.397897
    7          1             0        1.832116    0.117503    1.542274
    8          1             0        2.969623   -0.684331   -1.286746
    9          1             0        2.687260    1.974963    0.230104
   10          6             0       -0.415782   -0.326968   -0.170570
   11          6             0       -0.867846    0.744514    0.817243
   12          6             0       -2.258768    1.165449    0.355281
   13          6             0       -2.746904    0.084334   -0.604526
   14          6             0       -1.715292   -1.031491   -0.540577
   15          1             0       -0.030613    0.175850   -1.091015
   16          1             0       -0.161435    1.606346    0.847952
   17          1             0       -0.938006    0.320978    1.847570
   18          1             0       -2.947862    1.274820    1.225002
   19          1             0       -2.214807    2.151036   -0.164869
   20          1             0       -3.766479   -0.283278   -0.344182
   21          1             0       -2.785644    0.490647   -1.642882
   22          1             0       -2.014255   -1.756293    0.254283
   23          1             0       -1.636329   -1.585851   -1.504440
   24          1             0        2.671876   -1.399099    1.150984
   25          1             0        3.457913    1.666119   -1.444844
 ---------------------------------------------------------------------
 Rotational constants (GHZ):      3.0328850      0.8726157      0.7910666
 Standard basis: VSTO-3G (5D, 7F)
 There are    52 symmetry adapted basis functions of A   symmetry.
 Integral buffers will be    131072 words long.
 Raffenetti 1 integral format.
 Two-electron integral symmetry is turned on.
    52 basis functions,   156 primitive gaussians,    52 cartesian basis functions
    26 alpha electrons       26 beta electrons
       nuclear repulsion energy       251.1319093744 Hartrees.
 NAtoms=   25 NActive=   25 NUniq=   25 SFac= 7.50D-01 NAtFMM=   80 NAOKFM=F Big=F
 Simple Huckel Guess.
 Initial guess orbital symmetries:
       Occupied  (A) (A) (A) (A) (A) (A) (A) (A) (A) (A) (A) (A)
                 (A) (A) (A) (A) (A) (A) (A) (A) (A) (A) (A) (A)
                 (A) (A)
       Virtual   (A) (A) (A) (A) (A) (A) (A) (A) (A) (A) (A) (A)
                 (A) (A) (A) (A) (A) (A) (A) (A) (A) (A) (A) (A)
                 (A) (A)
 The electronic state of the initial guess is 1-A.
 RHF-PM3 calculation of energy and first derivatives.
 MO and density RWFs will be updated without deorthogonalization.
 Closed-shell calculation:      26 occupied levels.
 NNHCO=    0.
 References:
  H: (PM3): J. J. P. STEWART, J. COMP. CHEM.     10, 209 (1989).
  C: (PM3): J. J. P. STEWART, J. COMP. CHEM.     10, 209 (1989).
 Ext34=T Pulay=F Camp-King=F BShift= 0.00D+00
 It=  1 PL= 0.646D+00 DiagD=T ESCF=      5.623238 Diff= 0.129D+01 RMSDP= 0.196D+00.
 It=  2 PL= 0.464D-01 DiagD=T ESCF=     -0.089423 Diff=-0.571D+01 RMSDP= 0.432D-02.
 It=  3 PL= 0.140D-01 DiagD=F ESCF=     -0.493344 Diff=-0.404D+00 RMSDP= 0.184D-02.
 It=  4 PL= 0.229D-02 DiagD=F ESCF=     -0.547687 Diff=-0.543D-01 RMSDP= 0.163D-03.
 It=  5 PL= 0.115D-02 DiagD=F ESCF=     -0.533113 Diff= 0.146D-01 RMSDP= 0.741D-04.
 It=  6 PL= 0.579D-03 DiagD=F ESCF=     -0.533210 Diff=-0.966D-04 RMSDP= 0.745D-04.
 It=  7 PL= 0.450D-04 DiagD=F ESCF=     -0.533274 Diff=-0.641D-04 RMSDP= 0.429D-05.
 It=  8 PL= 0.245D-04 DiagD=F ESCF=     -0.533240 Diff= 0.336D-04 RMSDP= 0.191D-05.
 It=  9 PL= 0.133D-04 DiagD=F ESCF=     -0.533240 Diff=-0.628D-07 RMSDP= 0.219D-05.
 It= 10 PL= 0.167D-05 DiagD=F ESCF=     -0.533240 Diff=-0.533D-07 RMSDP= 0.204D-06.
 It= 11 PL= 0.864D-06 DiagD=F ESCF=     -0.533240 Diff= 0.305D-07 RMSDP= 0.826D-07.
 Energy=   -0.019596600709 NIter=  12.
 Dipole moment=      -0.019025      -0.063503       0.022184

 **********************************************************************

            Population analysis using the SCF density.

 **********************************************************************

 Orbital symmetries:
       Occupied  (A) (A) (A) (A) (A) (A) (A) (A) (A) (A) (A) (A)
                 (A) (A) (A) (A) (A) (A) (A) (A) (A) (A) (A) (A)
                 (A) (A)
       Virtual   (A) (A) (A) (A) (A) (A) (A) (A) (A) (A) (A) (A)
                 (A) (A) (A) (A) (A) (A) (A) (A) (A) (A) (A) (A)
                 (A) (A)
 The electronic state is 1-A.
 Alpha  occ. eigenvalues --   -1.52730  -1.32739  -1.12940  -1.04434  -0.97600
 Alpha  occ. eigenvalues --   -0.81349  -0.74022  -0.72837  -0.69380  -0.62653
 Alpha  occ. eigenvalues --   -0.61528  -0.57394  -0.56829  -0.54239  -0.52885
 Alpha  occ. eigenvalues --   -0.51505  -0.47919  -0.47219  -0.46358  -0.45630
 Alpha  occ. eigenvalues --   -0.44987  -0.44117  -0.42576  -0.41459  -0.40747
 Alpha  occ. eigenvalues --   -0.37190
 Alpha virt. eigenvalues --    0.04193   0.12132   0.12500   0.13312   0.13586
 Alpha virt. eigenvalues --    0.13784   0.14254   0.14328   0.14496   0.14596
 Alpha virt. eigenvalues --    0.14699   0.15252   0.15435   0.15627   0.15813
 Alpha virt. eigenvalues --    0.15976   0.16748   0.17271   0.17312   0.18524
 Alpha virt. eigenvalues --    0.19112   0.19175   0.19354   0.19521   0.20806
 Alpha virt. eigenvalues --    0.21385
          Condensed to atoms (all electrons):
              1          2          3          4          5          6
     1  C    4.083549   0.000000   0.000000   0.000000   0.000000   0.000000
     2  C    0.000000   4.065257   0.000000   0.000000   0.000000   0.000000
     3  C    0.000000   0.000000   4.140572   0.000000   0.000000   0.000000
     4  C    0.000000   0.000000   0.000000   4.170130   0.000000   0.000000
     5  H    0.000000   0.000000   0.000000   0.000000   0.951335   0.000000
     6  H    0.000000   0.000000   0.000000   0.000000   0.000000   0.950727
     7  H    0.000000   0.000000   0.000000   0.000000   0.000000   0.000000
     8  H    0.000000   0.000000   0.000000   0.000000   0.000000   0.000000
     9  H    0.000000   0.000000   0.000000   0.000000   0.000000   0.000000
    10  C    0.000000   0.000000   0.000000   0.000000   0.000000   0.000000
    11  C    0.000000   0.000000   0.000000   0.000000   0.000000   0.000000
    12  C    0.000000   0.000000   0.000000   0.000000   0.000000   0.000000
    13  C    0.000000   0.000000   0.000000   0.000000   0.000000   0.000000
    14  C    0.000000   0.000000   0.000000   0.000000   0.000000   0.000000
    15  H    0.000000   0.000000   0.000000   0.000000   0.000000   0.000000
    16  H    0.000000   0.000000   0.000000   0.000000   0.000000   0.000000
    17  H    0.000000   0.000000   0.000000   0.000000   0.000000   0.000000
    18  H    0.000000   0.000000   0.000000   0.000000   0.000000   0.000000
    19  H    0.000000   0.000000   0.000000   0.000000   0.000000   0.000000
    20  H    0.000000   0.000000   0.000000   0.000000   0.000000   0.000000
    21  H    0.000000   0.000000   0.000000   0.000000   0.000000   0.000000
    22  H    0.000000   0.000000   0.000000   0.000000   0.000000   0.000000
    23  H    0.000000   0.000000   0.000000   0.000000   0.000000   0.000000
    24  H    0.000000   0.000000   0.000000   0.000000   0.000000   0.000000
    25  H    0.000000   0.000000   0.000000   0.000000   0.000000   0.000000
              7          8          9         10         11         12
     1  C    0.000000   0.000000   0.000000   0.000000   0.000000   0.000000
     2  C    0.000000   0.000000   0.000000   0.000000   0.000000   0.000000
     3  C    0.000000   0.000000   0.000000   0.000000   0.000000   0.000000
     4  C    0.000000   0.000000   0.000000   0.000000   0.000000   0.000000
     5  H    0.000000   0.000000   0.000000   0.000000   0.000000   0.000000
     6  H    0.000000   0.000000   0.000000   0.000000   0.000000   0.000000
     7  H    0.943102   0.000000   0.000000   0.000000   0.000000   0.000000
     8  H    0.000000   0.903464   0.000000   0.000000   0.000000   0.000000
     9  H    0.000000   0.000000   0.914612   0.000000   0.000000   0.000000
    10  C    0.000000   0.000000   0.000000   4.084778   0.000000   0.000000
    11  C    0.000000   0.000000   0.000000   0.000000   4.100843   0.000000
    12  C    0.000000   0.000000   0.000000   0.000000   0.000000   4.100636
    13  C    0.000000   0.000000   0.000000   0.000000   0.000000   0.000000
    14  C    0.000000   0.000000   0.000000   0.000000   0.000000   0.000000
    15  H    0.000000   0.000000   0.000000   0.000000   0.000000   0.000000
    16  H    0.000000   0.000000   0.000000   0.000000   0.000000   0.000000
    17  H    0.000000   0.000000   0.000000   0.000000   0.000000   0.000000
    18  H    0.000000   0.000000   0.000000   0.000000   0.000000   0.000000
    19  H    0.000000   0.000000   0.000000   0.000000   0.000000   0.000000
    20  H    0.000000   0.000000   0.000000   0.000000   0.000000   0.000000
    21  H    0.000000   0.000000   0.000000   0.000000   0.000000   0.000000
    22  H    0.000000   0.000000   0.000000   0.000000   0.000000   0.000000
    23  H    0.000000   0.000000   0.000000   0.000000   0.000000   0.000000
    24  H    0.000000   0.000000   0.000000   0.000000   0.000000   0.000000
    25  H    0.000000   0.000000   0.000000   0.000000   0.000000   0.000000
             13         14         15         16         17         18
     1  C    0.000000   0.000000   0.000000   0.000000   0.000000   0.000000
     2  C    0.000000   0.000000   0.000000   0.000000   0.000000   0.000000
     3  C    0.000000   0.000000   0.000000   0.000000   0.000000   0.000000
     4  C    0.000000   0.000000   0.000000   0.000000   0.000000   0.000000
     5  H    0.000000   0.000000   0.000000   0.000000   0.000000   0.000000
     6  H    0.000000   0.000000   0.000000   0.000000   0.000000   0.000000
     7  H    0.000000   0.000000   0.000000   0.000000   0.000000   0.000000
     8  H    0.000000   0.000000   0.000000   0.000000   0.000000   0.000000
     9  H    0.000000   0.000000   0.000000   0.000000   0.000000   0.000000
    10  C    0.000000   0.000000   0.000000   0.000000   0.000000   0.000000
    11  C    0.000000   0.000000   0.000000   0.000000   0.000000   0.000000
    12  C    0.000000   0.000000   0.000000   0.000000   0.000000   0.000000
    13  C    4.102033   0.000000   0.000000   0.000000   0.000000   0.000000
    14  C    0.000000   4.102937   0.000000   0.000000   0.000000   0.000000
    15  H    0.000000   0.000000   0.930976   0.000000   0.000000   0.000000
    16  H    0.000000   0.000000   0.000000   0.944433   0.000000   0.000000
    17  H    0.000000   0.000000   0.000000   0.000000   0.948440   0.000000
    18  H    0.000000   0.000000   0.000000   0.000000   0.000000   0.949784
    19  H    0.000000   0.000000   0.000000   0.000000   0.000000   0.000000
    20  H    0.000000   0.000000   0.000000   0.000000   0.000000   0.000000
    21  H    0.000000   0.000000   0.000000   0.000000   0.000000   0.000000
    22  H    0.000000   0.000000   0.000000   0.000000   0.000000   0.000000
    23  H    0.000000   0.000000   0.000000   0.000000   0.000000   0.000000
    24  H    0.000000   0.000000   0.000000   0.000000   0.000000   0.000000
    25  H    0.000000   0.000000   0.000000   0.000000   0.000000   0.000000
             19         20         21         22         23         24
     1  C    0.000000   0.000000   0.000000   0.000000   0.000000   0.000000
     2  C    0.000000   0.000000   0.000000   0.000000   0.000000   0.000000
     3  C    0.000000   0.000000   0.000000   0.000000   0.000000   0.000000
     4  C    0.000000   0.000000   0.000000   0.000000   0.000000   0.000000
     5  H    0.000000   0.000000   0.000000   0.000000   0.000000   0.000000
     6  H    0.000000   0.000000   0.000000   0.000000   0.000000   0.000000
     7  H    0.000000   0.000000   0.000000   0.000000   0.000000   0.000000
     8  H    0.000000   0.000000   0.000000   0.000000   0.000000   0.000000
     9  H    0.000000   0.000000   0.000000   0.000000   0.000000   0.000000
    10  C    0.000000   0.000000   0.000000   0.000000   0.000000   0.000000
    11  C    0.000000   0.000000   0.000000   0.000000   0.000000   0.000000
    12  C    0.000000   0.000000   0.000000   0.000000   0.000000   0.000000
    13  C    0.000000   0.000000   0.000000   0.000000   0.000000   0.000000
    14  C    0.000000   0.000000   0.000000   0.000000   0.000000   0.000000
    15  H    0.000000   0.000000   0.000000   0.000000   0.000000   0.000000
    16  H    0.000000   0.000000   0.000000   0.000000   0.000000   0.000000
    17  H    0.000000   0.000000   0.000000   0.000000   0.000000   0.000000
    18  H    0.000000   0.000000   0.000000   0.000000   0.000000   0.000000
    19  H    0.951042   0.000000   0.000000   0.000000   0.000000   0.000000
    20  H    0.000000   0.947138   0.000000   0.000000   0.000000   0.000000
    21  H    0.000000   0.000000   0.952032   0.000000   0.000000   0.000000
    22  H    0.000000   0.000000   0.000000   0.947951   0.000000   0.000000
    23  H    0.000000   0.000000   0.000000   0.000000   0.945740   0.000000
    24  H    0.000000   0.000000   0.000000   0.000000   0.000000   0.949354
    25  H    0.000000   0.000000   0.000000   0.000000   0.000000   0.000000
             25
     1  C    0.000000
     2  C    0.000000
     3  C    0.000000
     4  C    0.000000
     5  H    0.000000
     6  H    0.000000
     7  H    0.000000
     8  H    0.000000
     9  H    0.000000
    10  C    0.000000
    11  C    0.000000
    12  C    0.000000
    13  C    0.000000
    14  C    0.000000
    15  H    0.000000
    16  H    0.000000
    17  H    0.000000
    18  H    0.000000
    19  H    0.000000
    20  H    0.000000
    21  H    0.000000
    22  H    0.000000
    23  H    0.000000
    24  H    0.000000
    25  H    0.919133
 Mulliken atomic charges:
              1
     1  C   -0.083549
     2  C   -0.065257
     3  C   -0.140572
     4  C   -0.170130
     5  H    0.048665
     6  H    0.049273
     7  H    0.056898
     8  H    0.096536
     9  H    0.085388
    10  C   -0.084778
    11  C   -0.100843
    12  C   -0.100636
    13  C   -0.102033
    14  C   -0.102937
    15  H    0.069024
    16  H    0.055567
    17  H    0.051560
    18  H    0.050216
    19  H    0.048958
    20  H    0.052862
    21  H    0.047968
    22  H    0.052049
    23  H    0.054260
    24  H    0.050646
    25  H    0.080867
 Sum of Mulliken charges=   0.00000
 Atomic charges with hydrogens summed into heavy atoms:
              1
     1  C    0.014388
     2  C    0.042287
     3  C   -0.044036
     4  C   -0.003875
     5  H    0.000000
     6  H    0.000000
     7  H    0.000000
     8  H    0.000000
     9  H    0.000000
    10  C   -0.015755
    11  C    0.006285
    12  C   -0.001463
    13  C   -0.001203
    14  C    0.003372
    15  H    0.000000
    16  H    0.000000
    17  H    0.000000
    18  H    0.000000
    19  H    0.000000
    20  H    0.000000
    21  H    0.000000
    22  H    0.000000
    23  H    0.000000
    24  H    0.000000
    25  H    0.000000
 Sum of Mulliken charges=   0.00000
 ***** Axes restored to original set *****
 -------------------------------------------------------------------
 Center     Atomic                   Forces (Hartrees/Bohr)
 Number     Number              X              Y              Z
 -------------------------------------------------------------------
    1          6          -0.002180981    0.002495752    0.001462044
    2          6           0.000454462    0.004125715   -0.006721451
    3          6          -0.006542914    0.002288880    0.014692216
    4          6          -0.002263448   -0.010396808   -0.006887751
    5          1           0.000378542    0.003852544   -0.002083756
    6          1          -0.002495719    0.001168518    0.004420018
    7          1           0.001106425    0.002265511   -0.004502085
    8          1          -0.000879010   -0.004565254   -0.004304387
    9          1           0.001952423    0.003619498   -0.001892135
   10          6           0.013744547   -0.005010480   -0.002094367
   11          6           0.003321076   -0.002230028    0.008445295
   12          6          -0.004533863    0.004565444    0.005340119
   13          6          -0.006033680    0.004346928   -0.004277139
   14          6          -0.003436826   -0.007125509   -0.007714331
   15          1           0.003324707   -0.000697954    0.000736543
   16          1          -0.003134305   -0.006066331   -0.002141464
   17          1           0.004474547    0.005803358   -0.001242466
   18          1           0.003858233    0.005366394   -0.003362751
   19          1          -0.002524420   -0.006819886    0.001265258
   20          1           0.005770888    0.004922916   -0.000573314
   21          1          -0.004081096   -0.005639404    0.002671258
   22          1           0.003954704    0.004505223   -0.004763506
   23          1          -0.000900716   -0.003629091    0.006674023
   24          1          -0.002246356    0.002427165    0.001347976
   25          1          -0.001087221    0.000426899    0.005506151
 -------------------------------------------------------------------
 Cartesian Forces:  Max     0.014692216 RMS     0.004772441

 GradGradGradGradGradGradGradGradGradGradGradGradGradGradGradGradGradGrad
 Berny optimization.
 Internal  Forces:  Max     0.015286310 RMS     0.004054702
 Search for a local minimum.
 Step number   1 out of a maximum of 110
 All quantities printed in internal units (Hartrees-Bohrs-Radians)
 Swaping is turned off.
 Second derivative matrix not updated -- first step.
 RFO step:  Lambda= 8.92710698D-04.
 Linear search not attempted -- option 19 set.
 Iteration  1 RMS(Cart)=  0.08324815 RMS(Int)=  0.00247007
 Iteration  2 RMS(Cart)=  0.00342882 RMS(Int)=  0.00031189
 Iteration  3 RMS(Cart)=  0.00000411 RMS(Int)=  0.00031188
 Iteration  4 RMS(Cart)=  0.00000000 RMS(Int)=  0.00031188
 Variable       Old X    -DE/DX   Delta X   Delta X   Delta X     New X
                                 (Linear)    (Quad)   (Total)
    R1        2.89543  -0.00938   0.00000  -0.03021  -0.03021   2.86522
    R2        2.10759  -0.00421   0.00000  -0.01322  -0.01322   2.09437
    R3        2.10824  -0.00496   0.00000  -0.01532  -0.01532   2.09292
    R4        2.90739  -0.01529   0.00000  -0.05187  -0.05187   2.85552
    R5        2.84063  -0.01365   0.00000  -0.04156  -0.04156   2.79907
    R6        2.10724  -0.00445   0.00000  -0.01400  -0.01400   2.09324
    R7        2.10535  -0.00342   0.00000  -0.01046  -0.01046   2.09489
    R8        2.52273  -0.00723   0.00000  -0.01209  -0.01209   2.51063
    R9        2.05842   0.00389   0.00000   0.01116   0.01116   2.06958
   R10        2.05746  -0.00217   0.00000  -0.00609  -0.00609   2.05138
   R11        2.05652  -0.00239   0.00000  -0.00668  -0.00668   2.04984
   R12        2.88343   0.00293   0.00000   0.01271   0.01253   2.89597
   R13        2.87958   0.00486   0.00000   0.02024   0.01995   2.89953
   R14        2.11143   0.00029   0.00000   0.00073   0.00073   2.11215
   R15        2.88161   0.00527   0.00000   0.01529   0.01547   2.89707
   R16        2.10661  -0.00666   0.00000  -0.02089  -0.02089   2.08572
   R17        2.10929  -0.00597   0.00000  -0.01849  -0.01849   2.09081
   R18        2.88350   0.00524   0.00000   0.01320   0.01349   2.89699
   R19        2.10705  -0.00686   0.00000  -0.02140  -0.02140   2.08564
   R20        2.10759  -0.00654   0.00000  -0.02021  -0.02021   2.08738
   R21        2.87423   0.00578   0.00000   0.01923   0.01923   2.89346
   R22        2.10639  -0.00725   0.00000  -0.02256  -0.02256   2.08383
   R23        2.10836  -0.00610   0.00000  -0.01892  -0.01892   2.08944
   R24        2.10983  -0.00605   0.00000  -0.01851  -0.01851   2.09133
   R25        2.10650  -0.00718   0.00000  -0.02262  -0.02262   2.08387
    A1        1.88503   0.00378   0.00000   0.02131   0.02135   1.90637
    A2        1.90050   0.00359   0.00000   0.01596   0.01573   1.91623
    A3        2.00363  -0.00870   0.00000  -0.03611  -0.03606   1.96757
    A4        1.84982   0.00034   0.00000   0.00493   0.00455   1.85438
    A5        1.91351   0.00090   0.00000   0.00450   0.00457   1.91808
    A6        1.90509   0.00078   0.00000  -0.00721  -0.00730   1.89779
    A7        1.96569  -0.00326   0.00000  -0.01200  -0.01224   1.95345
    A8        1.91516   0.00156   0.00000  -0.00018  -0.00059   1.91457
    A9        1.89642   0.00208   0.00000   0.01776   0.01781   1.91423
   A10        1.96242  -0.00249   0.00000  -0.02816  -0.02846   1.93397
   A11        1.87323   0.00244   0.00000   0.01937   0.01941   1.89264
   A12        1.84538   0.00007   0.00000   0.00664   0.00668   1.85206
   A13        2.13961   0.00051   0.00000   0.00119   0.00119   2.14080
   A14        2.06860  -0.00540   0.00000  -0.03155  -0.03155   2.03705
   A15        2.07496   0.00489   0.00000   0.03036   0.03036   2.10532
   A16        2.12277   0.00196   0.00000   0.01202   0.01196   2.13472
   A17        2.09493   0.00425   0.00000   0.02708   0.02701   2.12194
   A18        2.06547  -0.00620   0.00000  -0.03899  -0.03906   2.02641
   A19        2.00680  -0.00194   0.00000  -0.01973  -0.01932   1.98748
   A20        1.97300  -0.00122   0.00000  -0.01279  -0.01209   1.96091
   A21        1.90214  -0.00358   0.00000  -0.01959  -0.01989   1.88225
   A22        1.80206   0.00233   0.00000   0.02435   0.02304   1.82509
   A23        1.89593   0.00054   0.00000   0.00453   0.00426   1.90019
   A24        1.87760   0.00467   0.00000   0.02886   0.02859   1.90619
   A25        1.84207  -0.00087   0.00000   0.01126   0.01019   1.85226
   A26        1.95302  -0.00009   0.00000  -0.00521  -0.00498   1.94803
   A27        1.92810   0.00002   0.00000  -0.00283  -0.00292   1.92518
   A28        1.95298   0.00155   0.00000   0.00699   0.00733   1.96032
   A29        1.90398   0.00523   0.00000   0.02796   0.02787   1.93185
   A30        1.88363  -0.00547   0.00000  -0.03587  -0.03596   1.84766
   A31        1.86166   0.00036   0.00000   0.00769   0.00710   1.86875
   A32        1.93318   0.00023   0.00000   0.00433   0.00439   1.93756
   A33        1.92760   0.00227   0.00000   0.01051   0.01052   1.93812
   A34        1.94168   0.00049   0.00000   0.00405   0.00418   1.94586
   A35        1.92343   0.00189   0.00000   0.00814   0.00815   1.93158
   A36        1.87702  -0.00507   0.00000  -0.03375  -0.03373   1.84329
   A37        1.85080   0.00030   0.00000   0.01089   0.01011   1.86091
   A38        1.95991  -0.00022   0.00000  -0.00505  -0.00487   1.95504
   A39        1.91611   0.00235   0.00000   0.01258   0.01248   1.92859
   A40        1.94833  -0.00013   0.00000   0.00008   0.00033   1.94866
   A41        1.90694   0.00377   0.00000   0.02014   0.02004   1.92698
   A42        1.88149  -0.00571   0.00000  -0.03644  -0.03654   1.84495
   A43        1.82290  -0.00147   0.00000   0.01541   0.01375   1.83665
   A44        1.93439  -0.00078   0.00000  -0.00798  -0.00788   1.92651
   A45        1.96003   0.00116   0.00000  -0.00129  -0.00114   1.95889
   A46        1.90136   0.00263   0.00000   0.02580   0.02609   1.92745
   A47        1.95685   0.00235   0.00000   0.00588   0.00603   1.96287
   A48        1.88779  -0.00366   0.00000  -0.03494  -0.03478   1.85301
    D1        3.01887   0.00247   0.00000   0.01830   0.01844   3.03731
    D2       -1.06396  -0.00203   0.00000  -0.02787  -0.02777  -1.09173
    D3        1.01760  -0.00177   0.00000  -0.00692  -0.00717   1.01043
    D4       -1.09388   0.00001   0.00000  -0.02926  -0.02953  -1.12341
    D5        3.12584  -0.00074   0.00000  -0.03737  -0.03689   3.08896
    D6        1.03124  -0.00050   0.00000  -0.02342  -0.02363   1.00761
    D7        2.07628  -0.00087   0.00000   0.02626   0.02647   2.10275
    D8       -1.05856  -0.00013   0.00000   0.02487   0.02496  -1.03360
    D9       -0.09837   0.00158   0.00000   0.05825   0.05796  -0.04041
   D10       -0.00127   0.00023   0.00000  -0.00451  -0.00459  -0.00586
   D11       -3.13698  -0.00077   0.00000  -0.02710  -0.02710   3.11910
   D12        3.13354  -0.00054   0.00000  -0.00334  -0.00325   3.13029
   D13       -2.73560   0.00156   0.00000   0.08561   0.08579  -2.64981
   D14        1.41935   0.00029   0.00000   0.07278   0.07308   1.49243
   D15       -0.57840   0.00055   0.00000   0.07535   0.07547  -0.50293
   D16        2.83688  -0.00208   0.00000  -0.10474  -0.10498   2.73190
   D17        0.79188  -0.00397   0.00000  -0.13981  -0.13963   0.65225
   D18        0.65755  -0.00057   0.00000  -0.08958  -0.08966   0.56789
   D19        0.28077  -0.00089   0.00000  -0.03376  -0.03381   0.24696
   D20        2.39619   0.00006   0.00000  -0.02152  -0.02161   2.37457
   D21        2.40903  -0.00068   0.00000  -0.02880  -0.02892   2.38011
   D22        0.12781   0.00031   0.00000  -0.02173  -0.02184   0.10597
   D23        2.26012   0.00022   0.00000  -0.01740  -0.01763   2.24249
   D24       -1.98218  -0.00049   0.00000  -0.03423  -0.03425  -2.01643
   D25       -0.48793   0.00088   0.00000   0.07046   0.07047  -0.41746
   D26        1.57971   0.00046   0.00000   0.08173   0.08185   1.66156
   D27       -2.62760   0.00103   0.00000   0.06949   0.06961  -2.55799
         Item               Value     Threshold  Converged?
 Maximum Force            0.015286     0.000002     NO 
 RMS     Force            0.004055     0.000001     NO 
 Maximum Displacement     0.310488     0.000006     NO 
 RMS     Displacement     0.083013     0.000004     NO 
 Predicted change in Energy=-4.197572D-03
 GradGradGradGradGradGradGradGradGradGradGradGradGradGradGradGradGradGrad

                          Input orientation:                          
 ---------------------------------------------------------------------
 Center     Atomic     Atomic              Coordinates (Angstroms)
 Number     Number      Type              X           Y           Z
 ---------------------------------------------------------------------
    1          6             0        0.729411   -1.233010   -0.477675
    2          6             0        2.011150   -0.910382    0.265254
    3          6             0        2.697949    0.271906   -0.304365
    4          6             0        2.950053    1.365925    0.406031
    5          1             0        0.310326   -2.181906   -0.087439
    6          1             0        0.950796   -1.409210   -1.548446
    7          1             0        1.791342   -0.757802    1.340147
    8          1             0        2.991951    0.210504   -1.357553
    9          1             0        2.661711    1.460191    1.448324
   10          6             0       -0.300858   -0.132902   -0.369700
   11          6             0       -0.809114    0.103050    1.056658
   12          6             0       -2.234690    0.649127    0.915861
   13          6             0       -2.673565    0.393921   -0.530658
   14          6             0       -1.565092   -0.435381   -1.184861
   15          1             0        0.164183    0.810257   -0.748447
   16          1             0       -0.150125    0.790566    1.614553
   17          1             0       -0.808377   -0.845433    1.626323
   18          1             0       -2.916647    0.165744    1.636536
   19          1             0       -2.271097    1.728049    1.149802
   20          1             0       -3.648982   -0.117795   -0.582520
   21          1             0       -2.808274    1.350313   -1.068902
   22          1             0       -1.807931   -1.513869   -1.133503
   23          1             0       -1.438156   -0.199785   -2.254634
   24          1             0        2.701393   -1.776217    0.212216
   25          1             0        3.472645    2.214037   -0.023201
 ---------------------------------------------------------------------
                    Distance matrix (angstroms):
                    1          2          3          4          5
     1  C    0.000000
     2  C    1.516208   0.000000
     3  C    2.483939   1.481204   0.000000
     4  C    3.530815   2.466360   1.328569   0.000000
     5  H    1.108295   2.152665   3.430596   4.449581   0.000000
     6  H    1.107524   2.159325   2.725148   3.939338   1.772512
     7  H    2.158239   1.107696   2.141647   2.593337   2.501896
     8  H    2.824360   2.202694   1.095177   2.108787   3.811552
     9  H    3.833613   2.728095   2.117841   1.085542   4.599179
    10  C    1.511076   2.520520   3.026711   3.662876   2.156764
    11  C    2.550744   3.099557   3.765685   4.018645   2.789826
    12  C    3.777602   4.569739   5.095309   5.258829   3.936809
    13  C    3.772261   4.927599   5.377662   5.783360   3.966728
    14  C    2.530034   3.888183   4.410107   5.114898   2.787809
    15  H    2.137228   2.720198   2.628117   3.066375   3.067789
    16  H    3.040701   3.063485   3.473151   3.376783   3.456065
    17  H    2.634732   3.131526   4.155757   4.528246   2.444307
    18  H    4.440736   5.227011   5.941553   6.113325   4.347058
    19  H    4.518805   5.106994   5.378324   5.286278   4.845850
    20  H    4.519405   5.777890   6.364964   6.835636   4.492414
    21  H    4.420218   5.487948   5.662682   5.944241   4.813056
    22  H    2.635734   4.111702   4.917257   5.770770   2.455104
    23  H    2.987220   4.330415   4.597108   5.365348   3.418000
    24  H    2.158642   1.108566   2.112268   3.157919   2.443681
    25  H    4.428772   3.461383   2.109758   1.084729   5.415598
                    6          7          8          9         10
     6  H    0.000000
     7  H    3.078119   0.000000
     8  H    2.612705   3.107517   0.000000
     9  H    4.487908   2.385107   3.089291   0.000000
    10  C    2.141271   2.773333   3.454906   3.823606   0.000000
    11  C    3.488665   2.753871   4.504227   3.747247   1.532480
    12  C    4.522928   4.285838   5.716518   4.991601   2.450294
    13  C    4.174106   4.976120   5.728479   5.789513   2.435814
    14  C    2.722174   4.212514   4.605827   5.328482   1.534364
    15  H    2.486924   3.077122   2.954147   3.389080   1.117704
    16  H    4.006944   2.498407   4.363775   2.895246   2.193803
    17  H    3.673104   2.616890   4.945808   4.170023   2.179308
    18  H    5.251829   4.806865   6.624055   5.729668   3.310065
    19  H    5.244381   4.766456   6.024073   4.949086   3.107067
    20  H    4.874293   5.805462   6.694061   6.814632   3.354916
    21  H    4.687808   5.603940   5.918201   6.022394   2.995989
    22  H    2.791721   4.432307   5.105147   5.957227   2.182140
    23  H    2.769206   4.864513   4.538605   5.768563   2.202476
    24  H    2.509823   1.771324   2.548659   3.464661   3.471688
    25  H    4.670548   3.676591   2.454731   1.841544   4.457298
                   11         12         13         14         15
    11  C    0.000000
    12  C    1.533066   0.000000
    13  C    2.465837   1.533022   0.000000
    14  C    2.426071   2.457142   1.531154   0.000000
    15  H    2.169299   2.924120   2.876384   2.175423   0.000000
    16  H    1.103717   2.203086   3.335717   3.367758   2.383893
    17  H    1.106408   2.184682   3.109259   2.939986   3.053968
    18  H    2.186752   1.103675   2.192689   3.185645   3.949058
    19  H    2.187851   1.104594   2.183077   3.260295   3.221224
    20  H    3.286416   2.198530   1.102716   2.192321   3.927982
    21  H    3.173376   2.181730   1.105685   2.178911   3.038068
    22  H    2.899805   3.010077   2.180001   1.106682   3.072306
    23  H    3.384089   3.377448   2.202457   1.102739   2.419974
    24  H    4.070429   5.544576   5.843931   4.685356   3.748354
    25  H    4.894469   5.992033   6.430104   5.809275   3.666402
                   16         17         18         19         20
    16  H    0.000000
    17  H    1.763498   0.000000
    18  H    2.836288   2.338245   0.000000
    19  H    2.365035   2.998239   1.759103   0.000000
    20  H    4.230159   3.671170   2.353916   2.882125   0.000000
    21  H    3.818377   4.010628   2.955393   2.313848   1.760312
    22  H    3.951019   3.010408   3.423956   3.992247   2.375306
    23  H    4.196478   3.984384   4.178607   4.000065   2.773165
    24  H    4.084860   3.896735   6.112469   6.155047   6.611296
    25  H    4.222911   5.514385   6.911823   5.882406   7.514510
                   21         22         23         24         25
    21  H    0.000000
    22  H    3.034535   0.000000
    23  H    2.384531   1.766489   0.000000
    24  H    6.463195   4.713151   5.070143   0.000000
    25  H    6.425688   6.558547   5.909467   4.070919   0.000000
 Stoichiometry    C9H16
 Framework group  C1[X(C9H16)]
 Deg. of freedom    69
 Full point group                 C1
 Largest Abelian subgroup         C1      NOp   1
 Largest concise Abelian subgroup C1      NOp   1
                         Standard orientation:                         
 ---------------------------------------------------------------------
 Center     Atomic     Atomic              Coordinates (Angstroms)
 Number     Number      Type              X           Y           Z
 ---------------------------------------------------------------------
    1          6             0        0.646324   -1.263897    0.427214
    2          6             0        1.956597   -0.576145    0.757474
    3          6             0        2.629740   -0.056872   -0.455455
    4          6             0        2.914964    1.230021   -0.621739
    5          1             0        0.235647   -1.727473    1.346322
    6          1             0        0.827039   -2.093371   -0.284069
    7          1             0        1.777455    0.237851    1.487069
    8          1             0        2.884421   -0.789245   -1.228877
    9          1             0        2.665755    1.980386    0.122067
   10          6             0       -0.372034   -0.322780   -0.173281
   11          6             0       -0.825957    0.789215    0.778515
   12          6             0       -2.252129    1.157635    0.353556
   13          6             0       -2.745545    0.045099   -0.578624
   14          6             0       -1.667337   -1.042036   -0.572195
   15          1             0        0.084952    0.142472   -1.081008
   16          1             0       -0.142406    1.655228    0.747332
   17          1             0       -0.810507    0.429246    1.824613
   18          1             0       -2.910293    1.270355    1.232312
   19          1             0       -2.272828    2.135002   -0.160694
   20          1             0       -3.725548   -0.352006   -0.265762
   21          1             0       -2.893666    0.435160   -1.602564
   22          1             0       -1.915199   -1.827687    0.166764
   23          1             0       -1.578265   -1.552914   -1.545387
   24          1             0        2.638724   -1.292857    1.257419
   25          1             0        3.426982    1.588410   -1.508323
 ---------------------------------------------------------------------
 Rotational constants (GHZ):      3.0558021      0.8922816      0.8117190
 Standard basis: VSTO-3G (5D, 7F)
 There are    52 symmetry adapted basis functions of A   symmetry.
 Integral buffers will be    131072 words long.
 Raffenetti 1 integral format.
 Two-electron integral symmetry is turned on.
    52 basis functions,   156 primitive gaussians,    52 cartesian basis functions
    26 alpha electrons       26 beta electrons
       nuclear repulsion energy       252.7670318779 Hartrees.
 NAtoms=   25 NActive=   25 NUniq=   25 SFac= 7.50D-01 NAtFMM=   80 NAOKFM=F Big=F
 Initial guess read from the read-write file:
 Initial guess orbital symmetries:
       Occupied  (A) (A) (A) (A) (A) (A) (A) (A) (A) (A) (A) (A)
                 (A) (A) (A) (A) (A) (A) (A) (A) (A) (A) (A) (A)
                 (A) (A)
       Virtual   (A) (A) (A) (A) (A) (A) (A) (A) (A) (A) (A) (A)
                 (A) (A) (A) (A) (A) (A) (A) (A) (A) (A) (A) (A)
                 (A) (A)
 RHF-PM3 calculation of energy and first derivatives.
 MO and density RWFs will be updated without deorthogonalization.
 Closed-shell calculation:      26 occupied levels.
 NNHCO=    0.
 References:
  H: (PM3): J. J. P. STEWART, J. COMP. CHEM.     10, 209 (1989).
  C: (PM3): J. J. P. STEWART, J. COMP. CHEM.     10, 209 (1989).
 Ext34=T Pulay=F Camp-King=F BShift= 0.00D+00
 It=  1 PL= 0.649D+00 DiagD=T ESCF=      6.529237 Diff= 0.219D+01 RMSDP= 0.196D+00.
 It=  2 PL= 0.473D-01 DiagD=T ESCF=     -0.148833 Diff=-0.668D+01 RMSDP= 0.441D-02.
 It=  3 PL= 0.136D-01 DiagD=F ESCF=     -0.585163 Diff=-0.436D+00 RMSDP= 0.189D-02.
 It=  4 PL= 0.145D-02 DiagD=F ESCF=     -0.642893 Diff=-0.577D-01 RMSDP= 0.171D-03.
 It=  5 PL= 0.658D-03 DiagD=F ESCF=     -0.627521 Diff= 0.154D-01 RMSDP= 0.785D-04.
 It=  6 PL= 0.356D-03 DiagD=F ESCF=     -0.627632 Diff=-0.111D-03 RMSDP= 0.802D-04.
 It=  7 PL= 0.607D-04 DiagD=F ESCF=     -0.627707 Diff=-0.756D-04 RMSDP= 0.555D-05.
 It=  8 PL= 0.314D-04 DiagD=F ESCF=     -0.627668 Diff= 0.391D-04 RMSDP= 0.264D-05.
 It=  9 PL= 0.166D-04 DiagD=F ESCF=     -0.627668 Diff=-0.121D-06 RMSDP= 0.313D-05.
 It= 10 PL= 0.234D-05 DiagD=F ESCF=     -0.627668 Diff=-0.109D-06 RMSDP= 0.254D-06.
 It= 11 PL= 0.108D-05 DiagD=F ESCF=     -0.627668 Diff= 0.618D-07 RMSDP= 0.106D-06.
 It= 12 PL= 0.513D-06 DiagD=F ESCF=     -0.627668 Diff=-0.221D-09 RMSDP= 0.973D-07.
 Energy=   -0.023066837122 NIter=  13.
 Dipole moment=      -0.007104      -0.059228       0.028173
 ***** Axes restored to original set *****
 -------------------------------------------------------------------
 Center     Atomic                   Forces (Hartrees/Bohr)
 Number     Number              X              Y              Z
 -------------------------------------------------------------------
    1          6           0.000454759   -0.005777325   -0.001706300
    2          6           0.001238877   -0.004028183    0.002003273
    3          6           0.002720350    0.005349953   -0.000836162
    4          6           0.001545167   -0.002002736   -0.002067614
    5          1           0.000167566   -0.000959940   -0.000445154
    6          1           0.000009931   -0.001066483   -0.000674961
    7          1          -0.000026991   -0.000555635    0.001540044
    8          1          -0.000043872   -0.001139981   -0.001026844
    9          1           0.000389810    0.002199853    0.000589147
   10          6          -0.005946042    0.005513460   -0.000646483
   11          6          -0.004620646    0.000135977   -0.002125458
   12          6           0.003004960   -0.001685751   -0.002877463
   13          6           0.004767939   -0.000709281    0.000677304
   14          6          -0.001620003    0.002334491    0.004727507
   15          1          -0.000493989    0.000620720   -0.000020163
   16          1           0.000295890    0.000876248    0.000437695
   17          1           0.000000308   -0.000119616    0.000843241
   18          1          -0.000417024   -0.000390197    0.000421697
   19          1          -0.000000082    0.000397601    0.000277329
   20          1          -0.000683091   -0.000694243    0.000126516
   21          1          -0.000381045    0.000086262   -0.000088291
   22          1           0.000023558   -0.000278275   -0.000792461
   23          1           0.000158952    0.000399199   -0.000486832
   24          1          -0.000015248   -0.000036758    0.000381255
   25          1          -0.000530034    0.001530639    0.001769182
 -------------------------------------------------------------------
 Cartesian Forces:  Max     0.005946042 RMS     0.001987976

 GradGradGradGradGradGradGradGradGradGradGradGradGradGradGradGradGradGrad
 Berny optimization.
 Use GDIIS/GDPIS optimizer.
 Internal  Forces:  Max     0.008786039 RMS     0.001642282
 Search for a local minimum.
 Step number   2 out of a maximum of 110
 All quantities printed in internal units (Hartrees-Bohrs-Radians)
 Swaping is turned off.
   2   1  0.1567014E-02  0.7000672E-02  0.2238376    
 Update second derivatives using D2CorL and points  1  2
 Trust test= 8.27D-01 RLast= 3.42D-01 DXMaxT set to 4.24D-01
 RFO step:  Lambda= 1.33657372D-04.
 DIIS coeff's:      1.40499     -0.40499
 Cosine:  1.000 >  0.866
 Length:  1.040
 GDIIS step was calculated using  2 of the last  2 vectors.
 Iteration  1 RMS(Cart)=  0.11882472 RMS(Int)=  0.00306536
 Iteration  2 RMS(Cart)=  0.00504067 RMS(Int)=  0.00021725
 Iteration  3 RMS(Cart)=  0.00001001 RMS(Int)=  0.00021719
 Iteration  4 RMS(Cart)=  0.00000000 RMS(Int)=  0.00021719
 Variable       Old X    -DE/DX   Delta X   Delta X   Delta X     New X
                                  (DIIS)     (GDIIS)  (Total)
    R1        2.86522   0.00589  -0.01223   0.02578   0.01355   2.87876
    R2        2.09437   0.00060  -0.00535   0.00600   0.00065   2.09502
    R3        2.09292   0.00082  -0.00621   0.00726   0.00105   2.09397
    R4        2.85552   0.00879  -0.02101   0.04164   0.02063   2.87615
    R5        2.79907   0.00724  -0.01683   0.03176   0.01493   2.81400
    R6        2.09324   0.00142  -0.00567   0.00831   0.00264   2.09589
    R7        2.09489   0.00000  -0.00424   0.00351  -0.00073   2.09415
    R8        2.51063   0.00184  -0.00490   0.00661   0.00171   2.51235
    R9        2.06958   0.00104   0.00452  -0.00142   0.00310   2.07269
   R10        2.05138   0.00065  -0.00246   0.00364   0.00117   2.05255
   R11        2.04984   0.00024  -0.00271   0.00270   0.00000   2.04984
   R12        2.89597  -0.00022   0.00508  -0.00422   0.00074   2.89670
   R13        2.89953  -0.00209   0.00808  -0.01113  -0.00325   2.89627
   R14        2.11215   0.00033   0.00030   0.00062   0.00091   2.11307
   R15        2.89707  -0.00377   0.00626  -0.01637  -0.00999   2.88709
   R16        2.08572   0.00094  -0.00846   0.00950   0.00104   2.08677
   R17        2.09081   0.00054  -0.00749   0.00752   0.00003   2.09084
   R18        2.89699  -0.00276   0.00546  -0.01338  -0.00771   2.88928
   R19        2.08564   0.00070  -0.00867   0.00894   0.00027   2.08591
   R20        2.08738   0.00045  -0.00819   0.00796  -0.00023   2.08715
   R21        2.89346  -0.00372   0.00779  -0.01650  -0.00871   2.88475
   R22        2.08383   0.00092  -0.00914   0.00991   0.00077   2.08460
   R23        2.08944   0.00016  -0.00766   0.00677  -0.00090   2.08855
   R24        2.09133   0.00023  -0.00750   0.00679  -0.00071   2.09062
   R25        2.08387   0.00058  -0.00916   0.00912  -0.00004   2.08384
    A1        1.90637  -0.00048   0.00864  -0.00941  -0.00071   1.90566
    A2        1.91623   0.00019   0.00637  -0.00384   0.00241   1.91864
    A3        1.96757   0.00212  -0.01460   0.01744   0.00286   1.97043
    A4        1.85438  -0.00145   0.00184  -0.01017  -0.00850   1.84587
    A5        1.91808  -0.00108   0.00185  -0.00223  -0.00035   1.91773
    A6        1.89779   0.00049  -0.00296   0.00661   0.00359   1.90138
    A7        1.95345   0.00144  -0.00496   0.00883   0.00377   1.95722
    A8        1.91457  -0.00021  -0.00024   0.00166   0.00123   1.91580
    A9        1.91423  -0.00041   0.00721  -0.00863  -0.00140   1.91283
   A10        1.93397   0.00062  -0.01152   0.01471   0.00305   1.93702
   A11        1.89264  -0.00040   0.00786  -0.00899  -0.00111   1.89153
   A12        1.85206  -0.00119   0.00271  -0.00892  -0.00619   1.84587
   A13        2.14080   0.00244   0.00048   0.00730   0.00770   2.14850
   A14        2.03705  -0.00238  -0.01278   0.00086  -0.01200   2.02505
   A15        2.10532  -0.00006   0.01230  -0.00805   0.00417   2.10949
   A16        2.13472   0.00142   0.00484   0.00290   0.00739   2.14212
   A17        2.12194   0.00169   0.01094   0.00000   0.01059   2.13254
   A18        2.02641  -0.00308  -0.01582  -0.00212  -0.01829   2.00812
   A19        1.98748   0.00072  -0.00782   0.00484  -0.00268   1.98480
   A20        1.96091   0.00021  -0.00490   0.00077  -0.00368   1.95723
   A21        1.88225   0.00095  -0.00806   0.01120   0.00305   1.88531
   A22        1.82509  -0.00095   0.00933  -0.00254   0.00586   1.83095
   A23        1.90019  -0.00048   0.00172  -0.00341  -0.00177   1.89842
   A24        1.90619  -0.00058   0.01158  -0.01232  -0.00082   1.90537
   A25        1.85226   0.00016   0.00413   0.00336   0.00673   1.85899
   A26        1.94803  -0.00005  -0.00202  -0.00182  -0.00362   1.94442
   A27        1.92518   0.00098  -0.00118   0.00628   0.00507   1.93025
   A28        1.96032  -0.00044   0.00297  -0.00851  -0.00531   1.95501
   A29        1.93185  -0.00002   0.01129  -0.00857   0.00269   1.93455
   A30        1.84766  -0.00059  -0.01457   0.00912  -0.00547   1.84219
   A31        1.86875   0.00007   0.00287   0.00076   0.00324   1.87200
   A32        1.93756  -0.00009   0.00178  -0.00350  -0.00165   1.93591
   A33        1.93812  -0.00004   0.00426  -0.00405   0.00023   1.93835
   A34        1.94586  -0.00009   0.00169  -0.00243  -0.00062   1.94524
   A35        1.93158   0.00029   0.00330  -0.00147   0.00185   1.93343
   A36        1.84329  -0.00015  -0.01366   0.01050  -0.00314   1.84015
   A37        1.86091   0.00044   0.00409   0.00166   0.00524   1.86616
   A38        1.95504  -0.00044  -0.00197  -0.00233  -0.00413   1.95092
   A39        1.92859   0.00029   0.00505  -0.00214   0.00287   1.93146
   A40        1.94866  -0.00037   0.00013  -0.00453  -0.00424   1.94442
   A41        1.92698   0.00045   0.00812  -0.00374   0.00433   1.93131
   A42        1.84495  -0.00037  -0.01480   0.01081  -0.00403   1.84091
   A43        1.83665   0.00035   0.00557   0.00532   0.00977   1.84641
   A44        1.92651   0.00038  -0.00319   0.00557   0.00244   1.92895
   A45        1.95889  -0.00061  -0.00046  -0.00609  -0.00640   1.95249
   A46        1.92745   0.00038   0.01057  -0.00552   0.00524   1.93269
   A47        1.96287  -0.00052   0.00244  -0.00814  -0.00555   1.95733
   A48        1.85301   0.00004  -0.01409   0.00863  -0.00530   1.84771
    D1        3.03731  -0.00171   0.00747  -0.07510  -0.06758   2.96973
    D2       -1.09173  -0.00008  -0.01125  -0.04891  -0.06012  -1.15186
    D3        1.01043   0.00020  -0.00290  -0.05531  -0.05830   0.95213
    D4       -1.12341  -0.00080  -0.01196  -0.07139  -0.08358  -1.20700
    D5        3.08896  -0.00023  -0.01494  -0.07207  -0.08664   3.00232
    D6        1.00761  -0.00073  -0.00957  -0.07306  -0.08277   0.92484
    D7        2.10275   0.00088   0.01072   0.01273   0.02350   2.12625
    D8       -1.03360  -0.00005   0.01011  -0.01030  -0.00010  -1.03369
    D9       -0.04041  -0.00032   0.02347  -0.00635   0.01697  -0.02344
   D10       -0.00586  -0.00079  -0.00186  -0.01996  -0.02190  -0.02777
   D11        3.11910   0.00099  -0.01098   0.03799   0.02700  -3.13708
   D12        3.13029   0.00017  -0.00132   0.00397   0.00275   3.13304
   D13       -2.64981   0.00026   0.03474   0.01046   0.04527  -2.60454
   D14        1.49243   0.00073   0.02960   0.01982   0.04956   1.54200
   D15       -0.50293   0.00029   0.03056   0.01254   0.04315  -0.45978
   D16        2.73190   0.00006  -0.04252  -0.00886  -0.05147   2.68043
   D17        0.65225  -0.00079  -0.05655  -0.00827  -0.06473   0.58752
   D18        0.56789  -0.00032  -0.03631  -0.01357  -0.04991   0.51798
   D19        0.24696  -0.00003  -0.01369  -0.00572  -0.01949   0.22747
   D20        2.37457  -0.00014  -0.00875  -0.01032  -0.01916   2.35542
   D21        2.38011  -0.00025  -0.01171  -0.01084  -0.02268   2.35743
   D22        0.10597   0.00001  -0.00884  -0.00206  -0.01095   0.09502
   D23        2.24249  -0.00042  -0.00714  -0.00800  -0.01523   2.22726
   D24       -2.01643   0.00013  -0.01387   0.00322  -0.01065  -2.02708
   D25       -0.41746  -0.00018   0.02854   0.00802   0.03666  -0.38080
   D26        1.66156   0.00067   0.03315   0.01484   0.04810   1.70966
   D27       -2.55799   0.00030   0.02819   0.01256   0.04088  -2.51711
         Item               Value     Threshold  Converged?
 Maximum Force            0.008786     0.000002     NO 
 RMS     Force            0.001642     0.000001     NO 
 Maximum Displacement     0.344289     0.000006     NO 
 RMS     Displacement     0.120096     0.000004     NO 
 Predicted change in Energy=-6.798674D-04
 GradGradGradGradGradGradGradGradGradGradGradGradGradGradGradGradGradGrad

                          Input orientation:                          
 ---------------------------------------------------------------------
 Center     Atomic     Atomic              Coordinates (Angstroms)
 Number     Number      Type              X           Y           Z
 ---------------------------------------------------------------------
    1          6             0        0.719230   -1.211283   -0.424685
    2          6             0        2.019690   -0.885893    0.298917
    3          6             0        2.756655    0.234743   -0.347988
    4          6             0        3.078983    1.355758    0.289928
    5          1             0        0.302365   -2.154753   -0.018281
    6          1             0        0.922262   -1.408779   -1.495954
    7          1             0        1.809836   -0.660553    1.364409
    8          1             0        3.043267    0.081092   -1.395489
    9          1             0        2.804140    1.542933    1.323939
   10          6             0       -0.314015   -0.099195   -0.314527
   11          6             0       -0.885187    0.074201    1.097346
   12          6             0       -2.318356    0.575475    0.927442
   13          6             0       -2.694699    0.383860   -0.542017
   14          6             0       -1.534913   -0.354780   -1.205076
   15          1             0        0.173416    0.857898   -0.625539
   16          1             0       -0.272013    0.769246    1.697633
   17          1             0       -0.866639   -0.886761    1.645422
   18          1             0       -3.008168    0.030803    1.595203
   19          1             0       -2.404546    1.637360    1.218709
   20          1             0       -3.641568   -0.171123   -0.653006
   21          1             0       -2.865892    1.359984   -1.031270
   22          1             0       -1.747070   -1.438576   -1.270601
   23          1             0       -1.365372   -0.017595   -2.241199
   24          1             0        2.675870   -1.778901    0.303698
   25          1             0        3.612724    2.164737   -0.197216
 ---------------------------------------------------------------------
                    Distance matrix (angstroms):
                    1          2          3          4          5
     1  C    0.000000
     2  C    1.523376   0.000000
     3  C    2.499594   1.489103   0.000000
     4  C    3.559326   2.479351   1.329476   0.000000
     5  H    1.108638   2.158663   3.441212   4.486456   0.000000
     6  H    1.108081   2.167792   2.717350   3.934906   1.767560
     7  H    2.166468   1.109095   2.151818   2.613570   2.533167
     8  H    2.830872   2.203129   1.096820   2.113452   3.795819
     9  H    3.871723   2.750496   2.123429   1.086163   4.661900
    10  C    1.521995   2.537989   3.088955   3.740948   2.166335
    11  C    2.557969   3.161896   3.921451   4.243696   2.761004
    12  C    3.774611   4.620529   5.243907   5.490587   3.900862
    13  C    3.770035   4.954282   5.456844   5.913724   3.962481
    14  C    2.534516   3.896059   4.415845   5.142861   2.832663
    15  H    2.149364   2.702620   2.671794   3.086789   3.075948
    16  H    3.067457   3.154013   3.693655   3.681686   3.438610
    17  H    2.627859   3.184961   4.284823   4.736474   2.396307
    18  H    4.417717   5.272575   6.086934   6.364956   4.282478
    19  H    4.535801   5.175586   5.573138   5.568754   4.820543
    20  H    4.488945   5.785058   6.418334   6.956026   4.460076
    21  H    4.453365   5.539158   5.774606   6.089920   4.839150
    22  H    2.617226   4.117927   4.892315   5.790884   2.506272
    23  H    3.011674   4.320275   4.543020   5.295753   3.505732
    24  H    2.163602   1.108178   2.118015   3.160503   2.424554
    25  H    4.452141   3.477103   2.116711   1.084729   5.445043
                    6          7          8          9         10
     6  H    0.000000
     7  H    3.086958   0.000000
     8  H    2.593930   3.112623   0.000000
     9  H    4.495093   2.417773   3.096683   0.000000
    10  C    2.153871   2.764904   3.531617   3.886392   0.000000
    11  C    3.491606   2.806125   4.652636   3.977392   1.532870
    12  C    4.506852   4.331360   5.864079   5.228112   2.452561
    13  C    4.148006   5.001610   5.808988   5.921357   2.439827
    14  C    2.689467   4.228841   4.602822   5.368855   1.532643
    15  H    2.540909   2.990561   3.071204   3.345212   1.118188
    16  H    4.045872   2.547442   4.586070   3.193894   2.191972
    17  H    3.652522   2.700677   5.046904   4.413772   2.183359
    18  H    5.203453   4.872823   6.750306   6.011909   3.304910
    19  H    5.264599   4.802359   6.239764   5.210604   3.120378
    20  H    4.803217   5.833294   6.730669   6.956540   3.345497
    21  H    4.715091   5.628879   6.056928   6.142454   3.025723
    22  H    2.678993   4.494461   5.027157   6.027814   2.182124
    23  H    2.779217   4.847242   4.490107   5.703532   2.196378
    24  H    2.539859   1.768001   2.545936   3.477345   3.484685
    25  H    4.657824   3.697477   2.470166   1.831491   4.534140
                   11         12         13         14         15
    11  C    0.000000
    12  C    1.527782   0.000000
    13  C    2.461246   1.528941   0.000000
    14  C    2.430497   2.454953   1.526545   0.000000
    15  H    2.168675   2.949651   2.908225   2.173669   0.000000
    16  H    1.104270   2.195054   3.321740   3.359176   2.367149
    17  H    1.106426   2.181997   3.121085   2.975724   3.046771
    18  H    2.181007   1.103817   2.188748   3.187588   3.967147
    19  H    2.183265   1.104475   2.180735   3.255705   3.264153
    20  H    3.274378   2.192286   1.103125   2.185522   3.951422
    21  H    3.179220   2.179863   1.105212   2.177643   3.107105
    22  H    2.939135   3.035484   2.179475   1.106309   3.062379
    23  H    3.374150   3.361577   2.194424   1.102718   2.396813
    24  H    4.092065   5.556478   5.851135   4.694168   3.752129
    25  H    5.126152   6.242461   6.563078   5.819099   3.704069
                   16         17         18         19         20
    16  H    0.000000
    17  H    1.760302   0.000000
    18  H    2.835900   2.330363   0.000000
    19  H    2.351741   2.986374   1.757024   0.000000
    20  H    4.214700   3.673573   2.344443   2.881693   0.000000
    21  H    3.811048   4.026109   2.947087   2.313479   1.757567
    22  H    3.982547   3.095618   3.458653   4.011274   2.361564
    23  H    4.162805   4.013727   4.173620   3.973628   2.779747
    24  H    4.138372   3.891723   6.103385   6.190211   6.588646
    25  H    4.541919   5.724652   7.183498   6.204071   7.634706
                   21         22         23         24         25
    21  H    0.000000
    22  H    3.023405   0.000000
    23  H    2.369222   1.762651   0.000000
    24  H    6.507370   4.707084   5.090220   0.000000
    25  H    6.581470   6.547015   5.807054   4.084225   0.000000
 Stoichiometry    C9H16
 Framework group  C1[X(C9H16)]
 Deg. of freedom    69
 Full point group                 C1
 Largest Abelian subgroup         C1      NOp   1
 Largest concise Abelian subgroup C1      NOp   1
                         Standard orientation:                         
 ---------------------------------------------------------------------
 Center     Atomic     Atomic              Coordinates (Angstroms)
 Number     Number      Type              X           Y           Z
 ---------------------------------------------------------------------
    1          6             0        0.640482   -1.187396    0.512548
    2          6             0        1.957459   -0.485447    0.818347
    3          6             0        2.692901   -0.107768   -0.420165
    4          6             0        3.038055    1.143792   -0.706472
    5          1             0        0.222244   -1.602513    1.451607
    6          1             0        0.821334   -2.058889   -0.147480
    7          1             0        1.769947    0.402864    1.455397
    8          1             0        2.958188   -0.932517   -1.092791
    9          1             0        2.784604    1.983991   -0.066488
   10          6             0       -0.379680   -0.270950   -0.147653
   11          6             0       -0.922395    0.819458    0.783025
   12          6             0       -2.353594    1.103895    0.330385
   13          6             0       -2.759445   -0.019929   -0.623535
   14          6             0       -1.619589   -1.035345   -0.624435
   15          1             0        0.111040    0.217080   -1.025927
   16          1             0       -0.291297    1.725146    0.753751
[...]
 9295,0.00312743,0.00216687,-0.22747659,0.10161947,0.00603691,-0.006500
 30,0.00507974,0.00017927,-0.00018938,0.00006563,0.00012531,0.00001559,
 0.00003019,0.00028648,-0.00009654,-0.00052836,-0.00759047,-0.03030195,
 0.00498317,-0.00166255,0.25928719,0.00180577,-0.00027922,-0.00120860,0
 .00015614,0.00000727,-0.00000416,0.00002216,-0.00001240,-0.00000078,-0
 .00000908,-0.00000738,0.00001019,0.00066408,-0.00116220,-0.00079454,-0
 .00011754,0.00012397,0.00003124,0.00016560,0.00003748,-0.00006052,-0.0
 0001660,0.00000275,0.00000254,0.00000337,0.00000226,-0.00000280,0.0044
 2354,0.02051904,-0.01614862,-0.00231386,0.10061680,-0.09491044,-0.0023
 4460,0.00467583,0.00147969,-0.00017629,-0.00005780,-0.00033124,-0.0001
 3515,0.00004724,-0.00065343,0.00064485,-0.00053734,-0.00198317,-0.0011
 5965,-0.00943591,0.00633815,-0.00152889,-0.11425719,0.10764010,-0.0000
 2549,-0.00002167,0.00027009,0.00002116,0.00001024,0.00000403,-0.000003
 61,0.00000887,-0.00000445,-0.00000642,-0.00000334,0.00000077,-0.000003
 37,-0.00000895,-0.00000537,-0.00004021,0.00004554,-0.00000695,0.000008
 29,-0.00000826,0.00000612,0.00000364,-0.00000319,-0.00000160,0.0000027
 0,0.00000048,0.00000406,-0.00190757,0.00061879,-0.00048929,-0.02064345
 ,-0.00912671,0.01299723,-0.13371260,-0.07526207,0.09329787,0.00631300,
 0.00260987,-0.00251306,-0.00030776,0.00008904,-0.00056823,0.00004877,0
 .00001101,0.00001405,-0.00104907,0.00043159,-0.00001489,-0.00116020,0.
 00105375,-0.00001972,0.15177334,0.00000924,0.00004551,-0.00012059,-0.0
 0000871,-0.00000522,0.00000234,0.00000041,-0.00000764,0.00000062,-0.00
 000059,0.00000538,-0.00000002,-0.00000139,0.00000877,0.00000092,0.0000
 1577,-0.00001865,0.00000223,-0.00000704,0.00000588,-0.00000134,-0.0000
 0165,0.00000157,-0.00000010,-0.00000049,-0.00000171,-0.00000080,0.0008
 7045,-0.00029943,0.00004171,0.00549619,0.00709327,-0.00359635,-0.07734
 043,-0.10093044,0.07565795,0.00178224,0.00564892,-0.00139486,0.0000074
 7,-0.00017869,-0.00033617,0.00000901,-0.00002067,-0.00003112,0.0004238
 0,-0.00024860,-0.00003339,0.00075352,0.00027887,-0.00011356,0.08667337
 ,0.11591567,0.00001550,-0.00002103,0.00010923,0.00001171,-0.00000086,0
 .00000408,-0.00000163,0.00000581,-0.00000425,-0.00000369,-0.00000416,0
 .00000247,0.00000606,-0.00001259,-0.00000634,-0.00001757,0.00001709,0.
 00000325,0.00000539,-0.00000291,0.00000306,0.00000025,-0.00000177,-0.0
 0000110,0.00000113,0.00000061,0.00000184,-0.00052486,0.00016617,-0.000
 37016,0.00043246,-0.00155615,0.00477312,0.09292838,0.07369210,-0.13087
 154,0.01196004,0.01122385,-0.02099199,-0.00023347,-0.00011324,-0.00135
 624,-0.00001951,0.00000578,0.00002500,-0.00022370,0.00012663,-0.000140
 57,0.00021965,-0.00007282,0.00059981,-0.10416803,-0.08537204,0.1478953
 8,-0.00005273,-0.00001236,0.00013730,0.00002032,-0.00000414,0.00000071
 ,0.00000194,0.00000942,-0.00000265,0.00000591,-0.00001580,0.00000454,0
 .00000212,-0.00002440,-0.00000402,-0.00002604,0.00001389,0.00000756,0.
 00001259,0.00000454,0.00000211,-0.00000290,-0.00000239,0.00000034,-0.0
 0000395,0.00000537,0.00000104,-0.00085306,0.00040590,-0.00003726,-0.00
 538852,0.02537968,0.00296490,-0.04090745,0.01612069,0.00451477,0.00366
 910,-0.00556058,-0.00285428,-0.00044595,-0.00000561,-0.00036792,-0.000
 02945,-0.00001470,0.00000374,-0.00113387,0.00060292,-0.00067289,-0.002
 17217,0.00042081,-0.00003954,0.00038737,-0.01869749,0.00050286,0.04646
 638,0.00001329,-0.00001410,-0.00000899,-0.00000050,0.00000539,0.000000
 11,-0.00000193,0.00000341,-0.00000007,-0.00000061,-0.00000126,-0.00000
 094,-0.00000717,0.00000575,0.00000092,0.00000113,0.00000320,-0.0000020
 5,0.00000186,-0.00000294,0.00000035,0.00000212,-0.00000078,-0.00000004
 ,0.00000063,0.00000024,0.00000075,0.00018197,-0.00016729,-0.00010642,0
 .00681213,-0.00760357,-0.00118343,0.01776033,-0.27207971,-0.05470895,-
 0.00057566,-0.00239943,-0.00590033,0.00001296,-0.00007511,-0.00004316,
 0.00004290,-0.00000694,-0.00000606,0.00098235,0.00033804,0.00028170,0.
 00038877,0.00005795,-0.00005301,-0.00692860,-0.02776763,0.00301063,-0.
 01863057,0.30893293,-0.00002496,0.00002531,0.00006362,0.00000812,0.000
 00602,0.00000408,-0.00000232,0.00000133,-0.00000053,-0.00000799,0.0000
 0328,0.00000054,-0.00000664,0.00000123,-0.00000662,-0.00001855,0.00001
 223,0.00000190,0.00000565,-0.00000065,0.00000330,0.00000134,-0.0000026
 4,-0.00000148,0.00000334,-0.00000081,0.00000275,-0.00003029,0.00007741
 ,-0.00025586,-0.00059828,0.00206358,0.00399378,0.00493905,-0.05269774,
 -0.05138381,-0.00140931,-0.02446527,-0.01027888,-0.00052218,-0.0002002
 8,-0.00160472,0.00003657,0.00001527,-0.00002914,-0.00052485,0.00026308
 ,0.00032702,-0.00044175,0.00012698,-0.00001053,0.00225514,0.01588715,0
 .00323975,-0.00331801,0.05919449,0.05874114,-0.00011733,-0.00007194,-0
 .00014151,-0.00002461,0.00004578,0.00000268,-0.00000306,0.00000714,-0.
 00000253,-0.00000252,-0.00000219,-0.00000100,-0.00001203,0.00000325,0.
 00000395,0.00000420,-0.00000746,-0.00000984,-0.00000052,-0.00000038,0.
 00000306,0.00000428,-0.00000119,-0.00000089,0.00000073,-0.00000032,0.0
 0000212,-0.00124251,0.00072584,0.00077170,-0.00021424,0.00009114,-0.00
 008886,-0.00363640,-0.00517053,-0.00548298,-0.20219991,-0.11523284,-0.
 01574206,-0.02052653,-0.00795504,0.00294220,0.00004598,0.00000417,-0.0
 0002488,0.00001533,0.00000383,0.00001165,-0.00001593,0.00000887,-0.000
 03633,0.00044738,0.00000706,-0.00070067,-0.00013809,0.00006661,-0.0001
 2081,0.22829800,0.00007879,0.00010929,0.00011907,0.00002276,-0.0000353
 8,-0.00000010,0.00000290,-0.00001013,0.00000492,-0.00000029,0.00000687
 ,0.00000022,0.00000027,0.00000670,-0.00000193,-0.00000858,0.00001007,0
 .00000706,0.00000136,0.00000060,-0.00000228,-0.00000382,0.00000057,-0.
 00000005,0.00000063,-0.00000077,-0.00000186,0.00102560,-0.00057561,-0.
 00060541,0.00007012,-0.00017469,-0.00013043,-0.00448292,0.00069679,-0.
 00345233,-0.11782551,-0.12274722,-0.01102455,0.00897176,0.00876891,-0.
 00061869,0.00002770,-0.00001143,0.00002938,-0.00001732,-0.00000440,0.0
 0000384,0.00002239,0.00000719,0.00000222,-0.00000517,0.00062191,-0.000
 43971,0.00002090,0.00001177,-0.00012975,0.13213852,0.14082825,0.000083
 89,0.00007187,0.00014697,0.00002060,-0.00003503,-0.00000593,0.00000533
 ,-0.00000898,0.00000834,-0.00000035,0.00000732,-0.00000010,0.00000156,
 0.00000162,-0.00000823,-0.00001040,0.00001157,0.00000963,0.00000492,-0
 .00000150,-0.00000181,-0.00000426,0.00000085,0.00000022,0.00000220,-0.
 00000068,-0.00000266,0.00074749,-0.00064249,-0.00082758,-0.00043149,-0
 .00039127,-0.00158952,-0.02037535,-0.01557631,-0.00607403,-0.01459614,
 -0.01023177,-0.04090480,0.01060089,0.00506361,0.00300352,-0.00000286,0
 .00000057,0.00001385,-0.00016610,0.00011188,0.00001182,-0.00004374,-0.
 00001216,-0.00001883,-0.00037751,-0.00014522,-0.00134193,-0.00045546,0
 .00000367,-0.00162665,0.01626608,0.01199449,0.04687853,-0.00004430,-0.
 00005511,-0.00002368,-0.00001452,-0.00000074,-0.00000396,0.00000228,0.
 00000482,-0.00000511,0.00000597,-0.00001072,0.00000192,0.00000982,-0.0
 0001512,0.00000460,0.00001273,-0.00000318,-0.00000453,-0.00000458,0.00
 000108,-0.00000121,-0.00000176,0.00000265,0.00000055,-0.00000377,0.000
 00251,-0.00000046,-0.00068707,0.00033819,0.00011300,-0.00034153,-0.000
 03891,-0.00029790,0.00201504,0.00532271,-0.00587442,-0.05078546,0.0430
 0828,-0.02236712,-0.00539029,0.02102462,-0.00503258,-0.00004195,-0.000
 03254,0.00002224,-0.00003100,0.00001677,-0.00001985,0.00000400,-0.0000
 1686,0.00001897,-0.00022848,-0.00004294,-0.00031702,0.00052771,-0.0000
 9900,-0.00040921,0.00109860,-0.02136970,0.00802476,0.05579191,0.000035
 65,-0.00000369,0.00001928,0.00000682,0.00000223,-0.00000132,0.00000006
 ,0.00000144,0.00000219,-0.00000095,0.00000046,-0.00000004,-0.00000873,
 0.00000225,-0.00000606,-0.00000406,0.00000301,0.00000293,0.00000395,-0
 .00000166,0.00000092,0.00000054,-0.00000088,-0.00000019,0.00000127,0.0
 0000007,0.00000009,0.00026013,-0.00020108,-0.00000351,-0.00000407,-0.0
 0016266,-0.00040703,0.00044743,0.00571898,0.00074053,0.04514160,-0.225
 93554,0.09634987,0.00803510,-0.01014001,0.00196933,0.00003732,-0.00002
 021,-0.00001175,-0.00003600,0.00004482,0.00001088,-0.00004214,0.000002
 38,-0.00001405,-0.00015359,-0.00010706,-0.00054597,0.00001436,0.000724
 57,-0.00010505,-0.00613463,-0.02729822,0.01039571,-0.04923942,0.257563
 88,0.00007203,0.00002948,0.00005905,0.00001841,-0.00001860,-0.00000238
 ,0.00000537,-0.00000613,0.00000711,0.00000220,0.00000378,0.00000079,0.
 00000164,-0.00000367,-0.00001366,-0.00000881,0.00000340,0.00001099,0.0
 0000632,-0.00000047,-0.00000092,-0.00000432,-0.00000025,0.00000044,0.0
 0000073,0.00000038,-0.00000241,0.00013732,-0.00025946,-0.00027041,-0.0
 0013786,-0.00026013,-0.00146372,-0.00670640,0.01931620,-0.01677879,-0.
 02339485,0.09538089,-0.08749152,0.00328816,-0.00947574,0.00653201,-0.0
 0004196,-0.00000733,-0.00000857,-0.00010230,0.00005203,0.00000489,-0.0
 0004417,0.00000654,0.00003622,-0.00066569,-0.00042044,-0.00151102,-0.0
 0038641,-0.00049895,-0.00114924,0.00166463,0.00453897,0.00210885,0.024
 50616,-0.10722924,0.10058381,-0.00304513,-0.00028767,-0.00100631,0.000
 04681,-0.00004046,0.00000502,-0.00002065,0.00000683,0.00000503,-0.0000
 0688,0.00001604,-0.00000226,-0.00076639,0.00064639,-0.00073241,-0.0008
 3103,0.00010339,0.00027359,0.00001994,-0.00000591,0.00001522,0.0000086
 3,-0.00001164,-0.00000541,0.00000806,-0.00000292,0.00000404,-0.0055650
 3,-0.02067783,-0.00527749,-0.00010483,-0.00011293,-0.00015450,-0.00055
 796,0.00030861,0.00012533,0.00119985,0.02108253,0.00361260,-0.04439924
 ,-0.03832673,-0.00380827,-0.00145806,-0.00011300,-0.00150726,0.0000102
 6,0.00001907,-0.00001128,-0.00001433,0.00000349,-0.00000049,0.00000562
 ,0.00002326,0.00000627,0.00002196,-0.00001364,0.00005488,-0.00102878,0
 .00085435,0.00029277,-0.00157842,0.00069586,0.00115941,0.05613932,-0.0
 0033534,0.00080708,-0.00020268,0.00007712,-0.00004085,0.00000827,0.000
 00293,-0.00001573,0.00001201,0.00000136,0.00000802,-0.00000226,-0.0003
 1572,-0.00023588,0.00003023,-0.00024116,-0.00000483,-0.00009012,0.0000
 0353,0.00000200,-0.00000200,0.00000047,-0.00000038,0.00000005,0.000000
 76,-0.00000153,-0.00000092,-0.00586794,-0.00373415,-0.00428415,0.00002
 076,-0.00009145,-0.00030792,0.00016957,-0.00026007,-0.00025660,0.00417
 763,-0.01201837,-0.00420629,-0.03693719,-0.27428978,-0.02186397,0.0000
 4794,0.00004489,-0.00009230,-0.00000270,0.00000763,0.00002629,-0.00002
 916,-0.00000830,-0.00005855,0.00002219,-0.00000085,-0.00001042,-0.0000
 1735,0.00001276,0.00000808,0.00114370,0.00012220,-0.00034111,0.0005068
 2,-0.00008785,-0.00046580,0.04277969,0.31177447,-0.00113183,-0.0000429
 5,0.00035720,0.00007541,-0.00008264,-0.00003068,-0.00001615,0.00000866
 ,-0.00000219,-0.00000109,0.00000710,-0.00000252,-0.00043112,0.00044844
 ,-0.00042820,-0.00008782,-0.00003058,-0.00002563,-0.00000396,-0.000009
 06,0.00000524,0.00000795,-0.00000184,-0.00000250,0.00000339,-0.0000020
 5,0.00000328,-0.00673053,-0.01594888,-0.00006718,-0.00014782,-0.000221
 82,-0.00049426,0.00027041,-0.00017661,-0.00044726,0.00137093,-0.012632
 13,0.00165535,-0.00317725,-0.02011149,-0.04265208,-0.00110432,-0.00004
 656,-0.00091393,0.00001613,0.00004598,0.00002482,-0.00001530,0.0000510
 9,-0.00004466,0.00001913,-0.00002588,-0.00004293,-0.00000629,0.0000355
 1,0.00000852,0.00044697,-0.00014982,0.00049813,0.00077447,-0.00030755,
 -0.00051857,0.00467344,0.02272140,0.04660957,-0.00042029,-0.00026211,-
 0.00077153,-0.00004833,0.00006921,0.00007953,0.00002075,0.00000568,-0.
 00000963,-0.00000823,-0.00000657,0.00001129,-0.00000658,-0.00003780,-0
 .00002749,-0.00000451,-0.00003066,0.00023107,0.00001860,-0.00000379,0.
 00001505,-0.00000520,-0.00000365,-0.00000412,0.00000317,0.00000334,0.0
 0000136,0.00206930,0.00700313,-0.02040162,-0.00199559,-0.00044881,-0.0
 0129248,-0.00167512,0.00079028,0.00071108,-0.00479790,-0.00478995,0.02
 045000,-0.04607732,-0.01432814,0.03598968,-0.00023329,-0.00062286,-0.0
 0084452,0.00017734,-0.00000753,-0.00024819,0.00001907,-0.00001653,-0.0
 0000725,0.00007951,0.00002596,0.00012156,0.00004455,-0.00000822,0.0001
 2865,-0.00074287,0.00046545,0.00040478,-0.00030838,0.00094440,0.000626
 25,0.00190486,-0.00522258,0.00517955,0.05200583,0.00014683,-0.00019074
 ,0.00002783,-0.00000749,0.00003458,-0.00001117,0.00001291,0.00001027,-
 0.00000416,0.00000292,-0.00001006,0.00000149,0.00001336,-0.00001608,-0
 .00000462,0.00008750,-0.00007708,-0.00005646,-0.00000581,-0.00000405,0
 .00000073,0.00000206,0.00000370,0.00000189,-0.00000177,0.00000147,0.00
 000076,-0.00012691,0.00500714,-0.00336188,-0.00027772,-0.00005748,-0.0
 0052826,0.00086070,-0.00044338,-0.00068048,0.00382879,0.00650658,-0.01
 002897,-0.01455158,-0.07314991,0.08563404,-0.00050221,0.00014394,-0.00
 077560,0.00003927,0.00002148,-0.00005228,0.00000531,-0.00001545,-0.000
 03983,-0.00005338,-0.00003714,-0.00009505,-0.00001392,0.00002305,-0.00
 008220,0.00033446,-0.00033592,-0.00028155,0.00069698,-0.00010586,-0.00
 068997,-0.00696322,-0.02199605,0.02645822,0.01648602,0.08469296,-0.000
 35618,0.00004518,-0.00024284,-0.00000748,0.00000179,0.00001079,0.00001
 054,-0.00000737,0.00000553,0.00000198,0.00000105,0.00000218,0.00002532
 ,-0.00002832,-0.00001649,-0.00014960,0.00009213,-0.00009336,0.00000974
 ,-0.00000033,0.00000299,-0.00001155,0.00000152,-0.00000019,0.00000024,
 0.00000131,-0.00000232,-0.00401874,0.00453207,-0.01616277,-0.00088083,
 -0.00035719,-0.00078618,0.00037418,-0.00024661,-0.00036737,0.00744420,
 0.00139577,-0.01061890,0.03560758,0.08248821,-0.24743745,-0.00118646,-
 0.00081009,-0.00080965,0.00006891,-0.00001982,-0.00013118,0.00002470,-
 0.00000828,0.00003860,-0.00003124,0.00000055,-0.00001721,0.00000632,-0
 .00001600,-0.00003606,0.00024254,-0.00014859,-0.00028409,0.00089162,-0
 .00086052,-0.00013652,0.00227148,0.00936835,-0.00349867,-0.04033399,-0
 .09542712,0.28057864,-0.01708131,0.01550462,-0.00405382,-0.12157363,0.
 11371434,-0.00266636,0.00888523,-0.00742685,-0.00043251,-0.00111444,-0
 .00102339,0.00036768,-0.00226087,-0.00046119,-0.00011244,-0.00048876,0
 .00019047,-0.00082901,-0.00535035,0.01096810,0.00623197,0.00000132,0.0
 0002344,0.00001471,0.00043243,-0.00022925,0.00012122,-0.00179390,-0.00
 102685,-0.00152652,0.00006362,-0.00003485,-0.00005834,-0.00000424,-0.0
 0000715,-0.00000542,-0.00006179,-0.00002516,-0.00005547,-0.00023122,0.
 00034437,0.00010277,0.00005490,-0.00011054,0.00000772,-0.00000348,-0.0
 0000762,-0.00000065,-0.00000770,0.00001166,0.00000268,-0.00000328,0.00
 000218,-0.00000164,-0.00000092,-0.00000137,-0.00000065,-0.00000925,0.0
 0000908,0.00000866,-0.00000226,-0.00000035,0.00000524,0.00000671,0.000
 01564,0.00001309,-0.00001798,-0.00001109,-0.00000035,0.14116887,-0.000
 63533,0.00637387,0.00101107,0.11714415,-0.19453407,0.00447495,0.005513
 18,-0.01865326,0.00351436,-0.00057542,-0.00071368,0.00094589,-0.000337
 58,0.00034324,0.00005958,0.00024825,0.00010269,0.00027930,0.01068030,-
 0.01134619,-0.00812002,-0.00015240,-0.00042461,0.00061838,0.00049927,-
 0.00028241,0.00012267,-0.00081622,-0.00026012,-0.00064390,0.00002703,-
 0.00001553,-0.00002772,0.00000005,0.00000100,0.00000122,-0.00002777,-0
 .00000840,-0.00002234,-0.00008035,0.00019034,0.00006836,-0.00001822,-0
 .00000554,-0.00002161,-0.00000965,0.00000567,0.00000928,-0.00000455,0.
 00000257,-0.00000447,0.,0.00000034,-0.00000029,-0.00000114,-0.00000029
 ,0.00000068,-0.00000447,0.00000484,0.00000569,-0.00000286,0.00000086,0
 .00000418,0.00001602,0.00000723,0.00001321,-0.00000330,-0.00000574,0.0
 0000181,-0.13073442,0.21883275,-0.01058680,0.00931023,0.00190935,-0.00
 273229,0.00317653,-0.03979753,-0.00471586,0.01144640,0.00270419,0.0005
 1412,0.00030562,-0.00037043,-0.00014923,-0.00008467,0.00040636,-0.0007
 7469,0.00028128,-0.00077340,0.01628347,-0.02211756,-0.00583760,0.00019
 008,0.00053504,-0.00050426,-0.00030613,0.00010419,-0.00007127,-0.00121
 920,-0.00076800,-0.00061800,0.00009615,-0.00005612,-0.00001339,-0.0000
 0184,0.00000281,0.00000357,-0.00003109,-0.00001072,-0.00002646,-0.0001
 2875,0.00020883,0.00007303,0.00003058,-0.00005047,-0.00001868,-0.00000
 125,0.00001795,-0.00000216,-0.00001254,-0.00000345,-0.00000263,-0.0000
 0065,-0.00000138,0.00000031,0.00000073,0.00000025,-0.00000076,-0.00000
 422,0.00000368,0.00000565,-0.00000003,0.00000057,0.00000326,0.00000471
 ,0.00000910,0.00001086,-0.00000795,-0.00000292,0.00000156,0.00308863,-
 0.00208775,0.04276757,0.00034391,0.00067457,-0.00043203,0.00616010,-0.
 00419065,0.00069820,-0.00030406,-0.01071883,0.00356320,-0.11337418,-0.
 10456386,0.06811193,0.00009886,0.00002812,0.00008143,-0.00002663,-0.00
 001491,-0.00001856,0.00007769,0.00013805,-0.00013773,-0.00375046,0.001
 60450,-0.00114557,0.00295791,-0.00492467,0.00505661,-0.00004202,0.0000
 0895,0.00000566,-0.00000333,0.00001387,-0.00000292,-0.00000241,0.00000
 512,-0.00000226,0.00000215,0.00000320,0.00000237,-0.00000172,0.0000149
 1,-0.00000121,-0.00004267,-0.00001709,-0.00000727,-0.00000205,-0.00000
 716,0.00000921,0.00000697,0.00000194,-0.00000200,0.00000227,0.00000028
 ,0.00000083,-0.00000372,0.00000050,0.00000291,0.00000148,-0.00000019,-
 0.00000047,-0.00000324,0.00000021,-0.00000136,0.00000566,-0.00000096,0
 .00000288,-0.00000010,-0.00000214,-0.00000262,-0.00060628,-0.00072421,
 0.00046453,0.10850797,-0.00022905,-0.00062424,0.00037536,-0.00411753,0
 .00167460,-0.00196822,-0.01403215,-0.01467386,0.00688132,-0.10356935,-
 0.18359950,0.09433658,-0.00009562,-0.00001079,-0.00007894,0.00002168,-
 0.00000044,0.00001061,0.00001491,0.00001344,0.00000458,0.00160704,-0.0
 0236107,-0.00060014,-0.00262529,0.00306113,0.00215051,0.00003611,0.000
 00274,0.00001187,0.00000401,-0.00000165,0.00000471,0.00000062,-0.00000
 036,-0.00000137,0.00000105,0.00000093,0.00000139,0.00000158,-0.0000056
 8,-0.00000439,-0.00000683,0.00001047,0.00000508,-0.00000034,0.00000364
 ,-0.00000360,-0.00000097,-0.00000180,-0.00000240,0.00000016,-0.0000012
 2,0.00000006,0.00000211,0.00000072,-0.00000100,0.00000039,-0.00000108,
 -0.00000055,0.00000157,0.00000043,-0.00000014,0.00000018,0.00000028,0.
 00000018,-0.00000100,0.00000132,0.00000022,0.00031690,0.00038542,-0.00
 021960,0.12266955,0.19612739,0.00001607,-0.00002857,0.00013024,0.00075
 628,-0.00156214,-0.00098237,-0.00762756,-0.01177215,0.00999019,0.07110
 257,0.09907187,-0.10484563,-0.00002851,-0.00000216,-0.00001544,0.00001
 438,0.00001253,0.00001988,0.00003159,0.00007151,-0.00007483,-0.0011145
 4,-0.00046833,-0.00005726,0.01332082,0.01578886,-0.01543626,0.00001879
 ,-0.00000768,-0.00001318,-0.00000551,-0.00000192,-0.00001240,-0.000002
 84,0.00000510,0.00000647,-0.00000366,-0.00000094,-0.00000407,-0.000004
 91,0.00000995,0.00001008,0.00000445,-0.00000891,0.00000146,-0.00000777
 ,-0.00000385,-0.00000165,0.00000310,0.00000205,-0.00000008,-0.00000134
 ,0.00000020,-0.00000118,-0.00000215,0.,-0.00000041,-0.00000088,0.00000
 138,0.00000198,-0.00000136,0.00000015,0.00000150,0.00000156,0.00000125
 ,-0.00000023,-0.00000092,-0.00000218,0.00000150,-0.00022164,-0.0002025
 8,0.00015238,-0.07624567,-0.10090291,0.11113059\\0.00000006,-0.0000001
 0,0.00000004,-0.00000007,-0.00000012,0.00000004,0.00000003,0.,-0.00000
 008,-0.00000002,0.00000007,0.00000006,0.00000004,0.00000004,0.,-0.0000
 0003,0.00000004,0.,0.00000002,0.00000005,0.,-0.00000002,-0.00000001,0.
 00000002,0.,-0.00000002,0.,0.00000010,-0.00000002,-0.00000010,0.,-0.00
 000003,0.00000017,-0.00000010,0.00000007,0.,-0.00000007,0.00000011,-0.
 00000006,-0.00000011,-0.00000002,-0.00000004,0.00000003,0.00000002,0.0
 0000005,0.00000003,0.00000002,-0.00000003,0.00000002,0.00000002,-0.000
 00004,0.00000003,-0.00000003,0.,0.00000003,-0.00000003,-0.00000002,0.,
 -0.00000005,0.00000001,0.00000004,-0.00000004,0.,0.00000002,0.,0.,-0.0
 0000002,0.00000002,0.,-0.00000002,0.00000004,-0.00000003,0.,-0.0000000
 1,-0.00000002\\\@


 A SLIP OF THE FOOT YOU MAY SOON RECOVER, BUT A SLIP OF THE TONGUE
 YOU MAY NEVER GET OVER. -- BEN FRANKLIN
 Job cpu time:  0 days  0 hours  0 minutes 11.0 seconds.
 File lengths (MBytes):  RWF=     13 Int=      0 D2E=      0 Chk=     17 Scr=      1
 Normal termination of Gaussian 03 at Sun May 29 15:18:00 2011.
