 Entering Gaussian System, Link 0=g03
 Input=QMfiles//AANXBTLDJDDKJL-UHFFFAOYAW.gjf
 Output=QMfiles//AANXBTLDJDDKJL-UHFFFAOYAW.log
 Initial command:
 /opt/g03/l1.exe /scratch/nickv/Gau-21986.inp -scrdir=/scratch/nickv/
 Entering Link 1 = /opt/g03/l1.exe PID=     21988.
  
 Copyright (c) 1988,1990,1992,1993,1995,1998,2003,2004, Gaussian, Inc.
                  All Rights Reserved.
  
 This is the Gaussian(R) 03 program.  It is based on the
 the Gaussian(R) 98 system (copyright 1998, Gaussian, Inc.),
 the Gaussian(R) 94 system (copyright 1995, Gaussian, Inc.),
 the Gaussian 92(TM) system (copyright 1992, Gaussian, Inc.),
 the Gaussian 90(TM) system (copyright 1990, Gaussian, Inc.),
 the Gaussian 88(TM) system (copyright 1988, Gaussian, Inc.),
 the Gaussian 86(TM) system (copyright 1986, Carnegie Mellon
 University), and the Gaussian 82(TM) system (copyright 1983,
 Carnegie Mellon University). Gaussian is a federally registered
 trademark of Gaussian, Inc.
  
 This software contains proprietary and confidential information,
 including trade secrets, belonging to Gaussian, Inc.
  
 This software is provided under written license and may be
 used, copied, transmitted, or stored only in accord with that
 written license.
  
 The following legend is applicable only to US Government
 contracts under FAR:
  
                    RESTRICTED RIGHTS LEGEND
  
 Use, reproduction and disclosure by the US Government is
 subject to restrictions as set forth in subparagraphs (a)
 and (c) of the Commercial Computer Software - Restricted
 Rights clause in FAR 52.227-19.
  
 Gaussian, Inc.
 340 Quinnipiac St., Bldg. 40, Wallingford CT 06492
  
  
 ---------------------------------------------------------------
 Warning -- This program may not be used in any manner that
 competes with the business of Gaussian, Inc. or will provide
 assistance to any competitor of Gaussian, Inc.  The licensee
 of this program is prohibited from giving any competitor of
 Gaussian, Inc. access to this program.  By using this program,
 the user acknowledges that Gaussian, Inc. is engaged in the
 business of creating and licensing software in the field of
 computational chemistry and represents and warrants to the
 licensee that it is not a competitor of Gaussian, Inc. and that
 it will not use this program in any manner prohibited above.
 ---------------------------------------------------------------
  

 Cite this work as:
 Gaussian 03, Revision D.01,
 M. J. Frisch, G. W. Trucks, H. B. Schlegel, G. E. Scuseria, 
 M. A. Robb, J. R. Cheeseman, J. A. Montgomery, Jr., T. Vreven, 
 K. N. Kudin, J. C. Burant, J. M. Millam, S. S. Iyengar, J. Tomasi, 
 V. Barone, B. Mennucci, M. Cossi, G. Scalmani, N. Rega, 
 G. A. Petersson, H. Nakatsuji, M. Hada, M. Ehara, K. Toyota, 
 R. Fukuda, J. Hasegawa, M. Ishida, T. Nakajima, Y. Honda, O. Kitao, 
 H. Nakai, M. Klene, X. Li, J. E. Knox, H. P. Hratchian, J. B. Cross, 
 V. Bakken, C. Adamo, J. Jaramillo, R. Gomperts, R. E. Stratmann, 
 O. Yazyev, A. J. Austin, R. Cammi, C. Pomelli, J. W. Ochterski, 
 P. Y. Ayala, K. Morokuma, G. A. Voth, P. Salvador, J. J. Dannenberg, 
 V. G. Zakrzewski, S. Dapprich, A. D. Daniels, M. C. Strain, 
 O. Farkas, D. K. Malick, A. D. Rabuck, K. Raghavachari, 
 J. B. Foresman, J. V. Ortiz, Q. Cui, A. G. Baboul, S. Clifford, 
 J. Cioslowski, B. B. Stefanov, G. Liu, A. Liashenko, P. Piskorz, 
 I. Komaromi, R. L. Martin, D. J. Fox, T. Keith, M. A. Al-Laham, 
 C. Y. Peng, A. Nanayakkara, M. Challacombe, P. M. W. Gill, 
 B. Johnson, W. Chen, M. W. Wong, C. Gonzalez, and J. A. Pople, 
 Gaussian, Inc., Wallingford CT, 2004.
 
 ******************************************
 Gaussian 03:  AM64L-G03RevD.01 13-Oct-2005
                29-May-2011 
 ******************************************
 %chk=/home/nickv/JP10_pyrolysis/JP10SeedMechQM/QMfiles/RMGrunCHKfile.chk
 %mem=6MW
 %nproc=1
 Will use up to    1 processors via shared memory.
 --------------------------------------------
 # pm3 opt=(verytight,gdiis) freq IOP(2/16=3)
 --------------------------------------------
 1/7=1,14=-1,18=50,19=11,26=3,38=1/1,3;
 2/9=110,16=3,17=6,18=5,40=1/2;
 3/5=2,11=9,12=1,16=1,25=1,30=1/1;
 4/5=3,11=1,20=7,22=1,24=3,35=1,68=1/1,2;
 6/7=2,8=2,9=2,10=2/1;
 7//16;
 1/14=-1,18=50,19=11/3(3);
 2/9=110,16=3/2;
 6/7=2,8=2,9=2,10=2/1;
 99//99;
 2/9=110,16=3/2;
 3/5=2,11=9,12=1,16=1,25=1,30=1/1;
 4/5=5,11=1,16=3,20=7,22=1,24=3,35=1,68=1/1,2;
 7//16;
 1/14=-1,18=50,19=11/3(-4);
 2/9=110,16=3/2;
 6/7=2,8=2,9=2,10=2/1;
 99//99;
 -------------------------------------------------------------
 InChI=1/C10H14/c1-10-8-6-4-2-3-5-7-9-10/h2,4,7,9H,1,3,5-6,8H2
 -------------------------------------------------------------
 Symbolic Z-matrix:
 Charge =  0 Multiplicity = 1
 C                    -0.0062    1.9991   -0.3019 
 C                     1.1825    1.5287    0.1143 
 C                     1.3901    0.3826    1.0694 
 C                     1.8787   -0.9168    0.4107 
 C                     1.3076   -1.2567   -0.9412 
 C                     0.0111   -1.2949   -1.2645 
 C                    -1.0943   -0.9655   -0.35 
 C                    -1.8846    0.2858   -0.6188 
 C                    -1.366     1.5143    0.1385 
 C                    -1.3436   -1.7207    0.7224 
 H                     0.0086    2.8324   -1.004 
 H                     2.0805    1.9752   -0.3112 
 H                     0.4908    0.1778    1.6896 
 H                     2.1462    0.704     1.8222 
 H                     1.6941   -1.7683    1.1049 
 H                     2.9865   -0.8569    0.2989 
 H                     2.0221   -1.4381   -1.7397 
 H                    -0.2446   -1.4441   -2.3096 
 H                    -2.9538    0.1214   -0.3463 
 H                    -1.9022    0.5072   -1.712 
 H                    -1.4191    1.3711    1.2417 
 H                    -2.0852    2.3417   -0.0631 
 H                    -0.7629   -2.6145    0.9309 
 H                    -2.1364   -1.4648    1.4189 
 

 GradGradGradGradGradGradGradGradGradGradGradGradGradGradGradGradGradGrad
 Berny optimization.
 Initialization pass.
                           ----------------------------
                           !    Initial Parameters    !
                           ! (Angstroms and Degrees)  !
 --------------------------                            --------------------------
 ! Name  Definition              Value          Derivative Info.                !
 --------------------------------------------------------------------------------
 ! R1    R(1,2)                  1.3444         estimate D2E/DX2                !
 ! R2    R(1,9)                  1.5093         estimate D2E/DX2                !
 ! R3    R(1,11)                 1.0897         estimate D2E/DX2                !
 ! R4    R(2,3)                  1.5063         estimate D2E/DX2                !
 ! R5    R(2,12)                 1.0894         estimate D2E/DX2                !
 ! R6    R(3,4)                  1.5366         estimate D2E/DX2                !
 ! R7    R(3,13)                 1.1115         estimate D2E/DX2                !
 ! R8    R(3,14)                 1.1143         estimate D2E/DX2                !
 ! R9    R(4,5)                  1.5064         estimate D2E/DX2                !
 ! R10   R(4,15)                 1.114          estimate D2E/DX2                !
 ! R11   R(4,16)                 1.115          estimate D2E/DX2                !
 ! R12   R(5,6)                  1.3367         estimate D2E/DX2                !
 ! R13   R(5,17)                 1.0867         estimate D2E/DX2                !
 ! R14   R(6,7)                  1.472          estimate D2E/DX2                !
 ! R15   R(6,18)                 1.0862         estimate D2E/DX2                !
 ! R16   R(7,8)                  1.5042         estimate D2E/DX2                !
 ! R17   R(7,10)                 1.3351         estimate D2E/DX2                !
 ! R18   R(8,9)                  1.5335         estimate D2E/DX2                !
 ! R19   R(8,19)                 1.1156         estimate D2E/DX2                !
 ! R20   R(8,20)                 1.1155         estimate D2E/DX2                !
 ! R21   R(9,21)                 1.1137         estimate D2E/DX2                !
 ! R22   R(9,22)                 1.1147         estimate D2E/DX2                !
 ! R23   R(10,23)                1.0861         estimate D2E/DX2                !
 ! R24   R(10,24)                1.0859         estimate D2E/DX2                !
 ! A1    A(2,1,9)              126.4314         estimate D2E/DX2                !
 ! A2    A(2,1,11)             117.0643         estimate D2E/DX2                !
 ! A3    A(9,1,11)             116.4773         estimate D2E/DX2                !
 ! A4    A(1,2,3)              125.7589         estimate D2E/DX2                !
 ! A5    A(1,2,12)             117.6778         estimate D2E/DX2                !
 ! A6    A(3,2,12)             116.4811         estimate D2E/DX2                !
 ! A7    A(2,3,4)              114.5475         estimate D2E/DX2                !
 ! A8    A(2,3,13)             112.4892         estimate D2E/DX2                !
 ! A9    A(2,3,14)             107.6033         estimate D2E/DX2                !
 ! A10   A(4,3,13)             109.9177         estimate D2E/DX2                !
 ! A11   A(4,3,14)             108.5272         estimate D2E/DX2                !
 ! A12   A(13,3,14)            103.0139         estimate D2E/DX2                !
 ! A13   A(3,4,5)              117.0627         estimate D2E/DX2                !
 ! A14   A(3,4,15)             109.0593         estimate D2E/DX2                !
 ! A15   A(3,4,16)             108.2685         estimate D2E/DX2                !
 ! A16   A(5,4,15)             108.9016         estimate D2E/DX2                !
 ! A17   A(5,4,16)             107.3849         estimate D2E/DX2                !
 ! A18   A(15,4,16)            105.5555         estimate D2E/DX2                !
 ! A19   A(4,5,6)              126.2414         estimate D2E/DX2                !
 ! A20   A(4,5,17)             116.6028         estimate D2E/DX2                !
 ! A21   A(6,5,17)             117.0775         estimate D2E/DX2                !
 ! A22   A(5,6,7)              124.8687         estimate D2E/DX2                !
 ! A23   A(5,6,18)             117.7064         estimate D2E/DX2                !
 ! A24   A(7,6,18)             116.8535         estimate D2E/DX2                !
 ! A25   A(6,7,8)              118.0142         estimate D2E/DX2                !
 ! A26   A(6,7,10)             120.8417         estimate D2E/DX2                !
 ! A27   A(8,7,10)             121.063          estimate D2E/DX2                !
 ! A28   A(7,8,9)              113.6089         estimate D2E/DX2                !
 ! A29   A(7,8,19)             109.7137         estimate D2E/DX2                !
 ! A30   A(7,8,20)             110.3966         estimate D2E/DX2                !
 ! A31   A(9,8,19)             108.7569         estimate D2E/DX2                !
 ! A32   A(9,8,20)             109.2862         estimate D2E/DX2                !
 ! A33   A(19,8,20)            104.6852         estimate D2E/DX2                !
 ! A34   A(1,9,8)              114.7021         estimate D2E/DX2                !
 ! A35   A(1,9,21)             111.9184         estimate D2E/DX2                !
 ! A36   A(1,9,22)             106.8639         estimate D2E/DX2                !
 ! A37   A(8,9,21)             111.7181         estimate D2E/DX2                !
 ! A38   A(8,9,22)             106.6864         estimate D2E/DX2                !
 ! A39   A(21,9,22)            104.1128         estimate D2E/DX2                !
 ! A40   A(7,10,23)            121.3234         estimate D2E/DX2                !
 ! A41   A(7,10,24)            121.2138         estimate D2E/DX2                !
 ! A42   A(23,10,24)           117.4628         estimate D2E/DX2                !
 ! D1    D(9,1,2,3)              2.4747         estimate D2E/DX2                !
 ! D2    D(9,1,2,12)           179.0506         estimate D2E/DX2                !
 ! D3    D(11,1,2,3)          -179.4863         estimate D2E/DX2                !
 ! D4    D(2,1,9,8)            -83.9855         estimate D2E/DX2                !
 ! D5    D(2,1,9,21)            44.6332         estimate D2E/DX2                !
 ! D6    D(11,1,9,8)            97.9654         estimate D2E/DX2                !
 ! D7    D(1,2,3,4)            105.8453         estimate D2E/DX2                !
 ! D8    D(1,2,3,13)           -20.6265         estimate D2E/DX2                !
 ! D9    D(12,2,3,4)           -70.767          estimate D2E/DX2                !
 ! D10   D(2,3,4,5)            -37.9638         estimate D2E/DX2                !
 ! D11   D(2,3,4,15)          -162.1152         estimate D2E/DX2                !
 ! D12   D(13,3,4,5)            89.8258         estimate D2E/DX2                !
 ! D13   D(3,4,5,6)            -51.2523         estimate D2E/DX2                !
 ! D14   D(3,4,5,17)           125.4193         estimate D2E/DX2                !
 ! D15   D(15,4,5,6)            72.979          estimate D2E/DX2                !
 ! D16   D(4,5,6,7)              2.0187         estimate D2E/DX2                !
 ! D17   D(4,5,6,18)           173.0534         estimate D2E/DX2                !
 ! D18   D(17,5,6,7)          -174.6388         estimate D2E/DX2                !
 ! D19   D(5,6,7,8)            111.0788         estimate D2E/DX2                !
 ! D20   D(5,6,7,10)           -65.682          estimate D2E/DX2                !
 ! D21   D(18,6,7,8)           -60.025          estimate D2E/DX2                !
 ! D22   D(6,7,8,9)            -93.1187         estimate D2E/DX2                !
 ! D23   D(6,7,8,19)           144.9173         estimate D2E/DX2                !
 ! D24   D(10,7,8,9)            83.6346         estimate D2E/DX2                !
 ! D25   D(6,7,10,23)           -2.1382         estimate D2E/DX2                !
 ! D26   D(6,7,10,24)          177.9499         estimate D2E/DX2                !
 ! D27   D(8,7,10,23)         -178.7997         estimate D2E/DX2                !
 ! D28   D(7,8,9,1)             67.2908         estimate D2E/DX2                !
 ! D29   D(7,8,9,21)           -61.4282         estimate D2E/DX2                !
 ! D30   D(19,8,9,1)          -170.2156         estimate D2E/DX2                !
 --------------------------------------------------------------------------------
 Trust Radius=3.00D-01 FncErr=1.00D-07 GrdErr=1.00D-06
 Number of steps in this run= 106 maximum allowed number of steps= 144.
 GradGradGradGradGradGradGradGradGradGradGradGradGradGradGradGradGradGrad

                          Input orientation:                          
 ---------------------------------------------------------------------
 Center     Atomic     Atomic              Coordinates (Angstroms)
 Number     Number      Type              X           Y           Z
 ---------------------------------------------------------------------
    1          6             0       -0.006200    1.999100   -0.301900
    2          6             0        1.182500    1.528700    0.114300
    3          6             0        1.390100    0.382600    1.069400
    4          6             0        1.878700   -0.916800    0.410700
    5          6             0        1.307600   -1.256700   -0.941200
    6          6             0        0.011100   -1.294900   -1.264500
    7          6             0       -1.094300   -0.965500   -0.350000
    8          6             0       -1.884600    0.285800   -0.618800
    9          6             0       -1.366000    1.514300    0.138500
   10          6             0       -1.343600   -1.720700    0.722400
   11          1             0        0.008600    2.832400   -1.004000
   12          1             0        2.080500    1.975200   -0.311200
   13          1             0        0.490800    0.177800    1.689600
   14          1             0        2.146200    0.704000    1.822200
   15          1             0        1.694100   -1.768300    1.104900
   16          1             0        2.986500   -0.856900    0.298900
   17          1             0        2.022100   -1.438100   -1.739700
   18          1             0       -0.244600   -1.444100   -2.309600
   19          1             0       -2.953800    0.121400   -0.346300
   20          1             0       -1.902200    0.507200   -1.712000
   21          1             0       -1.419100    1.371100    1.241700
   22          1             0       -2.085200    2.341700   -0.063100
   23          1             0       -0.762900   -2.614500    0.930900
   24          1             0       -2.136400   -1.464800    1.418900
 ---------------------------------------------------------------------
                    Distance matrix (angstroms):
                    1          2          3          4          5
     1  C    0.000000
     2  C    1.344435   0.000000
     3  C    2.538344   1.506273   0.000000
     4  C    3.544449   2.559886   1.536573   0.000000
     5  C    3.568614   2.981306   2.595501   1.506427   0.000000
     6  C    3.431812   3.353503   3.187905   2.537161   1.336748
     7  C    3.158343   3.408875   3.162960   3.069164   2.490670
     8  C    2.562071   3.389593   3.685519   4.082713   3.559970
     9  C    1.509317   2.548656   3.121443   4.063547   3.999041
    10  C    4.083472   4.160477   3.466612   3.335660   3.164131
    11  H    1.089749   2.080449   3.494145   4.422121   4.290930
    12  H    2.086858   1.089411   2.217901   2.987562   3.382226
    13  H    2.744124   2.187453   1.111455   2.181743   3.105811
    14  H    3.289667   2.127386   1.114313   2.165844   3.490555
    15  H    4.366166   3.480407   2.172567   1.114021   2.144211
    16  H    4.180185   2.996595   2.162989   1.115037   2.125181
    17  H    4.242124   3.597797   3.406672   2.217327   1.086747
    18  H    3.992909   4.092609   4.174532   3.490914   2.077730
    19  H    3.495150   4.393361   4.576232   5.000396   4.518030
    20  H    2.794452   3.727494   4.311722   4.563862   3.742765
    21  H    2.184805   2.839752   2.983023   4.098845   4.370958
    22  H    2.120529   3.371988   4.147088   5.153136   5.023010
    23  H    4.835049   4.649465   3.692858   3.182899   3.104086
    24  H    4.415598   4.655977   3.996403   4.175859   4.180253
                    6          7          8          9         10
     6  C    0.000000
     7  C    1.471980   0.000000
     8  C    2.551317   1.504187   0.000000
     9  C    3.428763   2.542019   1.533513   0.000000
    10  C    2.442189   1.335110   2.473366   3.287349   0.000000
    11  H    4.135513   4.008510   3.196523   2.220860   5.053674
    12  H    3.985568   4.327653   4.320961   3.506140   5.143196
    13  H    3.335516   2.824827   3.314046   2.764028   2.811548
    14  H    4.252290   4.243409   4.730827   3.978314   4.389469
    15  H    2.944597   3.245982   4.471863   4.590599   3.062057
    16  H    3.389553   4.133497   5.086802   4.959090   4.435681
    17  H    2.071338   3.444788   4.414811   4.870680   4.179681
    18  H    1.086221   2.188854   2.922492   4.000358   3.236871
    19  H    3.411690   2.153858   1.115559   2.167097   2.669868
    20  H    2.666184   2.162543   1.115533   2.173962   3.346920
    21  H    3.928621   2.845822   2.203639   1.113722   3.136017
    22  H    4.366085   3.464357   2.139104   1.114667   4.203579
    23  H    2.675855   2.114174   3.474409   4.247189   1.086077
    24  H    3.441113   2.112884   2.698189   3.332863   1.085877
                   11         12         13         14         15
    11  H    0.000000
    12  H    2.346813   0.000000
    13  H    3.812466   3.124259   0.000000
    14  H    4.133622   2.484283   1.742073   0.000000
    15  H    5.334305   4.020999   2.361591   2.613653   0.000000
    16  H    4.916947   3.035432   3.038613   2.337297   1.774988
    17  H    4.778348   3.700627   4.088534   4.158260   2.882423
    18  H    4.478521   4.592527   4.377782   5.234695   3.939857
    19  H    4.069140   5.364884   4.001667   5.572416   5.223018
    20  H    3.091759   4.469806   4.172030   5.377624   5.103548
    21  H    3.035934   3.876033   2.296148   3.673332   4.423411
    22  H    2.347355   4.189145   3.793441   4.913366   5.704335
    23  H    5.831618   5.540134   3.153463   4.502191   2.604454
    24  H    5.379349   5.710437   3.110240   4.817365   3.855313
                   16         17         18         19         20
    16  H    0.000000
    17  H    2.328895   0.000000
    18  H    4.193934   2.337253   0.000000
    19  H    6.054793   5.397517   3.693928   0.000000
    20  H    5.459293   4.380079   2.629132   1.766307   0.000000
    21  H    5.026148   5.349973   4.681510   2.537479   3.115133
    22  H    6.007015   5.828189   4.771462   2.400917   2.473409
    23  H    4.188864   4.033887   3.484151   3.730473   4.245932
    24  H    5.279019   5.222125   4.181034   2.510001   3.707583
                   21         22         23         24
    21  H    0.000000
    22  H    1.757344   0.000000
    23  H    4.051198   5.224982   0.000000
    24  H    2.930571   4.085142   1.856463   0.000000
 Stoichiometry    C10H14
 Framework group  C1[X(C10H14)]
 Deg. of freedom    66
 Full point group                 C1
 Largest Abelian subgroup         C1      NOp   1
 Largest concise Abelian subgroup C1      NOp   1
                         Standard orientation:                         
 ---------------------------------------------------------------------
 Center     Atomic     Atomic              Coordinates (Angstroms)
 Number     Number      Type              X           Y           Z
 ---------------------------------------------------------------------
    1          6             0       -0.762469    1.849252   -0.412984
    2          6             0        0.546888    1.881058   -0.109538
    3          6             0        1.235080    1.013763    0.911760
    4          6             0        2.101103   -0.107715    0.317329
    5          6             0        1.577366   -0.798056   -0.914925
    6          6             0        0.359343   -1.327453   -1.066758
    7          6             0       -0.707633   -1.288084   -0.053478
    8          6             0       -1.916060   -0.437008   -0.332680
    9          6             0       -1.812653    0.982544    0.238144
   10          6             0       -0.574723   -1.936540    1.105987
   11          1             0       -1.109569    2.536613   -1.184093
   12          1             0        1.183290    2.553190   -0.684036
   13          1             0        0.526979    0.590845    1.656787
   14          1             0        1.885908    1.673518    1.530499
   15          1             0        2.296397   -0.872181    1.103773
   16          1             0        3.098726    0.319480    0.061278
   17          1             0        2.237869   -0.821215   -1.777606
   18          1             0        0.086043   -1.690955   -2.053191
   19          1             0       -2.826350   -0.926854    0.086719
   20          1             0       -2.106056   -0.379774   -1.430423
   21          1             0       -1.715670    0.974553    1.347607
   22          1             0       -2.796361    1.473664    0.054837
   23          1             0        0.304904   -2.536672    1.319667
   24          1             0       -1.343571   -1.884782    1.871052
 ---------------------------------------------------------------------
 Rotational constants (GHZ):      1.5940143      1.4989475      1.0168396
 Standard basis: VSTO-3G (5D, 7F)
 There are    54 symmetry adapted basis functions of A   symmetry.
 Integral buffers will be    131072 words long.
 Raffenetti 1 integral format.
 Two-electron integral symmetry is turned on.
    54 basis functions,   162 primitive gaussians,    54 cartesian basis functions
    27 alpha electrons       27 beta electrons
       nuclear repulsion energy       277.0744666579 Hartrees.
 NAtoms=   24 NActive=   24 NUniq=   24 SFac= 7.50D-01 NAtFMM=   80 NAOKFM=F Big=F
 Simple Huckel Guess.
 Initial guess orbital symmetries:
       Occupied  (A) (A) (A) (A) (A) (A) (A) (A) (A) (A) (A) (A)
                 (A) (A) (A) (A) (A) (A) (A) (A) (A) (A) (A) (A)
                 (A) (A) (A)
       Virtual   (A) (A) (A) (A) (A) (A) (A) (A) (A) (A) (A) (A)
                 (A) (A) (A) (A) (A) (A) (A) (A) (A) (A) (A) (A)
                 (A) (A) (A)
 The electronic state of the initial guess is 1-A.
 RHF-PM3 calculation of energy and first derivatives.
 MO and density RWFs will be updated without deorthogonalization.
 Closed-shell calculation:      27 occupied levels.
 NNHCO=    0.
 References:
  H: (PM3): J. J. P. STEWART, J. COMP. CHEM.     10, 209 (1989).
  C: (PM3): J. J. P. STEWART, J. COMP. CHEM.     10, 209 (1989).
 Ext34=T Pulay=F Camp-King=F BShift= 0.00D+00
 It=  1 PL= 0.644D+00 DiagD=T ESCF=      8.071718 Diff= 0.374D+01 RMSDP= 0.192D+00.
 It=  2 PL= 0.448D-01 DiagD=T ESCF=      2.150476 Diff=-0.592D+01 RMSDP= 0.460D-02.
 It=  3 PL= 0.141D-01 DiagD=F ESCF=      1.686135 Diff=-0.464D+00 RMSDP= 0.222D-02.
 It=  4 PL= 0.196D-02 DiagD=F ESCF=      1.609023 Diff=-0.771D-01 RMSDP= 0.229D-03.
 It=  5 PL= 0.106D-02 DiagD=F ESCF=      1.630610 Diff= 0.216D-01 RMSDP= 0.107D-03.
 It=  6 PL= 0.572D-03 DiagD=F ESCF=      1.630409 Diff=-0.200D-03 RMSDP= 0.112D-03.
 It=  7 PL= 0.666D-04 DiagD=F ESCF=      1.630265 Diff=-0.144D-03 RMSDP= 0.691D-05.
 It=  8 PL= 0.363D-04 DiagD=F ESCF=      1.630343 Diff= 0.774D-04 RMSDP= 0.321D-05.
 It=  9 PL= 0.199D-04 DiagD=F ESCF=      1.630342 Diff=-0.180D-06 RMSDP= 0.378D-05.
 It= 10 PL= 0.173D-05 DiagD=F ESCF=      1.630342 Diff=-0.158D-06 RMSDP= 0.341D-06.
 It= 11 PL= 0.100D-05 DiagD=F ESCF=      1.630342 Diff= 0.915D-07 RMSDP= 0.148D-06.
 It= 12 PL= 0.567D-06 DiagD=F ESCF=      1.630342 Diff=-0.366D-09 RMSDP= 0.153D-06.
 It= 13 PL= 0.123D-06 DiagD=F ESCF=      1.630342 Diff=-0.287D-09 RMSDP= 0.181D-07.
 Energy=    0.059915152409 NIter=  14.
 Dipole moment=      -0.003437       0.088067       0.009552

 **********************************************************************

            Population analysis using the SCF density.

 **********************************************************************

 Orbital symmetries:
       Occupied  (A) (A) (A) (A) (A) (A) (A) (A) (A) (A) (A) (A)
                 (A) (A) (A) (A) (A) (A) (A) (A) (A) (A) (A) (A)
                 (A) (A) (A)
       Virtual   (A) (A) (A) (A) (A) (A) (A) (A) (A) (A) (A) (A)
                 (A) (A) (A) (A) (A) (A) (A) (A) (A) (A) (A) (A)
                 (A) (A) (A)
 The electronic state is 1-A.
 Alpha  occ. eigenvalues --   -1.48195  -1.27286  -1.25045  -1.04773  -1.00512
 Alpha  occ. eigenvalues --   -0.89209  -0.81187  -0.75050  -0.66303  -0.64547
 Alpha  occ. eigenvalues --   -0.61824  -0.60308  -0.59343  -0.56341  -0.53908
 Alpha  occ. eigenvalues --   -0.53842  -0.51764  -0.50258  -0.48371  -0.47317
 Alpha  occ. eigenvalues --   -0.45243  -0.43474  -0.43204  -0.41762  -0.38291
 Alpha  occ. eigenvalues --   -0.35998  -0.34867
 Alpha virt. eigenvalues --    0.02588   0.04016   0.05414   0.12072   0.12461
 Alpha virt. eigenvalues --    0.12677   0.13036   0.13560   0.13642   0.14157
 Alpha virt. eigenvalues --    0.14775   0.14882   0.15059   0.15581   0.15763
 Alpha virt. eigenvalues --    0.16251   0.16682   0.16996   0.17356   0.17687
 Alpha virt. eigenvalues --    0.18009   0.19386   0.20721   0.21093   0.21726
 Alpha virt. eigenvalues --    0.22010   0.22601
          Condensed to atoms (all electrons):
              1          2          3          4          5          6
     1  C    4.146249   0.000000   0.000000   0.000000   0.000000   0.000000
     2  C    0.000000   4.132264   0.000000   0.000000   0.000000   0.000000
     3  C    0.000000   0.000000   4.059850   0.000000   0.000000   0.000000
     4  C    0.000000   0.000000   0.000000   4.046643   0.000000   0.000000
     5  C    0.000000   0.000000   0.000000   0.000000   4.129766   0.000000
     6  C    0.000000   0.000000   0.000000   0.000000   0.000000   4.103799
     7  C    0.000000   0.000000   0.000000   0.000000   0.000000   0.000000
     8  C    0.000000   0.000000   0.000000   0.000000   0.000000   0.000000
     9  C    0.000000   0.000000   0.000000   0.000000   0.000000   0.000000
    10  C    0.000000   0.000000   0.000000   0.000000   0.000000   0.000000
    11  H    0.000000   0.000000   0.000000   0.000000   0.000000   0.000000
    12  H    0.000000   0.000000   0.000000   0.000000   0.000000   0.000000
    13  H    0.000000   0.000000   0.000000   0.000000   0.000000   0.000000
    14  H    0.000000   0.000000   0.000000   0.000000   0.000000   0.000000
    15  H    0.000000   0.000000   0.000000   0.000000   0.000000   0.000000
    16  H    0.000000   0.000000   0.000000   0.000000   0.000000   0.000000
    17  H    0.000000   0.000000   0.000000   0.000000   0.000000   0.000000
    18  H    0.000000   0.000000   0.000000   0.000000   0.000000   0.000000
    19  H    0.000000   0.000000   0.000000   0.000000   0.000000   0.000000
    20  H    0.000000   0.000000   0.000000   0.000000   0.000000   0.000000
    21  H    0.000000   0.000000   0.000000   0.000000   0.000000   0.000000
    22  H    0.000000   0.000000   0.000000   0.000000   0.000000   0.000000
    23  H    0.000000   0.000000   0.000000   0.000000   0.000000   0.000000
    24  H    0.000000   0.000000   0.000000   0.000000   0.000000   0.000000
              7          8          9         10         11         12
     1  C    0.000000   0.000000   0.000000   0.000000   0.000000   0.000000
     2  C    0.000000   0.000000   0.000000   0.000000   0.000000   0.000000
     3  C    0.000000   0.000000   0.000000   0.000000   0.000000   0.000000
     4  C    0.000000   0.000000   0.000000   0.000000   0.000000   0.000000
     5  C    0.000000   0.000000   0.000000   0.000000   0.000000   0.000000
     6  C    0.000000   0.000000   0.000000   0.000000   0.000000   0.000000
     7  C    4.071935   0.000000   0.000000   0.000000   0.000000   0.000000
     8  C    0.000000   4.044314   0.000000   0.000000   0.000000   0.000000
     9  C    0.000000   0.000000   4.049760   0.000000   0.000000   0.000000
    10  C    0.000000   0.000000   0.000000   4.169428   0.000000   0.000000
    11  H    0.000000   0.000000   0.000000   0.000000   0.908143   0.000000
    12  H    0.000000   0.000000   0.000000   0.000000   0.000000   0.907426
    13  H    0.000000   0.000000   0.000000   0.000000   0.000000   0.000000
    14  H    0.000000   0.000000   0.000000   0.000000   0.000000   0.000000
    15  H    0.000000   0.000000   0.000000   0.000000   0.000000   0.000000
    16  H    0.000000   0.000000   0.000000   0.000000   0.000000   0.000000
    17  H    0.000000   0.000000   0.000000   0.000000   0.000000   0.000000
    18  H    0.000000   0.000000   0.000000   0.000000   0.000000   0.000000
    19  H    0.000000   0.000000   0.000000   0.000000   0.000000   0.000000
    20  H    0.000000   0.000000   0.000000   0.000000   0.000000   0.000000
    21  H    0.000000   0.000000   0.000000   0.000000   0.000000   0.000000
    22  H    0.000000   0.000000   0.000000   0.000000   0.000000   0.000000
    23  H    0.000000   0.000000   0.000000   0.000000   0.000000   0.000000
    24  H    0.000000   0.000000   0.000000   0.000000   0.000000   0.000000
             13         14         15         16         17         18
     1  C    0.000000   0.000000   0.000000   0.000000   0.000000   0.000000
     2  C    0.000000   0.000000   0.000000   0.000000   0.000000   0.000000
     3  C    0.000000   0.000000   0.000000   0.000000   0.000000   0.000000
     4  C    0.000000   0.000000   0.000000   0.000000   0.000000   0.000000
     5  C    0.000000   0.000000   0.000000   0.000000   0.000000   0.000000
     6  C    0.000000   0.000000   0.000000   0.000000   0.000000   0.000000
     7  C    0.000000   0.000000   0.000000   0.000000   0.000000   0.000000
     8  C    0.000000   0.000000   0.000000   0.000000   0.000000   0.000000
     9  C    0.000000   0.000000   0.000000   0.000000   0.000000   0.000000
    10  C    0.000000   0.000000   0.000000   0.000000   0.000000   0.000000
    11  H    0.000000   0.000000   0.000000   0.000000   0.000000   0.000000
    12  H    0.000000   0.000000   0.000000   0.000000   0.000000   0.000000
    13  H    0.940955   0.000000   0.000000   0.000000   0.000000   0.000000
    14  H    0.000000   0.954819   0.000000   0.000000   0.000000   0.000000
    15  H    0.000000   0.000000   0.944115   0.000000   0.000000   0.000000
    16  H    0.000000   0.000000   0.000000   0.957152   0.000000   0.000000
    17  H    0.000000   0.000000   0.000000   0.000000   0.907356   0.000000
    18  H    0.000000   0.000000   0.000000   0.000000   0.000000   0.901166
    19  H    0.000000   0.000000   0.000000   0.000000   0.000000   0.000000
    20  H    0.000000   0.000000   0.000000   0.000000   0.000000   0.000000
    21  H    0.000000   0.000000   0.000000   0.000000   0.000000   0.000000
    22  H    0.000000   0.000000   0.000000   0.000000   0.000000   0.000000
    23  H    0.000000   0.000000   0.000000   0.000000   0.000000   0.000000
    24  H    0.000000   0.000000   0.000000   0.000000   0.000000   0.000000
             19         20         21         22         23         24
     1  C    0.000000   0.000000   0.000000   0.000000   0.000000   0.000000
     2  C    0.000000   0.000000   0.000000   0.000000   0.000000   0.000000
     3  C    0.000000   0.000000   0.000000   0.000000   0.000000   0.000000
     4  C    0.000000   0.000000   0.000000   0.000000   0.000000   0.000000
     5  C    0.000000   0.000000   0.000000   0.000000   0.000000   0.000000
     6  C    0.000000   0.000000   0.000000   0.000000   0.000000   0.000000
     7  C    0.000000   0.000000   0.000000   0.000000   0.000000   0.000000
     8  C    0.000000   0.000000   0.000000   0.000000   0.000000   0.000000
     9  C    0.000000   0.000000   0.000000   0.000000   0.000000   0.000000
    10  C    0.000000   0.000000   0.000000   0.000000   0.000000   0.000000
    11  H    0.000000   0.000000   0.000000   0.000000   0.000000   0.000000
    12  H    0.000000   0.000000   0.000000   0.000000   0.000000   0.000000
    13  H    0.000000   0.000000   0.000000   0.000000   0.000000   0.000000
    14  H    0.000000   0.000000   0.000000   0.000000   0.000000   0.000000
    15  H    0.000000   0.000000   0.000000   0.000000   0.000000   0.000000
    16  H    0.000000   0.000000   0.000000   0.000000   0.000000   0.000000
    17  H    0.000000   0.000000   0.000000   0.000000   0.000000   0.000000
    18  H    0.000000   0.000000   0.000000   0.000000   0.000000   0.000000
    19  H    0.948986   0.000000   0.000000   0.000000   0.000000   0.000000
    20  H    0.000000   0.946802   0.000000   0.000000   0.000000   0.000000
    21  H    0.000000   0.000000   0.942161   0.000000   0.000000   0.000000
    22  H    0.000000   0.000000   0.000000   0.959436   0.000000   0.000000
    23  H    0.000000   0.000000   0.000000   0.000000   0.911806   0.000000
    24  H    0.000000   0.000000   0.000000   0.000000   0.000000   0.915671
 Mulliken atomic charges:
              1
     1  C   -0.146249
     2  C   -0.132264
     3  C   -0.059850
     4  C   -0.046643
     5  C   -0.129766
     6  C   -0.103799
     7  C   -0.071935
     8  C   -0.044314
     9  C   -0.049760
    10  C   -0.169428
    11  H    0.091857
    12  H    0.092574
    13  H    0.059045
    14  H    0.045181
    15  H    0.055885
    16  H    0.042848
    17  H    0.092644
    18  H    0.098834
    19  H    0.051014
    20  H    0.053198
    21  H    0.057839
    22  H    0.040564
    23  H    0.088194
    24  H    0.084329
 Sum of Mulliken charges=   0.00000
 Atomic charges with hydrogens summed into heavy atoms:
              1
     1  C   -0.054392
     2  C   -0.039690
     3  C    0.044376
     4  C    0.052089
     5  C   -0.037121
     6  C   -0.004965
     7  C   -0.071935
     8  C    0.059899
     9  C    0.048643
    10  C    0.003096
    11  H    0.000000
    12  H    0.000000
    13  H    0.000000
    14  H    0.000000
    15  H    0.000000
    16  H    0.000000
    17  H    0.000000
    18  H    0.000000
    19  H    0.000000
    20  H    0.000000
    21  H    0.000000
    22  H    0.000000
    23  H    0.000000
    24  H    0.000000
 Sum of Mulliken charges=   0.00000
 ***** Axes restored to original set *****
 -------------------------------------------------------------------
 Center     Atomic                   Forces (Hartrees/Bohr)
 Number     Number              X              Y              Z
 -------------------------------------------------------------------
    1          6           0.002376160   -0.015523676    0.015122919
    2          6          -0.017666528   -0.013329373    0.001361108
    3          6           0.001822596    0.007021230   -0.004341685
    4          6           0.001765715    0.000995748   -0.009369919
    5          6          -0.006507247    0.008586884    0.016503029
    6          6           0.000756974    0.012918817    0.006928691
    7          6           0.004097096    0.002945018    0.002634443
    8          6           0.004033590    0.000100771   -0.004117010
    9          6           0.005096623    0.007194158   -0.006575193
   10          6          -0.001503060    0.000853765   -0.004317601
   11          1          -0.003125978    0.002498681   -0.003462227
   12          1           0.005370114    0.000672064    0.001027963
   13          1          -0.002893590    0.000877717   -0.005468386
   14          1          -0.000317627   -0.000718416   -0.002703516
   15          1          -0.000077162    0.002612840   -0.002612809
   16          1          -0.004015553   -0.000665435    0.000692745
   17          1           0.006537703   -0.002600548   -0.001937038
   18          1          -0.006158571   -0.004806033   -0.005127000
   19          1           0.004297983   -0.000164676    0.000197469
   20          1           0.001964076   -0.001945746    0.004050796
   21          1           0.003726747   -0.003198414   -0.004015411
   22          1           0.001629464   -0.001581151    0.001635636
   23          1          -0.001653020    0.000159707    0.002655242
   24          1           0.000443496   -0.002903930    0.001237755
 -------------------------------------------------------------------
 Cartesian Forces:  Max     0.017666528 RMS     0.005688313

 GradGradGradGradGradGradGradGradGradGradGradGradGradGradGradGradGradGrad
 Berny optimization.
 Internal  Forces:  Max     0.018549020 RMS     0.004802435
 Search for a local minimum.
 Step number   1 out of a maximum of 106
 All quantities printed in internal units (Hartrees-Bohrs-Radians)
 Swaping is turned off.
 Second derivative matrix not updated -- first step.
 RFO step:  Lambda= 1.57337491D-03.
 Linear search not attempted -- option 19 set.
 Iteration  1 RMS(Cart)=  0.08015910 RMS(Int)=  0.00479542
 Iteration  2 RMS(Cart)=  0.00526549 RMS(Int)=  0.00178779
 Iteration  3 RMS(Cart)=  0.00001340 RMS(Int)=  0.00178777
 Iteration  4 RMS(Cart)=  0.00000005 RMS(Int)=  0.00178777
 Variable       Old X    -DE/DX   Delta X   Delta X   Delta X     New X
                                 (Linear)    (Quad)   (Total)
    R1        2.54061  -0.01495   0.00000  -0.02667  -0.02715   2.51346
    R2        2.85220  -0.01670   0.00000  -0.05394  -0.05417   2.79803
    R3        2.05933   0.00410   0.00000   0.01176   0.01176   2.07109
    R4        2.84644  -0.01855   0.00000  -0.05743  -0.05776   2.78868
    R5        2.05869   0.00430   0.00000   0.01236   0.01236   2.07105
    R6        2.90370  -0.00920   0.00000  -0.03282  -0.03296   2.87074
    R7        2.10035  -0.00087   0.00000  -0.00276  -0.00276   2.09759
    R8        2.10575  -0.00225   0.00000  -0.00653  -0.00653   2.09921
    R9        2.84673  -0.01576   0.00000  -0.04867  -0.04830   2.79843
   R10        2.10519  -0.00361   0.00000  -0.01075  -0.01075   2.09444
   R11        2.10712  -0.00409   0.00000  -0.01298  -0.01298   2.09414
   R12        2.52609  -0.00296   0.00000  -0.00416  -0.00371   2.52238
   R13        2.05365   0.00616   0.00000   0.01749   0.01749   2.07114
   R14        2.78164  -0.00909   0.00000  -0.02351  -0.02336   2.75828
   R15        2.05266   0.00704   0.00000   0.02027   0.02027   2.07293
   R16        2.84250  -0.01019   0.00000  -0.02958  -0.02919   2.81331
   R17        2.52299   0.00123   0.00000   0.00194   0.00194   2.52494
   R18        2.89792  -0.00843   0.00000  -0.02806  -0.02822   2.86970
   R19        2.10810  -0.00405   0.00000  -0.01221  -0.01221   2.09589
   R20        2.10805  -0.00439   0.00000  -0.01356  -0.01356   2.09450
   R21        2.10463  -0.00374   0.00000  -0.01175  -0.01175   2.09288
   R22        2.10641  -0.00252   0.00000  -0.00766  -0.00766   2.09876
   R23        2.05239  -0.00051   0.00000  -0.00129  -0.00129   2.05110
   R24        2.05201  -0.00021   0.00000  -0.00077  -0.00077   2.05124
    A1        2.20665   0.00139   0.00000  -0.01056  -0.01257   2.19408
    A2        2.04316   0.00259   0.00000   0.02673   0.02522   2.06837
    A3        2.03291  -0.00394   0.00000  -0.01312  -0.01456   2.01835
    A4        2.19491   0.00085   0.00000  -0.01014  -0.01394   2.18097
    A5        2.05387   0.00297   0.00000   0.02902   0.02581   2.07967
    A6        2.03298  -0.00364   0.00000  -0.01132  -0.01433   2.01865
    A7        1.99923  -0.00322   0.00000  -0.02945  -0.03173   1.96750
    A8        1.96331  -0.00275   0.00000  -0.03671  -0.03741   1.92590
    A9        1.87803   0.00035   0.00000   0.02175   0.02227   1.90030
   A10        1.91843   0.00313   0.00000  -0.00181  -0.00266   1.91576
   A11        1.89416  -0.00033   0.00000   0.01477   0.01529   1.90945
   A12        1.79793   0.00354   0.00000   0.04207   0.04256   1.84049
   A13        2.04313  -0.00310   0.00000  -0.03376  -0.03327   2.00986
   A14        1.90344   0.00141   0.00000  -0.00194  -0.00249   1.90096
   A15        1.88964   0.00110   0.00000   0.02103   0.02089   1.91053
   A16        1.90069   0.00007   0.00000  -0.00751  -0.00794   1.89276
   A17        1.87422   0.00096   0.00000   0.01869   0.01856   1.89278
   A18        1.84229  -0.00019   0.00000   0.00814   0.00802   1.85031
   A19        2.20333  -0.00080   0.00000  -0.00485  -0.00317   2.20016
   A20        2.03510  -0.00298   0.00000  -0.01726  -0.01856   2.01654
   A21        2.04339   0.00388   0.00000   0.02433   0.02305   2.06643
   A22        2.17937  -0.00074   0.00000   0.00193  -0.00336   2.17601
   A23        2.05436   0.00529   0.00000   0.04105   0.03306   2.08743
   A24        2.03948  -0.00376   0.00000  -0.01393  -0.02178   2.01769
   A25        2.05974  -0.00865   0.00000  -0.03555  -0.03779   2.02195
   A26        2.10909   0.00528   0.00000   0.02403   0.01976   2.12884
   A27        2.11295   0.00357   0.00000   0.01930   0.01514   2.12809
   A28        1.98285  -0.00221   0.00000  -0.02838  -0.02814   1.95471
   A29        1.91487  -0.00011   0.00000  -0.00140  -0.00211   1.91276
   A30        1.92678  -0.00211   0.00000  -0.00716  -0.00718   1.91961
   A31        1.89817   0.00080   0.00000   0.00698   0.00676   1.90493
   A32        1.90740   0.00094   0.00000   0.01219   0.01217   1.91957
   A33        1.82710   0.00317   0.00000   0.02216   0.02214   1.84924
   A34        2.00193  -0.00054   0.00000  -0.02508  -0.02487   1.97706
   A35        1.95334  -0.00171   0.00000  -0.03398  -0.03625   1.91710
   A36        1.86513   0.00198   0.00000   0.03830   0.03822   1.90334
   A37        1.94985  -0.00178   0.00000  -0.03381  -0.03641   1.91344
   A38        1.86203   0.00279   0.00000   0.04173   0.04164   1.90367
   A39        1.81711  -0.00019   0.00000   0.02741   0.02733   1.84444
   A40        2.11749   0.00206   0.00000   0.01222   0.01146   2.12895
   A41        2.11558   0.00217   0.00000   0.01381   0.01305   2.12863
   A42        2.05011  -0.00422   0.00000  -0.02594  -0.02671   2.02341
    D1        0.04319  -0.00069   0.00000  -0.07848  -0.07825  -0.03506
    D2        3.12502   0.00291   0.00000   0.07874   0.08055  -3.07761
    D3       -3.13263   0.00060   0.00000   0.03270   0.03360  -3.09903
    D4       -1.46582   0.00005   0.00000   0.02704   0.02649  -1.43934
    D5        0.77900  -0.00450   0.00000  -0.07371  -0.07226   0.70673
    D6        1.70982  -0.00134   0.00000  -0.08425  -0.08323   1.62659
    D7        1.84735   0.00419   0.00000   0.12925   0.12966   1.97701
    D8       -0.36000   0.00498   0.00000   0.18895   0.18818  -0.17182
    D9       -1.23512   0.00043   0.00000  -0.02754  -0.02542  -1.26053
   D10       -0.66259  -0.00031   0.00000  -0.05988  -0.05916  -0.72176
   D11       -2.82944   0.00077   0.00000  -0.02223  -0.02229  -2.85173
   D12        1.56776  -0.00400   0.00000  -0.13555  -0.13505   1.43271
   D13       -0.89452  -0.00119   0.00000   0.07469   0.07408  -0.82044
   D14        2.18898   0.00105   0.00000   0.12261   0.12109   2.31007
   D15        1.27372  -0.00159   0.00000   0.03995   0.04022   1.31395
   D16        0.03523  -0.00072   0.00000  -0.04798  -0.04938  -0.01415
   D17        3.02035   0.00515   0.00000   0.17746   0.17903  -3.08381
   D18       -3.04802  -0.00277   0.00000  -0.09486  -0.09635   3.13881
   D19        1.93869   0.00380   0.00000   0.06147   0.06004   1.99873
   D20       -1.14637  -0.00045   0.00000  -0.09435  -0.09426  -1.24063
   D21       -1.04763  -0.00276   0.00000  -0.16668  -0.16458  -1.21222
   D22       -1.62523  -0.00092   0.00000  -0.04423  -0.04425  -1.66948
   D23        2.52928  -0.00034   0.00000  -0.03250  -0.03231   2.49698
   D24        1.45970   0.00339   0.00000   0.11211   0.11014   1.56984
   D25       -0.03732   0.00238   0.00000   0.10007   0.10162   0.06430
   D26        3.10581   0.00111   0.00000   0.02586   0.02590   3.13171
   D27       -3.12064  -0.00161   0.00000  -0.05875  -0.06034   3.10220
   D28        1.17445   0.00071   0.00000   0.04083   0.04217   1.21661
   D29       -1.07212   0.00522   0.00000   0.14149   0.14065  -0.93148
   D30       -2.97082  -0.00035   0.00000   0.02483   0.02549  -2.94533
         Item               Value     Threshold  Converged?
 Maximum Force            0.018549     0.000002     NO 
 RMS     Force            0.004802     0.000001     NO 
 Maximum Displacement     0.268640     0.000006     NO 
 RMS     Displacement     0.080876     0.000004     NO 
 Predicted change in Energy=-7.111988D-03
 GradGradGradGradGradGradGradGradGradGradGradGradGradGradGradGradGradGrad

                          Input orientation:                          
 ---------------------------------------------------------------------
 Center     Atomic     Atomic              Coordinates (Angstroms)
 Number     Number      Type              X           Y           Z
 ---------------------------------------------------------------------
    1          6             0       -0.007153    1.992428   -0.300657
    2          6             0        1.167230    1.486456    0.065261
    3          6             0        1.350018    0.389021    1.034763
    4          6             0        1.900054   -0.874113    0.394679
    5          6             0        1.320092   -1.215266   -0.924498
    6          6             0        0.021492   -1.225089   -1.233036
    7          6             0       -1.056191   -0.911903   -0.299765
    8          6             0       -1.842655    0.314880   -0.604430
    9          6             0       -1.332718    1.522436    0.162283
   10          6             0       -1.390094   -1.735814    0.697706
   11          1             0       -0.022720    2.781312   -1.061298
   12          1             0        2.087915    1.957288   -0.297736
   13          1             0        0.391724    0.163366    1.547442
   14          1             0        2.041333    0.728158    1.835432
   15          1             0        1.733398   -1.727251    1.082268
   16          1             0        2.998644   -0.782602    0.281689
   17          1             0        2.043732   -1.470469   -1.707079
   18          1             0       -0.295609   -1.548209   -2.232206
   19          1             0       -2.908813    0.145978   -0.349725
   20          1             0       -1.818350    0.519717   -1.693426
   21          1             0       -1.291287    1.286355    1.243537
   22          1             0       -2.065816    2.350894    0.063839
   23          1             0       -0.838736   -2.649037    0.897975
   24          1             0       -2.185592   -1.498539    1.397082
 ---------------------------------------------------------------------
                    Distance matrix (angstroms):
                    1          2          3          4          5
     1  C    0.000000
     2  C    1.330067   0.000000
     3  C    2.489211   1.475707   0.000000
     4  C    3.512547   2.493559   1.519130   0.000000
     5  C    3.527046   2.881370   2.532456   1.480867   0.000000
     6  C    3.350010   3.217261   3.084355   2.510306   1.334787
     7  C    3.087980   3.290740   3.043552   3.036949   2.475690
     8  C    2.505097   3.298558   3.589654   4.052134   3.527996
     9  C    1.480651   2.502088   3.040218   4.030914   3.964027
    10  C    4.099883   4.162081   3.483783   3.414590   3.201191
    11  H    1.095972   2.088484   3.464237   4.379390   4.218352
    12  H    2.095364   1.095951   2.186208   2.920884   3.323775
    13  H    2.630597   2.132800   1.109995   2.163397   2.978755
    14  H    3.218315   2.114847   1.110856   2.159398   3.451709
    15  H    4.333361   3.418006   2.151243   1.108331   2.111886
    16  H    4.132158   2.923960   2.158191   1.108170   2.111782
    17  H    4.263309   3.557085   3.384766   2.189445   1.096000
    18  H    4.043538   4.077676   4.139328   3.489393   2.105099
    19  H    3.439683   4.310826   4.484810   4.971914   4.479620
    20  H    2.718294   3.597396   4.183140   4.486588   3.667593
    21  H    2.128867   2.733621   2.797372   3.946244   4.216371
    22  H    2.121191   3.346617   4.057039   5.122329   5.015843
    23  H    4.865331   4.671147   3.746886   3.302216   3.168225
    24  H    4.451378   4.682452   4.024263   4.252907   4.214238
                    6          7          8          9         10
     6  C    0.000000
     7  C    1.459616   0.000000
     8  C    2.498338   1.488739   0.000000
     9  C    3.365961   2.493184   1.518577   0.000000
    10  C    2.445645   1.336139   2.470975   3.302448   0.000000
    11  H    4.010324   3.909966   3.099061   2.190437   5.036689
    12  H    3.907993   4.256484   4.270941   3.478712   5.169763
    13  H    3.129846   2.581634   3.105794   2.596042   2.739308
    14  H    4.160580   4.104086   4.605333   3.848964   4.374959
    15  H    2.922914   3.218169   4.450102   4.561569   3.147088
    16  H    3.369514   4.098352   5.042603   4.907968   4.510289
    17  H    2.091503   3.449935   4.416708   4.883893   4.200543
    18  H    1.096950   2.172026   2.917894   4.029644   3.133285
    19  H    3.353618   2.133968   1.109097   2.154267   2.635292
    20  H    2.577077   2.138391   1.108359   2.164473   3.314866
    21  H    3.763530   2.696181   2.159341   1.107502   3.072653
    22  H    4.338940   3.434734   2.154470   1.110616   4.190414
    23  H    2.703485   2.121203   3.471293   4.264557   1.085394
    24  H    3.444346   2.121080   2.722526   3.373190   1.085469
                   11         12         13         14         15
    11  H    0.000000
    12  H    2.390987   0.000000
    13  H    3.718996   3.082191   0.000000
    14  H    4.106921   2.462384   1.767240   0.000000
    15  H    5.292067   3.950433   2.364511   2.586719   0.000000
    16  H    4.861454   2.944853   3.048445   2.369168   1.770349
    17  H    4.771258   3.706442   3.998807   4.169334   2.818279
    18  H    4.493356   4.659599   4.205669   5.214290   3.890329
    19  H    3.972513   5.315151   3.806979   5.442223   5.206700
    20  H    2.956127   4.390156   3.938863   5.233875   5.036692
    21  H    3.025959   3.774212   2.045969   3.430493   4.272769
    22  H    2.371801   4.187976   3.609135   4.758202   5.665907
    23  H    5.830379   5.586881   3.137746   4.536415   2.738526
    24  H    5.388764   5.751348   3.070357   4.797626   3.938261
                   16         17         18         19         20
    16  H    0.000000
    17  H    2.310891   0.000000
    18  H    4.214015   2.398816   0.000000
    19  H    6.013235   5.383588   3.639072   0.000000
    20  H    5.366614   4.344733   2.623994   1.770402   0.000000
    21  H    4.858935   5.237229   4.594226   2.540735   3.080793
    22  H    5.959448   5.884501   4.858854   2.396525   2.549987
    23  H    4.311482   4.060043   3.362267   3.695143   4.209038
    24  H    5.350978   5.246312   4.092216   2.505758   3.709375
                   21         22         23         24
    21  H    0.000000
    22  H    1.767718   0.000000
    23  H    3.976371   5.215440   0.000000
    24  H    2.928991   4.075539   1.840319   0.000000
 Stoichiometry    C10H14
 Framework group  C1[X(C10H14)]
 Deg. of freedom    66
 Full point group                 C1
 Largest Abelian subgroup         C1      NOp   1
 Largest concise Abelian subgroup C1      NOp   1
                         Standard orientation:                         
 ---------------------------------------------------------------------
 Center     Atomic     Atomic              Coordinates (Angstroms)
 Number     Number      Type              X           Y           Z
 ---------------------------------------------------------------------
    1          6             0       -0.703020    1.857672   -0.385251
    2          6             0        0.595344    1.804578   -0.101508
    3          6             0        1.201348    0.936952    0.926935
    4          6             0        2.096157   -0.138384    0.334717
    5          6             0        1.573500   -0.788849   -0.888677
    6          6             0        0.334802   -1.254610   -1.062890
    7          6             0       -0.718011   -1.212324   -0.052803
    8          6             0       -1.888489   -0.349129   -0.370955
    9          6             0       -1.759655    1.033277    0.244212
   10          6             0       -0.687146   -1.988593    1.034267
   11          1             0       -1.034198    2.512338   -1.199431
   12          1             0        1.278090    2.508366   -0.591049
   13          1             0        0.411681    0.467162    1.549681
   14          1             0        1.793336    1.566481    1.624964
   15          1             0        2.272472   -0.920640    1.099822
   16          1             0        3.090287    0.293852    0.104670
   17          1             0        2.284628   -0.876069   -1.718079
   18          1             0        0.075401   -1.768225   -1.996811
   19          1             0       -2.816423   -0.828343    0.002394
   20          1             0       -2.009740   -0.265088   -1.469452
   21          1             0       -1.566711    0.940505    1.330825
   22          1             0       -2.732492    1.561770    0.156171
   23          1             0        0.150280   -2.645111    1.248232
   24          1             0       -1.465597   -1.950536    1.789787
 ---------------------------------------------------------------------
 Rotational constants (GHZ):      1.6412582      1.5349811      1.0402272
 Standard basis: VSTO-3G (5D, 7F)
 There are    54 symmetry adapted basis functions of A   symmetry.
 Integral buffers will be    131072 words long.
 Raffenetti 1 integral format.
 Two-electron integral symmetry is turned on.
    54 basis functions,   162 primitive gaussians,    54 cartesian basis functions
    27 alpha electrons       27 beta electrons
       nuclear repulsion energy       280.2670316804 Hartrees.
 NAtoms=   24 NActive=   24 NUniq=   24 SFac= 7.50D-01 NAtFMM=   80 NAOKFM=F Big=F
 Initial guess read from the read-write file:
 Initial guess orbital symmetries:
       Occupied  (A) (A) (A) (A) (A) (A) (A) (A) (A) (A) (A) (A)
                 (A) (A) (A) (A) (A) (A) (A) (A) (A) (A) (A) (A)
                 (A) (A) (A)
       Virtual   (A) (A) (A) (A) (A) (A) (A) (A) (A) (A) (A) (A)
                 (A) (A) (A) (A) (A) (A) (A) (A) (A) (A) (A) (A)
                 (A) (A) (A)
 RHF-PM3 calculation of energy and first derivatives.
 MO and density RWFs will be updated without deorthogonalization.
 Closed-shell calculation:      27 occupied levels.
 NNHCO=    0.
 References:
  H: (PM3): J. J. P. STEWART, J. COMP. CHEM.     10, 209 (1989).
  C: (PM3): J. J. P. STEWART, J. COMP. CHEM.     10, 209 (1989).
 Ext34=T Pulay=F Camp-King=F BShift= 0.00D+00
 It=  1 PL= 0.647D+00 DiagD=T ESCF=      9.098812 Diff= 0.476D+01 RMSDP= 0.192D+00.
 It=  2 PL= 0.452D-01 DiagD=T ESCF=      2.075208 Diff=-0.702D+01 RMSDP= 0.462D-02.
 It=  3 PL= 0.139D-01 DiagD=F ESCF=      1.577944 Diff=-0.497D+00 RMSDP= 0.219D-02.
 It=  4 PL= 0.134D-02 DiagD=F ESCF=      1.500115 Diff=-0.778D-01 RMSDP= 0.285D-03.
 It=  5 PL= 0.703D-03 DiagD=F ESCF=      1.519991 Diff= 0.199D-01 RMSDP= 0.143D-03.
 It=  6 PL= 0.379D-03 DiagD=F ESCF=      1.519647 Diff=-0.343D-03 RMSDP= 0.164D-03.
 It=  7 PL= 0.585D-04 DiagD=F ESCF=      1.519359 Diff=-0.288D-03 RMSDP= 0.864D-05.
 It=  8 PL= 0.296D-04 DiagD=F ESCF=      1.519520 Diff= 0.161D-03 RMSDP= 0.397D-05.
 It=  9 PL= 0.160D-04 DiagD=F ESCF=      1.519520 Diff=-0.268D-06 RMSDP= 0.443D-05.
 It= 10 PL= 0.267D-05 DiagD=F ESCF=      1.519520 Diff=-0.209D-06 RMSDP= 0.396D-06.
 It= 11 PL= 0.108D-05 DiagD=F ESCF=      1.519520 Diff= 0.122D-06 RMSDP= 0.172D-06.
 It= 12 PL= 0.517D-06 DiagD=F ESCF=      1.519520 Diff=-0.549D-09 RMSDP= 0.174D-06.
 It= 13 PL= 0.134D-06 DiagD=F ESCF=      1.519520 Diff=-0.331D-09 RMSDP= 0.195D-07.
 Energy=    0.055842423487 NIter=  14.
 Dipole moment=       0.019019       0.014555       0.026195
 ***** Axes restored to original set *****
 -------------------------------------------------------------------
 Center     Atomic                   Forces (Hartrees/Bohr)
 Number     Number              X              Y              Z
 -------------------------------------------------------------------
    1          6          -0.000930553    0.000417222   -0.010910569
    2          6           0.005641318    0.010676888    0.004587495
    3          6           0.001746932   -0.002342130    0.007722362
    4          6           0.005173623   -0.000856514    0.001831488
    5          6          -0.003083927    0.001226315   -0.005238491
    6          6           0.006132461   -0.008610553    0.000391299
    7          6          -0.009006617   -0.009702544   -0.000858438
    8          6          -0.002835209    0.004216972   -0.002682913
    9          6          -0.005015023    0.004256961    0.004528716
   10          6           0.005512079    0.005051551    0.000662087
   11          1          -0.000562483    0.002557910    0.001275449
   12          1           0.001202788   -0.002407291   -0.003315844
   13          1          -0.002042267    0.000021791    0.000622286
   14          1          -0.000717503   -0.000509414   -0.000633305
   15          1           0.000731424   -0.000970854    0.000202506
   16          1           0.000179997    0.000064569    0.000523473
   17          1           0.000791394   -0.001042182   -0.000143941
   18          1          -0.001562605    0.002946169   -0.000862475
   19          1           0.000027227    0.000121766   -0.000314351
   20          1          -0.000157205   -0.000224300   -0.000076838
   21          1           0.000518993   -0.001184129    0.002314531
   22          1           0.001014572   -0.000808377    0.000326858
   23          1          -0.001029833   -0.000556430    0.000823860
   24          1          -0.001729582   -0.002343399   -0.000775246
 -------------------------------------------------------------------
 Cartesian Forces:  Max     0.010910569 RMS     0.003600728

 GradGradGradGradGradGradGradGradGradGradGradGradGradGradGradGradGradGrad
 Berny optimization.
 Use GDIIS/GDPIS optimizer.
 Internal  Forces:  Max     0.009213712 RMS     0.002709981
 Search for a local minimum.
 Step number   2 out of a maximum of 106
 All quantities printed in internal units (Hartrees-Bohrs-Radians)
 Swaping is turned off.
   2   1  0.6313974E-02  0.1854844E-01  0.3404046    
 Update second derivatives using D2CorL and points  1  2
 Trust test= 5.73D-01 RLast= 5.45D-01 DXMaxT set to 3.00D-01
 RFO step:  Lambda= 5.91493891D-04.
 DIIS coeff's:      0.87045      0.12955
 Cosine:  1.000 >  0.866
 Length:  0.992
 GDIIS step was calculated using  2 of the last  2 vectors.
 Iteration  1 RMS(Cart)=  0.04928194 RMS(Int)=  0.00222938
 Iteration  2 RMS(Cart)=  0.00359976 RMS(Int)=  0.00107660
 Iteration  3 RMS(Cart)=  0.00000753 RMS(Int)=  0.00107658
 Iteration  4 RMS(Cart)=  0.00000000 RMS(Int)=  0.00107658
 Variable       Old X    -DE/DX   Delta X   Delta X   Delta X     New X
                                  (DIIS)     (GDIIS)  (Total)
    R1        2.51346   0.00807   0.00352  -0.00206   0.00153   2.51499
    R2        2.79803   0.00736   0.00702  -0.00571   0.00127   2.79929
    R3        2.07109   0.00096  -0.00152   0.00487   0.00334   2.07443
    R4        2.78868   0.00921   0.00748  -0.00287   0.00474   2.79342
    R5        2.07105   0.00107  -0.00160   0.00516   0.00356   2.07460
    R6        2.87074   0.00609   0.00427   0.00008   0.00441   2.87515
    R7        2.09759   0.00205   0.00036   0.00264   0.00299   2.10058
    R8        2.09921  -0.00106   0.00085  -0.00390  -0.00305   2.09616
    R9        2.79843   0.00742   0.00626  -0.00018   0.00603   2.80446
   R10        2.09444   0.00076   0.00139  -0.00192  -0.00053   2.09392
   R11        2.09414   0.00013   0.00168  -0.00350  -0.00182   2.09231
   R12        2.52238   0.00226   0.00048   0.00249   0.00294   2.52532
   R13        2.07114   0.00087  -0.00227   0.00643   0.00416   2.07530
   R14        2.75828   0.00577   0.00303   0.00339   0.00643   2.76471
   R15        2.07293   0.00037  -0.00263   0.00630   0.00367   2.07661
   R16        2.81331   0.00810   0.00378   0.00733   0.01101   2.82432
   R17        2.52494  -0.00148  -0.00025  -0.00088  -0.00113   2.52381
   R18        2.86970   0.00699   0.00366   0.00340   0.00702   2.87672
   R19        2.09589  -0.00012   0.00158  -0.00388  -0.00230   2.09359
   R20        2.09450   0.00003   0.00176  -0.00399  -0.00223   2.09226
   R21        2.09288   0.00253   0.00152   0.00084   0.00236   2.09524
   R22        2.09876  -0.00130   0.00099  -0.00437  -0.00338   2.09538
   R23        2.05110   0.00010   0.00017  -0.00025  -0.00008   2.05101
   R24        2.05124   0.00026   0.00010   0.00013   0.00023   2.05147
    A1        2.19408  -0.00046   0.00163  -0.01767  -0.01799   2.17608
    A2        2.06837   0.00107  -0.00327   0.02123   0.01486   2.08323
    A3        2.01835  -0.00032   0.00189   0.00466   0.00350   2.02185
    A4        2.18097  -0.00047   0.00181  -0.01506  -0.01615   2.16481
    A5        2.07967   0.00098  -0.00334   0.02179   0.01412   2.09379
    A6        2.01865   0.00000   0.00186   0.00574   0.00335   2.02199
    A7        1.96750   0.00004   0.00411  -0.00580  -0.00096   1.96654
    A8        1.92590  -0.00024   0.00485  -0.01685  -0.01176   1.91414
    A9        1.90030   0.00072  -0.00288   0.00901   0.00585   1.90615
   A10        1.91576  -0.00093   0.00035  -0.00410  -0.00378   1.91198
   A11        1.90945   0.00029  -0.00198   0.00653   0.00428   1.91372
   A12        1.84049   0.00015  -0.00551   0.01279   0.00702   1.84751
   A13        2.00986   0.00099   0.00431   0.00111   0.00563   2.01549
   A14        1.90096   0.00086   0.00032   0.00252   0.00296   1.90391
   A15        1.91053  -0.00074  -0.00271  -0.00026  -0.00292   1.90761
   A16        1.89276  -0.00078   0.00103  -0.00345  -0.00280   1.88996
   A17        1.89278   0.00033  -0.00240   0.00307   0.00071   1.89348
   A18        1.85031  -0.00081  -0.00104  -0.00343  -0.00443   1.84588
   A19        2.20016   0.00173   0.00041   0.01717   0.01564   2.21580
   A20        2.01654  -0.00122   0.00240  -0.01568  -0.01402   2.00253
   A21        2.06643  -0.00049  -0.00299  -0.00058  -0.00430   2.06213
   A22        2.17601   0.00183   0.00043   0.01935   0.01835   2.19436
   A23        2.08743   0.00105  -0.00428   0.00684   0.00218   2.08961
   A24        2.01769  -0.00251   0.00282  -0.02153  -0.01907   1.99862
   A25        2.02195   0.00129   0.00489  -0.00846  -0.00454   2.01741
   A26        2.12884  -0.00114  -0.00256   0.00619   0.00263   2.13147
   A27        2.12809   0.00035  -0.00196   0.00917   0.00621   2.13430
   A28        1.95471   0.00143   0.00365   0.00045   0.00456   1.95927
   A29        1.91276  -0.00113   0.00027  -0.00210  -0.00197   1.91078
   A30        1.91961  -0.00055   0.00093  -0.00509  -0.00426   1.91534
   A31        1.90493   0.00085  -0.00088   0.00093   0.00010   1.90503
   A32        1.91957  -0.00004  -0.00158   0.00209   0.00042   1.91999
   A33        1.84924  -0.00067  -0.00287   0.00392   0.00096   1.85020
   A34        1.97706   0.00057   0.00322  -0.00722  -0.00480   1.97226
   A35        1.91710   0.00020   0.00470  -0.01185  -0.00662   1.91048
   A36        1.90334  -0.00054  -0.00495   0.01059   0.00575   1.90909
   A37        1.91344   0.00024   0.00472  -0.01055  -0.00533   1.90811
   A38        1.90367   0.00005  -0.00539   0.01411   0.00883   1.91250
   A39        1.84444  -0.00062  -0.00354   0.00622   0.00278   1.84722
   A40        2.12895   0.00111  -0.00148   0.00912   0.00481   2.13376
   A41        2.12863   0.00110  -0.00169   0.01017   0.00566   2.13429
   A42        2.02341  -0.00171   0.00346  -0.01105  -0.01042   2.01298
    D1       -0.03506   0.00190   0.01014   0.08121   0.09109   0.05603
    D2       -3.07761  -0.00446  -0.01044  -0.07734  -0.08841   3.11716
    D3       -3.09903  -0.00277  -0.00435  -0.05275  -0.05773   3.12643
    D4       -1.43934  -0.00249  -0.00343  -0.09253  -0.09592  -1.53526
    D5        0.70673  -0.00162   0.00936  -0.12020  -0.11101   0.59573
    D6        1.62659   0.00212   0.01078   0.03873   0.04869   1.67528
    D7        1.97701  -0.00319  -0.01680  -0.03650  -0.05310   1.92391
    D8       -0.17182  -0.00183  -0.02438  -0.01452  -0.03894  -0.21077
    D9       -1.26053   0.00303   0.00329   0.11796   0.12030  -1.14023
   D10       -0.72176  -0.00075   0.00766  -0.05124  -0.04453  -0.76629
   D11       -2.85173  -0.00108   0.00289  -0.04945  -0.04711  -2.89885
   D12        1.43271  -0.00172   0.01749  -0.08019  -0.06311   1.36959
   D13       -0.82044  -0.00127  -0.00960  -0.01378  -0.02358  -0.84402
   D14        2.31007   0.00096  -0.01569   0.08452   0.06890   2.37897
   D15        1.31395  -0.00006  -0.00521  -0.01237  -0.01797   1.29598
   D16       -0.01415   0.00153   0.00640   0.05278   0.05985   0.04570
   D17       -3.08381  -0.00472  -0.02319  -0.02797  -0.05134  -3.13515
   D18        3.13881  -0.00076   0.01248  -0.04797  -0.03537   3.10344
   D19        1.99873  -0.00539  -0.00778  -0.09385  -0.10073   1.89800
   D20       -1.24063   0.00041   0.01221  -0.01514  -0.00258  -1.24321
   D21       -1.21222   0.00076   0.02132  -0.01503   0.00609  -1.20613
   D22       -1.66948   0.00301   0.00573   0.00929   0.01542  -1.65406
   D23        2.49698   0.00177   0.00418   0.00926   0.01364   2.51061
   D24        1.56984  -0.00270  -0.01427  -0.06920  -0.08269   1.48714
   D25        0.06430  -0.00350  -0.01316  -0.04587  -0.05927   0.00503
   D26        3.13171   0.00475  -0.00336   0.09223   0.08871  -3.06276
   D27        3.10220   0.00271   0.00782   0.03662   0.04484  -3.13615
   D28        1.21661   0.00181  -0.00546   0.07021   0.06477   1.28139
   D29       -0.93148   0.00097  -0.01822   0.09854   0.08055  -0.85092
   D30       -2.94533   0.00190  -0.00330   0.06850   0.06534  -2.87999
         Item               Value     Threshold  Converged?
 Maximum Force            0.009214     0.000002     NO 
 RMS     Force            0.002710     0.000001     NO 
 Maximum Displacement     0.157660     0.000006     NO 
 RMS     Displacement     0.048378     0.000004     NO 
 Predicted change in Energy=-2.595177D-03
 GradGradGradGradGradGradGradGradGradGradGradGradGradGradGradGradGradGrad

                          Input orientation:                          
 ---------------------------------------------------------------------
 Center     Atomic     Atomic              Coordinates (Angstroms)
 Number     Number      Type              X           Y           Z
 ---------------------------------------------------------------------
    1          6             0        0.000993    1.987578   -0.321477
    2          6             0        1.181455    1.526892    0.085355
    3          6             0        1.349677    0.411576    1.040805
    4          6             0        1.909710   -0.842341    0.385902
    5          6             0        1.310730   -1.200429   -0.923840
    6          6             0        0.009503   -1.268834   -1.220386
    7          6             0       -1.091695   -0.947740   -0.312260
    8          6             0       -1.836037    0.311209   -0.620038
    9          6             0       -1.308759    1.500672    0.170238
   10          6             0       -1.409091   -1.729134    0.723283
   11          1             0       -0.034818    2.830641   -1.023615
   12          1             0        2.106187    1.928897   -0.348812
   13          1             0        0.373582    0.177506    1.518358
   14          1             0        2.020099    0.733786    1.863682
   15          1             0        1.778224   -1.700378    1.074570
   16          1             0        3.002951   -0.728453    0.252640
   17          1             0        2.033910   -1.506220   -1.691662
   18          1             0       -0.304036   -1.554041   -2.234247
   19          1             0       -2.910797    0.170352   -0.391012
   20          1             0       -1.780297    0.522793   -1.705381
   21          1             0       -1.221160    1.221008    1.239558
   22          1             0       -2.046345    2.327774    0.133200
   23          1             0       -0.865063   -2.640705    0.949239
   24          1             0       -2.269021   -1.532407    1.355999
 ---------------------------------------------------------------------
                    Distance matrix (angstroms):
                    1          2          3          4          5
     1  C    0.000000
     2  C    1.330877   0.000000
     3  C    2.481641   1.478213   0.000000
     4  C    3.485976   2.496788   1.521461   0.000000
     5  C    3.498806   2.910922   2.541635   1.484058   0.000000
     6  C    3.378214   3.300684   3.119748   2.524449   1.336343
     7  C    3.132115   3.383653   3.104645   3.083338   2.491892
     8  C    2.504802   3.328772   3.594057   4.046383   3.504210
     9  C    1.481321   2.491798   3.001883   3.986824   3.918505
    10  C    4.110208   4.209464   3.506318   3.451764   3.223348
    11  H    1.097741   2.099737   3.468506   4.388476   4.250880
    12  H    2.106189   1.097833   2.192169   2.873702   3.279648
    13  H    2.607715   2.127675   1.111579   2.163848   2.956566
    14  H    3.228576   2.120092   1.109239   2.163376   3.466219
    15  H    4.325335   3.427820   2.155260   1.108053   2.112378
    16  H    4.088788   2.903862   2.157356   1.107205   2.114350
    17  H    4.268112   3.617213   3.407711   2.184589   1.098202
    18  H    4.036681   4.132721   4.162257   3.503194   2.109426
    19  H    3.433026   4.337471   4.501103   4.986626   4.470374
    20  H    2.689569   3.603737   4.165411   4.455694   3.624190
    21  H    2.125586   2.682966   2.702569   3.845580   4.117537
    22  H    2.124631   3.326017   4.003564   5.075811   4.983523
    23  H    4.877067   4.722648   3.772252   3.354226   3.211993
    24  H    4.511895   4.783266   4.119878   4.345007   4.257053
                    6          7          8          9         10
     6  C    0.000000
     7  C    1.463021   0.000000
     8  C    2.502593   1.494565   0.000000
     9  C    3.367761   2.504924   1.522294   0.000000
    10  C    2.449925   1.335540   2.479878   3.278350   0.000000
    11  H    4.104434   3.987377   3.123268   2.194773   5.072655
    12  H    3.921888   4.301491   4.269848   3.480610   5.185341
    13  H    3.118520   2.600841   3.077829   2.529519   2.728616
    14  H    4.190997   4.152772   4.606216   3.812764   4.373309
    15  H    2.929407   3.275087   4.470018   4.538062   3.206744
    16  H    3.379726   4.139242   5.025760   4.854548   4.548515
    17  H    2.092051   3.461799   4.407711   4.866365   4.211402
    18  H    1.098892   2.163803   2.903766   4.015257   3.162087
    19  H    3.359653   2.136695   1.107882   2.156683   2.665487
    20  H    2.578474   2.139492   1.107179   2.167151   3.332774
    21  H    3.710143   2.669900   2.159607   1.108752   3.000865
    22  H    4.358244   3.440753   2.162899   1.108829   4.148830
    23  H    2.711857   2.123411   3.481267   4.237301   1.085350
    24  H    3.449479   2.123917   2.736991   3.395248   1.085592
                   11         12         13         14         15
    11  H    0.000000
    12  H    2.419174   0.000000
    13  H    3.696964   3.091215   0.000000
    14  H    4.117763   2.516114   1.771924   0.000000
    15  H    5.312216   3.912188   2.386717   2.570284   0.000000
    16  H    4.850156   2.868351   3.055550   2.387383   1.766399
    17  H    4.851214   3.688969   3.986960   4.202176   2.784800
    18  H    4.556703   4.636259   4.188015   5.237249   3.912223
    19  H    3.968448   5.316426   3.799064   5.451132   5.256851
    20  H    2.972821   4.349961   3.892417   5.217829   5.033258
    21  H    3.019980   3.754365   1.926091   3.336566   4.190229
    22  H    2.374308   4.199400   3.521130   4.698014   5.633783
    23  H    5.875125   5.603082   3.130568   4.532942   2.808361
    24  H    5.448892   5.833477   3.151748   4.877492   4.060494
                   16         17         18         19         20
    16  H    0.000000
    17  H    2.307438   0.000000
    18  H    4.219285   2.400558   0.000000
    19  H    6.016191   5.380772   3.628533   0.000000
    20  H    5.317793   4.320330   2.602361   1.769128   0.000000
    21  H    4.755787   5.159970   4.539750   2.572452   3.077792
    22  H    5.903404   5.888812   4.869182   2.382550   2.590197
    23  H    4.370754   4.082335   3.410304   3.726036   4.229939
    24  H    5.445864   5.272963   4.092860   2.522561   3.719510
                   21         22         23         24
    21  H    0.000000
    22  H    1.769149   0.000000
    23  H    3.888948   5.171763   0.000000
    24  H    2.948367   4.055345   1.834360   0.000000
 Stoichiometry    C10H14
 Framework group  C1[X(C10H14)]
 Deg. of freedom    66
 Full point group                 C1
 Largest Abelian subgroup         C1      NOp   1
 Largest concise Abelian subgroup C1      NOp   1
                         Standard orientation:                         
 ---------------------------------------------------------------------
 Center     Atomic     Atomic              Coordinates (Angstroms)
 Number     Number      Type              X           Y           Z
 ---------------------------------------------------------------------
    1          6             0       -0.418462    1.933981   -0.409191
    2          6             0        0.858428    1.743453   -0.085948
    3          6             0        1.318528    0.776291    0.932884
    4          6             0        2.056855   -0.407746    0.326439
    5          6             0        1.434101   -0.995646   -0.885575
    6          6             0        0.151386   -1.334379   -1.045925
    7          6             0       -0.913225   -1.139213   -0.061575
    8          6             0       -1.911435   -0.077183   -0.392320
    9          6             0       -1.563400    1.260209    0.246142
   10          6             0       -0.986328   -1.863055    1.058415
   11          1             0       -0.675325    2.684069   -1.168416
   12          1             0        1.648321    2.267735   -0.639515
   13          1             0        0.449233    0.410750    1.521366
   14          1             0        1.978272    1.295719    1.657690
   15          1             0        2.152024   -1.205059    1.089994
   16          1             0        3.092253   -0.104725    0.077373
   17          1             0        2.137739   -1.233079   -1.694628
   18          1             0       -0.182389   -1.769222   -1.998327
   19          1             0       -2.915676   -0.393916   -0.047961
   20          1             0       -1.987018    0.035864   -1.491116
   21          1             0       -1.335753    1.105875    1.320241
   22          1             0       -2.448635    1.927310    0.217234
   23          1             0       -0.258341   -2.630796    1.300476
   24          1             0       -1.813406   -1.770799    1.755510
 ---------------------------------------------------------------------
 Rotational constants (GHZ):      1.6197411      1.5367376      1.0347465
 Standard basis: VSTO-3G (5D, 7F)
 There are    54 symmetry adapted basis functions of A   symmetry.
 Integral buffers will be    131072 words long.
 Raffenetti 1 integral format.
 Two-electron integral symmetry is turned on.
    54 basis functions,   162 primitive gaussians,    54 cartesian basis functions
    27 alpha electrons       27 beta electrons
       nuclear repulsion energy       279.7600163532 Hartrees.
 NAtoms=   24 NActive=   24 NUniq=   24 SFac= 7.50D-01 NAtFMM=   80 NAOKFM=F Big=F
 Initial guess read from the read-write file:
 Initial guess orbital symmetries:
       Occupied  (A) (A) (A) (A) (A) (A) (A) (A) (A) (A) (A) (A)
                 (A) (A) (A) (A) (A) (A) (A) (A) (A) (A) (A) (A)
                 (A) (A) (A)
       Virtual   (A) (A) (A) (A) (A) (A) (A) (A) (A) (A) (A) (A)
                 (A) (A) (A) (A) (A) (A) (A) (A) (A) (A) (A) (A)
                 (A) (A) (A)
 RHF-PM3 calculation of energy and first derivatives.
 MO and density RWFs will be updated without deorthogonalization.
 Closed-shell calculation:      27 occupied levels.
 NNHCO=    0.
 References:
  H: (PM3): J. J. P. STEWART, J. COMP. CHEM.     10, 209 (1989).
  C: (PM3): J. J. P. STEWART, J. COMP. CHEM.     10, 209 (1989).
 Ext34=T Pulay=F Camp-King=F BShift= 0.00D+00
 It=  1 PL= 0.647D+00 DiagD=T ESCF=      9.611784 Diff= 0.528D+01 RMSDP= 0.192D+00.
 It=  2 PL= 0.456D-01 DiagD=T ESCF=      2.104124 Diff=-0.751D+01 RMSDP= 0.495D-02.
 It=  3 PL= 0.141D-01 DiagD=F ESCF=      1.544431 Diff=-0.560D+00 RMSDP= 0.240D-02.
 It=  4 PL= 0.137D-02 DiagD=F ESCF=      1.451301 Diff=-0.931D-01 RMSDP= 0.306D-03.
 It=  5 PL= 0.732D-03 DiagD=F ESCF=      1.475093 Diff= 0.238D-01 RMSDP= 0.150D-03.
 It=  6 PL= 0.408D-03 DiagD=F ESCF=      1.474705 Diff=-0.388D-03 RMSDP= 0.172D-03.
 It=  7 PL= 0.719D-04 DiagD=F ESCF=      1.474385 Diff=-0.320D-03 RMSDP= 0.109D-04.
 It=  8 PL= 0.357D-04 DiagD=F ESCF=      1.474565 Diff= 0.180D-03 RMSDP= 0.490D-05.
 It=  9 PL= 0.194D-04 DiagD=F ESCF=      1.474565 Diff=-0.420D-06 RMSDP= 0.536D-05.
 It= 10 PL= 0.268D-05 DiagD=F ESCF=      1.474564 Diff=-0.309D-06 RMSDP= 0.556D-06.
 It= 11 PL= 0.118D-05 DiagD=F ESCF=      1.474564 Diff= 0.183D-06 RMSDP= 0.236D-06.
 It= 12 PL= 0.616D-06 DiagD=F ESCF=      1.474564 Diff=-0.100D-08 RMSDP= 0.229D-06.
[...]
 -0.00004132,0.00003477,-0.00005091,-0.00005566,-0.00007221,0.00003867,
 -0.00003422,-0.00000177,0.00003861,0.00006806,0.00007115,0.00002166,-0
 .00001219,0.00000422,0.00020558,-0.00010438,0.00042707,-0.00007388,-0.
 00050333,-0.00000803,-0.00761809,-0.13352291,0.15468548,-0.00001153,-0
 .00002105,0.00004611,-0.00030208,0.00046290,-0.00029529,-0.01144006,0.
 00360108,0.00623474,-0.26059936,-0.04350230,0.04611160,-0.01239460,-0.
 00458423,-0.00307769,0.00015291,-0.00046345,-0.00088782,0.00000705,-0.
 00012090,0.00012759,0.00005153,0.00000017,-0.00001678,-0.00002247,0.00
 000290,-0.00000720,-0.00001720,-0.00000622,-0.00003245,0.00001399,0.00
 002215,0.00000308,-0.00012877,0.00025405,0.00000444,0.00000430,0.00078
 265,0.00041476,0.00003502,0.00062116,0.00086035,-0.00775159,-0.0081382
 1,0.00731630,0.29224825,0.00005045,0.00000231,-0.00003969,0.00064141,-
 0.00011410,0.00007971,0.02048525,0.00305976,-0.00743049,-0.04406594,-0
 .04845589,0.01005828,-0.00657400,0.00165524,-0.00113158,-0.00048641,0.
 00003551,-0.00071397,0.00009160,-0.00001074,-0.00002819,-0.00002271,0.
 00001300,0.00000246,-0.00000214,-0.00003761,0.00004052,-0.00000398,0.0
 0000599,0.00001320,-0.00000705,-0.00001816,-0.00001358,-0.00025503,-0.
 00008220,0.00002191,0.00059726,-0.00214464,-0.00112498,0.00042172,-0.0
 0011092,-0.00099069,-0.02151004,-0.00873480,0.01066842,0.05128943,0.05
 487096,0.00003032,0.00004145,-0.00001307,-0.00013213,0.00009281,0.0001
 5321,0.01083222,-0.00230399,-0.00081593,0.04841431,0.01054279,-0.04777
 360,-0.02219049,-0.00654898,0.00269450,-0.00050563,-0.00063168,-0.0026
 6016,0.00018208,-0.00019301,0.00012660,0.00001590,-0.00000710,-0.00001
 966,-0.00000567,-0.00002351,0.00003105,-0.00001499,0.00003307,0.000058
 68,-0.00000547,-0.00000266,-0.00001048,0.00009362,-0.00004235,-0.00005
 057,0.00034798,-0.00106909,-0.00025216,0.00087715,-0.00102940,-0.00121
 752,0.01885357,0.01007835,-0.00649413,-0.05576329,-0.00848690,0.057077
 88,-0.00000035,-0.00003429,0.00001312,-0.00003638,0.00010329,0.0000076
 1,-0.00063995,-0.00002387,-0.00102055,0.00736751,-0.00285353,-0.006712
 48,-0.14466045,0.04912139,0.11847546,-0.01955204,0.00654565,0.01528013
 ,-0.00173389,-0.00020204,-0.00106186,-0.00005507,-0.00001303,0.0001556
 1,-0.00002726,0.00000104,0.00000278,0.00005122,0.00014366,0.00003912,0
 .00000829,0.00000704,-0.00000864,0.00001936,0.00000587,-0.00000395,-0.
 00003757,-0.00000262,-0.00000331,0.00011303,-0.00017563,-0.00005827,-0
 .00028310,-0.00014933,-0.00026681,0.00022270,-0.00054012,-0.00065478,0
 .16161361,0.00003020,-0.00001574,0.00003571,-0.00002009,0.00007397,0.0
 0006473,0.00004661,-0.00017661,-0.00039514,0.00271826,0.00427468,-0.00
 997587,0.05033048,-0.06280804,-0.05300617,-0.00018172,0.00713193,-0.00
 054319,-0.00008632,0.00729563,-0.00282673,-0.00083123,0.00011850,0.000
 61242,-0.00003400,0.00000090,-0.00003748,0.00077638,-0.00038262,-0.000
 58545,0.00000479,-0.00002819,-0.00000499,-0.00000790,-0.00008105,-0.00
 005165,-0.00000921,0.00001159,0.00001235,-0.00000467,-0.00002083,0.000
 01518,-0.00020416,-0.00049409,-0.00040429,-0.00038749,0.00002598,-0.00
 080923,-0.05169751,0.04862403,-0.00001077,-0.00001924,0.00002350,-0.00
 003847,0.00011162,0.00004716,-0.00117656,0.00017214,-0.00144484,0.0093
 5163,-0.01080167,-0.01788261,0.12083905,-0.05310755,-0.16942676,-0.002
 91490,-0.00039373,0.00644665,-0.00071899,-0.00297157,0.00073713,0.0002
 6164,-0.00009249,-0.00014682,-0.00001599,-0.00000493,0.,-0.00036378,0.
 00025355,0.00032877,0.00000707,-0.00000572,-0.00001533,0.00000487,0.00
 000240,0.00001041,-0.00005743,0.00003411,0.00003580,0.00014341,-0.0002
 5163,-0.00009082,-0.00028338,-0.00009651,-0.00077356,-0.00093431,-0.00
 092789,-0.00067593,-0.12353634,0.06639192,0.18279834,-0.00000234,-0.00
 001592,0.00002553,0.00001342,0.00000186,-0.00002547,0.00005323,0.00007
 113,0.00011433,-0.00201097,0.00045621,0.00047021,-0.01014607,-0.008352
 36,-0.02337167,-0.05790387,-0.02312505,-0.06503095,0.00453615,0.005747
 41,0.01595252,-0.00041530,0.00009080,0.00046545,0.00001908,-0.00008877
 ,-0.00000490,-0.00136317,0.00032999,0.00048374,0.00000880,0.00000022,-
 0.00000256,0.00000113,0.00000652,0.00000124,-0.00004119,-0.00001446,-0
 .00000695,0.00000324,0.00000194,0.00000877,-0.00003148,-0.00003810,-0.
 00002898,-0.00010205,-0.00006682,-0.00032997,-0.00236369,-0.00032284,-
 0.00061458,0.06989653,0.00000465,0.00003652,0.00008855,0.00000695,-0.0
 0000433,-0.00000938,0.00035689,0.00004410,0.00048417,0.00033112,0.0068
 2142,-0.00252788,-0.00213027,0.00681013,-0.00357472,-0.02417851,-0.067
 76531,-0.07682127,-0.00021030,0.00456964,-0.00857948,0.00041017,-0.000
 12291,-0.00021865,0.00001938,-0.00001019,-0.00002681,0.00039741,-0.000
 24993,-0.00054514,0.00000095,-0.00004135,-0.00002634,-0.00001035,-0.00
 002203,-0.00000409,0.00001326,0.00000492,-0.00000641,-0.00006453,0.000
 07145,0.00005220,-0.00052572,-0.00035342,-0.00074155,0.00016139,0.0000
 3093,0.00037150,-0.00025721,-0.00368461,0.00173288,0.02532874,0.054248
 89,-0.00000279,0.00000459,-0.00003405,-0.00002329,0.00002696,0.0000629
 5,-0.00007413,-0.00000977,-0.00020512,-0.00007029,-0.00257202,0.001219
 28,-0.00450041,-0.00361660,-0.00211462,-0.07081238,-0.07674188,-0.2489
 4044,0.00278733,-0.00801202,-0.01553893,0.00024536,-0.00028176,-0.0000
 9671,-0.00004298,0.00002938,-0.00002561,0.00048552,-0.00052785,-0.0000
 0962,-0.00000462,-0.00000520,0.00001307,-0.00000417,-0.00001989,-0.000
 01161,0.00001661,0.00001438,0.00001932,0.00000258,-0.00001031,-0.00001
 403,0.00023725,0.00018213,0.00033608,-0.00009819,-0.00000095,-0.000133
 77,-0.00064123,0.00164645,-0.00002924,0.07223197,0.08997431,0.26557089
 ,0.00000541,-0.00060058,-0.00058369,0.00003919,0.00002294,0.00004551,-
 0.00000485,-0.00001852,-0.00002841,0.00001677,0.00003642,-0.00002404,0
 .00001576,-0.00004299,0.00009087,-0.00033499,0.00075878,-0.00037201,-0
 .01334930,0.00564041,0.00103141,-0.27139872,-0.02684539,0.03655510,-0.
 00920777,-0.00631364,-0.00174804,-0.00004031,0.00084197,-0.00074966,-0
 .00000074,0.00003432,0.00002900,0.00000771,0.00003096,0.00003028,-0.00
 003642,0.00000282,-0.00000127,0.00000135,0.00000640,-0.00000998,-0.000
 00637,-0.00000348,-0.00000682,0.00000332,-0.00000348,-0.00000051,-0.00
 000472,-0.00004836,0.00001098,-0.00001007,-0.00002533,-0.00000633,0.30
 654973,-0.00047940,-0.00141995,-0.00177577,-0.00014222,-0.00001249,0.0
 0021178,0.00001305,-0.00012700,-0.00008179,-0.00001733,-0.00013594,0.0
 0002016,0.00004204,0.00010297,-0.00026921,0.00059196,-0.00183838,0.000
 80452,0.02243033,-0.00071181,-0.00277812,-0.02674639,-0.03998772,0.005
 45441,-0.01955219,-0.00435533,-0.00040135,0.00106719,-0.00143931,0.000
 58192,-0.00004579,0.00004878,0.00002835,0.00000378,0.00011992,0.000087
 55,-0.00000358,-0.00001575,-0.00000461,-0.00000072,0.00002709,-0.00000
 550,-0.00000343,0.00002801,0.00002551,0.00000146,0.00000177,0.00000259
 ,0.00002610,0.00014433,-0.00002329,0.00004757,-0.00001496,0.00002541,0
 .03071378,0.05025397,-0.00015171,-0.00128071,-0.00110608,-0.00005143,-
 0.00001185,0.00014100,0.00001649,-0.00006328,-0.00006633,0.00000400,0.
 00002115,-0.00002154,0.00000414,-0.00000753,0.00003659,0.00001309,0.00
 043794,-0.00014722,-0.00668543,-0.00011811,0.00529783,0.03899491,0.005
 33375,-0.04673318,-0.01487253,-0.00490509,0.00431707,-0.00074202,0.001
 28494,-0.00022066,-0.00007204,0.00000261,0.00000368,-0.00000224,0.0000
 8858,0.00007335,-0.00003692,-0.00000426,-0.00001662,0.00000687,0.00001
 213,-0.00000635,-0.00000349,0.00000296,0.00000018,0.00000280,-0.000002
 26,-0.00000034,-0.00000676,-0.00003429,0.00001203,-0.00000825,0.000037
 19,-0.00001872,-0.04400320,-0.00581669,0.05142036,-0.00076803,-0.00048
 401,-0.00051060,-0.00014165,0.00002323,-0.00012838,0.00001443,0.000002
 81,-0.00000642,-0.00002640,0.00000011,0.00001272,-0.00012320,0.0000350
 1,-0.00014964,-0.00119606,0.00122277,-0.00018543,0.00483809,0.00530952
 ,-0.01275196,-0.04519980,-0.00683894,0.03227325,0.00441863,-0.00024031
 ,-0.01016532,-0.00066514,0.00143868,-0.00001022,0.00007350,-0.00008530
 ,0.00002270,-0.00001058,-0.00001508,0.00000343,0.00003057,-0.00000042,
 -0.00000136,-0.00000041,-0.00000655,0.00000813,0.00001263,0.00000025,0
 .00000577,-0.00000839,0.00000490,0.00000200,-0.00000178,0.00000795,0.0
 0001047,-0.00004964,0.00030914,0.00014933,-0.01169047,-0.00680263,0.02
 790705,0.05047133,-0.00097958,0.00009466,-0.00025902,-0.00004442,-0.00
 001713,-0.00010185,-0.00000605,0.00002442,0.00004761,-0.00000713,0.000
 03169,-0.00001476,0.00001159,-0.00005157,0.00012387,0.00206004,-0.0013
 1085,0.00023250,-0.00050954,-0.00754817,0.02213195,-0.00613978,-0.0492
 7846,0.04968408,0.00135498,0.00348581,-0.01995718,0.00146223,-0.002058
 90,-0.00000206,0.00013501,-0.00007119,0.00008274,-0.00000054,-0.000031
 22,-0.00002777,0.00001588,-0.00003400,-0.00000569,0.00000293,-0.000014
 53,0.00000696,-0.00001175,-0.00000543,-0.00000874,0.00000410,0.0000024
 8,-0.00000210,-0.00000880,-0.00003282,0.00000006,0.00013356,-0.0004402
 6,-0.00026077,-0.00347428,0.00150938,0.00544341,0.00694993,0.05817385,
 -0.00121150,-0.00071777,-0.00022598,-0.00003013,-0.00002377,-0.0000978
 5,0.00001161,0.00005004,0.00001963,-0.00001606,-0.00004089,-0.00000133
 ,0.00005559,0.00004434,-0.00002883,-0.00074753,0.00076213,0.00030905,-
 0.00172621,0.00666325,-0.00505219,0.03003975,0.05001940,-0.26705686,-0
 .00096634,-0.00368699,-0.01699595,-0.00015613,0.00010943,-0.00008286,-
 0.00009327,-0.00015281,-0.00014925,-0.00000301,-0.00005077,-0.00002078
 ,0.00002632,-0.00000911,-0.00000332,-0.00000423,-0.00001687,0.00001214
 ,0.00000589,0.00000374,0.00000691,-0.00000570,0.00000309,-0.00000098,0
 .00000351,0.00003377,0.00000402,-0.00019374,0.00020577,-0.00013906,0.0
 1100442,0.00404759,-0.01235526,-0.03588669,-0.05567542,0.30279321,0.00
 179836,-0.01020026,0.02149069,-0.00200041,-0.00023396,0.00078338,-0.00
 444744,0.00061105,0.00106018,0.00015920,0.00012473,-0.00009243,0.00000
 510,0.00001178,0.00002484,-0.00002175,0.00003724,0.00001464,0.00051838
 ,0.00010667,0.00026409,0.00177470,0.00016858,-0.00871387,-0.04236166,0
 .00904546,-0.02389356,0.00003365,0.00000807,-0.00009803,-0.00196770,-0
 .00069354,0.00022461,0.00011227,-0.00028133,-0.00031038,-0.00179263,0.
 00192889,-0.00178069,-0.00005911,-0.00002253,0.00003901,-0.00002285,0.
 00002387,-0.00000306,0.00001980,-0.00004673,-0.00002266,-0.00000601,-0
 .00001219,-0.00000386,-0.00000224,0.00000028,0.00000276,-0.00049165,-0
 .00021208,-0.00050177,-0.00009550,-0.00081470,-0.00028077,0.05338522,-
 0.00413655,-0.00115866,0.00910968,-0.00002048,-0.00001141,0.00033165,0
 .00225195,0.00055844,-0.00053482,-0.00010703,-0.00005341,0.00000935,0.
 00000364,0.00000578,-0.00001034,-0.00001104,-0.00009347,-0.00007741,0.
 00062634,-0.00159100,-0.00176206,-0.00423667,0.00574382,-0.01924604,0.
 00974277,-0.06200910,0.06926211,-0.00004752,-0.00012860,0.00015767,-0.
 00064863,-0.00001816,0.00025815,0.00002213,-0.00007437,-0.00000853,-0.
 00024161,-0.00161882,0.00105856,0.00003215,-0.00002786,-0.00001531,0.0
 0001282,-0.00001122,0.00000562,-0.00001111,0.00001799,0.00001151,-0.00
 000417,0.00000374,-0.00000114,-0.00001535,0.00001775,0.00000348,-0.000
 24488,-0.00007876,-0.00024742,-0.00096451,-0.00186155,-0.00104353,-0.0
 1086942,0.07318137,0.00496558,0.00675802,-0.00881845,0.00081964,0.0004
 1304,-0.00017274,-0.00076155,-0.00062511,0.00076474,0.00016258,-0.0000
 2256,-0.00002394,-0.00000131,0.00000419,0.00001577,-0.00002190,-0.0000
 4165,-0.00007940,0.00048144,-0.00169803,-0.00065469,-0.00519778,-0.001
 69963,-0.01716634,-0.02510633,0.06933411,-0.24263883,-0.00015424,-0.00
 026527,-0.00003454,0.00035503,-0.00004785,-0.00016199,-0.00004300,-0.0
 0000601,-0.00004237,0.00250419,-0.00086433,-0.00115639,-0.00006871,-0.
 00001785,0.00002075,0.,0.00000603,0.00000046,-0.00000265,-0.00000779,-
 0.00000216,-0.00000242,-0.00000568,0.00000184,-0.00001403,0.00000905,-
 0.00000055,-0.00054773,-0.00025634,-0.00045393,-0.00062074,-0.00099577
 ,-0.00046439,0.02886920,-0.07762986,0.27669223,-0.01960708,0.01288432,
 0.00197622,-0.00166661,-0.00133114,0.00109310,0.00007997,0.00014506,0.
 00023022,-0.00001844,-0.00002725,-0.00000846,0.00001990,0.00000639,-0.
 00003985,0.00001314,-0.00003683,0.00010409,-0.00034909,-0.00077882,-0.
 00089920,0.00715657,-0.00477441,0.00031929,-0.15096905,0.12284049,0.00
 207999,0.00007286,-0.00003515,0.00006310,-0.00120850,-0.00050660,0.001
 26153,-0.00021381,-0.00019467,-0.00048464,0.00003681,-0.00000874,0.000
 03344,0.00000521,-0.00002666,0.00000992,-0.00000067,0.00000751,0.00000
 434,0.00000099,0.00000472,0.00000401,0.00000328,0.00000237,0.00000721,
 -0.00000672,0.00000202,0.00000749,0.00017683,-0.00079950,-0.00008678,-
 0.00004647,0.00010596,0.00015900,-0.00451646,0.00898158,-0.00561081,0.
 17103560,-0.00478379,0.00870512,-0.00061900,-0.00119417,-0.00097626,0.
 00038085,0.00010059,0.00005091,0.00016512,0.00000737,0.00000020,-0.000
 03469,0.00001281,0.00000353,-0.00004648,0.00004980,-0.00000786,0.00012
 975,-0.00091835,-0.00124934,-0.00150493,0.00987346,-0.01821889,-0.0045
 3538,0.12336881,-0.17028042,-0.00100993,0.00009508,-0.00002093,0.00005
 397,-0.00030939,0.00045961,0.00038158,-0.00013279,-0.00006038,-0.00030
 482,-0.00000321,-0.00000343,-0.00001700,0.00001502,0.00000337,0.000004
 79,-0.00000848,0.00001609,0.00000743,0.00000991,-0.00000618,-0.0000000
 5,0.00000593,-0.00000059,0.00000850,-0.00000239,0.00000214,0.00000529,
 -0.00097572,-0.00175914,-0.00051159,0.00006517,-0.00039323,-0.00051643
 ,0.01116920,-0.01093223,0.00783861,-0.13646024,0.19465630,0.00841028,-
 0.00585947,0.00323272,0.00102470,0.00071720,-0.00022333,-0.00036604,0.
 00005613,-0.00006108,-0.00006535,-0.00005056,0.00000777,0.00001211,-0.
 00001726,-0.00003586,0.00002662,0.00000423,0.00010030,-0.00098649,-0.0
 0090807,-0.00108956,0.00820526,-0.01435853,0.00167106,-0.00019626,0.00
 065387,-0.04086983,0.00012809,0.00003453,0.00017273,0.00117789,0.00023
 159,-0.00034688,0.00011006,0.00004091,0.00020146,0.00009656,-0.0000352
 4,0.00000318,0.00000978,0.00000947,0.00000044,0.00000250,-0.00000245,0
 .00000137,-0.00000764,0.00001922,0.00000953,0.00000461,0.00000714,0.00
 000776,-0.00000287,0.00000064,0.00001094,-0.00028394,-0.00044829,0.000
 44960,0.00009098,-0.00049487,-0.00052704,-0.01715864,0.02028821,-0.005
 56469,-0.00021771,0.00011843,0.04287122,-0.00000372,0.00000021,-0.0000
 5891,0.00001375,-0.00000139,0.00001185,-0.00005282,-0.00004029,-0.0000
 1536,-0.00000214,-0.00014027,0.00005646,-0.00035796,0.00031695,0.00035
 301,-0.00207392,-0.00193126,-0.00201275,0.01034312,-0.00704713,0.00421
 558,0.00216615,0.00213926,0.00380853,-0.00031886,0.00053593,-0.0002035
 6,-0.10235810,0.11605669,-0.03029144,-0.00000296,0.00000919,0.00001133
 ,-0.00000257,0.00001438,-0.00000362,-0.00001241,0.00000458,0.00000656,
 -0.00000207,-0.00000462,-0.00000850,0.00017118,0.00015346,-0.00006047,
 0.00001850,0.00000640,-0.00000792,-0.00005444,0.00003632,-0.00004889,0
 .00041060,-0.00011487,-0.00016333,0.00010397,-0.00015082,0.00001565,0.
 00024071,-0.00043496,0.00002260,-0.00003357,-0.00005393,-0.00000096,0.
 00003578,0.00005162,0.00005618,0.10061007,-0.00002690,0.00000298,-0.00
 000528,0.00001901,-0.00001062,0.00003106,-0.00003650,-0.00003283,0.000
 01081,0.00001165,-0.00002116,-0.00000369,-0.00030027,0.00011494,0.0003
 9368,-0.00243314,-0.00159501,-0.00108672,0.00709590,-0.01083290,0.0088
 9356,0.00182567,0.00175292,0.00319158,-0.00030001,0.00049763,-0.000199
 10,0.11294954,-0.24676939,0.05516797,-0.00000374,-0.00000713,0.0000042
 7,-0.00001049,0.00000383,-0.00001106,-0.00004659,-0.00005087,-0.000045
 68,0.00001710,0.00000500,-0.00000822,-0.00002720,0.00002164,-0.0000009
 9,0.00001712,-0.00000053,-0.00000298,-0.00003980,0.00003476,-0.0000213
 4,0.00034234,-0.00009955,-0.00013217,0.00005975,-0.00008903,-0.0000251
 0,0.00015684,-0.00037097,0.00004115,0.00000956,-0.00003841,-0.00002342
 ,0.00003894,0.00007171,0.00005348,-0.12783299,0.26255155,-0.00002863,-
 0.00002131,0.00000017,0.00002231,-0.00000872,-0.00002244,-0.00004830,-
 0.00000038,-0.00001299,0.00005022,-0.00003574,0.00007008,-0.00012580,0
 .00043851,0.00048512,-0.00192420,-0.00166874,-0.00316168,-0.00630113,0
 .02203676,-0.00207159,0.00380994,0.00291488,0.00177045,-0.00042844,0.0
 0055403,-0.00025503,-0.02770437,0.05195258,-0.05362869,0.00000074,-0.0
 0000142,0.00000166,-0.00000448,0.00001141,0.00000458,-0.00002735,-0.00
 001043,-0.00000541,0.00001209,-0.00001561,-0.00000979,0.00002714,0.000
 01228,-0.00002258,0.00000624,-0.00000528,-0.00001894,-0.00007205,0.000
 05655,-0.00008324,0.00031285,0.00003228,-0.00020376,0.00017290,-0.0002
 7219,0.00001946,-0.00005263,-0.00006215,0.00004489,-0.00000139,-0.0000
 4689,-0.00002786,0.00005220,0.00008128,0.00006993,0.02392320,-0.067235
 12,0.05165775,-0.00001852,0.00002116,0.00000304,0.00002901,-0.00001419
 ,0.00002174,-0.00004223,0.00000017,0.00001094,-0.00004743,0.00005437,-
 0.00002914,0.00045727,-0.00028000,-0.00052202,0.00305146,0.00229015,0.
 00343079,-0.00102311,0.00148890,0.00823842,-0.00154045,-0.00225171,-0.
 00207570,0.00030527,-0.00042689,0.00023662,-0.21287812,0.05195881,0.12
 821779,0.00000572,-0.00000774,0.00000062,-0.00000873,0.00000262,-0.000
 00920,-0.00006154,-0.00004578,-0.00004151,0.00002059,-0.00000118,-0.00
 001307,-0.00001258,0.00000865,0.00000393,0.00000103,-0.00000896,-0.000
 01922,0.00005880,-0.00010572,0.00008206,-0.00049222,0.00017492,0.00027
 765,-0.00034230,0.00001858,0.00025991,-0.00007536,0.00019541,-0.000007
 94,0.00001326,-0.00006069,-0.00000321,-0.00003276,-0.00003562,-0.00007
 110,-0.00883710,0.00851476,0.00832895,0.22147128,0.00001069,0.00000411
 ,-0.00004242,0.00003679,0.00000300,-0.00001308,-0.00004988,0.00000233,
 -0.00001419,-0.00001225,-0.00002780,0.00000100,0.00035355,-0.00010774,
 -0.00036372,0.00256712,0.00082951,0.00356570,-0.01264355,0.00806695,0.
 01249463,-0.00214866,-0.00202251,-0.00098416,0.00018352,-0.00049849,0.
 00038232,0.05480434,-0.05579992,-0.03952296,0.00001370,0.00000930,0.00
 000628,-0.00000047,0.00000970,0.00000658,-0.00002429,-0.00001022,-0.00
 000692,0.00000625,-0.00001008,-0.00001272,-0.00002718,-0.00001627,-0.0
 0000420,0.00000433,-0.00000517,-0.00002121,0.00004226,-0.00001354,0.00
 001125,-0.00051619,0.00015274,0.00027807,0.00044844,-0.00025002,0.0003
 6357,-0.00008872,0.00019865,-0.00004900,0.00014136,0.00017887,-0.00015
 612,-0.00003883,-0.00005874,-0.00005964,0.01842862,-0.00513680,-0.0087
 0597,-0.06149052,0.05450311,0.00001483,0.00001020,-0.00006499,0.000005
 19,-0.00002571,0.00002466,-0.00002454,-0.00001174,0.00000866,-0.000061
 60,0.00013719,-0.00006675,0.00040686,-0.00041733,-0.00057959,0.0032977
 5,0.00374034,0.00240815,0.01920617,0.00032935,-0.01045287,-0.00191021,
 -0.00108568,-0.00285442,0.00041422,-0.00036007,0.00032702,0.12555383,-
 0.03709047,-0.13176223,-0.00000464,0.00000621,0.00000879,-0.00000286,0
 .00001264,-0.00000613,0.00000831,-0.00001117,0.00000539,-0.00000256,0.
 00000362,-0.00000411,-0.00002196,-0.00000288,-0.00000666,0.00000086,-0
 .00000298,-0.00001095,0.00006808,-0.00019609,0.00011682,-0.00043228,0.
 00009290,0.00028469,-0.00060491,0.00084313,-0.00062357,-0.00001602,0.0
 0011489,0.00001357,0.00008778,0.00012770,-0.00003093,-0.00005722,-0.00
 007563,-0.00009058,0.00039490,0.00101388,0.00540134,-0.14631968,0.0328
 4708,0.13795655\\-0.00000003,0.,-0.00000001,0.,-0.00000005,0.,0.000000
 02,-0.00000003,-0.00000003,-0.00000002,0.00000005,0.,0.,0.00000001,0.0
 0000003,-0.00000001,-0.00000004,0.,0.,0.00000005,-0.00000004,-0.000000
 02,0.,0.00000003,0.,0.,0.00000002,0.00000001,0.,-0.00000001,0.00000002
 ,0.,0.,0.,0.00000001,0.,0.,0.,0.,0.,0.,0.,0.,0.00000001,0.,0.,0.,0.,0.
 ,0.,0.,0.00000002,0.,0.,0.,0.,0.,0.,0.,0.,0.,0.,-0.00000002,0.,0.00000
 001,0.,-0.00000001,0.,0.00000002,0.,-0.00000002,0.00000002\\\@


 A MAN IS EXACTLY AS GREAT AS THE TIDE SURGING
 BENEATH HIM.      - BISMARCK
 Job cpu time:  0 days  0 hours  0 minutes 11.8 seconds.
 File lengths (MBytes):  RWF=     13 Int=      0 D2E=      0 Chk=     17 Scr=      1
 Normal termination of Gaussian 03 at Sun May 29 19:59:54 2011.
