
     Program PWSCF v.7.0 starts on 22Jan2022 at 16:36:15 

     This program is part of the open-source Quantum ESPRESSO suite
     for quantum simulation of materials; please cite
         "P. Giannozzi et al., J. Phys.:Condens. Matter 21 395502 (2009);
         "P. Giannozzi et al., J. Phys.:Condens. Matter 29 465901 (2017);
         "P. Giannozzi et al., J. Chem. Phys. 152 154105 (2020);
          URL http://www.quantum-espresso.org", 
     in publications or presentations arising from this work. More details at
     http://www.quantum-espresso.org/quote

     Parallel version (MPI), running on     4 processors

     MPI processes distributed on     1 nodes
     R & G space division:  proc/nbgrp/npool/nimage =       4
     61479 MiB available memory on the printing compute node when the environment starts

     Reading input from espresso.pwi
Warning: card &CELL ignored
Warning: card / ignored

     Current dimensions of program PWSCF are:
     Max number of different atomic species (ntypx) = 10
     Max number of k-points (npk) =  40000
     Max angular momentum in pseudopotentials (lmaxx) =  4

     **************************************************************************
     Initializing libbeef V0.1.2 with the BEEF-vdW functional.
     Citation: Wellendorff et al., PRB 85, 235149 (2012).
     **************************************************************************


     IMPORTANT: XC functional enforced from input :
     Exchange-correlation= BEEF-VDW
                           (   1   4  43  14   2   0   0)
     Any further DFT definition will be discarded
     Please, verify this is what you really want

     Message from routine setup:
     using ibrav=0 with symmetry is DISCOURAGED, use correct ibrav instead

     Subspace diagonalization in iterative solution of the eigenvalue problem:
     a serial algorithm will be used


     Parallelization info
     --------------------
     sticks:   dense  smooth     PW     G-vecs:    dense   smooth      PW
     Min          56      56     21                 1150     1150     251
     Max          58      58     22                 1151     1151     254
     Sum         227     227     85                 4601     4601    1011

     Using Slab Decomposition



     bravais-lattice index     =            0
     lattice parameter (alat)  =       2.8346  a.u.
     unit-cell volume          =     134.6325 (a.u.)^3
     number of atoms/cell      =            6
     number of atomic types    =            2
     number of electrons       =        12.00
     number of Kohn-Sham states=           10
     kinetic-energy cutoff     =      40.0000  Ry
     charge density cutoff     =     160.0000  Ry
     scf convergence threshold =      1.0E-06
     mixing beta               =       0.7000
     number of iterations used =            8  plain     mixing
     Exchange-correlation= BEEF-VDW
                           (   1   4  43  14   2   0   0)

     celldm(1)=   2.834589  celldm(2)=   0.000000  celldm(3)=   0.000000
     celldm(4)=   0.000000  celldm(5)=   0.000000  celldm(6)=   0.000000

     crystal axes: (cart. coord. in units of alat)
               a(1) = (   1.000000   0.000000   0.000000 )  
               a(2) = (   0.000000   2.230443   0.000000 )  
               a(3) = (   0.000000   0.000000   2.650260 )  

     reciprocal axes: (cart. coord. in units 2 pi/alat)
               b(1) = (  1.000000  0.000000  0.000000 )  
               b(2) = (  0.000000  0.448341  0.000000 )  
               b(3) = (  0.000000  0.000000  0.377321 )  


     PseudoPot. # 1 for C  read from file:
     /home/harris.se/espresso/pseudos/C_ONCV_PBE-1.2.upf
     MD5 check sum: 1a5f83a7b1f58d24996abe00ed223ac6
     Pseudo is Norm-conserving, Zval =  4.0
     Generated using ONCVPSP code by D. R. Hamann
     Using radial grid of  602 points,  4 beta functions with: 
                l(1) =   0
                l(2) =   0
                l(3) =   1
                l(4) =   1

     PseudoPot. # 2 for H  read from file:
     /home/harris.se/espresso/pseudos/H_ONCV_PBE-1.2.upf
     MD5 check sum: bf21e08b90ac4ce7d0149ac4e8138190
     Pseudo is Norm-conserving, Zval =  1.0
     Generated using ONCVPSP code by D. R. Hamann
     Using radial grid of  602 points,  2 beta functions with: 
                l(1) =   0
                l(2) =   0

     atomic species   valence    mass     pseudopotential
        C              4.00    12.01100     C ( 1.00)
        H              1.00     1.00800     H ( 1.00)

      8 Sym. Ops., with inversion, found


                                    s                        frac. trans.

      isym =  1     identity                                     

 cryst.   s( 1) = (     1          0          0      )
                  (     0          1          0      )
                  (     0          0          1      )

 cart.    s( 1) = (  1.0000000  0.0000000  0.0000000 )
                  (  0.0000000  1.0000000  0.0000000 )
                  (  0.0000000  0.0000000  1.0000000 )


      isym =  2     180 deg rotation - cart. axis [0,0,1]        

 cryst.   s( 2) = (    -1          0          0      )
                  (     0         -1          0      )
                  (     0          0          1      )

 cart.    s( 2) = ( -1.0000000  0.0000000  0.0000000 )
                  (  0.0000000 -1.0000000  0.0000000 )
                  (  0.0000000  0.0000000  1.0000000 )


      isym =  3     180 deg rotation - cart. axis [0,1,0]        

 cryst.   s( 3) = (    -1          0          0      )
                  (     0          1          0      )
                  (     0          0         -1      )

 cart.    s( 3) = ( -1.0000000  0.0000000  0.0000000 )
                  (  0.0000000  1.0000000  0.0000000 )
                  (  0.0000000  0.0000000 -1.0000000 )


      isym =  4     180 deg rotation - cart. axis [1,0,0]        

 cryst.   s( 4) = (     1          0          0      )
                  (     0         -1          0      )
                  (     0          0         -1      )

 cart.    s( 4) = (  1.0000000  0.0000000  0.0000000 )
                  (  0.0000000 -1.0000000  0.0000000 )
                  (  0.0000000  0.0000000 -1.0000000 )


      isym =  5     inversion                                    

 cryst.   s( 5) = (    -1          0          0      )
                  (     0         -1          0      )
                  (     0          0         -1      )

 cart.    s( 5) = ( -1.0000000  0.0000000  0.0000000 )
                  (  0.0000000 -1.0000000  0.0000000 )
                  (  0.0000000  0.0000000 -1.0000000 )


      isym =  6     inv. 180 deg rotation - cart. axis [0,0,1]   

 cryst.   s( 6) = (     1          0          0      )
                  (     0          1          0      )
                  (     0          0         -1      )

 cart.    s( 6) = (  1.0000000  0.0000000  0.0000000 )
                  (  0.0000000  1.0000000  0.0000000 )
                  (  0.0000000  0.0000000 -1.0000000 )


      isym =  7     inv. 180 deg rotation - cart. axis [0,1,0]   

 cryst.   s( 7) = (     1          0          0      )
                  (     0         -1          0      )
                  (     0          0          1      )

 cart.    s( 7) = (  1.0000000  0.0000000  0.0000000 )
                  (  0.0000000 -1.0000000  0.0000000 )
                  (  0.0000000  0.0000000  1.0000000 )


      isym =  8     inv. 180 deg rotation - cart. axis [1,0,0]   

 cryst.   s( 8) = (    -1          0          0      )
                  (     0          1          0      )
                  (     0          0          1      )

 cart.    s( 8) = ( -1.0000000  0.0000000  0.0000000 )
                  (  0.0000000  1.0000000  0.0000000 )
                  (  0.0000000  0.0000000  1.0000000 )


   Cartesian axes

     site n.     atom                  positions (alat units)
         1           C   tau(   1) = (   0.5000000   1.1152213   1.8053258  )
         2           C   tau(   2) = (   0.5000000   1.1152213   0.8449342  )
         3           H   tau(   3) = (   0.5000000   1.7727426   2.1291932  )
         4           H   tau(   4) = (   0.5000000   0.4577000   2.1291932  )
         5           H   tau(   5) = (   0.5000000   1.7727426   0.5210668  )
         6           H   tau(   6) = (   0.5000000   0.4577000   0.5210668  )

   Crystallographic axes

     site n.     atom                  positions (cryst. coord.)
         1           C   tau(   1) = (  0.5000000  0.5000000  0.6811882  )
         2           C   tau(   2) = (  0.5000000  0.5000000  0.3188118  )
         3           H   tau(   3) = (  0.5000000  0.7947941  0.8033903  )
         4           H   tau(   4) = (  0.5000000  0.2052059  0.8033903  )
         5           H   tau(   5) = (  0.5000000  0.7947941  0.1966097  )
         6           H   tau(   6) = (  0.5000000  0.2052059  0.1966097  )

     number of k points=     8  Gaussian smearing, width (Ry)=  0.1000
                       cart. coord. in units 2pi/alat
        k(    1) = (   0.0000000   0.0000000   0.0000000), wk =   0.2500000
        k(    2) = (   0.0000000   0.0000000  -0.1886607), wk =   0.2500000
        k(    3) = (   0.0000000  -0.2241707   0.0000000), wk =   0.2500000
        k(    4) = (   0.0000000  -0.2241707  -0.1886607), wk =   0.2500000
        k(    5) = (  -0.5000000   0.0000000   0.0000000), wk =   0.2500000
        k(    6) = (  -0.5000000   0.0000000  -0.1886607), wk =   0.2500000
        k(    7) = (  -0.5000000  -0.2241707   0.0000000), wk =   0.2500000
        k(    8) = (  -0.5000000  -0.2241707  -0.1886607), wk =   0.2500000

                       cryst. coord.
        k(    1) = (   0.0000000   0.0000000   0.0000000), wk =   0.2500000
        k(    2) = (   0.0000000   0.0000000  -0.5000000), wk =   0.2500000
        k(    3) = (   0.0000000  -0.5000000   0.0000000), wk =   0.2500000
        k(    4) = (   0.0000000  -0.5000000  -0.5000000), wk =   0.2500000
        k(    5) = (  -0.5000000   0.0000000   0.0000000), wk =   0.2500000
        k(    6) = (  -0.5000000   0.0000000  -0.5000000), wk =   0.2500000
        k(    7) = (  -0.5000000  -0.5000000   0.0000000), wk =   0.2500000
        k(    8) = (  -0.5000000  -0.5000000  -0.5000000), wk =   0.2500000

     Dense  grid:     4601 G-vectors     FFT dimensions: (  12,  25,  32)

     Dynamical RAM for                 wfc:       0.02 MB

     Dynamical RAM for     wfc (w. buffer):       0.20 MB

     Dynamical RAM for           str. fact:       0.04 MB

     Dynamical RAM for           local pot:       0.00 MB

     Dynamical RAM for          nlocal pot:       0.05 MB

     Dynamical RAM for                qrad:       0.58 MB

     Dynamical RAM for          rho,v,vnew:       0.11 MB

     Dynamical RAM for               rhoin:       0.04 MB

     Dynamical RAM for            rho*nmix:       0.28 MB

     Dynamical RAM for           G-vectors:       0.07 MB

     Dynamical RAM for          h,s,v(r/c):       0.02 MB

     Dynamical RAM for          <psi|beta>:       0.00 MB

     Dynamical RAM for                 psi:       0.04 MB

     Dynamical RAM for                hpsi:       0.04 MB

     Dynamical RAM for      wfcinit/wfcrot:       0.05 MB

     Estimated static dynamical RAM per process >       1.23 MB

     Estimated max dynamical RAM per process >       1.62 MB

     Estimated total dynamical RAM >       6.47 MB

     Initial potential from superposition of free atoms

     starting charge      11.9775, renormalised to      12.0000


     %%%%%%%%%%%%%%%%%%%%%%%%%%%%%%%%%%%%%%%%%%%%%%%%%%%%%%%%%%%%%%%%%%%%%%%%
     %                                                                      %
     % You are using vdW-DF, which was implemented by the Thonhauser group. %
     % Please cite the following two papers that made this development      %
     % possible and the two reviews that describe the various versions:     %
     %                                                                      %
     %   T. Thonhauser et al., PRL 115, 136402 (2015).                      %
     %   T. Thonhauser et al., PRB 76, 125112 (2007).                       %
     %   K. Berland et al., Rep. Prog. Phys. 78, 066501 (2015).             %
     %   D.C. Langreth et al., J. Phys.: Condens. Matter 21, 084203 (2009). %
     %                                                                      %
     %                                                                      %
     % If you are calculating the stress with vdW-DF, please also cite:     %
     %                                                                      %
     %   R. Sabatini et al., J. Phys.: Condens. Matter 24, 424209 (2012).   %
     %                                                                      %
     %%%%%%%%%%%%%%%%%%%%%%%%%%%%%%%%%%%%%%%%%%%%%%%%%%%%%%%%%%%%%%%%%%%%%%%%


     Carrying out vdW-DF run using the following parameters:
     Nqs    =  20  Npoints =  1024  r_max =  100.000
     q_mesh =  0.00001000  0.04494208  0.09755937  0.15916263
               0.23128650  0.31572767  0.41458969  0.53033537
               0.66584808  0.82450364  1.01025438  1.22772762
               1.48234092  1.78043706  2.12944203  2.53805004
               3.01644009  3.57652955  4.23227104  5.00000000


     -----------------------------------------------
     Non-local corr. energy    =       0.04421809 Ry
     -----------------------------------------------

     Starting wfcs are random

     total cpu time spent up to now is       18.1 secs

     Self-consistent Calculation

     iteration #  1     ecut=    40.00 Ry     beta= 0.70
     Davidson diagonalization with overlap

---- Real-time Memory Report at c_bands before calling an iterative solver
           159 MiB given to the printing process from OS
             0 MiB allocation reported by mallinfo(arena+hblkhd)
         61419 MiB available memory on the node where the printing process lives
------------------
     ethr =  1.00E-02,  avg # of iterations =  8.2


     -----------------------------------------------
     Non-local corr. energy    =       0.07368897 Ry
     -----------------------------------------------


     total cpu time spent up to now is       18.1 secs

     total energy              =     -26.90603043 Ry
     estimated scf accuracy    <       0.57809599 Ry

     iteration #  2     ecut=    40.00 Ry     beta= 0.70
     Davidson diagonalization with overlap

---- Real-time Memory Report at c_bands before calling an iterative solver
           160 MiB given to the printing process from OS
             0 MiB allocation reported by mallinfo(arena+hblkhd)
         61415 MiB available memory on the node where the printing process lives
------------------
     ethr =  4.82E-03,  avg # of iterations =  2.0


     -----------------------------------------------
     Non-local corr. energy    =       0.07356303 Ry
     -----------------------------------------------


     total cpu time spent up to now is       18.2 secs

     total energy              =     -27.00556162 Ry
     estimated scf accuracy    <       0.24270017 Ry

     iteration #  3     ecut=    40.00 Ry     beta= 0.70
     Davidson diagonalization with overlap

---- Real-time Memory Report at c_bands before calling an iterative solver
           161 MiB given to the printing process from OS
             0 MiB allocation reported by mallinfo(arena+hblkhd)
         61414 MiB available memory on the node where the printing process lives
------------------
     ethr =  2.02E-03,  avg # of iterations =  2.0


     -----------------------------------------------
     Non-local corr. energy    =       0.07701183 Ry
     -----------------------------------------------


     total cpu time spent up to now is       18.2 secs

     total energy              =     -27.06549806 Ry
     estimated scf accuracy    <       0.01326120 Ry

     iteration #  4     ecut=    40.00 Ry     beta= 0.70
     Davidson diagonalization with overlap

---- Real-time Memory Report at c_bands before calling an iterative solver
           161 MiB given to the printing process from OS
             0 MiB allocation reported by mallinfo(arena+hblkhd)
         61414 MiB available memory on the node where the printing process lives
------------------
     ethr =  1.11E-04,  avg # of iterations =  2.9


     -----------------------------------------------
     Non-local corr. energy    =       0.07802302 Ry
     -----------------------------------------------


     total cpu time spent up to now is       18.2 secs

     total energy              =     -27.06836772 Ry
     estimated scf accuracy    <       0.00074715 Ry

     iteration #  5     ecut=    40.00 Ry     beta= 0.70
     Davidson diagonalization with overlap

---- Real-time Memory Report at c_bands before calling an iterative solver
           161 MiB given to the printing process from OS
             0 MiB allocation reported by mallinfo(arena+hblkhd)
         61414 MiB available memory on the node where the printing process lives
------------------
     ethr =  6.23E-06,  avg # of iterations =  4.4


     -----------------------------------------------
     Non-local corr. energy    =       0.07808011 Ry
     -----------------------------------------------


     total cpu time spent up to now is       18.3 secs

     total energy              =     -27.06851854 Ry
     estimated scf accuracy    <       0.00001753 Ry

     iteration #  6     ecut=    40.00 Ry     beta= 0.70
     Davidson diagonalization with overlap

---- Real-time Memory Report at c_bands before calling an iterative solver
           161 MiB given to the printing process from OS
             0 MiB allocation reported by mallinfo(arena+hblkhd)
         61414 MiB available memory on the node where the printing process lives
------------------
     ethr =  1.46E-07,  avg # of iterations =  2.5


     -----------------------------------------------
     Non-local corr. energy    =       0.07812574 Ry
     -----------------------------------------------


     total cpu time spent up to now is       18.3 secs

     total energy              =     -27.06852422 Ry
     estimated scf accuracy    <       0.00000112 Ry

     iteration #  7     ecut=    40.00 Ry     beta= 0.70
     Davidson diagonalization with overlap

---- Real-time Memory Report at c_bands before calling an iterative solver
           161 MiB given to the printing process from OS
             0 MiB allocation reported by mallinfo(arena+hblkhd)
         61414 MiB available memory on the node where the printing process lives
------------------
     ethr =  9.33E-09,  avg # of iterations =  2.4


     -----------------------------------------------
     Non-local corr. energy    =       0.07812994 Ry
     -----------------------------------------------


     total cpu time spent up to now is       18.3 secs

     End of self-consistent calculation

          k = 0.0000 0.0000 0.0000 (   567 PWs)   bands (ev):

   -12.8517  -6.3667  -3.4794  -2.3929   2.0719   6.8630  11.9458  14.7753
    16.1615  19.6497

     occupation numbers 
     1.0000   1.0000   1.0000   1.0000   1.0000   0.9962   0.0045   0.0000
     0.0000   0.0000

          k = 0.0000 0.0000-0.1887 (   572 PWs)   bands (ev):

   -12.0144  -9.3099  -1.2447   0.0321   0.3069   6.9679   9.7734  13.2054
    21.2644  21.2986

     occupation numbers 
     1.0000   1.0000   1.0000   1.0000   1.0000   0.9948   0.3620   0.0000
     0.0000   0.0000

          k = 0.0000-0.2242 0.0000 (   568 PWs)   bands (ev):

   -12.0436  -6.1433  -5.2652  -2.1512  -1.1070   8.4139  18.0355  18.4686
    19.6906  20.0776

     occupation numbers 
     1.0000   1.0000   1.0000   1.0000   1.0000   0.8554   0.0000   0.0000
     0.0000   0.0000

          k = 0.0000-0.2242-0.1887 (   572 PWs)   bands (ev):

   -11.4296  -7.8420  -4.3245  -4.2173   1.4660  13.3305  13.8348  15.3055
    19.2852  19.5049

     occupation numbers 
     1.0000   1.0000   1.0000   1.0000   1.0000   0.0000   0.0000   0.0000
     0.0000   0.0000

          k =-0.5000 0.0000 0.0000 (   590 PWs)   bands (ev):

    -1.6164   1.2713   3.8424   6.4885   6.8695   7.3002  10.8783  19.9286
    20.7723  23.8102

     occupation numbers 
     1.0000   1.0000   1.0000   0.9989   0.9962   0.9867   0.0666   0.0000
     0.0000   0.0000

          k =-0.5000 0.0000-0.1887 (   572 PWs)   bands (ev):

    -1.3370   2.2957   3.1673   3.3908   8.2724   9.4124   9.4595  21.1762
    22.3292  24.1917

     occupation numbers 
     1.0000   1.0000   1.0000   1.0000   0.8863   0.5088   0.4893   0.0000
     0.0000   0.0000

          k =-0.5000-0.2242 0.0000 (   584 PWs)   bands (ev):

    -1.4927   2.4570   3.9463   4.5372   7.7386   8.0290   8.5482  17.7979
    20.2672  22.9487

     occupation numbers 
     1.0000   1.0000   1.0000   1.0000   0.9610   0.9279   0.8213   0.0000
     0.0000   0.0000

          k =-0.5000-0.2242-0.1887 (   576 PWs)   bands (ev):

    -1.2158   3.0429   3.3272   5.2156   6.1029   6.1910  10.4534  19.9626
    20.1608  24.3483

     occupation numbers 
     1.0000   1.0000   1.0000   1.0000   0.9997   0.9996   0.1446   0.0000
     0.0000   0.0000

     the Fermi energy is     9.4337 ev

!    total energy              =     -27.06852446 Ry
     estimated scf accuracy    <       0.00000006 Ry
     smearing contrib. (-TS)   =      -0.04461044 Ry
     internal energy E=F+TS    =     -27.02391401 Ry

     The total energy is F=E-TS. E is the sum of the following terms:
     one-electron contribution =       1.82481930 Ry
     hartree contribution      =       6.51831425 Ry
     xc contribution           =     -11.04586064 Ry
     ewald contribution        =     -24.32118692 Ry

     convergence has been achieved in   7 iterations

     Forces acting on atoms (cartesian axes, Ry/au):

     atom    1 type  1   force =     0.00000000    0.00000000   -0.00007501
     atom    2 type  1   force =     0.00000000    0.00000000    0.00007501
     atom    3 type  2   force =     0.00000000    0.00000828    0.00002607
     atom    4 type  2   force =     0.00000000   -0.00000828    0.00002607
     atom    5 type  2   force =     0.00000000    0.00000828   -0.00002607
     atom    6 type  2   force =     0.00000000   -0.00000828   -0.00002607
     The non-local contrib.  to forces
     atom    1 type  1   force =     0.00000000    0.00000000   -0.20279103
     atom    2 type  1   force =     0.00000000    0.00000000    0.20279103
     atom    3 type  2   force =     0.00000000   -0.06413931   -0.03246093
     atom    4 type  2   force =     0.00000000    0.06413931   -0.03246093
     atom    5 type  2   force =    -0.00000000   -0.06413931    0.03246093
     atom    6 type  2   force =     0.00000000    0.06413931    0.03246093
     The ionic contribution  to forces
     atom    1 type  1   force =    -0.00000000    0.00000000    2.61294659
     atom    2 type  1   force =    -0.00000000    0.00000000   -2.61294659
     atom    3 type  2   force =     0.00000000    1.71327765    0.84415307
     atom    4 type  2   force =     0.00000000   -1.71327765    0.84415307
     atom    5 type  2   force =     0.00000000    1.71327765   -0.84415307
     atom    6 type  2   force =    -0.00000000   -1.71327765   -0.84415307
     The local contribution  to forces
     atom    1 type  1   force =    -0.00000000    0.00000000   -2.40995750
     atom    2 type  1   force =    -0.00000000    0.00000000    2.40995750
     atom    3 type  2   force =    -0.00000000   -1.64906439   -0.81160395
     atom    4 type  2   force =    -0.00000000    1.64906439   -0.81160395
     atom    5 type  2   force =    -0.00000000   -1.64906439    0.81160395
     atom    6 type  2   force =    -0.00000000    1.64906439    0.81160395
     The core correction contribution to forces
     atom    1 type  1   force =     0.00000000    0.00000000    0.00000000
     atom    2 type  1   force =     0.00000000    0.00000000    0.00000000
     atom    3 type  2   force =     0.00000000    0.00000000    0.00000000
     atom    4 type  2   force =     0.00000000    0.00000000    0.00000000
     atom    5 type  2   force =     0.00000000    0.00000000    0.00000000
     atom    6 type  2   force =     0.00000000    0.00000000    0.00000000
     The Hubbard contrib.    to forces
     atom    1 type  1   force =     0.00000000    0.00000000    0.00000000
     atom    2 type  1   force =     0.00000000    0.00000000    0.00000000
     atom    3 type  2   force =     0.00000000    0.00000000    0.00000000
     atom    4 type  2   force =     0.00000000    0.00000000    0.00000000
     atom    5 type  2   force =     0.00000000    0.00000000    0.00000000
     atom    6 type  2   force =     0.00000000    0.00000000    0.00000000
     The SCF correction term to forces
     atom    1 type  1   force =     0.00000000    0.00000000   -0.00027307
     atom    2 type  1   force =    -0.00000000   -0.00000000    0.00027307
     atom    3 type  2   force =     0.00000000   -0.00006566   -0.00006213
     atom    4 type  2   force =     0.00000000    0.00006566   -0.00006213
     atom    5 type  2   force =    -0.00000000   -0.00006566    0.00006213
     atom    6 type  2   force =    -0.00000000    0.00006566    0.00006213

     Total force =     0.000119     Total SCF correction =     0.000426
     SCF correction compared to forces is large: reduce conv_thr to get better values


     Computing stress (Cartesian axis) and pressure

          total   stress  (Ry/bohr**3)                   (kbar)     P=     1388.32
   0.02899724   0.00000000   0.00000000         4265.64        0.00        0.00
   0.00000000   0.00011281   0.00000000            0.00       16.59        0.00
   0.00000000   0.00000000  -0.00079714            0.00        0.00     -117.26

     kinetic stress (kbar)  20229.76      0.00      0.00
                                0.00  15775.21      0.00
                                0.00      0.00  16165.91

     local   stress (kbar) -18270.47     -0.00     -0.00
                               -0.00   7240.82      0.00
                               -0.00      0.00  -8353.99

     nonloc. stress (kbar)    501.70      0.00      0.00
                                0.00    796.55      0.00
                                0.00      0.00    833.08

     hartree stress (kbar)   6400.78     -0.00     -0.00
                               -0.00  -2659.65     -0.00
                               -0.00     -0.00   3381.04

     exc-cor stress (kbar)  -3780.61      0.00      0.00
                                0.00  -3762.13     -0.00
                                0.00     -0.00  -3812.72

     corecor stress (kbar)      0.00      0.00      0.00
                                0.00      0.00      0.00
                                0.00      0.00      0.00

     ewald   stress (kbar)   -812.74     -0.00     -0.00
                               -0.00 -17410.85     -0.00
                               -0.00     -0.00  -8350.77

     hubbard stress (kbar)      0.00      0.00      0.00
                                0.00      0.00      0.00
                                0.00      0.00      0.00

     DFT-D   stress (kbar)      0.00      0.00      0.00
                                0.00      0.00      0.00
                                0.00      0.00      0.00

     XDM     stress (kbar)      0.00      0.00      0.00
                                0.00      0.00      0.00
                                0.00      0.00      0.00

     dft-nl  stress (kbar)     -2.78     -0.00     -0.00
                               -0.00     36.64      0.00
                               -0.00      0.00     20.17

     TS-vdW  stress (kbar)      0.00      0.00      0.00
                                0.00      0.00      0.00
                                0.00      0.00      0.00


                                0.00      0.00      0.00
                                0.00      0.00      0.00


                                0.00      0.00      0.00


     Writing all to output data dir ./pwscf.save/

     init_run     :     17.98s CPU     18.03s WALL (       1 calls)
     electrons    :      0.20s CPU      0.24s WALL (       1 calls)
     forces       :      0.02s CPU      0.02s WALL (       1 calls)
     stress       :      0.05s CPU      0.06s WALL (       1 calls)

     Called by init_run:
     wfcinit      :      0.01s CPU      0.01s WALL (       1 calls)
     wfcinit:wfcr :      0.01s CPU      0.01s WALL (       8 calls)
     potinit      :     17.94s CPU     17.99s WALL (       1 calls)
     hinit0       :      0.03s CPU      0.03s WALL (       1 calls)

     Called by electrons:
     c_bands      :      0.15s CPU      0.16s WALL (       7 calls)
     sum_band     :      0.01s CPU      0.02s WALL (       7 calls)
     v_of_rho     :     17.96s CPU     18.02s WALL (       8 calls)
     v_h          :      0.00s CPU      0.00s WALL (       8 calls)
     v_xc         :     17.96s CPU     18.02s WALL (       8 calls)
     mix_rho      :      0.00s CPU      0.00s WALL (       7 calls)
     vdW_kernel   :     17.92s CPU     17.96s WALL (       1 calls)

     Called by c_bands:
     init_us_2    :      0.00s CPU      0.01s WALL (     136 calls)
     init_us_2:cp :      0.00s CPU      0.00s WALL (     136 calls)
     cegterg      :      0.14s CPU      0.16s WALL (      56 calls)

     Called by sum_band:
     sum_band:wei :      0.00s CPU      0.00s WALL (       7 calls)
     sum_band:loo :      0.01s CPU      0.02s WALL (       7 calls)
     sum_band:buf :      0.00s CPU      0.00s WALL (      56 calls)
     sum_band:ini :      0.00s CPU      0.00s WALL (      56 calls)

     Called by *egterg:
     cdiaghg      :      0.02s CPU      0.02s WALL (     251 calls)
     cegterg:over :      0.01s CPU      0.01s WALL (     195 calls)
     cegterg:upda :      0.00s CPU      0.00s WALL (     195 calls)
     cegterg:last :      0.01s CPU      0.01s WALL (     152 calls)
     h_psi        :      0.10s CPU      0.11s WALL (     259 calls)
     g_psi        :      0.00s CPU      0.00s WALL (     195 calls)

     Called by h_psi:
     h_psi:calbec :      0.01s CPU      0.01s WALL (     259 calls)
     vloc_psi     :      0.08s CPU      0.09s WALL (     259 calls)
     add_vuspsi   :      0.01s CPU      0.01s WALL (     259 calls)

     General routines
     calbec       :      0.01s CPU      0.01s WALL (     299 calls)
     fft          :      0.02s CPU      0.02s WALL (     531 calls)
     ffts         :      0.00s CPU      0.00s WALL (       7 calls)
     fftw         :      0.08s CPU      0.09s WALL (    4248 calls)

     Parallel routines

     PWSCF        :     18.29s CPU     18.55s WALL


   This run was terminated on:  16:36:34  22Jan2022            

=------------------------------------------------------------------------------=
   JOB DONE.
=------------------------------------------------------------------------------=
