 Entering Gaussian System, Link 0=/Local/ce_dana/g09/g09
 Initial command:
 /Local/ce_dana/g09/l1.exe "/storage/ce_dana/alongd/scratch/g09/Gau-219462.inp" -scrdir="/storage/ce_dana/alongd/scratch/g09/"
 Entering Link 1 = /Local/ce_dana/g09/l1.exe PID=    219463.
  
 Copyright (c) 1988,1990,1992,1993,1995,1998,2003,2009,2013,
            Gaussian, Inc.  All Rights Reserved.
  
 This is part of the Gaussian(R) 09 program.  It is based on
 the Gaussian(R) 03 system (copyright 2003, Gaussian, Inc.),
 the Gaussian(R) 98 system (copyright 1998, Gaussian, Inc.),
 the Gaussian(R) 94 system (copyright 1995, Gaussian, Inc.),
 the Gaussian 92(TM) system (copyright 1992, Gaussian, Inc.),
 the Gaussian 90(TM) system (copyright 1990, Gaussian, Inc.),
 the Gaussian 88(TM) system (copyright 1988, Gaussian, Inc.),
 the Gaussian 86(TM) system (copyright 1986, Carnegie Mellon
 University), and the Gaussian 82(TM) system (copyright 1983,
 Carnegie Mellon University). Gaussian is a federally registered
 trademark of Gaussian, Inc.
  
 This software contains proprietary and confidential information,
 including trade secrets, belonging to Gaussian, Inc.
  
 This software is provided under written license and may be
 used, copied, transmitted, or stored only in accord with that
 written license.
  
 The following legend is applicable only to US Government
 contracts under FAR:
  
                    RESTRICTED RIGHTS LEGEND
  
 Use, reproduction and disclosure by the US Government is
 subject to restrictions as set forth in subparagraphs (a)
 and (c) of the Commercial Computer Software - Restricted
 Rights clause in FAR 52.227-19.
  
 Gaussian, Inc.
 340 Quinnipiac St., Bldg. 40, Wallingford CT 06492
  
  
 ---------------------------------------------------------------
 Warning -- This program may not be used in any manner that
 competes with the business of Gaussian, Inc. or will provide
 assistance to any competitor of Gaussian, Inc.  The licensee
 of this program is prohibited from giving any competitor of
 Gaussian, Inc. access to this program.  By using this program,
 the user acknowledges that Gaussian, Inc. is engaged in the
 business of creating and licensing software in the field of
 computational chemistry and represents and warrants to the
 licensee that it is not a competitor of Gaussian, Inc. and that
 it will not use this program in any manner prohibited above.
 ---------------------------------------------------------------
  

 Cite this work as:
 Gaussian 09, Revision D.01,
 M. J. Frisch, G. W. Trucks, H. B. Schlegel, G. E. Scuseria, 
 M. A. Robb, J. R. Cheeseman, G. Scalmani, V. Barone, B. Mennucci, 
 G. A. Petersson, H. Nakatsuji, M. Caricato, X. Li, H. P. Hratchian, 
 A. F. Izmaylov, J. Bloino, G. Zheng, J. L. Sonnenberg, M. Hada, 
 M. Ehara, K. Toyota, R. Fukuda, J. Hasegawa, M. Ishida, T. Nakajima, 
 Y. Honda, O. Kitao, H. Nakai, T. Vreven, J. A. Montgomery, Jr., 
 J. E. Peralta, F. Ogliaro, M. Bearpark, J. J. Heyd, E. Brothers, 
 K. N. Kudin, V. N. Staroverov, T. Keith, R. Kobayashi, J. Normand, 
 K. Raghavachari, A. Rendell, J. C. Burant, S. S. Iyengar, J. Tomasi, 
 M. Cossi, N. Rega, J. M. Millam, M. Klene, J. E. Knox, J. B. Cross, 
 V. Bakken, C. Adamo, J. Jaramillo, R. Gomperts, R. E. Stratmann, 
 O. Yazyev, A. J. Austin, R. Cammi, C. Pomelli, J. W. Ochterski, 
 R. L. Martin, K. Morokuma, V. G. Zakrzewski, G. A. Voth, 
 P. Salvador, J. J. Dannenberg, S. Dapprich, A. D. Daniels, 
 O. Farkas, J. B. Foresman, J. V. Ortiz, J. Cioslowski, 
 and D. J. Fox, Gaussian, Inc., Wallingford CT, 2013.
 
 ******************************************
 Gaussian 09:  ES64L-G09RevD.01 24-Apr-2013
                13-Nov-2022 
 ******************************************
 %chk=check.chk
 %mem=7168mb
 %NProcShared=10
 Will use up to   10 processors via shared memory.
 ----------------------------------------------------------------------
 #P guess=read ub2plypd3/def2tzvp freq IOp(7/33=1) scf=(tight, direct) 
 integral=(grid=ultrafine, Acc2E=12) IOp(2/9=2000) scf=xqc
 ----------------------------------------------------------------------
 1/10=4,30=1,38=1/1,3;
 2/9=2000,12=2,17=6,18=5,40=1/2;
 3/5=44,7=101,11=2,16=1,25=1,30=1,71=2,74=-60,75=-5,116=2,140=1/1,2,3;
 4/5=1/1;
 5/5=2,8=3,13=1,32=2,38=6,87=12,98=1/2,8;
 8/6=3,8=1,10=1,19=11,30=-1,87=12/1;
 9/15=3,16=-3,87=12/6;
 11/6=1,8=1,15=11,17=12,24=-1,27=1,28=-2,29=300,32=6,42=3,87=12/1,2,10;
 10/6=2,21=1,87=12/2;
 8/6=4,8=1,10=1,19=11,30=-1,87=12/11,4;
 10/5=1,20=4,87=12/2;
 11/12=2,14=11,16=1,17=2,28=-2,42=3,87=12/2,10,12;
 6/7=2,8=2,9=2,10=2/1;
 7/8=1,10=1,12=2,25=1,33=1,44=2,87=12/1,2,3,16;
 1/10=4,30=1/3;
 99//99;
 Leave Link    1 at Sun Nov 13 01:38:59 2022, MaxMem=   939524096 cpu:         0.1
 (Enter /Local/ce_dana/g09/l101.exe)
 ---
 TS1
 ---
 Symbolic Z-matrix:
 Charge =  0 Multiplicity = 2
 N                    -0.32586   1.64743   0.79487 
 H                    -0.70179   1.412     1.71672 
 H                     0.61755   1.99047   0.99198 
 C                    -0.33506  -0.97778  -1.31704 
 C                     0.3035   -0.74607   0.03012 
 H                    -1.41983  -0.88788  -1.26024 
 H                     0.0212   -0.256    -2.05198 
 H                    -0.10472  -1.97783  -1.69591 
 H                    -0.03594   0.44682   0.36434 
 H                     1.39148  -0.73651   0.02244 
 H                    -0.07611  -1.38003   0.82877 
 
 NAtoms=     11 NQM=       11 NQMF=       0 NMMI=      0 NMMIF=      0
                NMic=       0 NMicF=      0.
                    Isotopes and Nuclear Properties:
 (Nuclear quadrupole moments (NQMom) in fm**2, nuclear magnetic moments (NMagM)
  in nuclear magnetons)

  Atom         1           2           3           4           5           6           7           8           9          10
 IAtWgt=          14           1           1          12          12           1           1           1           1           1
 AtmWgt=  14.0030740   1.0078250   1.0078250  12.0000000  12.0000000   1.0078250   1.0078250   1.0078250   1.0078250   1.0078250
 NucSpn=           2           1           1           0           0           1           1           1           1           1
 AtZEff=   0.0000000   0.0000000   0.0000000   0.0000000   0.0000000   0.0000000   0.0000000   0.0000000   0.0000000   0.0000000
 NQMom=    2.0440000   0.0000000   0.0000000   0.0000000   0.0000000   0.0000000   0.0000000   0.0000000   0.0000000   0.0000000
 NMagM=    0.4037610   2.7928460   2.7928460   0.0000000   0.0000000   2.7928460   2.7928460   2.7928460   2.7928460   2.7928460
 AtZNuc=   7.0000000   1.0000000   1.0000000   6.0000000   6.0000000   1.0000000   1.0000000   1.0000000   1.0000000   1.0000000

  Atom        11
 IAtWgt=           1
 AtmWgt=   1.0078250
 NucSpn=           1
 AtZEff=   0.0000000
 NQMom=    0.0000000
 NMagM=    2.7928460
 AtZNuc=   1.0000000
 Leave Link  101 at Sun Nov 13 01:38:59 2022, MaxMem=   939524096 cpu:         0.1
 (Enter /Local/ce_dana/g09/l103.exe)

 GradGradGradGradGradGradGradGradGradGradGradGradGradGradGradGradGradGrad
 Berny optimization.
 Initialization pass.
 Trust Radius=3.00D-01 FncErr=1.00D-07 GrdErr=1.00D-07
 Number of steps in this run=      2 maximum allowed number of steps=      2.
 GradGradGradGradGradGradGradGradGradGradGradGradGradGradGradGradGradGrad

 Leave Link  103 at Sun Nov 13 01:38:59 2022, MaxMem=   939524096 cpu:         0.0
 (Enter /Local/ce_dana/g09/l202.exe)
                          Input orientation:                          
 ---------------------------------------------------------------------
 Center     Atomic      Atomic             Coordinates (Angstroms)
 Number     Number       Type             X           Y           Z
 ---------------------------------------------------------------------
      1          7           0       -0.325859    1.647429    0.794873
      2          1           0       -0.701785    1.411998    1.716719
      3          1           0        0.617548    1.990473    0.991980
      4          6           0       -0.335061   -0.977784   -1.317035
      5          6           0        0.303495   -0.746067    0.030124
      6          1           0       -1.419834   -0.887877   -1.260237
      7          1           0        0.021202   -0.255996   -2.051977
      8          1           0       -0.104717   -1.977826   -1.695912
      9          1           0       -0.035943    0.446821    0.364338
     10          1           0        1.391475   -0.736505    0.022444
     11          1           0       -0.076114   -1.380028    0.828774
 ---------------------------------------------------------------------
                    Distance matrix (angstroms):
                    1          2          3          4          5
     1  N    0.000000
     2  H    1.023009   0.000000
     3  H    1.023009   1.612613   0.000000
     4  C    3.369270   3.879331   3.879377   0.000000
     5  C    2.590319   2.917608   2.917610   1.508736   0.000000
     6  H    3.442097   3.829789   4.184293   1.089973   2.157546
     7  H    3.442097   4.184254   3.829873   1.089973   2.157546
     8  H    4.404019   4.847004   4.847043   1.093933   2.159414
     9  H    1.308003   1.789929   1.789929   2.223957   1.284484
    10  H    3.037931   3.445050   2.995893   2.198487   1.088049
    11  H    3.037930   2.995884   3.445008   2.198488   1.088049
                    6          7          8          9         10
     6  H    0.000000
     7  H    1.761451   0.000000
     8  H    1.762763   1.762764   0.000000
     9  H    2.517105   2.517101   3.182495   0.000000
    10  H    3.093807   2.532145   2.594651   1.885384   0.000000
    11  H    2.532146   3.093807   2.594652   1.885389   1.793908
                   11
    11  H    0.000000
 Stoichiometry    C2H8N(2)
 Framework group  C1[X(C2H8N)]
 Deg. of freedom    27
 Full point group                 C1      NOp   1
 Largest Abelian subgroup         C1      NOp   1
 Largest concise Abelian subgroup C1      NOp   1
                         Standard orientation:                         
 ---------------------------------------------------------------------
 Center     Atomic      Atomic             Coordinates (Angstroms)
 Number     Number       Type             X           Y           Z
 ---------------------------------------------------------------------
      1          7           0       -1.873387   -0.340135   -0.000013
      2          1           0       -2.251732    0.163048    0.806344
      3          1           0       -2.251777    0.163174   -0.806268
      4          6           0        1.494348   -0.441849   -0.000004
      5          6           0        0.501481    0.694153    0.000006
      6          1           0        1.372564   -1.072362    0.880714
      7          1           0        1.372569   -1.072341   -0.880737
      8          1           0        2.522175   -0.067335    0.000004
      9          1           0       -0.654000    0.133117   -0.000009
     10          1           0        0.514471    1.309919   -0.896941
     11          1           0        0.514464    1.309899    0.896968
 ---------------------------------------------------------------------
 Rotational constants (GHZ):     25.2684231      4.8178628      4.3602414
 Leave Link  202 at Sun Nov 13 01:38:59 2022, MaxMem=   939524096 cpu:         0.0
 (Enter /Local/ce_dana/g09/l301.exe)
 Standard basis: def2TZVP (5D, 7F)
 Ernie: Thresh=  0.10000D-02 Tol=  0.10000D-05 Strict=F.
 There are   156 symmetry adapted cartesian basis functions of A   symmetry.
 There are   141 symmetry adapted basis functions of A   symmetry.
   141 basis functions,   217 primitive gaussians,   156 cartesian basis functions
    14 alpha electrons       13 beta electrons
       nuclear repulsion energy        78.7282276997 Hartrees.
 IExCor=  419 DFT=T Ex+Corr=B2PLYPD3 ExCW=0 ScaHFX=  0.530000
 ScaDFX=  0.470000  0.470000  0.730000  0.730000 ScalE2=  0.270000  0.270000
 IRadAn=      5 IRanWt=     -1 IRanGd=            0 ICorTp=0 IEmpDi=141
 NAtoms=   11 NActive=   11 NUniq=   11 SFac= 1.00D+00 NAtFMM=   60 NAOKFM=F Big=F
 Integral buffers will be    131072 words long.
 Raffenetti 2 integral format.
 Two-electron integral symmetry is turned on.
 R6Disp:  Grimme-D3(BJ) Dispersion energy=       -0.0038274002 Hartrees.
 Nuclear repulsion after empirical dispersion term =       78.7244002995 Hartrees.
 Leave Link  301 at Sun Nov 13 01:38:59 2022, MaxMem=   939524096 cpu:         0.1
 (Enter /Local/ce_dana/g09/l302.exe)
 NPDir=0 NMtPBC=     1 NCelOv=     1 NCel=       1 NClECP=     1 NCelD=      1
         NCelK=      1 NCelE2=     1 NClLst=     1 CellRange=     0.0.
 One-electron integrals computed using PRISM.
   1 Symmetry operations used in ECPInt.
 ECPInt:  NShTT=    2145 NPrTT=    5976 LenC2=    2134 LenP2D=    5180.
 LDataN:  DoStor=T MaxTD1= 6 Len=  172
 NBasis=   141 RedAO= T EigKep=  3.27D-04  NBF=   141
 NBsUse=   141 1.00D-06 EigRej= -1.00D+00 NBFU=   141
 Precomputing XC quadrature grid using
 IXCGrd= 4 IRadAn=           5 IRanWt=          -1 IRanGd=           0 AccXCQ= 0.00D+00.
 Generated NRdTot=       0 NPtTot=           0 NUsed=           0 NTot=          32
 NSgBfM=   156   156   156   156   156 MxSgAt=    11 MxSgA2=    11.
 Leave Link  302 at Sun Nov 13 01:38:59 2022, MaxMem=   939524096 cpu:         2.2
 (Enter /Local/ce_dana/g09/l303.exe)
 DipDrv:  MaxL=1.
 Leave Link  303 at Sun Nov 13 01:38:59 2022, MaxMem=   939524096 cpu:         0.1
 (Enter /Local/ce_dana/g09/l401.exe)
 Initial guess from the checkpoint file:  "check.chk"
 B after Tr=    -0.000000   -0.000000   -0.000000
         Rot=    1.000000    0.000000    0.000000   -0.000000 Ang=   0.00 deg.
 Guess basis will be translated and rotated to current coordinates.
 JPrj=2 DoOrth=T DoCkMO=T.
 Initial guess <Sx>= 0.0000 <Sy>= 0.0000 <Sz>= 0.5000 <S**2>= 0.7684 S= 0.5092
 Leave Link  401 at Sun Nov 13 01:38:59 2022, MaxMem=   939524096 cpu:         0.6
 (Enter /Local/ce_dana/g09/l502.exe)
 UHF open shell SCF:
 Using DIIS extrapolation, IDIIS=  1040.
 Integral symmetry usage will be decided dynamically.
 Keep R1 and R2 ints in memory in canonical form, NReq=102356390.
 IVT=       81674 IEndB=       81674 NGot=   939524096 MDV=   839212291
 LenX=   839212291 LenY=   839187514
 Requested convergence on RMS density matrix=1.00D-08 within  64 cycles.
 Requested convergence on MAX density matrix=1.00D-06.
 Requested convergence on             energy=1.00D-06.
 No special actions if energy rises.
 FoFCou: FMM=F IPFlag=           0 FMFlag=           0 FMFlg1=           0
         NFxFlg=           0 DoJE=F BraDBF=F KetDBF=F FulRan=T
         wScrn=  0.000000 ICntrl=     600 IOpCl=  0 I1Cent=           0 NGrid=           0
         NMat0=    1 NMatS0=  10011 NMatT0=    0 NMatD0=    1 NMtDS0=    0 NMtDT0=    0
 Symmetry not used in FoFCou.

 Cycle   1  Pass 1  IDiag  1:
 E= -135.423041017415    
 DIIS: error= 3.03D-08 at cycle   1 NSaved=   1.
 NSaved= 1 IEnMin= 1 EnMin= -135.423041017415     IErMin= 1 ErrMin= 3.03D-08
 ErrMax= 3.03D-08  0.00D+00 EMaxC= 1.00D-01 BMatC= 1.20D-12 BMatP= 1.20D-12
 IDIUse=1 WtCom= 1.00D+00 WtEn= 0.00D+00
 Coeff-Com:  0.100D+01
 Coeff:      0.100D+01
 Gap=     0.351 Goal=   None    Shift=    0.000
 Gap=     0.314 Goal=   None    Shift=    0.000
 RMSDP=5.59D-09 MaxDP=1.25D-07              OVMax= 2.48D-07

 SCF Done:  E(UB2PLYPD3) =  -135.423041017     A.U. after    1 cycles
            NFock=  1  Conv=0.56D-08     -V/T= 2.0034
 <Sx>= 0.0000 <Sy>= 0.0000 <Sz>= 0.5000 <S**2>= 0.7684 S= 0.5092
 <L.S>=  0.00000000000    
 KE= 1.349621503502D+02 PE=-4.722963850000D+02 EE= 1.231867933329D+02
 Annihilation of the first spin contaminant:
 S**2 before annihilation     0.7684,   after     0.7501
 Leave Link  502 at Sun Nov 13 01:39:02 2022, MaxMem=   939524096 cpu:        19.5
 (Enter /Local/ce_dana/g09/l508.exe)
 QCSCF skips out because SCF is already converged.
 Leave Link  508 at Sun Nov 13 01:39:02 2022, MaxMem=   939524096 cpu:         0.0
 (Enter /Local/ce_dana/g09/l801.exe)
 DoSCS=T DFT=T ScalE2(SS,OS)=  0.270000  0.270000
 ExpMin= 9.52D-02 ExpMax= 1.97D+04 ExpMxC= 6.73D+02 IAcc=3 IRadAn=         5 AccDes= 0.00D+00
 HarFok:  IExCor=  205 AccDes= 0.00D+00 IRadAn=         5 IDoV=-2 UseB2=F ITyADJ=14
 ICtDFT= 12500011 ScaDFX=  1.000000  1.000000  1.000000  1.000000
 Largest valence mixing into a core orbital is  8.90D-05
 Largest core mixing into a valence orbital is  1.57D-05
 Largest valence mixing into a core orbital is  1.05D-04
 Largest core mixing into a valence orbital is  2.17D-05
 Range of M.O.s used for correlation:     4   141
 NBasis=   141 NAE=    14 NBE=    13 NFC=     3 NFV=     0
 NROrb=    138 NOA=    11 NOB=    10 NVA=   127 NVB=   128

 **** Warning!!: The largest alpha MO coefficient is  0.18213366D+02


 **** Warning!!: The largest beta MO coefficient is  0.17460021D+02

 Leave Link  801 at Sun Nov 13 01:39:02 2022, MaxMem=   939524096 cpu:         0.6
 (Enter /Local/ce_dana/g09/l906.exe)
 DoSCS=T DFT=T ScalE2(SS,OS)=  0.270000  0.270000
 Frozen-core derivative calculation, NFC=   3 NFV=   0.
 FulOut=F Deriv=T AODrv=T NAtomX=    11
   MMem=           0  MDisk=          11 MDiskD=          11
  W3Min=      615888 MinDsk=     1402910 NBas6D=         156
 NBas2D=       12522    NTT=       12246    LW2=     7400000
    MDV=   939172586 MDiskM=       30037 NBas2p=       12502
 Disk-based method using ON**2 memory for 11 occupieds at a time.
 Permanent disk used for amplitudes=     4320667 words.
 Estimated scratch disk usage=    76441362 words.
 IMap=   1   2   3   4   5   6   7   8   9  10  11  12  13  14
 Actual    scratch disk usage=    74088210 words.
 JobTyp=2 Pass  1:  I=   4 to  14 NPSUse= 10 ParTrn=T ParDer=T DoDerP=T.
 (rs|ai) integrals will be sorted in core.
 IMap=   1   2   3   4   5   6   7   8   9  10  11  12  13
 Actual    scratch disk usage=    74088210 words.
 JobTyp=3 Pass  1:  I=   4 to  13 NPSUse= 10 ParTrn=T ParDer=T DoDerP=T.
 (rs|ai) integrals will be sorted in core.
 Spin components of T(2) and E(2):
     alpha-alpha T2 =       0.3337010052D-01 E2=     -0.2270288471D-01
     alpha-beta  T2 =       0.2038583374D+00 E2=     -0.1425331561D+00
     beta-beta   T2 =       0.3167013783D-01 E2=     -0.1900211789D-01
 The integrals were generated   2 times.
 E2(B2PLYPD3) =    -0.1842381587D+00 E(B2PLYPD3) =    -0.13560727917616D+03
 Leave Link  906 at Sun Nov 13 01:42:07 2022, MaxMem=   939524096 cpu:      1834.9
 (Enter /Local/ce_dana/g09/l1101.exe)
 Using compressed Sx but separate Hx and Fx, NAtomX=    11.
 Will process     12 centers per pass.
   1 Symmetry operations used in ECPInt.
 ECPInt:  NShTT=    2145 NPrTT=    5976 LenC2=    2134 LenP2D=    5180.
 LDataN:  DoStor=T MaxTD1= 7 Len=  274
 R6Disp: Adding Grimme-D3(BJ) dispersion energy 1st derivatives to the gradient.
 Leave Link 1101 at Sun Nov 13 01:42:08 2022, MaxMem=   939524096 cpu:         4.3
 (Enter /Local/ce_dana/g09/l1102.exe)
 Leave Link 1102 at Sun Nov 13 01:42:08 2022, MaxMem=   939524096 cpu:         0.0
 (Enter /Local/ce_dana/g09/l1110.exe)
 Forming Gx(P) for the SCF density, NAtomX=    11.
 Integral derivatives from FoFJK, PRISM(SPDF).
 Do as many integral derivatives as possible in FoFJK.
 G2DrvN: MDV=     939523904.
 G2DrvN: will do    12 centers at a time, making    1 passes.
 Calling FoFCou, ICntrl=  3107 FMM=F I1Cent=   0 AccDes= 1.00D-12.
 FoFJK:  IHMeth= 1 ICntrl=    3107 DoSepK=F KAlg= 0 I1Cent=   0 FoldK=F
 IRaf=         0 NMat=   1 IRICut=       1 DoRegI=T DoRafI=F ISym2E= 0.
 FoFCou: FMM=F IPFlag=           0 FMFlag=      100000 FMFlg1=           0
         NFxFlg=           0 DoJE=F BraDBF=F KetDBF=F FulRan=T
         wScrn=  0.000000 ICntrl=    3107 IOpCl=  1 I1Cent=           0 NGrid=           0
         NMat0=    1 NMatS0=      1 NMatT0=    0 NMatD0=    1 NMtDS0=    0 NMtDT0=    0
 Symmetry not used in FoFCou.
 End of G2Drv F.D. properties file   721 does not exist.
 End of G2Drv F.D. properties file   722 does not exist.
 End of G2Drv F.D. properties file   788 does not exist.
 Leave Link 1110 at Sun Nov 13 01:42:53 2022, MaxMem=   939524096 cpu:       453.2
 (Enter /Local/ce_dana/g09/l1002.exe)
 Minotr:  UHF open shell wavefunction.
          IDoAtm=11111111111
          Frozen-core window.
          Direct CPHF calculation.
          Differentiating once with respect to electric field.
                with respect to dipole field.
          Differentiating once with respect to nuclear coordinates.
          Requested convergence is 1.0D-08 RMS, and 1.0D-07 maximum.
          Secondary convergence is 1.0D-12 RMS, and 1.0D-12 maximum.
          NewPWx=T KeepS1=T KeepF1=T KeepIn=T MapXYZ=F SortEE=F KeepMc=T.
          MDV=     939523706 using IRadAn=       1.
 Generate precomputed XC quadrature information.
 Keep R1 and R2 ints in memory in canonical form, NReq=102310405.
 FoFCou: FMM=F IPFlag=           0 FMFlag=           0 FMFlg1=           0
         NFxFlg=           0 DoJE=F BraDBF=F KetDBF=F FulRan=T
         wScrn=  0.000000 ICntrl=     600 IOpCl=  0 I1Cent=           0 NGrid=           0
         NMat0=    1 NMatS0=  10011 NMatT0=    0 NMatD0=    1 NMtDS0=    0 NMtDT0=    0
 Symmetry not used in FoFCou.
          Solving linear equations simultaneously, MaxMat=       0.
          There are    36 degrees of freedom in the 1st order CPHF.  IDoFFX=6 NUNeed=    36.
     33 vectors produced by pass  0 Test12= 9.56D-15 2.78D-09 XBig12= 5.25D+01 4.01D+00.
 AX will form    33 AO Fock derivatives at one time.
     33 vectors produced by pass  1 Test12= 9.56D-15 2.78D-09 XBig12= 2.54D+00 4.10D-01.
     33 vectors produced by pass  2 Test12= 9.56D-15 2.78D-09 XBig12= 9.33D-02 6.11D-02.
     33 vectors produced by pass  3 Test12= 9.56D-15 2.78D-09 XBig12= 1.14D-03 6.40D-03.
     33 vectors produced by pass  4 Test12= 9.56D-15 2.78D-09 XBig12= 1.00D-05 7.46D-04.
     33 vectors produced by pass  5 Test12= 9.56D-15 2.78D-09 XBig12= 1.02D-07 4.51D-05.
     30 vectors produced by pass  6 Test12= 9.56D-15 2.78D-09 XBig12= 7.22D-10 3.63D-06.
      9 vectors produced by pass  7 Test12= 9.56D-15 2.78D-09 XBig12= 4.05D-12 2.92D-07.
      2 vectors produced by pass  8 Test12= 9.56D-15 2.78D-09 XBig12= 2.46D-14 2.42D-08.
 InvSVY:  IOpt=1 It=  1 EMax= 7.11D-15
 Solved reduced A of dimension   239 with    36 vectors.
 FullF1:  Do perturbations    1 to    36.
 Saving first derivative matrices.
 End of Minotr F.D. properties file   721 does not exist.
 End of Minotr F.D. properties file   722 does not exist.
 End of Minotr F.D. properties file   788 does not exist.
 Leave Link 1002 at Sun Nov 13 01:44:13 2022, MaxMem=   939524096 cpu:       790.4
 (Enter /Local/ce_dana/g09/l811.exe)
 MDV=   939524096.
 DoSCS=T DFT=T ScalE2(SS,OS)=  0.270000  0.270000
 Form MO integral derivatives with frozen-active canonical formalism.
 MOERI=1 MOERIx=1 NAtoms=    11 NAtomX=    11.
 Discarding MO integrals.
 MO basis two electron integral derivatives will not be stored on disk.
 IAlg= 3 DoFC=T DoPWx=T Debug=F.
 Frozen-core window:  NFC=   3 NFV=   0.
 Reordered first order wavefunction length =     17521887
 In DefCFB: NBatch=  1 ICI= 14 ICA=128 LFMax= 43
            Large arrays: LIAPS=   302840928 LIARS=   140894208 words.
 In StABat: MaxSiz= 36 MinSiz= 12 NAtomB=  5
 DoIAMN: NPSUse= 10.
 In DefCFB: NBatch=  1 ICI= 14 ICA=128 LFMax= 43
            Large arrays: LIAPS=   302840928 LIARS=   140894208 words.
 In StABat: MaxSiz= 36 MinSiz= 12 NAtomB=  5
 Leave Link  811 at Sun Nov 13 01:47:23 2022, MaxMem=   939524096 cpu:       890.0
 (Enter /Local/ce_dana/g09/l804.exe)
 Frozen-core window:  NFC=   3 NFV=   0.
 Open-shell transformation, MDV=   939524096 ITran=4 ISComp=1.
 Semi-Direct transformation.
 ModeAB=           2 MOrb=            14 LenV=     938607103
 LASXX=     18281137 LTotXX=    18281137 LenRXX=    18281137
 LTotAB=    18850713 MaxLAS=    24173604 LenRXY=    24173604
 NonZer=    36562274 LenScr=    55618560 LnRSAI=           0
 LnScr1=           0 LExtra=           0 Total=     98073301
 MaxDsk=          -1 SrtSym=           F ITran=            4
 DoSDTr:  NPSUse= 10
 JobTyp=1 Pass  1:  I=   1 to  14.
 (rs|ai) integrals will be sorted in core.
 Complete sort for first half transformation.
 First half transformation complete.
 Begin second half transformation for I=  10.
 Begin second half transformation for I=  10.
 Complete sort for second half transformation.
 Second half transformation complete.
 ModeAB=           2 MOrb=            13 LenV=     938607103
 LASXX=     17060745 LTotXX=    17060745 LenRXX=    22446918
 LTotAB=    14264640 MaxLAS=    22446918 LenRXY=    14264640
 NonZer=    34121490 LenScr=    51945472 LnRSAI=           0
 LnScr1=           0 LExtra=           0 Total=     88657030
 MaxDsk=          -1 SrtSym=           F ITran=            4
 DoSDTr:  NPSUse= 10
 JobTyp=2 Pass  1:  I=   1 to  13.
 (rs|ai) integrals will be sorted in core.
 Complete sort for first half transformation.
 First half transformation complete.
 Begin second half transformation for I=  10.
 Begin second half transformation for I=  10.
 Complete sort for second half transformation.
 Second half transformation complete.
 SymMOI:  orbitals are not symmetric.
 DoSCS=T DFT=T ScalE2(SS,OS)=  0.270000  0.270000
 Spin components of T(2) and E(2):
     alpha-alpha T2 =       0.3337010052D-01 E2=     -0.2270288471D-01
     alpha-beta  T2 =       0.2038583374D+00 E2=     -0.1425331561D+00
     beta-beta   T2 =       0.3167013783D-01 E2=     -0.1900211789D-01
 E2(B2PLYPD3) =    -0.1842381587D+00 E(B2PLYPD3) =    -0.13560727917616D+03
 Leave Link  804 at Sun Nov 13 01:47:48 2022, MaxMem=   939524096 cpu:       197.0
 (Enter /Local/ce_dana/g09/l1002.exe)
 Minotr:  UHF open shell wavefunction.
          Computing MP2/KS-MP2 derivatives.
          Using Z-Vector for PSCF gradient.
          Skipping F1 and S1 gradient terms here.
          IDoAtm=11111111111
          Frozen-core window.
          Direct CPHF calculation.
          Differentiating once with respect to electric field.
                with respect to dipole field.
          Differentiating once with respect to nuclear coordinates.
          Requested convergence is 1.0D-10 RMS, and 1.0D-09 maximum.
          NewPWx=T KeepS1=F KeepF1=F KeepIn=T MapXYZ=F SortEE=F KeepMc=T.
          MDV=     939523706 using IRadAn=       5.
 Using stored XC quadrature information.
 Keep R1 and R2 ints in memory in canonical form, NReq=102307140.
 FoFCou: FMM=F IPFlag=           0 FMFlag=           0 FMFlg1=           0
         NFxFlg=           0 DoJE=F BraDBF=F KetDBF=F FulRan=T
         wScrn=  0.000000 ICntrl=     600 IOpCl=  0 I1Cent=           0 NGrid=           0
         NMat0=    1 NMatS0=  10011 NMatT0=    0 NMatD0=    1 NMtDS0=    0 NMtDT0=    0
 Symmetry not used in FoFCou.
          Solving linear equations separately, MaxMat=       0.
          There are     1 degrees of freedom in the 1st order CPHF.  IDoFFX=0 NUNeed=     1.
 LinEq1:  Iter=  0 NonCon=     1 RMS=9.91D-04 Max=2.53D-02 NDo=     1
 AX will form     1 AO Fock derivatives at one time.
 LinEq1:  Iter=  1 NonCon=     1 RMS=3.15D-04 Max=3.96D-03 NDo=     1
 LinEq1:  Iter=  2 NonCon=     1 RMS=1.79D-04 Max=4.07D-03 NDo=     1
 LinEq1:  Iter=  3 NonCon=     1 RMS=4.51D-05 Max=7.91D-04 NDo=     1
 LinEq1:  Iter=  4 NonCon=     1 RMS=3.14D-05 Max=7.28D-04 NDo=     1
 LinEq1:  Iter=  5 NonCon=     1 RMS=1.06D-05 Max=1.70D-04 NDo=     1
 LinEq1:  Iter=  6 NonCon=     1 RMS=3.41D-06 Max=3.76D-05 NDo=     1
 LinEq1:  Iter=  7 NonCon=     1 RMS=9.36D-07 Max=1.39D-05 NDo=     1
 LinEq1:  Iter=  8 NonCon=     1 RMS=4.11D-07 Max=9.02D-06 NDo=     1
 LinEq1:  Iter=  9 NonCon=     1 RMS=1.66D-07 Max=3.38D-06 NDo=     1
 LinEq1:  Iter= 10 NonCon=     1 RMS=7.81D-08 Max=1.94D-06 NDo=     1
 LinEq1:  Iter= 11 NonCon=     1 RMS=1.94D-08 Max=4.30D-07 NDo=     1
 LinEq1:  Iter= 12 NonCon=     1 RMS=4.24D-09 Max=5.15D-08 NDo=     1
 LinEq1:  Iter= 13 NonCon=     1 RMS=9.07D-10 Max=1.05D-08 NDo=     1
 LinEq1:  Iter= 14 NonCon=     1 RMS=2.08D-10 Max=3.54D-09 NDo=     1
 LinEq1:  Iter= 15 NonCon=     0 RMS=5.08D-11 Max=7.69D-10 NDo=     1
 Linear equations converged to 1.000D-10 1.000D-09 after    15 iterations.
 End of Minotr F.D. properties file   721 does not exist.
 End of Minotr F.D. properties file   722 does not exist.
 End of Minotr F.D. properties file   788 does not exist.
 Leave Link 1002 at Sun Nov 13 01:48:28 2022, MaxMem=   939524096 cpu:       364.9
 (Enter /Local/ce_dana/g09/l1102.exe)
 Use density number 2.
 Symmetrizing basis deriv contribution to polar:
 IMax=3 JMax=2 DiffMx= 0.00D+00
 Leave Link 1102 at Sun Nov 13 01:48:29 2022, MaxMem=   939524096 cpu:         0.1
 (Enter /Local/ce_dana/g09/l1110.exe)
 Forming Gx(P) for generalized density number  2 NAtomX=    11.
 Integral derivatives from FoFJK, PRISM(SPDF).
 Do as many integral derivatives as possible in FoFJK.
 G2DrvN: MDV=     939523904.
 G2DrvN: will do    12 centers at a time, making    1 passes.
 Calling FoFCou, ICntrl=  3107 FMM=F I1Cent=   0 AccDes= 1.00D-12.
 FoFJK:  IHMeth= 1 ICntrl=    3107 DoSepK=F KAlg= 0 I1Cent=   0 FoldK=F
 IRaf=         0 NMat=   1 IRICut=       1 DoRegI=T DoRafI=F ISym2E= 0.
 FoFCou: FMM=F IPFlag=           0 FMFlag=      100000 FMFlg1=           0
         NFxFlg=           0 DoJE=F BraDBF=F KetDBF=F FulRan=T
         wScrn=  0.000000 ICntrl=    3107 IOpCl=  1 I1Cent=           0 NGrid=           0
         NMat0=    1 NMatS0=      1 NMatT0=    0 NMatD0=    1 NMtDS0=    0 NMtDT0=    0
 Symmetry not used in FoFCou.
 End of G2Drv F.D. properties file   721 does not exist.
 End of G2Drv F.D. properties file   722 does not exist.
 End of G2Drv F.D. properties file   788 does not exist.
 Leave Link 1110 at Sun Nov 13 01:49:17 2022, MaxMem=   939524096 cpu:       482.3
 (Enter /Local/ce_dana/g09/l1112.exe)
 MP22nd: MDV=     939524096
 DoSCS=T DFT=T ScalE2(SS,OS)=  0.270000  0.270000
 Using stored XC quadrature information.
 This link is doing NAtomX=    11 total of    36 degrees of freedom.
 Using ON3 I/O method in MakUI.
 Frozen-core window:  NFC=   3 NFV=   0.
 Using Ix for Sx.
 Use MO integrals over full window.
 Using OV2 memory method for fx*t*t/D, MaxI=    13 DoOO2=F NP=  10.
 R2 and R3 integrals will be kept in memory, NReq=   151916762.
 FoFCou: FMM=F IPFlag=           0 FMFlag=           0 FMFlg1=           0
         NFxFlg=           0 DoJE=F BraDBF=F KetDBF=F FulRan=T
         wScrn=  0.000000 ICntrl=     600 IOpCl=  0 I1Cent=           0 NGrid=           0
         NMat0=    1 NMatS0=      1 NMatT0=    0 NMatD0=    1 NMtDS0=    0 NMtDT0=    0
 Symmetry not used in FoFCou.
 DD1Dir will call FoFMem   1 times, MxPair=       534
 NAB=   182 NAA=    91 NBB=    78.
 Symmetry is being used.
 FoFJK:  IHMeth= 1 ICntrl=       0 DoSepK=F KAlg= 0 I1Cent=   0 FoldK=F
 IRaf=         0 NMat=  36 IRICut=      90 DoRegI=T DoRafI=T ISym2E= 2.
 R6Disp: Adding Grimme-D3(BJ) dispersion energy 1st derivatives to the gradient.
 Discarding MO integrals.
 Leave Link 1112 at Sun Nov 13 01:52:04 2022, MaxMem=   939524096 cpu:      1460.0
 (Enter /Local/ce_dana/g09/l601.exe)
 Copying SCF densities to generalized density rwf, IOpCl= 1 IROHF=0.

 **********************************************************************

            Population analysis using the SCF density.

 **********************************************************************

 Orbital symmetries:
 Alpha Orbitals:
       Occupied  (A) (A) (A) (A) (A) (A) (A) (A) (A) (A) (A) (A)
                 (A) (A)
       Virtual   (A) (A) (A) (A) (A) (A) (A) (A) (A) (A) (A) (A)
                 (A) (A) (A) (A) (A) (A) (A) (A) (A) (A) (A) (A)
                 (A) (A) (A) (A) (A) (A) (A) (A) (A) (A) (A) (A)
                 (A) (A) (A) (A) (A) (A) (A) (A) (A) (A) (A) (A)
                 (A) (A) (A) (A) (A) (A) (A) (A) (A) (A) (A) (A)
                 (A) (A) (A) (A) (A) (A) (A) (A) (A) (A) (A) (A)
                 (A) (A) (A) (A) (A) (A) (A) (A) (A) (A) (A) (A)
                 (A) (A) (A) (A) (A) (A) (A) (A) (A) (A) (A) (A)
                 (A) (A) (A) (A) (A) (A) (A) (A) (A) (A) (A) (A)
                 (A) (A) (A) (A) (A) (A) (A) (A) (A) (A) (A) (A)
                 (A) (A) (A) (A) (A) (A) (A)
 Beta  Orbitals:
       Occupied  (A) (A) (A) (A) (A) (A) (A) (A) (A) (A) (A) (A)
                 (A)
       Virtual   (A) (A) (A) (A) (A) (A) (A) (A) (A) (A) (A) (A)
                 (A) (A) (A) (A) (A) (A) (A) (A) (A) (A) (A) (A)
                 (A) (A) (A) (A) (A) (A) (A) (A) (A) (A) (A) (A)
                 (A) (A) (A) (A) (A) (A) (A) (A) (A) (A) (A) (A)
                 (A) (A) (A) (A) (A) (A) (A) (A) (A) (A) (A) (A)
                 (A) (A) (A) (A) (A) (A) (A) (A) (A) (A) (A) (A)
                 (A) (A) (A) (A) (A) (A) (A) (A) (A) (A) (A) (A)
                 (A) (A) (A) (A) (A) (A) (A) (A) (A) (A) (A) (A)
                 (A) (A) (A) (A) (A) (A) (A) (A) (A) (A) (A) (A)
                 (A) (A) (A) (A) (A) (A) (A) (A) (A) (A) (A) (A)
                 (A) (A) (A) (A) (A) (A) (A) (A)
 The electronic state is 2-A.
 Alpha  occ. eigenvalues --  -14.83813 -10.61734 -10.60225  -0.97724  -0.87331
 Alpha  occ. eigenvalues --   -0.71574  -0.53746  -0.53442  -0.51433  -0.45903
 Alpha  occ. eigenvalues --   -0.44088  -0.41468  -0.37249  -0.28333
 Alpha virt. eigenvalues --    0.06749   0.10101   0.12934   0.13321   0.16140
 Alpha virt. eigenvalues --    0.16696   0.17101   0.22354   0.24395   0.25091
 Alpha virt. eigenvalues --    0.28224   0.29288   0.29862   0.40034   0.40542
 Alpha virt. eigenvalues --    0.41926   0.43809   0.46143   0.47211   0.50489
 Alpha virt. eigenvalues --    0.51128   0.53583   0.54941   0.58180   0.60203
 Alpha virt. eigenvalues --    0.60964   0.63275   0.68257   0.72239   0.73505
 Alpha virt. eigenvalues --    0.78965   0.89688   0.93330   1.00839   1.05029
 Alpha virt. eigenvalues --    1.05678   1.11638   1.13197   1.14676   1.16674
 Alpha virt. eigenvalues --    1.20567   1.25332   1.38370   1.48987   1.58073
 Alpha virt. eigenvalues --    1.58495   1.61382   1.63474   1.65308   1.66283
 Alpha virt. eigenvalues --    1.70416   1.78229   1.80324   1.83275   1.86185
 Alpha virt. eigenvalues --    1.88485   1.92913   1.99302   2.02860   2.08304
 Alpha virt. eigenvalues --    2.09508   2.12624   2.15025   2.16907   2.22279
 Alpha virt. eigenvalues --    2.27439   2.39868   2.44157   2.44163   2.46581
 Alpha virt. eigenvalues --    2.49380   2.50089   2.51905   2.54097   2.62765
 Alpha virt. eigenvalues --    2.66526   2.67052   2.68152   2.69719   2.73276
 Alpha virt. eigenvalues --    2.76202   2.78028   2.83725   2.93548   2.98527
 Alpha virt. eigenvalues --    3.12178   3.14356   3.17329   3.19766   3.20588
 Alpha virt. eigenvalues --    3.22046   3.28419   3.35990   3.37313   3.42002
 Alpha virt. eigenvalues --    3.49453   3.55638   3.59296   3.66273   3.67209
 Alpha virt. eigenvalues --    3.85575   3.87071   3.99072   4.03418   4.05442
 Alpha virt. eigenvalues --    4.12175   4.17107   4.33296   4.40927   4.43411
 Alpha virt. eigenvalues --    4.44501   4.50583   4.54240   4.56693   4.70719
 Alpha virt. eigenvalues --    4.78374   4.79056   4.85377   4.91390   5.02769
 Alpha virt. eigenvalues --    5.15523   5.39202   5.53109   5.75303  22.70601
 Alpha virt. eigenvalues --   22.77712  32.16695
  Beta  occ. eigenvalues --  -14.82083 -10.60633 -10.60268  -0.92720  -0.85664
  Beta  occ. eigenvalues --   -0.69696  -0.52439  -0.50898  -0.49785  -0.43808
  Beta  occ. eigenvalues --   -0.42435  -0.41181  -0.33257
  Beta virt. eigenvalues --   -0.01835   0.07148   0.10395   0.13482   0.13564
  Beta virt. eigenvalues --    0.16279   0.16837   0.17366   0.22733   0.24432
  Beta virt. eigenvalues --    0.25610   0.28264   0.29727   0.29847   0.41911
  Beta virt. eigenvalues --    0.42188   0.42880   0.44922   0.47171   0.48486
  Beta virt. eigenvalues --    0.50714   0.52196   0.53945   0.55990   0.58856
  Beta virt. eigenvalues --    0.61034   0.62186   0.64025   0.68909   0.73161
  Beta virt. eigenvalues --    0.74193   0.79674   0.90240   0.94028   1.01703
  Beta virt. eigenvalues --    1.06724   1.07085   1.11804   1.13776   1.15532
  Beta virt. eigenvalues --    1.17498   1.22095   1.26860   1.38593   1.52512
  Beta virt. eigenvalues --    1.58302   1.58948   1.61929   1.63580   1.65486
  Beta virt. eigenvalues --    1.66568   1.70615   1.79989   1.80116   1.83586
  Beta virt. eigenvalues --    1.86907   1.88490   1.93416   1.99763   2.04140
  Beta virt. eigenvalues --    2.08552   2.11333   2.13497   2.17396   2.17411
  Beta virt. eigenvalues --    2.23313   2.28610   2.40172   2.44392   2.44515
  Beta virt. eigenvalues --    2.47011   2.49801   2.50476   2.52271   2.54413
  Beta virt. eigenvalues --    2.62983   2.66732   2.67239   2.68416   2.69781
  Beta virt. eigenvalues --    2.74235   2.76564   2.78967   2.85032   2.94037
  Beta virt. eigenvalues --    2.99048   3.13971   3.14786   3.18516   3.20600
  Beta virt. eigenvalues --    3.21351   3.23510   3.29412   3.37020   3.38231
  Beta virt. eigenvalues --    3.43163   3.50123   3.57178   3.59732   3.67069
  Beta virt. eigenvalues --    3.68172   3.87714   3.88032   4.00191   4.04523
  Beta virt. eigenvalues --    4.05976   4.14289   4.18696   4.35672   4.43809
  Beta virt. eigenvalues --    4.44223   4.45740   4.52228   4.54997   4.56846
  Beta virt. eigenvalues --    4.71269   4.79956   4.83091   4.89788   4.92410
  Beta virt. eigenvalues --    5.03837   5.20966   5.42935   5.54598   5.76126
  Beta virt. eigenvalues --   22.71148  22.78098  32.18095
          Condensed to atoms (all electrons):
               1          2          3          4          5          6
     1  N    6.849711   0.340250   0.340251   0.004400  -0.155458   0.003910
     2  H    0.340250   0.486740  -0.027684   0.001363   0.015735  -0.000169
     3  H    0.340251  -0.027684   0.486739   0.001364   0.015734  -0.000211
     4  C    0.004400   0.001363   0.001364   4.874147   0.281990   0.410445
     5  C   -0.155458   0.015735   0.015734   0.281990   5.254007  -0.036252
     6  H    0.003910  -0.000169  -0.000211   0.410445  -0.036252   0.571410
     7  H    0.003910  -0.000211  -0.000169   0.410445  -0.036252  -0.023579
     8  H   -0.001009  -0.000000  -0.000000   0.413411  -0.043786  -0.030330
     9  H    0.173620  -0.036210  -0.036210  -0.042475   0.235086  -0.005083
    10  H    0.004447  -0.000013  -0.001801  -0.035031   0.394572   0.007087
    11  H    0.004446  -0.001801  -0.000013  -0.035032   0.394572  -0.003956
               7          8          9         10         11
     1  N    0.003910  -0.001009   0.173620   0.004447   0.004446
     2  H   -0.000211  -0.000000  -0.036210  -0.000013  -0.001801
     3  H   -0.000169  -0.000000  -0.036210  -0.001801  -0.000013
     4  C    0.410445   0.413411  -0.042475  -0.035031  -0.035032
     5  C   -0.036252  -0.043786   0.235086   0.394572   0.394572
     6  H   -0.023579  -0.030330  -0.005083   0.007087  -0.003956
     7  H    0.571408  -0.030330  -0.005083  -0.003956   0.007087
     8  H   -0.030330   0.582310   0.007551  -0.004123  -0.004123
     9  H   -0.005083   0.007551   0.550181  -0.015899  -0.015899
    10  H   -0.003956  -0.004123  -0.015899   0.573356  -0.026210
    11  H    0.007087  -0.004123  -0.015899  -0.026210   0.573358
          Atomic-Atomic Spin Densities.
               1          2          3          4          5          6
     1  N    0.839638  -0.010491  -0.010491   0.015694  -0.156209   0.002033
     2  H   -0.010491  -0.022142   0.002916  -0.000732   0.006889  -0.000127
     3  H   -0.010491   0.002916  -0.022142  -0.000732   0.006889  -0.000060
     4  C    0.015694  -0.000732  -0.000732  -0.018942  -0.044104   0.006304
     5  C   -0.156209   0.006889   0.006889  -0.044104   0.707580  -0.009744
     6  H    0.002033  -0.000127  -0.000060   0.006304  -0.009744   0.007959
     7  H    0.002033  -0.000060  -0.000127   0.006304  -0.009744   0.001697
     8  H   -0.001369   0.000061   0.000061  -0.002366   0.000014  -0.005539
     9  H   -0.040317   0.006598   0.006598  -0.000006   0.064729   0.000123
    10  H    0.008313  -0.000388  -0.000570   0.007465  -0.022278   0.000505
    11  H    0.008312  -0.000570  -0.000388   0.007465  -0.022277   0.001273
               7          8          9         10         11
     1  N    0.002033  -0.001369  -0.040317   0.008313   0.008312
     2  H   -0.000060   0.000061   0.006598  -0.000388  -0.000570
     3  H   -0.000127   0.000061   0.006598  -0.000570  -0.000388
     4  C    0.006304  -0.002366  -0.000006   0.007465   0.007465
     5  C   -0.009744   0.000014   0.064729  -0.022278  -0.022277
     6  H    0.001697  -0.005539   0.000123   0.000505   0.001273
     7  H    0.007959  -0.005539   0.000123   0.001273   0.000505
     8  H   -0.005539   0.050470  -0.000576  -0.002914  -0.002914
     9  H    0.000123  -0.000576  -0.181413   0.004465   0.004466
    10  H    0.001273  -0.002914   0.004465  -0.010823   0.003865
    11  H    0.000505  -0.002914   0.004466   0.003865  -0.010825
 Mulliken charges and spin densities:
               1          2
     1  N   -0.568478   0.657146
     2  H    0.221998  -0.018047
     3  H    0.221999  -0.018047
     4  C   -0.285027  -0.023651
     5  C   -0.319947   0.521745
     6  H    0.106728   0.004425
     7  H    0.106730   0.004425
     8  H    0.110430   0.029389
     9  H    0.190422  -0.135210
    10  H    0.107573  -0.011087
    11  H    0.107573  -0.011088
 Sum of Mulliken charges =  -0.00000   1.00000
 Mulliken charges and spin densities with hydrogens summed into heavy atoms:
               1          2
     1  N   -0.124481   0.621052
     4  C    0.038861   0.014588
     5  C    0.085620   0.364360
 APT charges:
               1
     1  N   -0.179723
     2  H    0.128724
     3  H    0.128725
     4  C   -0.019044
     5  C    0.367059
     6  H   -0.004722
     7  H   -0.004721
     8  H   -0.020252
     9  H   -0.257296
    10  H   -0.069374
    11  H   -0.069376
 Sum of APT charges =  -0.00000
 APT charges with hydrogens summed into heavy atoms:
               1
     1  N    0.077726
     4  C   -0.048740
     5  C   -0.028987
 Electronic spatial extent (au):  <R**2>=            319.2982
 Charge=             -0.0000 electrons
 Dipole moment (field-independent basis, Debye):
    X=              0.1379    Y=              1.6705    Z=              0.0001  Tot=              1.6762
 Quadrupole moment (field-independent basis, Debye-Ang):
   XX=            -20.9380   YY=            -23.9620   ZZ=            -20.2844
   XY=             -3.3066   XZ=             -0.0003   YZ=             -0.0002
 Traceless Quadrupole moment (field-independent basis, Debye-Ang):
   XX=              0.7902   YY=             -2.2339   ZZ=              1.4437
   XY=             -3.3066   XZ=             -0.0003   YZ=             -0.0002
 Octapole moment (field-independent basis, Debye-Ang**2):
  XXX=             -8.4222  YYY=              1.7064  ZZZ=              0.0003  XYY=              2.0466
  XXY=              7.2178  XXZ=              0.0005  XZZ=             -4.2291  YZZ=              0.6953
  YYZ=              0.0000  XYZ=              0.0005
 Hexadecapole moment (field-independent basis, Debye-Ang**3):
 XXXX=           -297.7644 YYYY=            -81.3652 ZZZZ=            -39.4252 XXXY=            -12.9526
 XXXZ=             -0.0008 YYYX=             -4.2411 YYYZ=             -0.0003 ZZZX=             -0.0007
 ZZZY=             -0.0002 XXYY=            -72.9652 XXZZ=            -52.4838 YYZZ=            -17.9798
 XXYZ=             -0.0011 YYXZ=             -0.0001 ZZXY=             -1.6657
 N-N= 7.872440029954D+01 E-N=-4.722963850081D+02  KE= 1.349621503502D+02
  Exact polarizability:  64.758   5.633  37.807   0.000  -0.000  35.008
 Approx polarizability:  53.911   4.996  39.433   0.000  -0.000  39.399
                          Isotropic Fermi Contact Couplings
        Atom                 a.u.       MegaHertz       Gauss      10(-4) cm-1
     1  N(14)              0.09700      31.34061      11.18311      10.45410
     2  H(1)              -0.00848     -37.89472     -13.52178     -12.64032
     3  H(1)              -0.00848     -37.89481     -13.52181     -12.64035
     4  C(13)             -0.00992     -11.14719      -3.97759      -3.71830
     5  C(13)              0.15370     172.79016      61.65582      57.63659
     6  H(1)               0.00224      10.03246       3.57983       3.34647
     7  H(1)               0.00224      10.03247       3.57983       3.34647
     8  H(1)               0.01485      66.37877      23.68559      22.14157
     9  H(1)              -0.02593    -115.92325     -41.36430     -38.66783
    10  H(1)              -0.00416     -18.57741      -6.62888      -6.19676
    11  H(1)              -0.00416     -18.57797      -6.62908      -6.19694
 --------------------------------------------------------
       Center         ----  Spin Dipole Couplings  ----
                      3XX-RR        3YY-RR        3ZZ-RR
 --------------------------------------------------------
     1   Atom        0.880780     -0.149815     -0.730965
     2   Atom       -0.002545     -0.022678      0.025223
     3   Atom       -0.002540     -0.022662      0.025201
     4   Atom        0.023478     -0.007627     -0.015852
     5   Atom        0.458215     -0.148636     -0.309579
     6   Atom        0.001376      0.002663     -0.004039
     7   Atom        0.001376      0.002663     -0.004039
     8   Atom        0.008128     -0.001309     -0.006819
     9   Atom        0.193487     -0.071288     -0.122199
    10   Atom       -0.006852     -0.007677      0.014529
    11   Atom       -0.006852     -0.007679      0.014531
 --------------------------------------------------------
                        XY            XZ            YZ
 --------------------------------------------------------
     1   Atom        0.976765      0.000033      0.000019
     2   Atom       -0.000118     -0.043171      0.052275
     3   Atom       -0.000128      0.043173     -0.052283
     4   Atom       -0.013194      0.000000      0.000000
     5   Atom        0.357918      0.000006      0.000003
     6   Atom       -0.006147      0.004425     -0.005563
     7   Atom       -0.006147     -0.004425      0.005563
     8   Atom       -0.002160      0.000000      0.000000
     9   Atom        0.126214      0.000002      0.000001
    10   Atom        0.014067      0.001503     -0.034422
    11   Atom        0.014067     -0.001502      0.034421
 --------------------------------------------------------


 ---------------------------------------------------------------------------------
              Anisotropic Spin Dipole Couplings in Principal Axis System
 ---------------------------------------------------------------------------------

       Atom             a.u.   MegaHertz   Gauss  10(-4) cm-1        Axes

              Baa    -0.7389   -28.497   -10.168    -9.505 -0.5164  0.8563  0.0001
     1 N(14)  Bbb    -0.7310   -28.192   -10.059    -9.404  0.0000 -0.0001  1.0000
              Bcc     1.4698    56.688    20.228    18.909  0.8563  0.5164  0.0000
 
              Baa    -0.0664   -35.405   -12.633   -11.810 -0.3972  0.7038 -0.5890
     2 H(1)   Bbb    -0.0101    -5.386    -1.922    -1.797  0.8078  0.5727  0.1397
              Bcc     0.0765    40.791    14.555    13.606 -0.4356  0.4203  0.7960
 
              Baa    -0.0664   -35.405   -12.633   -11.810 -0.3971  0.7037  0.5891
     3 H(1)   Bbb    -0.0101    -5.386    -1.922    -1.796  0.8078  0.5727 -0.1396
              Bcc     0.0765    40.791    14.555    13.606  0.4357 -0.4204  0.7959
 
              Baa    -0.0159    -2.127    -0.759    -0.710 -0.0000 -0.0000  1.0000
     4 C(13)  Bbb    -0.0125    -1.673    -0.597    -0.558  0.3446  0.9388  0.0000
              Bcc     0.0283     3.800     1.356     1.268  0.9388 -0.3446  0.0000
 
              Baa    -0.3144   -42.194   -15.056   -14.074 -0.4203  0.9074 -0.0000
     5 C(13)  Bbb    -0.3096   -41.543   -14.823   -13.857 -0.0000  0.0000  1.0000
              Bcc     0.6240    83.737    29.879    27.932  0.9074  0.4203  0.0000
 
              Baa    -0.0073    -3.915    -1.397    -1.306 -0.1840  0.3890  0.9027
     6 H(1)   Bbb    -0.0041    -2.195    -0.783    -0.732  0.7788  0.6180 -0.1076
              Bcc     0.0115     6.110     2.180     2.038 -0.5997  0.6832 -0.4167
 
              Baa    -0.0073    -3.915    -1.397    -1.306  0.1840 -0.3890  0.9027
     7 H(1)   Bbb    -0.0041    -2.195    -0.783    -0.732  0.7788  0.6180  0.1076
              Bcc     0.0115     6.111     2.180     2.038 -0.5997  0.6832  0.4167
 
              Baa    -0.0068    -3.638    -1.298    -1.214 -0.0000 -0.0000  1.0000
     8 H(1)   Bbb    -0.0018    -0.950    -0.339    -0.317  0.2130  0.9770  0.0000
              Bcc     0.0086     4.588     1.637     1.530  0.9770 -0.2130  0.0000
 
              Baa    -0.1222   -65.199   -23.265   -21.748  0.0001 -0.0002  1.0000
     9 H(1)   Bbb    -0.1218   -64.993   -23.191   -21.679 -0.3716  0.9284  0.0003
              Bcc     0.2440   130.192    46.456    43.427  0.9284  0.3716  0.0000
 
              Baa    -0.0377   -20.122    -7.180    -6.712 -0.3757  0.7689  0.5174
    10 H(1)   Bbb    -0.0030    -1.589    -0.567    -0.530  0.9140  0.2149  0.3442
              Bcc     0.0407    21.711     7.747     7.242 -0.1534 -0.6022  0.7835
 
              Baa    -0.0377   -20.122    -7.180    -6.712 -0.3757  0.7689 -0.5174
    11 H(1)   Bbb    -0.0030    -1.589    -0.567    -0.530  0.9140  0.2150 -0.3442
              Bcc     0.0407    21.711     7.747     7.242  0.1534  0.6022  0.7835
 

 ---------------------------------------------------------------------------------

 No NMR shielding tensors so no spin-rotation constants.
 Leave Link  601 at Sun Nov 13 01:52:05 2022, MaxMem=   939524096 cpu:         2.8
 (Enter /Local/ce_dana/g09/l701.exe)
 Compute integral second derivatives.
 ... and contract with generalized density number  2.
 Use density number 2.
 R6Disp: Adding Grimme-D3(BJ) dispersion energy 2nd derivatives to the Hessian.
 Entering OneElI...
 Calculate overlap and kinetic energy integrals
    NBasis = 156  MinDer = 2  MaxDer = 2
 Requested accuracy = 0.1000D-14
 PrsmSu:  NPrtUS=  10 ThrOK=T IAlg=1 NPAlg=1 LenDen=           0.
 Prism:   IPart=     0 DynPar=F LinDyn=F Incr=           2.
 PRISM was handed    93890519 working-precision words and  2141 shell-pairs
 PRISM was handed    93890519 working-precision words and  2141 shell-pairs
 PRISM was handed    93890519 working-precision words and  2141 shell-pairs
 PRISM was handed    93890519 working-precision words and  2141 shell-pairs
 PRISM was handed    93890519 working-precision words and  2141 shell-pairs
 PRISM was handed    93890519 working-precision words and  2141 shell-pairs
 PRISM was handed    93890519 working-precision words and  2141 shell-pairs
 PRISM was handed    93890519 working-precision words and  2141 shell-pairs
 PRISM was handed    93890519 working-precision words and  2141 shell-pairs
 PRISM was handed    93890519 working-precision words and  2141 shell-pairs
 IPart=  8 NShTot=         199 NBatch=          29 AvBLen=         6.9
 IPart=  9 NShTot=         194 NBatch=          24 AvBLen=         8.1
 IPart=  5 NShTot=         213 NBatch=          35 AvBLen=         6.1
 IPart=  1 NShTot=         229 NBatch=          42 AvBLen=         5.5
 IPart=  7 NShTot=         206 NBatch=          31 AvBLen=         6.6
 IPart=  0 NShTot=         237 NBatch=          45 AvBLen=         5.3
 IPart=  3 NShTot=         217 NBatch=          35 AvBLen=         6.2
 IPart=  4 NShTot=         215 NBatch=          35 AvBLen=         6.1
 IPart=  6 NShTot=         209 NBatch=          32 AvBLen=         6.5
 IPart=  2 NShTot=         222 NBatch=          38 AvBLen=         5.8
 PrSmSu:  NxtVal=             21.
 Entering OneElI...
 Calculate potential energy integrals
    NBasis = 156  MinDer = 2  MaxDer = 2
 Requested accuracy = 0.1000D-14
 PrsmSu:  NPrtUS=  10 ThrOK=T IAlg=1 NPAlg=1 LenDen=           0.
 Prism:   IPart=     0 DynPar=F LinDyn=F Incr=          23.
 PRISM was handed    93896693 working-precision words and  2100 shell-pairs
 PRISM was handed    93896693 working-precision words and  2100 shell-pairs
 PRISM was handed    93896693 working-precision words and  2100 shell-pairs
 PRISM was handed    93896693 working-precision words and  2100 shell-pairs
 PRISM was handed    93896693 working-precision words and  2100 shell-pairs
 PRISM was handed    93896693 working-precision words and  2100 shell-pairs
 PRISM was handed    93896693 working-precision words and  2100 shell-pairs
 PRISM was handed    93896693 working-precision words and  2100 shell-pairs
 PRISM was handed    93896693 working-precision words and  2100 shell-pairs
 PRISM was handed    93896693 working-precision words and  2100 shell-pairs
 IPart=  8 NShTot=        2123 NBatch=         193 AvBLen=        11.0
 IPart=  6 NShTot=        2233 NBatch=         203 AvBLen=        11.0
 IPart=  2 NShTot=        2409 NBatch=         219 AvBLen=        11.0
 IPart=  4 NShTot=        2321 NBatch=         211 AvBLen=        11.0
 IPart=  1 NShTot=        2486 NBatch=         226 AvBLen=        11.0
 IPart=  0 NShTot=        2574 NBatch=         234 AvBLen=        11.0
 IPart=  3 NShTot=        2354 NBatch=         214 AvBLen=        11.0
 IPart=  9 NShTot=        2090 NBatch=         190 AvBLen=        11.0
 IPart=  5 NShTot=        2299 NBatch=         209 AvBLen=        11.0
 IPart=  7 NShTot=        2211 NBatch=         201 AvBLen=        11.0
 PrSmSu:  NxtVal=            231.
   1 Symmetry operations used in ECPInt.
 ECPInt:  NShTT=    2145 NPrTT=    5976 LenC2=    2134 LenP2D=    5180.
 LDataN:  DoStor=F MaxTD1= 8 Len=  415
 LDataN:  DoStor=T MaxTD1= 8 Len=  415
 ECPSu:  NPrtUS=  10 ThrOK=T
 Polarizability after L701:
                1             2             3 
      1  0.647577D+02
      2  0.563256D+01  0.378074D+02
      3  0.755583D-04 -0.657713D-04  0.350080D+02
 Dipole Derivatives after L701:
                 1             2             3             4             5 
      1  -0.599317D-02  0.414233D-01 -0.521005D-05  0.190714D+00  0.708760D-01
      2  -0.155166D-01 -0.297151D+00 -0.493242D-05  0.713008D-01  0.116302D+00
      3  -0.478628D-05 -0.461019D-05 -0.236026D+00  0.373367D-01 -0.136441D+00
                 6             7             8             9            10 
      1  -0.270854D-02  0.190711D+00  0.708827D-01  0.271396D-02 -0.158458D+00
      2  -0.112682D+00  0.713129D-01  0.116263D+00  0.112685D+00  0.690801D-02
      3   0.791574D-01 -0.373318D-01  0.136443D+00  0.792004D-01  0.000000D+00
                11            12            13            14            15 
      1  -0.110691D+00 -0.239280D-05  0.862618D+00  0.151938D+00  0.130148D-05
      2   0.377726D-01 -0.115134D-05  0.195153D+00  0.115239D+00  0.000000D+00
      3   0.000000D+00  0.635523D-01  0.249935D-05  0.000000D+00  0.123320D+00
                16            17            18            19            20 
      1   0.626398D-01  0.458586D-01  0.341877D-02  0.626408D-01  0.458593D-01
      2  -0.332110D-02 -0.141007D-01  0.994173D-01 -0.331953D-02 -0.140956D-01
      3   0.340436D-01  0.794367D-01 -0.627051D-01 -0.340426D-01 -0.794344D-01
                21            22            23            24            25 
      1  -0.341664D-02 -0.175504D+00  0.374957D-01  0.000000D+00 -0.851534D+00
      2  -0.994150D-01 -0.335133D-01  0.348300D-01  0.000000D+00 -0.240257D+00
      3  -0.627079D-01 -0.102883D-05  0.000000D+00  0.799176D-01 -0.293193D-05
                26            27            28            29            30 
      1  -0.312932D+00  0.000000D+00 -0.889159D-01 -0.203545D-01 -0.237924D-01
      2   0.118849D-01  0.292433D-05 -0.243735D-01 -0.534744D-01  0.927569D-01
      3   0.176275D-05  0.677619D-01  0.108114D-01  0.760610D-01 -0.657331D-01
                31            32            33 
      1  -0.889179D-01 -0.203556D-01  0.237910D-01
      2  -0.243739D-01 -0.534711D-01 -0.927570D-01
      3  -0.108115D-01 -0.760602D-01 -0.657377D-01
 Hessian after L701:
                1             2             3             4             5 
      1  0.460354D+01
      2 -0.114104D+00  0.670884D+01
      3 -0.201042D-04  0.128419D-03  0.508806D+01
      4 -0.286062D+01 -0.495574D+00 -0.804773D+00  0.266508D+01
      5 -0.425930D+00 -0.264985D+01  0.939722D+00  0.461646D+00  0.259555D+01
      6 -0.748730D+00  0.102863D+01 -0.159644D+01  0.820829D+00 -0.980919D+00
      7 -0.286053D+01 -0.495757D+00  0.804764D+00  0.749217D-01 -0.871483D-02
      8 -0.426100D+00 -0.264955D+01 -0.939860D+00 -0.871475D-02  0.712258D-01
      9  0.748735D+00 -0.102877D+01 -0.159684D+01 -0.110652D-01  0.294616D-01
     10  0.337574D+00 -0.356467D-01  0.187550D-05  0.397521D-01 -0.179562D-01
     11 -0.420998D-02 -0.189433D+00  0.167528D-05 -0.548767D-02 -0.157650D-01
     12  0.000000D+00  0.000000D+00 -0.213834D+00 -0.158553D-01  0.562702D-02
     13  0.346535D+00  0.129608D+00 -0.124429D-05  0.127275D+00  0.778844D-02
     14 -0.947670D-02 -0.149814D+00 -0.332274D-05  0.298080D-01 -0.552586D-01
     15 -0.692987D-05 -0.338045D-05 -0.106426D+00 -0.566436D-01  0.191663D-02
     16  0.646794D-01 -0.158189D-01  0.259204D-01  0.266666D-02 -0.261406D-02
     17 -0.396001D-01 -0.287931D-01 -0.121611D-01 -0.491597D-02  0.186915D-02
     18  0.561962D-01 -0.522677D-02 -0.169119D-01  0.480364D-02 -0.357535D-02
     19  0.646806D-01 -0.158178D-01 -0.259189D-01  0.527352D-03 -0.138064D-02
     20 -0.395985D-01 -0.287938D-01  0.121593D-01 -0.346156D-02  0.162074D-02
     21 -0.561963D-01  0.522621D-02 -0.169139D-01 -0.493210D-02  0.406113D-02
     22  0.244374D-01  0.135552D-01  0.109927D-05  0.631953D-02 -0.344782D-02
     23  0.694479D-02 -0.665653D-02  0.000000D+00  0.110385D-02 -0.138685D-02
     24  0.000000D+00  0.000000D+00 -0.107689D-01 -0.679307D-03  0.297846D-03
     25  0.218470D+00  0.897599D+00  0.239083D-04 -0.568494D-01 -0.532984D-02
     26  0.893880D+00 -0.106328D+01  0.106095D-04  0.167008D-01  0.590007D-01
     27  0.213598D-04  0.904445D-05 -0.150200D+01  0.723972D-01  0.428582D-02
     28  0.306187D-01  0.659799D-01 -0.356361D-01  0.456174D-02 -0.203382D-03
     29  0.790991D-01  0.286646D-01 -0.385766D-01  0.648739D-02 -0.365858D-02
     30 -0.571394D-01 -0.588762D-01 -0.139619D-01 -0.993581D-02  0.134832D-02
     31  0.306157D-01  0.659759D-01  0.356379D-01 -0.363237D-02 -0.385817D-02
     32  0.790947D-01  0.286621D-01  0.385792D-01  0.240753D-02 -0.334274D-02
     33  0.571405D-01  0.588772D-01 -0.139560D-01  0.585406D-02 -0.222571D-02
                6             7             8             9            10 
      6  0.173992D+01
      7  0.110517D-01  0.266498D+01
      8 -0.294270D-01  0.461829D+00  0.259524D+01
      9 -0.145693D+00 -0.820810D+00  0.981026D+00  0.174032D+01
     10 -0.274744D-01  0.397544D-01 -0.179602D-01  0.274711D-01  0.845674D+01
     11 -0.532876D-03 -0.548992D-02 -0.157644D-01  0.531485D-03  0.134796D+01
     12 -0.628544D-02  0.158542D-01 -0.562790D-02 -0.628741D-02  0.125134D-04
     13 -0.952465D-01  0.127281D+00  0.777336D-02  0.952369D-01 -0.236919D+01
     14 -0.533699D-02  0.297990D-01 -0.552584D-01  0.533170D-02 -0.215244D+01
     15 -0.350754D-01  0.566386D-01 -0.192096D-02 -0.350820D-01 -0.211407D-04
     16 -0.236138D-02  0.527458D-03 -0.138082D-02  0.163582D-02 -0.281895D+01
     17  0.414015D-02 -0.346192D-02  0.162147D-02 -0.424906D-02  0.140056D+00
     18 -0.580566D-02  0.493219D-02 -0.406183D-02  0.514860D-02 -0.166152D+00
     19 -0.163613D-02  0.266626D-02 -0.261423D-02  0.236080D-02 -0.281895D+01
     20  0.424936D-02 -0.491587D-02  0.186983D-02 -0.413942D-02  0.140048D+00
     21  0.514959D-02 -0.480389D-02  0.357612D-02 -0.580490D-02  0.166149D+00
     22 -0.642590D-02  0.631970D-02 -0.344878D-02  0.642506D-02 -0.958298D+00
     23 -0.987412D-03  0.110380D-02 -0.138689D-02  0.987204D-03  0.543967D+00
     24 -0.456316D-03  0.679278D-03 -0.297903D-03 -0.456336D-03  0.127342D-04
     25  0.604551D-01 -0.568561D-01 -0.532079D-02 -0.604496D-01  0.788144D-01
     26 -0.725608D-02  0.167126D-01  0.589991D-01  0.725786D-02  0.310144D-01
     27  0.418503D-01 -0.723877D-01 -0.428303D-02  0.418578D-01 -0.103080D-05
     28 -0.645670D-02 -0.363201D-02 -0.385864D-02  0.400439D-02  0.637631D-02
     29 -0.712381D-02  0.240823D-02 -0.334348D-02  0.543927D-02  0.104808D-01
     30  0.847965D-02 -0.585435D-02  0.222675D-02 -0.563505D-02 -0.223958D-02
     31 -0.400454D-02  0.456205D-02 -0.204106D-03  0.645613D-02  0.637776D-02
     32 -0.543994D-02  0.648716D-02 -0.365947D-02  0.712267D-02  0.104825D-01
     33 -0.563578D-02  0.993626D-02 -0.134991D-02  0.847879D-02  0.224084D-02
               11            12            13            14            15 
     11  0.875712D+01
     12 -0.110554D-04  0.101348D+02
     13 -0.211080D+01 -0.196729D-04  0.745450D+01
     14 -0.181720D+01  0.218275D-04  0.127734D+01  0.771796D+01
     15  0.223485D-04 -0.423012D+01  0.192623D-04 -0.124003D-04  0.905966D+01
     16  0.818071D-01 -0.929856D-01  0.224645D-02  0.285211D-01 -0.293910D-01
     17 -0.210045D+01 -0.964570D+00 -0.424381D-02  0.288598D-01 -0.183216D-01
     18 -0.942716D+00 -0.155920D+01  0.240862D-02 -0.463449D-01  0.516355D-01
     19  0.818003D-01  0.929810D-01  0.224558D-02  0.285206D-01  0.293915D-01
     20 -0.210049D+01  0.964558D+00 -0.424345D-02  0.288586D-01  0.183215D-01
     21  0.942704D+00 -0.155916D+01 -0.240885D-02  0.463450D-01  0.516373D-01
     22  0.579300D+00  0.132001D-04  0.883166D-01  0.534301D-02  0.000000D+00
     23 -0.253338D+01  0.381947D-05  0.361474D-01  0.184383D-01  0.000000D+00
     24  0.391590D-05 -0.269201D+01  0.000000D+00  0.000000D+00  0.252890D-02
     25  0.760541D-02 -0.110056D-05 -0.107990D+00  0.781750D+00  0.245581D-04
     26  0.429200D-02  0.000000D+00  0.740320D+00 -0.137993D+01  0.110786D-04
     27  0.000000D+00  0.204016D-01  0.231508D-04  0.116017D-04 -0.172983D+01
     28  0.137591D-01 -0.194465D-01 -0.283561D+01 -0.957714D-02  0.409262D-01
     29  0.553502D-02 -0.987029D-02 -0.398403D-01 -0.216831D+01 -0.963258D+00
     30 -0.357783D-01  0.558694D-01  0.754081D-01 -0.923136D+00 -0.151449D+01
     31  0.137594D-01  0.194472D-01 -0.283561D+01 -0.958409D-02 -0.409376D-01
     32  0.553320D-02  0.986737D-02 -0.398471D-01 -0.216835D+01  0.963245D+00
     33  0.357752D-01  0.558713D-01 -0.754203D-01  0.923123D+00 -0.151444D+01
               16            17            18            19            20 
     16  0.273682D+01
     17 -0.291408D-01  0.199961D+01
     18  0.298797D-01  0.101137D+01  0.155464D+01
     19  0.364895D-01  0.321603D-02  0.111706D-01  0.273682D+01
     20  0.321618D-02  0.528095D-01  0.209115D-01 -0.291357D-01  0.199966D+01
     21 -0.111699D-01 -0.209085D-01 -0.748091D-01 -0.298746D-01 -0.101136D+01
     22 -0.117193D-02 -0.499058D-01  0.399789D-01 -0.117131D-02 -0.499045D-01
     23 -0.595029D-01  0.346623D-02  0.283390D-01 -0.595011D-01  0.346789D-02
     24  0.682553D-01  0.455700D-01  0.217210D-01 -0.682567D-01 -0.455707D-01
     25 -0.866182D-02  0.238797D-02 -0.203668D-03 -0.866161D-02  0.238742D-02
     26  0.648425D-02 -0.150762D-02  0.830323D-03  0.648376D-02 -0.150764D-02
     27 -0.532248D-02  0.183142D-02  0.159427D-02  0.532207D-02 -0.183103D-02
     28 -0.142910D-01 -0.155201D-01  0.159317D-01 -0.351950D-03  0.112844D-02
     29 -0.156994D-01  0.413561D-01 -0.509243D-01  0.412796D-02  0.115647D-02
     30  0.154754D-01 -0.518502D-01  0.269823D-01 -0.635613D-04 -0.914918D-02
     31 -0.351812D-03  0.112851D-02  0.105375D-02 -0.142908D-01 -0.155201D-01
     32  0.412823D-02  0.115600D-02 -0.860076D-02 -0.156993D-01  0.413537D-01
     33  0.636872D-04  0.914924D-02 -0.498732D-02 -0.154760D-01  0.518504D-01
               21            22            23            24            25 
     21  0.155459D+01
     22 -0.399801D-01  0.751194D+00
     23 -0.283397D-01 -0.477676D+00  0.253775D+01
     24  0.217186D-01 -0.123990D-04 -0.349623D-05  0.266805D+01
     25  0.203071D-03  0.784290D-01  0.210965D-02  0.000000D+00 -0.105130D+00
     26 -0.830120D-03 -0.184813D-02 -0.169544D-01  0.000000D+00 -0.163455D+01
     27  0.159444D-02  0.000000D+00  0.000000D+00 -0.148900D-01 -0.507449D-04
     28 -0.105368D-02  0.281197D-02  0.265218D-02 -0.100092D-02 -0.157824D-01
     29  0.860106D-02 -0.598349D-02 -0.167955D-02 -0.296858D-03 -0.243201D-01
     30 -0.498760D-02  0.113335D-01  0.180215D-02  0.228007D-02  0.783089D-02
     31 -0.159324D-01  0.281230D-02  0.265195D-02  0.100083D-02 -0.157822D-01
     32  0.509245D-01 -0.598351D-02 -0.167950D-02  0.296841D-03 -0.243206D-01
     33  0.269845D-01 -0.113339D-01 -0.180209D-02  0.227987D-02 -0.783286D-02
               26            27            28            29            30 
     26  0.236110D+01
     27 -0.219823D-04  0.312422D+01
     28 -0.376000D-01  0.355433D-01  0.277644D+01
     29 -0.101064D-01  0.241815D-01 -0.185474D-01  0.204527D+01
     30  0.114581D-01  0.760726D-02 -0.338140D-01  0.104689D+01  0.154124D+01
     31 -0.375998D-01 -0.355454D-01  0.488592D-01  0.178714D-02 -0.100128D-02
     32 -0.101057D-01 -0.241832D-01  0.178699D-02  0.651104D-01  0.150652D-01
     33 -0.114598D-01  0.760558D-02  0.100233D-02 -0.150613D-01 -0.103387D+00
               31            32            33 
     31  0.277644D+01
     32 -0.185366D-01  0.204532D+01
     33  0.338255D-01 -0.104688D+01  0.154119D+01
 Leave Link  701 at Sun Nov 13 01:52:05 2022, MaxMem=   939524096 cpu:         5.6
 (Enter /Local/ce_dana/g09/l702.exe)
 L702 exits ... SP integral derivatives will be done elsewhere.
 Leave Link  702 at Sun Nov 13 01:52:05 2022, MaxMem=   939524096 cpu:         0.1
 (Enter /Local/ce_dana/g09/l703.exe)
 Compute integral second derivatives, UseDBF=F ICtDFT=           0.
 Integral derivatives from FoFJK, PRISM(SPDF).
 ICntrl=  10100127.
 Calling FoFJK, ICntrl=  10100127 FMM=F ISym2X=0 I1Cent= 0 IOpClX= 1 NMat=1 NMatS=1 NMatT=0.
 FoFJK:  IHMeth= 1 ICntrl=10100127 DoSepK=F KAlg= 0 I1Cent=   0 FoldK=F
 IRaf=         0 NMat=   1 IRICut=       1 DoRegI=T DoRafI=F ISym2E= 0.
 FoFCou: FMM=F IPFlag=           0 FMFlag=      100000 FMFlg1=         800
         NFxFlg=           0 DoJE=F BraDBF=F KetDBF=F FulRan=T
         wScrn=  0.000000 ICntrl=10100127 IOpCl=  1 I1Cent=           0 NGrid=           0
         NMat0=    1 NMatS0=      1 NMatT0=    0 NMatD0=    1 NMtDS0=    0 NMtDT0=    0
 Symmetry not used in FoFCou.
 FoFCou:  KetSym=F NOpSet=  1 NOpAb=1 NOp=  1.
 FoFCou:  CnvScl= 1.00D+00 Thresh= 1.00D-12 IAcrcy=      10.
 PrismS was handed   939339356 working-precision words and  2129 shell-pairs
 FoFCou: LinMIO=F DoNuc=F BraDBF=F KetDBF=F HaveP=T PDBF=F HaveZ=T HaveW=F
         NIJTC =      10 NIJTAt=       0 NIJTCD=       0 NIJTT =      10
         IJTBeg=       1 IJTEnd=      10 KLTBeg=       1 KLTEnd=      10
         IPTBeg=       1 IPTEnd=      10 IPTBCv=       1 IPTECv=      10
         IZTBeg=       1 IZTEnd=      10 IZTBCv=       1 IZTECv=      10
         IWTBeg=      11 IWTEnd=      10 IWTBCv=      11 IWTECv=      10
         INTBeg=       1 INTEnd=       0 IFTBCv=       1 IFTECv=      10
 NCel replicated for PrismC:     1
 CoulSu:  IncDef=  1024 NBBP=        2267385 NTPThr=   100 NPartT=   10 Incr=        1024 LDynOK=F.
 CoulSu:  NPrtUS=  10 ThrOK=T IAlg=1 NPAlg=1 LenDen=           0 LWGrdD=           0 DoCopy=F.
 Enter PrismC: JobTyp=22 DoJE=F Cont=F.
 PrismC:  IPart=     0 DynPar=T LinDyn=F Incr=        1024 UseFst=F UseS4=T IGathr=2.
 PrismC was handed    93895606 working-precision words and  2129 shell-pairs
 Enter PrismC: JobTyp=22 DoJE=F Cont=F.
 Enter PrismC: JobTyp=22 DoJE=F Cont=F.
 Enter PrismC: JobTyp=22 DoJE=F Cont=F.
 Enter PrismC: JobTyp=22 DoJE=F Cont=F.
 Enter PrismC: JobTyp=22 DoJE=F Cont=F.
 PrismC was handed    93895606 working-precision words and  2129 shell-pairs
 PrismC was handed    93895606 working-precision words and  2129 shell-pairs
 PrismC was handed    93895606 working-precision words and  2129 shell-pairs
 Enter PrismC: JobTyp=22 DoJE=F Cont=F.
 PrismC was handed    93895606 working-precision words and  2129 shell-pairs
 PrismC was handed    93895606 working-precision words and  2129 shell-pairs
 Enter PrismC: JobTyp=22 DoJE=F Cont=F.
 Enter PrismC: JobTyp=22 DoJE=F Cont=F.
 PrismC was handed    93895606 working-precision words and  2129 shell-pairs
 PrismC was handed    93895606 working-precision words and  2129 shell-pairs
 PrismC was handed    93895606 working-precision words and  2129 shell-pairs
 Enter PrismC: JobTyp=22 DoJE=F Cont=F.
 PrismC was handed    93895606 working-precision words and  2129 shell-pairs
 IPart=  3 NShTot=      211312 NShNF=      211312 NShFF=           0 NBatch=        5376 AvBLen=        39.3
 IPart=  1 NShTot=      205898 NShNF=      205898 NShFF=           0 NBatch=        5276 AvBLen=        39.0
 IPart=  7 NShTot=      204290 NShNF=      204290 NShFF=           0 NBatch=        5546 AvBLen=        36.8
 IPart=  5 NShTot=      209264 NShNF=      209264 NShFF=           0 NBatch=        5277 AvBLen=        39.7
 IPart=  4 NShTot=      216207 NShNF=      216207 NShFF=           0 NBatch=        5486 AvBLen=        39.4
 IPart=  2 NShTot=      196832 NShNF=      196832 NShFF=           0 NBatch=        5284 AvBLen=        37.3
 IPart=  9 NShTot=      207607 NShNF=      207607 NShFF=           0 NBatch=        5996 AvBLen=        34.6
 IPart=  8 NShTot=      197302 NShNF=      197302 NShFF=           0 NBatch=        5144 AvBLen=        38.4
 IPart=  0 NShTot=      187731 NShNF=      187731 NShFF=           0 NBatch=        4512 AvBLen=        41.6
 IPart=  6 NShTot=      198974 NShNF=      198974 NShFF=           0 NBatch=        5602 AvBLen=        35.5
 CoulSu:  NxtVal=        2462721.
 ReadGW:  IGet=0 IStart=           1 Next=           1 LGW=           0.
 Remaining memory in FofDFT      895.95 Mw
 CkSvGd:  ISavGI=        -1 IRadAn=       5 IRASav=       5 ISavGd=        -1.
 CalDSu:  NPrtUS=  10 ThrOK=T IAlg=1 NPAlg=2 DoDPD=T LenP=       12246 LenD1P=             0.
 IPart=  0 IRanGd=          0 ScrnBf=T ScrnGd=T RCrit=4.00D+00 DoMicB=T.
 IPart=  9        21794 of        23970 points in      22 batches and      117 microbatches, Max-NSigAt=      11 Max-NSgAt2=      11
 IPart=  5        22364 of        24026 points in      22 batches and      120 microbatches, Max-NSigAt=      11 Max-NSgAt2=      11
 IPart=  7        22908 of        25602 points in      25 batches and      148 microbatches, Max-NSigAt=      11 Max-NSgAt2=      11
 IPart=  1        22438 of        24408 points in      21 batches and      134 microbatches, Max-NSigAt=      11 Max-NSgAt2=      11
 IPart=  4        21373 of        23634 points in      23 batches and      150 microbatches, Max-NSigAt=      11 Max-NSgAt2=      11
 IPart=  6        22196 of        24850 points in      23 batches and      126 microbatches, Max-NSigAt=      11 Max-NSgAt2=      11
 IPart=  3        23109 of        25068 points in      21 batches and      112 microbatches, Max-NSigAt=      11 Max-NSgAt2=      11
 IPart=  8        22239 of        24920 points in      23 batches and      143 microbatches, Max-NSigAt=      11 Max-NSgAt2=      11
 IPart=  2        23315 of        25286 points in      22 batches and      100 microbatches, Max-NSigAt=      11 Max-NSgAt2=      11
 IPart=  0        21645 of        23830 points in      23 batches and      154 microbatches, Max-NSigAt=      11 Max-NSgAt2=      11
 Polarizability after L703:
                1             2             3 
      1  0.647577D+02
      2  0.563256D+01  0.378074D+02
      3  0.755583D-04 -0.657713D-04  0.350080D+02
 Dipole Derivatives after L703:
                 1             2             3             4             5 
      1  -0.599317D-02  0.414233D-01 -0.521005D-05  0.190714D+00  0.708760D-01
      2  -0.155166D-01 -0.297151D+00 -0.493242D-05  0.713008D-01  0.116302D+00
      3  -0.478628D-05 -0.461019D-05 -0.236026D+00  0.373367D-01 -0.136441D+00
                 6             7             8             9            10 
      1  -0.270854D-02  0.190711D+00  0.708827D-01  0.271396D-02 -0.158458D+00
      2  -0.112682D+00  0.713129D-01  0.116263D+00  0.112685D+00  0.690801D-02
      3   0.791574D-01 -0.373318D-01  0.136443D+00  0.792004D-01  0.000000D+00
                11            12            13            14            15 
      1  -0.110691D+00 -0.239280D-05  0.862618D+00  0.151938D+00  0.130148D-05
      2   0.377726D-01 -0.115134D-05  0.195153D+00  0.115239D+00  0.000000D+00
      3   0.000000D+00  0.635523D-01  0.249935D-05  0.000000D+00  0.123320D+00
                16            17            18            19            20 
      1   0.626398D-01  0.458586D-01  0.341877D-02  0.626408D-01  0.458593D-01
      2  -0.332110D-02 -0.141007D-01  0.994173D-01 -0.331953D-02 -0.140956D-01
      3   0.340436D-01  0.794367D-01 -0.627051D-01 -0.340426D-01 -0.794344D-01
                21            22            23            24            25 
      1  -0.341664D-02 -0.175504D+00  0.374957D-01  0.000000D+00 -0.851534D+00
      2  -0.994150D-01 -0.335133D-01  0.348300D-01  0.000000D+00 -0.240257D+00
      3  -0.627079D-01 -0.102883D-05  0.000000D+00  0.799176D-01 -0.293193D-05
                26            27            28            29            30 
      1  -0.312932D+00  0.000000D+00 -0.889159D-01 -0.203545D-01 -0.237924D-01
      2   0.118849D-01  0.292433D-05 -0.243735D-01 -0.534744D-01  0.927569D-01
      3   0.176275D-05  0.677619D-01  0.108114D-01  0.760610D-01 -0.657331D-01
                31            32            33 
      1  -0.889179D-01 -0.203556D-01  0.237910D-01
      2  -0.243739D-01 -0.534711D-01 -0.927570D-01
      3  -0.108115D-01 -0.760602D-01 -0.657377D-01
 Hessian after L703:
                1             2             3             4             5 
      1  0.180499D+00
      2 -0.151134D+00  0.251479D+00
      3  0.000000D+00 -0.203911D-04  0.556363D+00
      4 -0.815821D-01  0.694800D-01  0.109307D+00  0.848929D-01
      5  0.857811D-01 -0.118409D+00 -0.171445D+00 -0.739824D-01  0.112527D+00
      6  0.941820D-01 -0.123007D+00 -0.265999D+00 -0.107869D+00  0.145001D+00
      7 -0.815935D-01  0.695044D-01 -0.109307D+00  0.578105D-02 -0.481576D-02
      8  0.858058D-01 -0.118455D+00  0.171464D+00 -0.481445D-02  0.520410D-02
      9 -0.941794D-01  0.123027D+00 -0.265942D+00 -0.157972D-01  0.212099D-01
     10  0.117185D-01  0.515288D-02  0.000000D+00 -0.100399D-02 -0.737594D-03
     11  0.121735D-02  0.149000D-02  0.000000D+00 -0.495837D-03 -0.305875D-03
     12  0.000000D+00  0.000000D+00 -0.368689D-03 -0.227659D-04 -0.205330D-03
     13 -0.110861D+00 -0.485857D-01  0.000000D+00  0.104175D-02  0.252946D-02
     14 -0.536672D-01 -0.215089D-01  0.000000D+00  0.207845D-02  0.182168D-02
     15 -0.164550D-05 -0.103302D-05  0.435840D-02  0.107000D-03  0.195314D-02
     16 -0.248279D-03 -0.478800D-03  0.366045D-03  0.161745D-04  0.653911D-04
     17  0.363706D-03  0.347152D-03 -0.144536D-03  0.523482D-05 -0.642606D-04
     18 -0.524504D-03 -0.334425D-03  0.711622D-04  0.977277D-04  0.386205D-05
     19 -0.248288D-03 -0.478756D-03 -0.366012D-03  0.273477D-03 -0.963893D-04
     20  0.363718D-03  0.347146D-03  0.144566D-03 -0.200508D-03 -0.258313D-04
     21  0.524521D-03  0.334420D-03  0.711221D-04 -0.160346D-03  0.102087D-03
     22 -0.191770D-03 -0.527964D-03  0.000000D+00  0.119916D-03  0.126647D-04
     23 -0.136658D-02 -0.553991D-03  0.000000D+00  0.105809D-03  0.199210D-03
     24  0.000000D+00  0.000000D+00 -0.296438D-04 -0.265217D-04  0.433445D-04
     25  0.729975D-01  0.532574D-01  0.132877D-05 -0.966407D-02 -0.818818D-02
     26  0.286187D-01  0.400527D-02  0.185522D-05  0.798742D-02 -0.102503D-02
     27  0.000000D+00  0.126515D-05 -0.296708D-01  0.150606D-01  0.365987D-02
     28  0.475552D-02  0.190531D-02 -0.167442D-03  0.187184D-03 -0.795419D-03
     29  0.200865D-02  0.629263D-03 -0.740046D-03  0.200010D-03 -0.127308D-03
     30  0.970774D-03 -0.221160D-03  0.573338D-03 -0.274294D-03 -0.116896D-03
     31  0.475523D-02  0.190507D-02  0.167507D-03 -0.622965D-04  0.227102D-03
     32  0.200862D-02  0.629196D-03  0.739915D-03 -0.363788D-03  0.205542D-03
     33 -0.970577D-03  0.221289D-03  0.573392D-03 -0.422722D-03 -0.206546D-03
                6             7             8             9            10 
      6  0.294061D+00
      7  0.157946D-01  0.849050D-01
      8 -0.212043D-01 -0.740078D-01  0.112572D+00
      9 -0.283765D-01  0.107869D+00 -0.145027D+00  0.294004D+00
     10 -0.527318D-03 -0.100400D-02 -0.737788D-03  0.527299D-03  0.506450D+00
     11 -0.448819D-03 -0.495863D-03 -0.306026D-03  0.448814D-03  0.363185D-01
     12  0.810713D-04  0.228095D-04  0.205238D-03  0.810624D-04  0.000000D+00
     13  0.170696D-02  0.104169D-02  0.252973D-02 -0.170660D-02 -0.115194D+00
     14  0.131886D-02  0.207844D-02  0.182216D-02 -0.131881D-02  0.805454D-01
     15  0.604917D-04 -0.106753D-03 -0.195282D-02  0.601191D-04  0.000000D+00
     16 -0.393073D-04  0.273490D-03 -0.963803D-04 -0.628112D-05 -0.502288D-01
     17  0.972579D-04 -0.200516D-03 -0.258262D-04 -0.656825D-04 -0.185596D-01
     18 -0.252176D-04  0.160345D-03 -0.102102D-03  0.690723D-05  0.265305D-01
     19  0.624803D-05  0.162260D-04  0.653562D-04  0.393054D-04 -0.502285D-01
     20  0.656900D-04  0.519504D-05 -0.642543D-04 -0.972629D-04 -0.185584D-01
     21  0.692867D-05 -0.977582D-04 -0.382606D-05 -0.252012D-04 -0.265300D-01
     22 -0.161548D-03  0.119937D-03  0.126382D-04  0.161553D-03 -0.269149D+00
     23  0.224247D-03  0.105794D-03  0.199287D-03 -0.224224D-03 -0.841371D-01
     24 -0.265793D-04  0.265032D-04 -0.433172D-04 -0.265797D-04 -0.174788D-05
     25 -0.267485D-02 -0.966476D-02 -0.818885D-02  0.267411D-02 -0.351190D-01
     26 -0.180223D-02  0.798989D-02 -0.102476D-02  0.180163D-02  0.643142D-02
     27  0.218883D-04 -0.150588D-01 -0.365960D-02  0.223100D-04  0.000000D+00
     28 -0.183334D-03 -0.623538D-04  0.227079D-03  0.234931D-03  0.187936D-02
     29 -0.138332D-03 -0.363792D-03  0.205553D-03  0.106603D-03 -0.285891D-02
     30 -0.909089D-04  0.422736D-03  0.206510D-03  0.286922D-03  0.697145D-03
     31 -0.234864D-03  0.187252D-03 -0.795370D-03  0.183136D-03  0.187922D-02
     32 -0.106534D-03  0.199978D-03 -0.127294D-03  0.138300D-03 -0.285879D-02
     33  0.286944D-03  0.274229D-03  0.116833D-03 -0.909334D-04 -0.697218D-03
               11            12            13            14            15 
     11  0.517060D+00
     12  0.000000D+00  0.575972D+00
     13  0.712066D-01  0.000000D+00  0.238307D+00
     14 -0.151609D+00  0.000000D+00 -0.907472D-01  0.475031D+00
     15  0.000000D+00 -0.843007D-01 -0.223291D-05 -0.177525D-05  0.590271D+00
     16 -0.199105D-01  0.278196D-01  0.729252D-03  0.141735D-01 -0.209211D-01
     17 -0.134405D+00  0.122298D+00 -0.257070D-02 -0.147002D-01  0.214069D-01
     18  0.122555D+00 -0.225147D+00 -0.134997D-02 -0.630900D-03  0.153825D-02
     19 -0.199093D-01 -0.278192D-01  0.729110D-03  0.141730D-01  0.209214D-01
     20 -0.134400D+00 -0.122296D+00 -0.257058D-02 -0.146997D-01 -0.214073D-01
     21 -0.122554D+00 -0.225154D+00  0.134992D-02  0.630597D-03  0.153791D-02
     22 -0.895715D-01 -0.182576D-05 -0.222327D-01 -0.303545D-02  0.000000D+00
     23 -0.774295D-01  0.000000D+00  0.239102D-01  0.677180D-02  0.000000D+00
     24  0.000000D+00 -0.465534D-01  0.000000D+00  0.000000D+00 -0.410250D-03
     25 -0.664322D-02  0.000000D+00  0.695047D-01  0.355453D-01  0.103234D-05
     26  0.253024D-02  0.000000D+00  0.304962D-01 -0.158035D-01  0.000000D+00
     27  0.000000D+00  0.195163D-03  0.000000D+00  0.000000D+00 -0.339154D-01
     28  0.141422D-01 -0.205568D-01 -0.315325D-01 -0.572682D-03  0.127497D-01
     29 -0.113121D-01  0.195683D-01  0.690056D-02 -0.133566D+00  0.128673D+00
     30 -0.149817D-02  0.259720D-02  0.453722D-02  0.125247D+00 -0.239597D+00
[...]
     22  0.673902D-04  0.172680D-03 -0.685224D-04  0.264467D-04 -0.582668D-01
     23  0.153685D-04 -0.480494D-04  0.172808D-03  0.307489D-04  0.527961D-01
     24  0.207344D-03  0.269774D-03  0.348278D-04 -0.528441D-04  0.208166D-01
     25  0.186250D-02  0.694596D-03 -0.148212D-01 -0.821382D-02  0.957540D-03
     26  0.607584D-02  0.738404D-02 -0.102747D-01 -0.146944D-02  0.273978D-02
     27 -0.675409D-02  0.194583D-02 -0.459027D-02 -0.108707D-02  0.357423D-02
     28 -0.204225D-03  0.103665D-03  0.525809D-03  0.230108D-03 -0.101663D-01
     29  0.682941D-03  0.765170D-04  0.236221D-03 -0.432638D-03 -0.771367D-02
     30  0.282691D-03  0.542679D-05 -0.557610D-04  0.902342D-04 -0.312800D-01
     31 -0.267683D-04 -0.233371D-03  0.116976D-03  0.169663D-04  0.635599D-02
     32 -0.305046D-03  0.517736D-03  0.191858D-04  0.555711D-03  0.269591D-02
     33  0.264902D-03  0.312321D-03 -0.311256D-03  0.183209D-03  0.108865D-01
               11            12            13            14            15 
     11  0.546234D+00
     12 -0.227021D-01  0.496151D+00
     13 -0.179622D-01 -0.525136D-01  0.550582D+00
     14 -0.608745D-01 -0.635640D-02  0.786620D-01  0.269819D+00
     15 -0.139964D-01 -0.184953D+00 -0.945860D-02 -0.112578D+00  0.483208D+00
     16  0.220350D-01  0.181975D-01 -0.132362D-01  0.223139D-03 -0.133191D-04
     17 -0.494024D-01  0.170098D-03 -0.673986D-02 -0.104900D-02 -0.709207D-03
     18 -0.190156D-03 -0.491264D-01 -0.331202D-01  0.141501D-02  0.185251D-02
     19 -0.600200D-01  0.596238D-01  0.577370D-02  0.110936D-01 -0.101362D-01
     20 -0.166501D+00  0.119975D+00  0.300443D-02  0.433525D-02 -0.592192D-02
     21  0.118125D+00 -0.163646D+00  0.109577D-01  0.193500D-01 -0.225416D-01
     22  0.503535D-01  0.188672D-01  0.213436D-02 -0.126676D-01 -0.547845D-02
     23 -0.262070D+00 -0.759080D-01 -0.556027D-03 -0.432369D-02 -0.413527D-02
     24 -0.803538D-01 -0.727950D-01  0.418765D-02 -0.261794D-01 -0.136818D-01
     25 -0.313698D-02 -0.111595D-02 -0.273517D-01 -0.204886D-01 -0.440492D-02
     26 -0.216077D-01 -0.124140D-01 -0.227571D-01  0.614098D-01  0.346574D-01
     27 -0.231104D-01 -0.117435D-01 -0.621602D-02  0.387887D-01 -0.142723D-01
     28  0.105714D-02  0.197253D-02 -0.324086D+00 -0.887294D-02  0.413567D-02
     29  0.714095D-03 -0.557867D-03  0.194647D-02 -0.307847D-01  0.731940D-02
     30  0.823235D-03  0.261672D-02  0.812176D-02  0.587690D-02 -0.498247D-01
     31  0.920817D-02 -0.101687D-01 -0.848271D-01 -0.620312D-01  0.672053D-01
     32  0.567592D-02 -0.762046D-02 -0.661325D-01 -0.129949D+00  0.130020D+00
     33  0.188149D-01 -0.188674D-01  0.685809D-01  0.119236D+00 -0.189919D+00
               16            17            18            19            20 
     16  0.339055D+00
     17 -0.242019D-01  0.487666D-01
     18 -0.168140D-01  0.255793D-02  0.539254D-01
     19 -0.979743D-02 -0.227643D-01  0.215920D-01  0.813769D-01
     20  0.129040D-02  0.210251D-02 -0.342775D-02  0.666629D-01  0.177998D+00
     21  0.662238D-03  0.610971D-03 -0.149064D-02 -0.629188D-01 -0.129661D+00
     22 -0.642625D-02  0.308002D-01  0.107372D-01  0.195702D-02 -0.108011D-01
     23  0.461814D-03 -0.224377D-02 -0.115734D-03  0.544415D-02 -0.199127D-01
     24  0.801334D-03 -0.197829D-02 -0.143587D-02 -0.564001D-02  0.200737D-01
     25 -0.161670D-03 -0.794026D-03 -0.385773D-03  0.172035D-03  0.159270D-03
     26  0.497111D-03  0.101556D-02  0.676847D-03 -0.295123D-03  0.102202D-02
     27  0.869417D-04  0.455793D-03  0.580914D-03  0.165996D-03  0.470762D-04
     28  0.667581D-03 -0.656345D-03 -0.271897D-02  0.582540D-03  0.308983D-03
     29  0.778693D-04  0.953280D-03 -0.131849D-02  0.560766D-03  0.101106D-03
     30 -0.271497D-02 -0.132443D-02 -0.568580D-02  0.708348D-03  0.568736D-03
     31  0.778475D-03  0.598049D-03  0.828302D-03 -0.291450D-03 -0.444463D-03
     32  0.722863D-04 -0.240087D-04  0.426049D-03 -0.876353D-03  0.812158D-03
     33 -0.291443D-03  0.187262D-04  0.128320D-02 -0.333604D-02 -0.194423D-02
               21            22            23            24            25 
     21  0.182372D+00
     22 -0.432827D-02  0.598784D-01
     23 -0.743954D-02 -0.568745D-01  0.285705D+00
     24  0.784985D-02 -0.189090D-01  0.883251D-01  0.814039D-01
     25 -0.290527D-04  0.339125D-03 -0.981035D-03 -0.159817D-02  0.499293D-01
     26  0.134897D-02 -0.204958D-02  0.278607D-02 -0.213497D-02  0.406767D-01
     27  0.240727D-03 -0.245100D-02 -0.190139D-03 -0.382576D-02  0.691324D-02
     28 -0.192730D-03  0.246925D-03 -0.393810D-03 -0.783377D-04 -0.589315D-02
     29 -0.337249D-03  0.357477D-03  0.315251D-03  0.767069D-03  0.195808D-01
     30  0.135401D-02  0.686731D-03 -0.165913D-03  0.996962D-03  0.534296D-02
     31 -0.357332D-02  0.257935D-03 -0.153421D-03  0.284059D-03  0.494853D-03
     32 -0.139989D-02  0.331731D-03  0.407248D-03  0.942765D-03 -0.451778D-02
     33 -0.458565D-02  0.505779D-03 -0.374686D-03  0.893935D-03 -0.659192D-03
               26            27            28            29            30 
     26 -0.746224D-01
     27 -0.365703D-01  0.473616D-01
     28  0.101959D-02  0.819411D-03  0.346031D+00
     29 -0.115842D-01 -0.547714D-02  0.605658D-02  0.337831D-01
     30 -0.260107D-02 -0.163640D-02 -0.301412D-02 -0.312409D-02  0.509037D-01
     31  0.719968D-02 -0.159738D-02 -0.857204D-02 -0.198486D-01  0.223288D-01
     32 -0.206691D-01  0.824246D-02  0.152891D-02  0.178754D-02 -0.128002D-02
     33 -0.708941D-02  0.106080D-02 -0.658685D-03  0.385536D-03  0.822149D-03
               31            32            33 
     31  0.854396D-01
     32  0.671884D-01  0.137499D+00
     33 -0.741895D-01 -0.130702D+00  0.207779D+00
 Final forces over variables, Energy=-1.35607279D+02:
 -2.80609844D-07-2.45067389D-09 4.41745441D-07-2.40249064D-07
  3.23761907D-08-2.12346955D-08 5.15126782D-08-9.60348446D-08
  4.59973879D-08 1.09339969D-07-4.03925484D-08-1.32689898D-07
 -1.50390597D-08 6.42690723D-08-4.36224800D-07 8.86950871D-09
  9.45856608D-08 1.73033083D-07 4.00187563D-07-7.83938787D-08
 -4.58933676D-08-3.27038612D-08 2.18425049D-07-1.75718749D-08
  5.66691547D-08-1.66022656D-07 2.93516784D-07-1.44124443D-09
 -8.86631810D-08 2.99928755D-08-3.64852598D-08-9.83377247D-08
 -1.90081921D-07
 Leave Link  716 at Sun Nov 13 01:53:40 2022, MaxMem=   939524096 cpu:         0.1
 (Enter /Local/ce_dana/g09/l103.exe)

 GradGradGradGradGradGradGradGradGradGradGradGradGradGradGradGradGradGrad
 Berny optimization.
 Search for a local minimum.
 Step number   1 out of a maximum of    2
 All quantities printed in internal units (Hartrees-Bohrs-Radians)
 Second derivative matrix not updated -- analytic derivatives used.
 ITU=  0
     Eigenvalues ---   -0.17391   0.00001   0.00127   0.00227   0.00664
     Eigenvalues ---    0.01667   0.02992   0.03388   0.04342   0.05937
     Eigenvalues ---    0.07381   0.08621   0.09360   0.10055   0.11630
     Eigenvalues ---    0.13645   0.13777   0.14531   0.21820   0.32436
     Eigenvalues ---    0.52148   0.65168   0.70199   0.74369   0.80846
     Eigenvalues ---    0.82336   0.84105
 Eigenvalue     1 is  -1.74D-01 should be greater than     0.000000 Eigenvector:
                          Y9        Y1        Z9        X9        Y5
   1                    0.80928  -0.33361   0.25445  -0.21506  -0.21042
                          Z1        Y10       X1        Y4        Z11
   1                   -0.10125   0.09438   0.09065   0.07076   0.06768
 Angle between quadratic step and forces=  89.24 degrees.
 Linear search not attempted -- first point.
 TrRot=  0.000013  0.000004 -0.000007 -0.000002  0.000002 -0.000002
 Variable       Old X    -DE/DX   Delta X   Delta X   Delta X     New X
                                 (Linear)    (Quad)   (Total)
    X1       -0.61578  -0.00000   0.00000   0.00007   0.00010  -0.61569
    Y1        3.11319  -0.00000   0.00000   0.00003   0.00004   3.11322
    Z1        1.50209   0.00000   0.00000  -0.00004  -0.00005   1.50204
    X2       -1.32618  -0.00000   0.00000  -0.00030  -0.00027  -1.32645
    Y2        2.66829  -0.00000   0.00000  -0.00000   0.00001   2.66830
    Z2        3.24413  -0.00000   0.00000  -0.00020  -0.00021   3.24392
    X3        1.16700   0.00000   0.00000   0.00004   0.00007   1.16707
    Y3        3.76145   0.00000   0.00000  -0.00010  -0.00010   3.76134
    Z3        1.87457   0.00000   0.00000   0.00033   0.00032   1.87489
    X4       -0.63317  -0.00000   0.00000  -0.00003  -0.00003  -0.63320
    Y4       -1.84774  -0.00000   0.00000  -0.00001  -0.00000  -1.84775
    Z4       -2.48884  -0.00000   0.00000   0.00002   0.00001  -2.48882
    X5        0.57352   0.00000   0.00000   0.00004   0.00005   0.57357
    Y5       -1.40986   0.00000   0.00000   0.00001   0.00001  -1.40985
    Z5        0.05693   0.00000   0.00000  -0.00002  -0.00003   0.05690
    X6       -2.68310  -0.00000   0.00000  -0.00003  -0.00003  -2.68313
    Y6       -1.67784   0.00000   0.00000  -0.00002  -0.00000  -1.67785
    Z6       -2.38150  -0.00000   0.00000   0.00008   0.00008  -2.38143
    X7        0.04007   0.00000   0.00000  -0.00008  -0.00007   0.03999
    Y7       -0.48376   0.00000   0.00000  -0.00001  -0.00001  -0.48377
    Z7       -3.87767  -0.00000   0.00000  -0.00001  -0.00001  -3.87769
    X8       -0.19789  -0.00000   0.00000  -0.00004  -0.00005  -0.19794
    Y8       -3.73755   0.00000   0.00000  -0.00001  -0.00001  -3.73756
    Z8       -3.20481   0.00000   0.00000   0.00002   0.00001  -3.20480
    X9       -0.06792   0.00000   0.00000   0.00008   0.00010  -0.06782
    Y9        0.84437  -0.00000   0.00000   0.00003   0.00003   0.84440
    Z9        0.68850  -0.00000   0.00000  -0.00004  -0.00005   0.68845
   X10        2.62951   0.00000   0.00000   0.00004   0.00005   2.62956
   Y10       -1.39179  -0.00000   0.00000   0.00001   0.00001  -1.39179
   Z10        0.04241  -0.00000   0.00000  -0.00008  -0.00009   0.04232
   X11       -0.14383  -0.00000   0.00000   0.00008   0.00009  -0.14374
   Y11       -2.60787  -0.00000   0.00000   0.00003   0.00003  -2.60784
   Z11        1.56616  -0.00000   0.00000   0.00001   0.00001   1.56616
         Item               Value     Threshold  Converged?
 Maximum Force            0.000000     0.000450     YES
 RMS     Force            0.000000     0.000300     YES
 Maximum Displacement     0.000321     0.001800     YES
 RMS     Displacement     0.000095     0.001200     YES
 Predicted change in Energy=-1.204835D-11
 Optimization completed.
    -- Stationary point found.
 GradGradGradGradGradGradGradGradGradGradGradGradGradGradGradGradGradGrad

 Leave Link  103 at Sun Nov 13 01:53:40 2022, MaxMem=   939524096 cpu:         0.0
 (Enter /Local/ce_dana/g09/l9999.exe)

 Test job not archived.
 1\1\GINC-TECH-WN208\Freq\UB2PLYPD3-FC\def2TZVP\C2H8N1(2)\ALONGD\13-Nov
 -2022\0\\#P guess=read ub2plypd3/def2tzvp freq IOp(7/33=1) scf=(tight,
  direct) integral=(grid=ultrafine, Acc2E=12) IOp(2/9=2000) scf=xqc\\TS
 1\\0,2\N,-0.325859,1.647429,0.794873\H,-0.701785,1.411998,1.716719\H,0
 .617548,1.990473,0.99198\C,-0.335061,-0.977784,-1.317035\C,0.303495,-0
 .746067,0.030124\H,-1.419834,-0.887877,-1.260237\H,0.021202,-0.255996,
 -2.051977\H,-0.104717,-1.977826,-1.695912\H,-0.035943,0.446821,0.36433
 8\H,1.391475,-0.736505,0.022444\H,-0.076114,-1.380028,0.828774\\Versio
 n=ES64L-G09RevD.01\State=2-A\HF=-135.423041\MP2=-135.6072792\S2=0.7684
 29\S2-1=0.\S2A=0.750132\RMSD=5.592e-09\RMSF=1.743e-07\ZeroPoint=0.0929
 321\Thermal=0.0988421\Dipole=0.3775933,-0.4093565,0.3606479\DipoleDeri
 v=-0.2559567,-0.0042551,-0.0396772,0.0213392,-0.0954936,0.1510104,-0.0
 192509,0.1044287,-0.1877192,0.2094085,-0.0636549,0.0129643,-0.0520421,
 0.1798926,0.0685148,0.0513168,0.0922322,-0.0031279,-0.0240859,-0.02560
 85,-0.0351255,-0.0376061,0.2477922,-0.0167403,-0.0737846,-0.0397585,0.
 1624685,0.0541119,0.0603437,0.0309775,0.0074864,-0.1231389,-0.1353723,
 -0.0112087,-0.0391641,0.0118938,0.1237284,-0.0770994,-0.0607907,-0.096
 5232,0.7230069,0.3029287,-0.0762931,0.3382833,0.2544419,-0.1308236,-0.
 0105403,-0.0296815,0.0194925,0.08676,0.0079614,0.0188463,-0.0143732,0.
 0298976,0.0383095,-0.0616091,0.0319797,-0.0474317,0.0025025,0.1125157,
 0.0187361,0.0543837,-0.0549747,0.0649949,-0.0012056,-0.0281233,0.03071
 14,-0.0905285,-0.0801338,-0.00265,-0.1382259,-0.0352233,0.0444408,0.17
 10635,0.0940822,0.138394,-0.741127,-0.3936861,0.0680102,-0.3342331,-0.
 0752007,-0.1413064,0.0122825,-0.0301085,0.0266175,-0.0688404,-0.056101
 1,0.0015603,-0.0392508,0.0020234,0.0171787,0.0002832,0.0535031,-0.0104
 377,-0.1208259,0.0391026,0.0247176,0.0156778,-0.1044795\Polar=36.03442
 57,-3.7473841,58.838484,-1.122648,12.1986239,42.7001932\PG=C01 [X(C2H8
 N1)]\NImag=1\\0.45298952,0.16039832,0.12821064,-0.06015643,-0.04975111
 ,0.40714010,-0.07982056,-0.03676230,0.09379014,0.09895862,-0.04894398,
 -0.04750535,0.07913064,0.04663510,0.05036060,0.14552839,0.07519924,-0.
 33866401,-0.13592729,-0.07715033,0.34216111,-0.35191940,-0.13004105,-0
 .04452083,-0.01735382,-0.00509715,-0.01061295,0.36658396,-0.10320720,-
 0.05988611,-0.01724177,-0.01016032,-0.00250344,-0.00262707,0.12916853,
 0.07128530,-0.08456392,-0.03998353,-0.05418539,0.03856643,0.01615480,0
 .00246595,0.05320805,0.02489964,0.05361201,0.00030178,-0.00125720,0.00
 021690,0.00025682,0.00035158,0.00000925,-0.00037169,0.00035526,0.00005
 071,0.55709684,-0.00302624,0.01018530,0.00291519,-0.00001815,-0.001448
 68,0.00016747,0.00094241,-0.00090523,-0.00049329,0.00056732,0.54623412
 ,-0.00119483,0.00613479,0.00235277,0.00004202,-0.00031681,-0.00003693,
 0.00019135,-0.00040474,0.00004795,-0.03390128,-0.02270210,0.49615093,-
 0.00507537,0.03348499,0.00955392,-0.00087905,-0.00090317,-0.00068840,0
 .00224191,-0.00204699,0.00059492,-0.10527670,-0.01796216,-0.05251359,0
 .55058209,0.03120194,-0.11437818,-0.03797278,-0.00044300,0.00398973,-0
 .00212536,-0.00291282,0.00180539,0.00054573,-0.01376452,-0.06087454,-0
 .00635640,0.07866199,0.26981908,0.00773093,-0.03381515,-0.00855830,0.0
 0043803,-0.00082729,-0.00018676,-0.00085493,-0.00001411,-0.00112334,-0
 .04916348,-0.01399641,-0.18495296,-0.00945860,-0.11257796,0.48320831,0
 .00038851,-0.00068381,-0.00014111,-0.00008578,0.00005287,0.00005509,0.
 00007072,0.00017521,0.00017176,-0.31125265,0.02203503,0.01819753,-0.01
 323620,0.00022314,-0.00001332,0.33905469,0.00039359,-0.00023826,-0.000
 01983,-0.00000722,0.00005345,0.00001303,0.00004137,0.00006601,0.000205
 21,0.02333048,-0.04940240,0.00017010,-0.00673986,-0.00104900,-0.000709
 21,-0.02420192,0.04876662,0.00044689,-0.00019987,0.00001979,-0.0001078
 6,-0.00001791,-0.00004098,0.00002378,0.00019407,0.00011784,0.01951864,
 -0.00019016,-0.04912636,-0.03312017,0.00141501,0.00185251,-0.01681405,
 0.00255793,0.05392540,-0.00006586,0.00021034,0.00009154,-0.00008340,0.
 00002156,-0.00006298,0.00001074,-0.00003752,-0.00008766,-0.07963482,-0
 .06001999,0.05962377,0.00577370,0.01109356,-0.01013620,-0.00979743,-0.
 02276430,0.02159204,0.08137693,-0.00010965,0.00002054,0.00024919,0.000
 06179,0.00003721,0.00005393,-0.00003152,-0.00001541,-0.00001293,-0.060
 10102,-0.16650104,0.11997545,0.00300443,0.00433525,-0.00592192,0.00129
 040,0.00210251,-0.00342775,0.06666292,0.17799832,0.00010798,-0.0009492
 2,0.00021530,0.00001025,0.00023542,0.00030077,0.00003218,0.00011645,-0
 .00006856,0.05927187,0.11812530,-0.16364628,0.01095767,0.01935002,-0.0
 2254163,0.00066224,0.00061097,-0.00149064,-0.06291880,-0.12966124,0.18
 237211,-0.00021891,0.00077751,0.00027605,-0.00007453,-0.00015900,0.000
 06739,0.00017268,-0.00006852,0.00002645,-0.05826681,0.05035345,0.01886
 715,0.00213436,-0.01266757,-0.00547845,-0.00642625,0.03080019,0.010737
 17,0.00195702,-0.01080114,-0.00432827,0.05987845,0.00040057,-0.0009957
 7,-0.00004197,-0.00009572,0.00015973,0.00001537,-0.00004805,0.00017281
 ,0.00003075,0.05279608,-0.26206988,-0.07590798,-0.00055603,-0.00432369
 ,-0.00413527,0.00046181,-0.00224377,-0.00011573,0.00544415,-0.01991268
 ,-0.00743954,-0.05687455,0.28570468,-0.00002480,0.00064409,0.00043927,
 -0.00010909,-0.00014111,0.00020734,0.00026977,0.00003483,-0.00005284,0
 .02081660,-0.08035381,-0.07279499,0.00418765,-0.02617937,-0.01368183,0
 .00080133,-0.00197829,-0.00143587,-0.00564001,0.02007368,0.00784985,-0
 .01890900,0.08832512,0.08140392,-0.01783102,-0.02413643,0.00228817,-0.
 00134986,0.00845927,0.00186250,0.00069460,-0.01482122,-0.00821382,0.00
 095754,-0.00313698,-0.00111595,-0.02735172,-0.02048856,-0.00440492,-0.
 00016167,-0.00079403,-0.00038577,0.00017204,0.00015927,-0.00002905,0.0
 0033912,-0.00098103,-0.00159817,0.04992928,-0.03520971,0.07508792,0.01
 952005,0.00079470,-0.00256325,0.00607584,0.00738404,-0.01027473,-0.001
 46944,0.00273978,-0.02160766,-0.01241399,-0.02275714,0.06140981,0.0346
 5745,0.00049711,0.00101556,0.00067685,-0.00029512,0.00102202,0.0013489
 7,-0.00204958,0.00278607,-0.00213497,0.04067666,-0.07462238,-0.0065502
 1,0.03967769,-0.00992490,0.00330895,-0.01727350,-0.00675409,0.00194583
 ,-0.00459027,-0.00108707,0.00357423,-0.02311035,-0.01174348,-0.0062160
 2,0.03878867,-0.01427233,0.00008694,0.00045579,0.00058091,0.00016600,0
 .00004708,0.00024073,-0.00245100,-0.00019014,-0.00382576,0.00691324,-0
 .03657028,0.04736158,0.00106811,-0.00029968,-0.00029066,0.00001763,-0.
 00027424,-0.00020422,0.00010367,0.00052581,0.00023011,-0.01016630,0.00
 105714,0.00197253,-0.32408593,-0.00887294,0.00413567,0.00066758,-0.000
 65634,-0.00271897,0.00058254,0.00030898,-0.00019273,0.00024693,-0.0003
 9381,-0.00007834,-0.00589315,0.00101959,0.00081941,0.34603098,-0.00131
 398,0.00480960,0.00209253,0.00021976,-0.00033135,0.00068294,0.00007652
 ,0.00023622,-0.00043264,-0.00771367,0.00071409,-0.00055787,0.00194647,
 -0.03078468,0.00731940,0.00007787,0.00095328,-0.00131849,0.00056077,0.
 00010111,-0.00033725,0.00035748,0.00031525,0.00076707,0.01958084,-0.01
 158420,-0.00547714,0.00605658,0.03378314,-0.00039945,0.00136122,0.0000
 8041,0.00021449,-0.00007880,0.00028269,0.00000543,-0.00005576,0.000090
 23,-0.03127997,0.00082324,0.00261672,0.00812176,0.00587690,-0.04982472
 ,-0.00271497,-0.00132443,-0.00568580,0.00070835,0.00056874,0.00135401,
 0.00068673,-0.00016591,0.00099696,0.00534296,-0.00260107,-0.00163640,-
 0.00301412,-0.00312409,0.05090374,0.00018319,-0.00169070,-0.00110770,0
 .00041394,-0.00014283,-0.00002677,-0.00023337,0.00011698,0.00001697,0.
 00635599,0.00920817,-0.01016871,-0.08482707,-0.06203121,0.06720527,0.0
 0077848,0.00059805,0.00082830,-0.00029145,-0.00044446,-0.00357332,0.00
 025794,-0.00015342,0.00028406,0.00049485,0.00719968,-0.00159738,-0.008
 57204,-0.01984863,0.02232878,0.08543955,-0.00058365,0.00468966,0.00111
 986,-0.00022463,-0.00024865,-0.00030505,0.00051774,0.00001919,0.000555
 71,0.00269591,0.00567592,-0.00762046,-0.06613253,-0.12994917,0.1300204
 8,0.00007229,-0.00002401,0.00042605,-0.00087635,0.00081216,-0.00139989
 ,0.00033173,0.00040725,0.00094276,-0.00451778,-0.02066914,0.00824246,0
 .00152891,0.00178754,-0.00128002,0.06718837,0.13749926,-0.00092456,0.0
 0168186,0.00108497,-0.00022608,0.00028489,0.00026490,0.00031232,-0.000
 31126,0.00018321,0.01088653,0.01881493,-0.01886737,0.06858086,0.119235
 55,-0.18991897,-0.00029144,0.00001873,0.00128320,-0.00333604,-0.001944
 23,-0.00458565,0.00050578,-0.00037469,0.00089394,-0.00065919,-0.007089
 41,0.00106080,-0.00065868,0.00038554,0.00082215,-0.07418949,-0.1307019
 1,0.20777882\\0.00000028,0.00000013,-0.00000022,0.,0.00000002,0.000000
 02,-0.00000044,-0.00000006,-0.00000006,0.00000024,0.00000044,0.0000001
 7,-0.00000003,0.,-0.00000029,0.00000002,-0.00000009,0.,-0.00000005,-0.
 00000017,0.00000009,0.00000010,-0.00000040,-0.00000003,-0.00000005,0.0
 0000008,0.00000004,-0.00000011,0.00000005,0.00000010,0.00000004,0.0000
 0003,0.00000019\\\@


 IMAGINATION WILL OFTEN CARRY US TO WORLDS THAT NEVER WERE.
 BUT WITHOUT IT, WE GO NOWHERE. -- CARL SAGAN (COSMOS)
 Job cpu time:       0 days  2 hours  4 minutes 21.2 seconds.
 File lengths (MBytes):  RWF=   3680 Int=      0 D2E=      0 Chk=      4 Scr=      1
 Normal termination of Gaussian 09 at Sun Nov 13 01:53:41 2022.
