 Entering Gaussian System, Link 0=g09
 Initial command:
 /usr/local/g09/l1.exe "/gtmp/jintaowu/scratch/g09/968294.zeus-master/Gau-2013201.inp" -scrdir="/gtmp/jintaowu/scratch/g09/968294.zeus-master/"
 Entering Link 1 = /usr/local/g09/l1.exe PID=   2013202.
  
 Copyright (c) 1988,1990,1992,1993,1995,1998,2003,2009,2013,
            Gaussian, Inc.  All Rights Reserved.
  
 This is part of the Gaussian(R) 09 program.  It is based on
 the Gaussian(R) 03 system (copyright 2003, Gaussian, Inc.),
 the Gaussian(R) 98 system (copyright 1998, Gaussian, Inc.),
 the Gaussian(R) 94 system (copyright 1995, Gaussian, Inc.),
 the Gaussian 92(TM) system (copyright 1992, Gaussian, Inc.),
 the Gaussian 90(TM) system (copyright 1990, Gaussian, Inc.),
 the Gaussian 88(TM) system (copyright 1988, Gaussian, Inc.),
 the Gaussian 86(TM) system (copyright 1986, Carnegie Mellon
 University), and the Gaussian 82(TM) system (copyright 1983,
 Carnegie Mellon University). Gaussian is a federally registered
 trademark of Gaussian, Inc.
  
 This software contains proprietary and confidential information,
 including trade secrets, belonging to Gaussian, Inc.
  
 This software is provided under written license and may be
 used, copied, transmitted, or stored only in accord with that
 written license.
  
 The following legend is applicable only to US Government
 contracts under FAR:
  
                    RESTRICTED RIGHTS LEGEND
  
 Use, reproduction and disclosure by the US Government is
 subject to restrictions as set forth in subparagraphs (a)
 and (c) of the Commercial Computer Software - Restricted
 Rights clause in FAR 52.227-19.
  
 Gaussian, Inc.
 340 Quinnipiac St., Bldg. 40, Wallingford CT 06492
  
  
 ---------------------------------------------------------------
 Warning -- This program may not be used in any manner that
 competes with the business of Gaussian, Inc. or will provide
 assistance to any competitor of Gaussian, Inc.  The licensee
 of this program is prohibited from giving any competitor of
 Gaussian, Inc. access to this program.  By using this program,
 the user acknowledges that Gaussian, Inc. is engaged in the
 business of creating and licensing software in the field of
 computational chemistry and represents and warrants to the
 licensee that it is not a competitor of Gaussian, Inc. and that
 it will not use this program in any manner prohibited above.
 ---------------------------------------------------------------
  

 Cite this work as:
 Gaussian 09, Revision D.01,
 M. J. Frisch, G. W. Trucks, H. B. Schlegel, G. E. Scuseria, 
 M. A. Robb, J. R. Cheeseman, G. Scalmani, V. Barone, B. Mennucci, 
 G. A. Petersson, H. Nakatsuji, M. Caricato, X. Li, H. P. Hratchian, 
 A. F. Izmaylov, J. Bloino, G. Zheng, J. L. Sonnenberg, M. Hada, 
 M. Ehara, K. Toyota, R. Fukuda, J. Hasegawa, M. Ishida, T. Nakajima, 
 Y. Honda, O. Kitao, H. Nakai, T. Vreven, J. A. Montgomery, Jr., 
 J. E. Peralta, F. Ogliaro, M. Bearpark, J. J. Heyd, E. Brothers, 
 K. N. Kudin, V. N. Staroverov, T. Keith, R. Kobayashi, J. Normand, 
 K. Raghavachari, A. Rendell, J. C. Burant, S. S. Iyengar, J. Tomasi, 
 M. Cossi, N. Rega, J. M. Millam, M. Klene, J. E. Knox, J. B. Cross, 
 V. Bakken, C. Adamo, J. Jaramillo, R. Gomperts, R. E. Stratmann, 
 O. Yazyev, A. J. Austin, R. Cammi, C. Pomelli, J. W. Ochterski, 
 R. L. Martin, K. Morokuma, V. G. Zakrzewski, G. A. Voth, 
 P. Salvador, J. J. Dannenberg, S. Dapprich, A. D. Daniels, 
 O. Farkas, J. B. Foresman, J. V. Ortiz, J. Cioslowski, 
 and D. J. Fox, Gaussian, Inc., Wallingford CT, 2013.
 
 ******************************************
 Gaussian 09:  EM64L-G09RevD.01 24-Apr-2013
                16-Jan-2025 
 ******************************************
 %chk=check.chk
 %mem=184320mb
 %NProcShared=16
 Will use up to   16 processors via shared memory.
 ----------------------------------------------------------------------
 #P guess=read ub2plypd3/def2tzvp freq IOp(7/33=1) integral=(grid=ultra
 fine, Acc2E=12) IOp(2/9=2000) scf=(direct,tight)
 ----------------------------------------------------------------------
 1/10=4,30=1,38=1/1,3;
 2/9=2000,12=2,17=6,18=5,40=1/2;
 3/5=44,7=101,11=2,16=1,25=1,30=1,71=2,74=-60,75=-5,116=2,140=1/1,2,3;
 4/5=1/1;
 5/5=2,32=2,38=6,87=12,98=1/2;
 8/6=3,8=1,10=1,19=11,30=-1,87=12/1;
 9/15=3,16=-3,87=12/6;
 11/6=1,8=1,15=11,17=12,24=-1,27=1,28=-2,29=300,32=6,42=3,87=12/1,2,10;
 10/6=2,21=1,87=12/2;
 8/6=4,8=1,10=1,19=11,30=-1,87=12/11,4;
 10/5=1,20=4,87=12/2;
 11/12=2,14=11,16=1,17=2,28=-2,42=3,87=12/2,10,12;
 6/7=2,8=2,9=2,10=2/1;
 7/8=1,10=1,12=2,25=1,33=1,44=2,87=12/1,2,3,16;
 1/10=4,30=1/3;
 99//99;
 Leave Link    1 at Thu Jan 16 16:09:25 2025, MaxMem= 24159191040 cpu:         0.6
 (Enter /usr/local/g09/l101.exe)
 ----
 OCHO
 ----
 Symbolic Z-matrix:
 Charge =  0 Multiplicity = 2
 O                     1.16019  -0.35657   0.02978 
 C                    -0.01753   0.07206  -0.00045 
 O                    -0.86664  -0.84999  -0.02219 
 H                    -0.27602   1.1345   -0.00714 
 
 NAtoms=      4 NQM=        4 NQMF=       0 NMMI=      0 NMMIF=      0
                NMic=       0 NMicF=      0.
                    Isotopes and Nuclear Properties:
 (Nuclear quadrupole moments (NQMom) in fm**2, nuclear magnetic moments (NMagM)
  in nuclear magnetons)

  Atom         1           2           3           4
 IAtWgt=          16          12          16           1
 AtmWgt=  15.9949146  12.0000000  15.9949146   1.0078250
 NucSpn=           0           0           0           1
 AtZEff=   0.0000000   0.0000000   0.0000000   0.0000000
 NQMom=    0.0000000   0.0000000   0.0000000   0.0000000
 NMagM=    0.0000000   0.0000000   0.0000000   2.7928460
 AtZNuc=   8.0000000   6.0000000   8.0000000   1.0000000
 Leave Link  101 at Thu Jan 16 16:09:25 2025, MaxMem= 24159191040 cpu:         0.5
 (Enter /usr/local/g09/l103.exe)

 GradGradGradGradGradGradGradGradGradGradGradGradGradGradGradGradGradGrad
 Berny optimization.
 Initialization pass.
 Trust Radius=3.00D-01 FncErr=1.00D-07 GrdErr=1.00D-07
 Number of steps in this run=      2 maximum allowed number of steps=      2.
 GradGradGradGradGradGradGradGradGradGradGradGradGradGradGradGradGradGrad

 Leave Link  103 at Thu Jan 16 16:09:25 2025, MaxMem= 24159191040 cpu:         0.1
 (Enter /usr/local/g09/l202.exe)
                          Input orientation:                          
 ---------------------------------------------------------------------
 Center     Atomic      Atomic             Coordinates (Angstroms)
 Number     Number       Type             X           Y           Z
 ---------------------------------------------------------------------
      1          8           0        1.160188   -0.356566    0.029781
      2          6           0       -0.017527    0.072059   -0.000452
      3          8           0       -0.866638   -0.849990   -0.022189
      4          1           0       -0.276021    1.134498   -0.007140
 ---------------------------------------------------------------------
                    Distance matrix (angstroms):
                    1          2          3          4
     1  O    0.000000
     2  C    1.253653   0.000000
     3  O    2.086670   1.253649   0.000000
     4  H    2.070587   1.093453   2.070567   0.000000
 Stoichiometry    CHO2(2)
 Framework group  C1[X(CHO2)]
 Deg. of freedom     6
 Full point group                 C1      NOp   1
 Largest Abelian subgroup         C1      NOp   1
 Largest concise Abelian subgroup C1      NOp   1
                         Standard orientation:                         
 ---------------------------------------------------------------------
 Center     Atomic      Atomic             Coordinates (Angstroms)
 Number     Number       Type             X           Y           Z
 ---------------------------------------------------------------------
      1          8           0       -1.043337   -0.259075    0.000000
      2          6           0        0.000002    0.435971   -0.000001
      3          8           0        1.043333   -0.259081    0.000000
      4          1           0        0.000023    1.529424    0.000002
 ---------------------------------------------------------------------
 Rotational constants (GHZ):     75.0432824     14.5130173     12.1611150
 Leave Link  202 at Thu Jan 16 16:09:25 2025, MaxMem= 24159191040 cpu:         0.0
 (Enter /usr/local/g09/l301.exe)
 Standard basis: def2TZVP (5D, 7F)
 Ernie: Thresh=  0.10000D-02 Tol=  0.10000D-05 Strict=F.
 There are   114 symmetry adapted cartesian basis functions of A   symmetry.
 There are    99 symmetry adapted basis functions of A   symmetry.
    99 basis functions,   161 primitive gaussians,   114 cartesian basis functions
    12 alpha electrons       11 beta electrons
       nuclear repulsion energy        63.7455969840 Hartrees.
 IExCor=  419 DFT=T Ex+Corr=B2PLYPD3 ExCW=0 ScaHFX=  0.530000
 ScaDFX=  0.470000  0.470000  0.730000  0.730000 ScalE2=  0.270000  0.270000
 IRadAn=      5 IRanWt=     -1 IRanGd=            0 ICorTp=0 IEmpDi=141
 NAtoms=    4 NActive=    4 NUniq=    4 SFac= 1.00D+00 NAtFMM=   60 NAOKFM=F Big=F
 Integral buffers will be    131072 words long.
 Raffenetti 2 integral format.
 Two-electron integral symmetry is turned on.
 R6Disp:  Grimme-D3(BJ) Dispersion energy=       -0.0010312063 Hartrees.
 Nuclear repulsion after empirical dispersion term =       63.7445657777 Hartrees.
 Leave Link  301 at Thu Jan 16 16:09:25 2025, MaxMem= 24159191040 cpu:         0.3
 (Enter /usr/local/g09/l302.exe)
 NPDir=0 NMtPBC=     1 NCelOv=     1 NCel=       1 NClECP=     1 NCelD=      1
         NCelK=      1 NCelE2=     1 NClLst=     1 CellRange=     0.0.
 One-electron integrals computed using PRISM.
   1 Symmetry operations used in ECPInt.
 ECPInt:  NShTT=     703 NPrTT=    2280 LenC2=     701 LenP2D=    2013.
 LDataN:  DoStor=T MaxTD1= 6 Len=  172
 NBasis=    99 RedAO= T EigKep=  1.33D-03  NBF=    99
 NBsUse=    99 1.00D-06 EigRej= -1.00D+00 NBFU=    99
 Precomputing XC quadrature grid using
 IXCGrd= 4 IRadAn=           5 IRanWt=          -1 IRanGd=           0 AccXCQ= 0.00D+00.
 Generated NRdTot=       0 NPtTot=           0 NUsed=           0 NTot=          32
 NSgBfM=   114   114   114   114   114 MxSgAt=     4 MxSgA2=     4.
 Leave Link  302 at Thu Jan 16 16:09:25 2025, MaxMem= 24159191040 cpu:         1.9
 (Enter /usr/local/g09/l303.exe)
 DipDrv:  MaxL=1.
 Leave Link  303 at Thu Jan 16 16:09:25 2025, MaxMem= 24159191040 cpu:         0.2
 (Enter /usr/local/g09/l401.exe)
 Initial guess from the checkpoint file:  "check.chk"
 B after Tr=     0.000010    0.683722    0.000001
         Rot=    0.012729   -0.119068    0.992803   -0.001552 Ang=-178.54 deg.
 Guess basis will be translated and rotated to current coordinates.
 JPrj=2 DoOrth=T DoCkMO=T.
 Initial guess <Sx>= 0.0000 <Sy>= 0.0000 <Sz>= 0.5000 <S**2>= 0.7674 S= 0.5086
 Leave Link  401 at Thu Jan 16 16:09:25 2025, MaxMem= 24159191040 cpu:         1.1
 (Enter /usr/local/g09/l502.exe)
 UHF open shell SCF:
 Using DIIS extrapolation, IDIIS=  1040.
 Integral symmetry usage will be decided dynamically.
 Keep R1 and R2 ints in memory in canonical form, NReq=26550013.
 IVT=       60190 IEndB=       60190 NGot= 24159191040 MDV= 24134623401
 LenX= 24134623401 LenY= 24134609964
 Requested convergence on RMS density matrix=1.00D-08 within 128 cycles.
 Requested convergence on MAX density matrix=1.00D-06.
 Requested convergence on             energy=1.00D-06.
 No special actions if energy rises.
 FoFCou: FMM=F IPFlag=           0 FMFlag=           0 FMFlg1=           0
         NFxFlg=           0 DoJE=F BraDBF=F KetDBF=F FulRan=T
         wScrn=  0.000000 ICntrl=     600 IOpCl=  0 I1Cent=           0 NGrid=           0
         NMat0=    1 NMatS0=   4950 NMatT0=    0 NMatD0=    1 NMtDS0=    0 NMtDT0=    0
 Symmetry not used in FoFCou.

 Cycle   1  Pass 1  IDiag  1:
 E= -188.831667109921    
 DIIS: error= 1.19D-07 at cycle   1 NSaved=   1.
 NSaved= 1 IEnMin= 1 EnMin= -188.831667109921     IErMin= 1 ErrMin= 1.19D-07
 ErrMax= 1.19D-07  0.00D+00 EMaxC= 1.00D-01 BMatC= 3.87D-12 BMatP= 3.87D-12
 IDIUse=1 WtCom= 1.00D+00 WtEn= 0.00D+00
 Coeff-Com:  0.100D+01
 Coeff:      0.100D+01
 Gap=     0.452 Goal=   None    Shift=    0.000
 Gap=     0.227 Goal=   None    Shift=    0.000
 RMSDP=2.53D-08 MaxDP=5.50D-07              OVMax= 8.46D-07

 Cycle   2  Pass 1  IDiag  1:
 E= -188.831667109922     Delta-E=        0.000000000000 Rises=F Damp=F
 DIIS: error= 4.95D-08 at cycle   2 NSaved=   2.
 NSaved= 2 IEnMin= 2 EnMin= -188.831667109922     IErMin= 2 ErrMin= 4.95D-08
 ErrMax= 4.95D-08  0.00D+00 EMaxC= 1.00D-01 BMatC= 4.47D-13 BMatP= 3.87D-12
 IDIUse=1 WtCom= 1.00D+00 WtEn= 0.00D+00
 Coeff-Com: -0.478D-01 0.105D+01
 Coeff:     -0.478D-01 0.105D+01
 Gap=     0.452 Goal=   None    Shift=    0.000
 Gap=     0.227 Goal=   None    Shift=    0.000
 RMSDP=7.26D-09 MaxDP=1.34D-07 DE=-4.55D-13 OVMax= 9.94D-07

 SCF Done:  E(UB2PLYPD3) =  -188.831667110     A.U. after    2 cycles
            NFock=  2  Conv=0.73D-08     -V/T= 2.0030
 <Sx>= 0.0000 <Sy>= 0.0000 <Sz>= 0.5000 <S**2>= 0.7674 S= 0.5086
 <L.S>= 0.000000000000E+00
 KE= 1.882753720078D+02 PE=-5.726976462364D+02 EE= 1.318460413409D+02
 Annihilation of the first spin contaminant:
 S**2 before annihilation     0.7674,   after     0.7501
 Leave Link  502 at Thu Jan 16 16:09:26 2025, MaxMem= 24159191040 cpu:        12.5
 (Enter /usr/local/g09/l801.exe)
 DoSCS=T DFT=T ScalE2(SS,OS)=  0.270000  0.270000
 ExpMin= 9.52D-02 ExpMax= 2.70D+04 ExpMxC= 9.22D+02 IAcc=3 IRadAn=         5 AccDes= 0.00D+00
 HarFok:  IExCor=  205 AccDes= 0.00D+00 IRadAn=         5 IDoV=-2 UseB2=F ITyADJ=14
 ICtDFT= 12500011 ScaDFX=  1.000000  1.000000  1.000000  1.000000
 Largest valence mixing into a core orbital is  9.46D-05
 Largest core mixing into a valence orbital is  1.58D-05
 Largest valence mixing into a core orbital is  9.27D-05
 Largest core mixing into a valence orbital is  1.68D-05
 Range of M.O.s used for correlation:     4    99
 NBasis=    99 NAE=    12 NBE=    11 NFC=     3 NFV=     0
 NROrb=     96 NOA=     9 NOB=     8 NVA=    87 NVB=    88

 **** Warning!!: The largest alpha MO coefficient is  0.11634593D+02


 **** Warning!!: The largest beta MO coefficient is  0.11761201D+02

 Leave Link  801 at Thu Jan 16 16:09:26 2025, MaxMem= 24159191040 cpu:         0.5
 (Enter /usr/local/g09/l906.exe)
 DoSCS=T DFT=T ScalE2(SS,OS)=  0.270000  0.270000
 Frozen-core derivative calculation, NFC=   3 NFV=   0.
 FulOut=F Deriv=T AODrv=T NAtomX=     4
   MMem=           0  MDisk=           9 MDiskD=           9
  W3Min=      270864 MinDsk=      473795 NBas6D=         114
 NBas2D=        6810    NTT=        6555    LW2=     7400000
    MDV= 24159026317 MDiskM=     1059518 NBas2p=        6805
 Disk-based method using ON**2 memory for  9 occupieds at a time.
 Permanent disk used for amplitudes=     1468038 words.
 Estimated scratch disk usage=    25258677 words.
 IMap=   1   2   3   4   5   6   7   8   9  10  11  12
 Actual    scratch disk usage=    24510645 words.
 JobTyp=2 Pass  1:  I=   4 to  12 NPSUse= 16 ParTrn=T ParDer=T DoDerP=T.
 (rs|ai) integrals will be sorted in core.
 IMap=   1   2   3   4   5   6   7   8   9  10  11
 Actual    scratch disk usage=    24510645 words.
 JobTyp=3 Pass  1:  I=   4 to  11 NPSUse= 16 ParTrn=T ParDer=T DoDerP=T.
 (rs|ai) integrals will be sorted in core.
 Spin components of T(2) and E(2):
     alpha-alpha T2 =       0.3102162699D-01 E2=     -0.2609925659D-01
     alpha-beta  T2 =       0.2091039623D+00 E2=     -0.1489205330D+00
     beta-beta   T2 =       0.6194292438D-01 E2=     -0.3023844421D-01
 The integrals were generated   2 times.
 E2(B2PLYPD3) =    -0.2052582338D+00 E(B2PLYPD3) =    -0.18903692534375D+03
 Leave Link  906 at Thu Jan 16 16:10:02 2025, MaxMem= 24159191040 cpu:       560.0
 (Enter /usr/local/g09/l1101.exe)
 Using compressed Sx but separate Hx and Fx, NAtomX=     4.
 Will process      5 centers per pass.
   1 Symmetry operations used in ECPInt.
 ECPInt:  NShTT=     703 NPrTT=    2280 LenC2=     701 LenP2D=    2013.
 LDataN:  DoStor=T MaxTD1= 7 Len=  274
 R6Disp: Adding Grimme-D3(BJ) dispersion energy 1st derivatives to the gradient.
 Leave Link 1101 at Thu Jan 16 16:10:02 2025, MaxMem= 24159191040 cpu:        10.5
 (Enter /usr/local/g09/l1102.exe)
 Leave Link 1102 at Thu Jan 16 16:10:02 2025, MaxMem= 24159191040 cpu:         0.1
 (Enter /usr/local/g09/l1110.exe)
 Forming Gx(P) for the SCF density, NAtomX=     4.
 Integral derivatives from FoFJK, PRISM(SPDF).
 Do as many integral derivatives as possible in FoFJK.
 G2DrvN: MDV=   24159190904.
 G2DrvN: will do     5 centers at a time, making    1 passes.
 Calling FoFCou, ICntrl=  3107 FMM=F I1Cent=   0 AccDes= 1.00D-12.
 FoFJK:  IHMeth= 1 ICntrl=    3107 DoSepK=F KAlg= 0 I1Cent=   0 FoldK=F
 IRaf=         0 NMat=   1 IRICut=       1 DoRegI=T DoRafI=F ISym2E= 0.
 FoFCou: FMM=F IPFlag=           0 FMFlag=      100000 FMFlg1=           0
         NFxFlg=           0 DoJE=F BraDBF=F KetDBF=F FulRan=T
         wScrn=  0.000000 ICntrl=    3107 IOpCl=  1 I1Cent=           0 NGrid=           0
         NMat0=    1 NMatS0=      1 NMatT0=    0 NMatD0=    1 NMtDS0=    0 NMtDT0=    0
 Symmetry not used in FoFCou.
 End of G2Drv F.D. properties file   721 does not exist.
 End of G2Drv F.D. properties file   722 does not exist.
 End of G2Drv F.D. properties file   788 does not exist.
 Leave Link 1110 at Thu Jan 16 16:10:06 2025, MaxMem= 24159191040 cpu:        61.7
 (Enter /usr/local/g09/l1002.exe)
 Minotr:  UHF open shell wavefunction.
          IDoAtm=1111
          Frozen-core window.
          Direct CPHF calculation.
          Differentiating once with respect to electric field.
                with respect to dipole field.
          Differentiating once with respect to nuclear coordinates.
          Requested convergence is 1.0D-08 RMS, and 1.0D-07 maximum.
          Secondary convergence is 1.0D-12 RMS, and 1.0D-12 maximum.
          NewPWx=T KeepS1=T KeepF1=T KeepIn=T MapXYZ=F SortEE=F KeepMc=T.
          MDV=   24159190804 using IRadAn=       1.
 Generate precomputed XC quadrature information.
 Keep R1 and R2 ints in memory in canonical form, NReq=26506497.
 FoFCou: FMM=F IPFlag=           0 FMFlag=           0 FMFlg1=           0
         NFxFlg=           0 DoJE=F BraDBF=F KetDBF=F FulRan=T
         wScrn=  0.000000 ICntrl=     600 IOpCl=  0 I1Cent=           0 NGrid=           0
         NMat0=    1 NMatS0=   4950 NMatT0=    0 NMatD0=    1 NMtDS0=    0 NMtDT0=    0
 Symmetry not used in FoFCou.
          Solving linear equations simultaneously, MaxMat=       0.
          There are    15 degrees of freedom in the 1st order CPHF.  IDoFFX=6 NUNeed=    15.
     12 vectors produced by pass  0 Test12= 1.34D-14 6.67D-09 XBig12= 7.09D+01 6.91D+00.
 AX will form    12 AO Fock derivatives at one time.
     12 vectors produced by pass  1 Test12= 1.34D-14 6.67D-09 XBig12= 3.65D+01 2.28D+00.
     12 vectors produced by pass  2 Test12= 1.34D-14 6.67D-09 XBig12= 1.10D+01 1.02D+00.
     12 vectors produced by pass  3 Test12= 1.34D-14 6.67D-09 XBig12= 1.32D-01 1.03D-01.
     12 vectors produced by pass  4 Test12= 1.34D-14 6.67D-09 XBig12= 1.72D-03 1.30D-02.
     12 vectors produced by pass  5 Test12= 1.34D-14 6.67D-09 XBig12= 2.39D-05 1.49D-03.
     12 vectors produced by pass  6 Test12= 1.34D-14 6.67D-09 XBig12= 2.10D-07 1.11D-04.
     11 vectors produced by pass  7 Test12= 1.34D-14 6.67D-09 XBig12= 2.24D-09 1.07D-05.
      6 vectors produced by pass  8 Test12= 1.34D-14 6.67D-09 XBig12= 1.71D-11 9.29D-07.
      2 vectors produced by pass  9 Test12= 1.34D-14 6.67D-09 XBig12= 1.40D-13 7.85D-08.
      1 vectors produced by pass 10 Test12= 1.34D-14 6.67D-09 XBig12= 8.44D-16 9.74D-09.
 InvSVY:  IOpt=1 It=  1 EMax= 8.58D-15
 Solved reduced A of dimension   104 with    12 vectors.
 FullF1:  Do perturbations    1 to    15.
 Saving first derivative matrices.
 End of Minotr F.D. properties file   721 does not exist.
 End of Minotr F.D. properties file   722 does not exist.
 End of Minotr F.D. properties file   788 does not exist.
 Leave Link 1002 at Thu Jan 16 16:10:13 2025, MaxMem= 24159191040 cpu:       109.1
 (Enter /usr/local/g09/l811.exe)
 MDV= 24159191040.
 DoSCS=T DFT=T ScalE2(SS,OS)=  0.270000  0.270000
 Form MO integral derivatives with frozen-active canonical formalism.
 MOERI=1 MOERIx=1 NAtoms=     4 NAtomX=     4.
 Discarding MO integrals.
 MO basis two electron integral derivatives will not be stored on disk.
 IAlg= 3 DoFC=T DoPWx=T Debug=F.
 Frozen-core window:  NFC=   3 NFV=   0.
 Reordered first order wavefunction length =      5969734
 In DefCFB: NBatch=  1 ICI= 12 ICA= 88 LFMax= 88
            Large arrays: LIAPS=    90829728 LIARS=    60673536 words.
 In StABat: MaxSiz= 36 MinSiz=  6 NAtomB=  4
 DoIAMN: NPSUse= 16.
 In DefCFB: NBatch=  1 ICI= 12 ICA= 88 LFMax= 88
            Large arrays: LIAPS=    90829728 LIARS=    60673536 words.
 In StABat: MaxSiz= 36 MinSiz=  6 NAtomB=  4
 Leave Link  811 at Thu Jan 16 16:10:33 2025, MaxMem= 24159191040 cpu:       318.8
 (Enter /usr/local/g09/l804.exe)
 Frozen-core window:  NFC=   3 NFV=   0.
 Open-shell transformation, MDV= 24159191040 ITran=4 ISComp=1.
 Semi-Direct transformation.
 ModeAB=           2 MOrb=            12 LenV=   24158582667
 LASXX=      5313561 LTotXX=     5313561 LenRXX=     5313561
 LTotAB=     5553900 MaxLAS=     7787340 LenRXY=     7787340
 NonZer=    10627122 LenScr=    16693248 LnRSAI=           0
 LnScr1=           0 LExtra=           0 Total=     29794149
 MaxDsk=          -1 SrtSym=           F ITran=            4
 DoSDTr:  NPSUse= 16
 JobTyp=1 Pass  1:  I=   1 to  12.
 (rs|ai) integrals will be sorted in core.
 Complete sort for first half transformation.
 First half transformation complete.
 Begin second half transformation for I=  10.
 Begin second half transformation for I=  10.
 Complete sort for second half transformation.
 Second half transformation complete.
 ModeAB=           2 MOrb=            11 LenV=   24158582667
 LASXX=      4907848 LTotXX=     4907848 LenRXX=     7138395
 LTotAB=     3958152 MaxLAS=     7138395 LenRXY=     3958152
 NonZer=     9815696 LenScr=    15493120 LnRSAI=           0
 LnScr1=           0 LExtra=           0 Total=     26589667
 MaxDsk=          -1 SrtSym=           F ITran=            4
 DoSDTr:  NPSUse= 16
 JobTyp=2 Pass  1:  I=   1 to  11.
 (rs|ai) integrals will be sorted in core.
 Complete sort for first half transformation.
 First half transformation complete.
 Begin second half transformation for I=  10.
 Begin second half transformation for I=  10.
 Complete sort for second half transformation.
 Second half transformation complete.
 SymMOI:  orbitals are not symmetric.
 DoSCS=T DFT=T ScalE2(SS,OS)=  0.270000  0.270000
 Spin components of T(2) and E(2):
     alpha-alpha T2 =       0.3102162699D-01 E2=     -0.2609925659D-01
     alpha-beta  T2 =       0.2091039623D+00 E2=     -0.1489205330D+00
     beta-beta   T2 =       0.6194292438D-01 E2=     -0.3023844421D-01
 E2(B2PLYPD3) =    -0.2052582338D+00 E(B2PLYPD3) =    -0.18903692534375D+03
 Leave Link  804 at Thu Jan 16 16:10:38 2025, MaxMem= 24159191040 cpu:        75.8
 (Enter /usr/local/g09/l1002.exe)
 Minotr:  UHF open shell wavefunction.
          Computing MP2/KS-MP2 derivatives.
          Using Z-Vector for PSCF gradient.
          Skipping F1 and S1 gradient terms here.
          IDoAtm=1111
          Frozen-core window.
          Direct CPHF calculation.
          Differentiating once with respect to electric field.
                with respect to dipole field.
          Differentiating once with respect to nuclear coordinates.
          Requested convergence is 1.0D-10 RMS, and 1.0D-09 maximum.
          NewPWx=T KeepS1=F KeepF1=F KeepIn=T MapXYZ=F SortEE=F KeepMc=T.
          MDV=   24159190804 using IRadAn=       5.
 Using stored XC quadrature information.
 Keep R1 and R2 ints in memory in canonical form, NReq=26505311.
 FoFCou: FMM=F IPFlag=           0 FMFlag=           0 FMFlg1=           0
         NFxFlg=           0 DoJE=F BraDBF=F KetDBF=F FulRan=T
         wScrn=  0.000000 ICntrl=     600 IOpCl=  0 I1Cent=           0 NGrid=           0
         NMat0=    1 NMatS0=   4950 NMatT0=    0 NMatD0=    1 NMtDS0=    0 NMtDT0=    0
 Symmetry not used in FoFCou.
          Solving linear equations separately, MaxMat=       0.
          There are     1 degrees of freedom in the 1st order CPHF.  IDoFFX=0 NUNeed=     1.
 LinEq1:  Iter=  0 NonCon=     1 RMS=2.53D-03 Max=6.43D-02 NDo=     1
 AX will form     1 AO Fock derivatives at one time.
 LinEq1:  Iter=  1 NonCon=     1 RMS=7.67D-04 Max=9.08D-03 NDo=     1
 LinEq1:  Iter=  2 NonCon=     1 RMS=2.98D-04 Max=3.98D-03 NDo=     1
 LinEq1:  Iter=  3 NonCon=     1 RMS=1.66D-04 Max=2.44D-03 NDo=     1
 LinEq1:  Iter=  4 NonCon=     1 RMS=6.29D-05 Max=1.05D-03 NDo=     1
 LinEq1:  Iter=  5 NonCon=     1 RMS=1.60D-05 Max=2.19D-04 NDo=     1
 LinEq1:  Iter=  6 NonCon=     1 RMS=4.65D-06 Max=9.59D-05 NDo=     1
 LinEq1:  Iter=  7 NonCon=     1 RMS=4.63D-06 Max=1.02D-04 NDo=     1
 LinEq1:  Iter=  8 NonCon=     1 RMS=2.01D-06 Max=2.46D-05 NDo=     1
 LinEq1:  Iter=  9 NonCon=     1 RMS=6.40D-07 Max=1.20D-05 NDo=     1
 LinEq1:  Iter= 10 NonCon=     1 RMS=2.78D-07 Max=5.08D-06 NDo=     1
 LinEq1:  Iter= 11 NonCon=     1 RMS=7.32D-08 Max=1.21D-06 NDo=     1
 LinEq1:  Iter= 12 NonCon=     1 RMS=1.61D-08 Max=1.85D-07 NDo=     1
 LinEq1:  Iter= 13 NonCon=     1 RMS=4.69D-09 Max=1.41D-07 NDo=     1
 LinEq1:  Iter= 14 NonCon=     1 RMS=1.76D-09 Max=3.69D-08 NDo=     1
 LinEq1:  Iter= 15 NonCon=     1 RMS=2.73D-10 Max=5.75D-09 NDo=     1
 LinEq1:  Iter= 16 NonCon=     1 RMS=5.59D-11 Max=1.07D-09 NDo=     1
 LinEq1:  Iter= 17 NonCon=     0 RMS=1.16D-11 Max=1.42D-10 NDo=     1
 Linear equations converged to 1.000D-10 1.000D-09 after    17 iterations.
 End of Minotr F.D. properties file   721 does not exist.
 End of Minotr F.D. properties file   722 does not exist.
 End of Minotr F.D. properties file   788 does not exist.
 Leave Link 1002 at Thu Jan 16 16:10:44 2025, MaxMem= 24159191040 cpu:        97.9
 (Enter /usr/local/g09/l1102.exe)
 Use density number 2.
 Symmetrizing basis deriv contribution to polar:
 IMax=3 JMax=2 DiffMx= 0.00D+00
 Leave Link 1102 at Thu Jan 16 16:10:44 2025, MaxMem= 24159191040 cpu:         0.2
 (Enter /usr/local/g09/l1110.exe)
 Forming Gx(P) for generalized density number  2 NAtomX=     4.
 Integral derivatives from FoFJK, PRISM(SPDF).
 Do as many integral derivatives as possible in FoFJK.
 G2DrvN: MDV=   24159190904.
 G2DrvN: will do     5 centers at a time, making    1 passes.
 Calling FoFCou, ICntrl=  3107 FMM=F I1Cent=   0 AccDes= 1.00D-12.
 FoFJK:  IHMeth= 1 ICntrl=    3107 DoSepK=F KAlg= 0 I1Cent=   0 FoldK=F
 IRaf=         0 NMat=   1 IRICut=       1 DoRegI=T DoRafI=F ISym2E= 0.
 FoFCou: FMM=F IPFlag=           0 FMFlag=      100000 FMFlg1=           0
         NFxFlg=           0 DoJE=F BraDBF=F KetDBF=F FulRan=T
         wScrn=  0.000000 ICntrl=    3107 IOpCl=  1 I1Cent=           0 NGrid=           0
         NMat0=    1 NMatS0=      1 NMatT0=    0 NMatD0=    1 NMtDS0=    0 NMtDT0=    0
 Symmetry not used in FoFCou.
 End of G2Drv F.D. properties file   721 does not exist.
 End of G2Drv F.D. properties file   722 does not exist.
 End of G2Drv F.D. properties file   788 does not exist.
 Leave Link 1110 at Thu Jan 16 16:10:48 2025, MaxMem= 24159191040 cpu:        66.3
 (Enter /usr/local/g09/l1112.exe)
 MP22nd: MDV=   24159191040
 DoSCS=T DFT=T ScalE2(SS,OS)=  0.270000  0.270000
 Using stored XC quadrature information.
 This link is doing NAtomX=     4 total of    15 degrees of freedom.
 Using ON3 I/O method in MakUI.
 Frozen-core window:  NFC=   3 NFV=   0.
 Using Ix for Sx.
 Use MO integrals over full window.
 Using OV2 memory method for fx*t*t/D, MaxI=    11 DoOO2=F NP=  16.
 R2 and R3 integrals will be kept in memory, NReq=    44914580.
 FoFCou: FMM=F IPFlag=           0 FMFlag=           0 FMFlg1=           0
         NFxFlg=           0 DoJE=F BraDBF=F KetDBF=F FulRan=T
         wScrn=  0.000000 ICntrl=     600 IOpCl=  0 I1Cent=           0 NGrid=           0
         NMat0=    1 NMatS0=      1 NMatT0=    0 NMatD0=    1 NMtDS0=    0 NMtDT0=    0
 Symmetry not used in FoFCou.
 DD1Dir will call FoFMem   1 times, MxPair=       386
 NAB=   132 NAA=    66 NBB=    55.
 Symmetry is being used.
 FoFJK:  IHMeth= 1 ICntrl=       0 DoSepK=F KAlg= 0 I1Cent=   0 FoldK=F
 IRaf=         0 NMat=  15 IRICut=      37 DoRegI=T DoRafI=T ISym2E= 2.
 R6Disp: Adding Grimme-D3(BJ) dispersion energy 1st derivatives to the gradient.
 Discarding MO integrals.
 Leave Link 1112 at Thu Jan 16 16:11:14 2025, MaxMem= 24159191040 cpu:       401.0
 (Enter /usr/local/g09/l601.exe)
 Copying SCF densities to generalized density rwf, IOpCl= 1 IROHF=0.

 **********************************************************************

            Population analysis using the SCF density.

 **********************************************************************

 Orbital symmetries:
 Alpha Orbitals:
       Occupied  (A) (A) (A) (A) (A) (A) (A) (A) (A) (A) (A) (A)
       Virtual   (A) (A) (A) (A) (A) (A) (A) (A) (A) (A) (A) (A)
                 (A) (A) (A) (A) (A) (A) (A) (A) (A) (A) (A) (A)
                 (A) (A) (A) (A) (A) (A) (A) (A) (A) (A) (A) (A)
                 (A) (A) (A) (A) (A) (A) (A) (A) (A) (A) (A) (A)
                 (A) (A) (A) (A) (A) (A) (A) (A) (A) (A) (A) (A)
                 (A) (A) (A) (A) (A) (A) (A) (A) (A) (A) (A) (A)
                 (A) (A) (A) (A) (A) (A) (A) (A) (A) (A) (A) (A)
                 (A) (A) (A)
 Beta  Orbitals:
       Occupied  (A) (A) (A) (A) (A) (A) (A) (A) (A) (A) (A)
       Virtual   (A) (A) (A) (A) (A) (A) (A) (A) (A) (A) (A) (A)
                 (A) (A) (A) (A) (A) (A) (A) (A) (A) (A) (A) (A)
                 (A) (A) (A) (A) (A) (A) (A) (A) (A) (A) (A) (A)
                 (A) (A) (A) (A) (A) (A) (A) (A) (A) (A) (A) (A)
                 (A) (A) (A) (A) (A) (A) (A) (A) (A) (A) (A) (A)
                 (A) (A) (A) (A) (A) (A) (A) (A) (A) (A) (A) (A)
                 (A) (A) (A) (A) (A) (A) (A) (A) (A) (A) (A) (A)
                 (A) (A) (A) (A)
 The electronic state is 2-A.
 Alpha  occ. eigenvalues --  -19.81274 -19.81272 -10.79640  -1.31440  -1.19473
 Alpha  occ. eigenvalues --   -0.74475  -0.65801  -0.59253  -0.56583  -0.46345
 Alpha  occ. eigenvalues --   -0.46170  -0.42843
 Alpha virt. eigenvalues --    0.02341   0.09621   0.14654   0.15740   0.23626
 Alpha virt. eigenvalues --    0.30432   0.42591   0.43381   0.45084   0.46591
 Alpha virt. eigenvalues --    0.52364   0.56066   0.56407   0.59994   0.63050
 Alpha virt. eigenvalues --    0.74884   0.75973   0.78818   0.86013   0.95493
 Alpha virt. eigenvalues --    1.09481   1.11607   1.39899   1.42773   1.50296
 Alpha virt. eigenvalues --    1.53193   1.58336   1.62257   1.66458   1.72238
 Alpha virt. eigenvalues --    1.93472   1.97258   1.99249   2.06363   2.15292
 Alpha virt. eigenvalues --    2.19105   2.23027   2.40302   2.46346   2.65271
 Alpha virt. eigenvalues --    2.67443   2.74260   2.82765   2.90551   2.97043
 Alpha virt. eigenvalues --    3.01002   3.03380   3.03470   3.09817   3.22658
 Alpha virt. eigenvalues --    3.22821   3.48772   3.49409   3.55811   3.59161
 Alpha virt. eigenvalues --    3.79645   3.82333   4.16128   4.41766   4.43562
 Alpha virt. eigenvalues --    5.23918   5.24495   5.25825   5.27406   5.32708
 Alpha virt. eigenvalues --    5.49339   5.71420   5.75409   5.98142   5.99860
 Alpha virt. eigenvalues --    6.15199   6.20897   6.40933   6.40973   6.45216
 Alpha virt. eigenvalues --    6.50076   6.51270   6.72211   6.90953   6.91994
 Alpha virt. eigenvalues --    6.96241   7.06210   7.14158   7.18555  23.36489
 Alpha virt. eigenvalues --   44.04108  44.15995
  Beta  occ. eigenvalues --  -19.79316 -19.79314 -10.79838  -1.27078  -1.13638
  Beta  occ. eigenvalues --   -0.73156  -0.58982  -0.57120  -0.55475  -0.40396
  Beta  occ. eigenvalues --   -0.35555
  Beta virt. eigenvalues --   -0.12875   0.02729   0.09634   0.15028   0.16963
  Beta virt. eigenvalues --    0.23385   0.31074   0.42941   0.43871   0.45248
  Beta virt. eigenvalues --    0.47703   0.52943   0.56582   0.58540   0.62093
  Beta virt. eigenvalues --    0.65619   0.75957   0.76424   0.79770   0.86054
  Beta virt. eigenvalues --    0.96452   1.10759   1.12766   1.40391   1.43047
  Beta virt. eigenvalues --    1.51359   1.54293   1.58402   1.65711   1.68256
  Beta virt. eigenvalues --    1.74382   1.93630   1.97664   2.02559   2.08634
  Beta virt. eigenvalues --    2.16564   2.20778   2.24002   2.42572   2.47253
  Beta virt. eigenvalues --    2.65342   2.68648   2.75186   2.88485   2.91439
  Beta virt. eigenvalues --    2.98762   3.00632   3.03238   3.04975   3.11190
  Beta virt. eigenvalues --    3.22588   3.23884   3.50395   3.51637   3.55859
  Beta virt. eigenvalues --    3.59491   3.80115   3.83564   4.16708   4.42937
  Beta virt. eigenvalues --    4.44799   5.27712   5.28209   5.29261   5.30548
  Beta virt. eigenvalues --    5.34540   5.52257   5.74038   5.78485   6.00457
  Beta virt. eigenvalues --    6.00927   6.16578   6.22258   6.45624   6.46558
  Beta virt. eigenvalues --    6.49829   6.53790   6.55942   6.77326   6.91836
  Beta virt. eigenvalues --    6.93611   6.99518   7.08628   7.18652   7.20821
  Beta virt. eigenvalues --   23.36359  44.05610  44.17484
          Condensed to atoms (all electrons):
               1          2          3          4
     1  O    7.894869   0.474929  -0.060613  -0.069063
     2  C    0.474929   4.271738   0.474939   0.413317
     3  O   -0.060613   0.474939   7.894868  -0.069065
     4  H   -0.069063   0.413317  -0.069065   0.609637
          Atomic-Atomic Spin Densities.
               1          2          3          4
     1  O    0.627020  -0.020654  -0.055687   0.017473
     2  C   -0.020654  -0.087680  -0.020655   0.007966
     3  O   -0.055687  -0.020655   0.626993   0.017473
     4  H    0.017473   0.007966   0.017473  -0.058167
 Mulliken charges and spin densities:
               1          2
     1  O   -0.240122   0.568153
     2  C    0.365077  -0.121023
     3  O   -0.240129   0.568125
     4  H    0.115174  -0.015255
 Sum of Mulliken charges =   0.00000   1.00000
 Mulliken charges and spin densities with hydrogens summed into heavy atoms:
               1          2
     1  O   -0.240122   0.568153
     2  C    0.480251  -0.136278
     3  O   -0.240129   0.568125
 APT charges:
               1
     1  O    4.130954
     2  C  -24.231973
     3  O    4.132278
     4  H   15.968742
 Sum of APT charges =   0.00000
 APT charges with hydrogens summed into heavy atoms:
               1
     1  O    4.130954
     2  C   -8.263232
     3  O    4.132278
 Electronic spatial extent (au):  <R**2>=            115.5139
 Charge=              0.0000 electrons
 Dipole moment (field-independent basis, Debye):
    X=              0.0000    Y=              2.6669    Z=              0.0000  Tot=              2.6669
 Quadrupole moment (field-independent basis, Debye-Ang):
   XX=            -19.1026   YY=            -14.6845   ZZ=            -16.0552
   XY=              0.0000   XZ=              0.0000   YZ=              0.0000
 Traceless Quadrupole moment (field-independent basis, Debye-Ang):
   XX=             -2.4885   YY=              1.9296   ZZ=              0.5589
   XY=              0.0000   XZ=              0.0000   YZ=              0.0000
 Octapole moment (field-independent basis, Debye-Ang**2):
  XXX=             -0.0001  YYY=              2.2916  ZZZ=              0.0000  XYY=              0.0000
  XXY=              0.9248  XXZ=              0.0000  XZZ=              0.0000  YZZ=              0.0204
  YYZ=              0.0000  XYZ=              0.0000
 Hexadecapole moment (field-independent basis, Debye-Ang**3):
 XXXX=            -85.0286 YYYY=            -28.8949 ZZZZ=            -13.1914 XXXY=              0.0000
 XXXZ=              0.0000 YYYX=              0.0001 YYYZ=              0.0000 ZZZX=              0.0000
 ZZZY=              0.0000 XXYY=            -19.5433 XXZZ=            -16.6003 YYZZ=             -7.7889
 XXYZ=              0.0000 YYXZ=              0.0000 ZZXY=              0.0000
 N-N= 6.374456577771D+01 E-N=-5.726976471210D+02  KE= 1.882753720078D+02
  Exact polarizability:-397.877  -0.002  18.271   0.000  -0.092-869.874
 Approx polarizability:  49.030   0.000  19.220   0.000   0.000  13.201
                          Isotropic Fermi Contact Couplings
        Atom                 a.u.       MegaHertz       Gauss      10(-4) cm-1
     1  O(17)              0.04419     -26.79047      -9.55951      -8.93634
     2  C(13)             -0.03390     -38.11147     -13.59912     -12.71262
     3  O(17)              0.04418     -26.78046      -9.55593      -8.93300
     4  H(1)              -0.00226     -10.08882      -3.59994      -3.36527
 --------------------------------------------------------
       Center         ----  Spin Dipole Couplings  ----
                      3XX-RR        3YY-RR        3ZZ-RR
 --------------------------------------------------------
     1   Atom        0.948373      0.158841     -1.107213
     2   Atom        0.062377      0.024976     -0.087353
     3   Atom        0.948412      0.158511     -1.106923
     4   Atom        0.003472      0.013309     -0.016781
 --------------------------------------------------------
                        XY            XZ            YZ
 --------------------------------------------------------
     1   Atom       -1.665544      0.002541     -0.002302
     2   Atom        0.000007      0.000000      0.000053
     3   Atom        1.665029     -0.002541     -0.002302
     4   Atom        0.000003      0.000000      0.000017
 --------------------------------------------------------


 ---------------------------------------------------------------------------------
              Anisotropic Spin Dipole Couplings in Principal Axis System
 ---------------------------------------------------------------------------------

       Atom             a.u.   MegaHertz   Gauss  10(-4) cm-1        Axes

              Baa    -1.1581    83.798    29.901    27.952  0.6202  0.7844  0.0045
     1 O(17)  Bbb    -1.1072    80.117    28.588    26.724 -0.0036 -0.0029  1.0000
              Bcc     2.2653  -163.915   -58.489   -54.676  0.7844 -0.6202  0.0010
 
              Baa    -0.0874   -11.722    -4.183    -3.910  0.0000 -0.0005  1.0000
     2 C(13)  Bbb     0.0250     3.352     1.196     1.118 -0.0002  1.0000  0.0005
              Bcc     0.0624     8.370     2.987     2.792  1.0000  0.0002  0.0000
 
              Baa    -1.1578    83.775    29.893    27.944 -0.6202  0.7845  0.0045
     3 O(17)  Bbb    -1.1069    80.096    28.580    26.717  0.0036 -0.0029  1.0000
              Bcc     2.2647  -163.872   -58.474   -54.662  0.7845  0.6202 -0.0010
 
              Baa    -0.0168    -8.953    -3.195    -2.987  0.0000 -0.0006  1.0000
     4 H(1)   Bbb     0.0035     1.852     0.661     0.618  1.0000 -0.0003  0.0000
              Bcc     0.0133     7.101     2.534     2.369  0.0003  1.0000  0.0006
 

 ---------------------------------------------------------------------------------

 No NMR shielding tensors so no spin-rotation constants.
 Leave Link  601 at Thu Jan 16 16:11:14 2025, MaxMem= 24159191040 cpu:         2.9
 (Enter /usr/local/g09/l701.exe)
 Compute integral second derivatives.
 ... and contract with generalized density number  2.
 Use density number 2.
 R6Disp: Adding Grimme-D3(BJ) dispersion energy 2nd derivatives to the Hessian.
 Entering OneElI...
 Calculate overlap and kinetic energy integrals
    NBasis = 114  MinDer = 2  MaxDer = 2
 Requested accuracy = 0.1000D-14
 PrsmSu:  NPrtUS=  16 ThrOK=T IAlg=1 NPAlg=1 LenDen=           0.
 Prism:   IPart=     0 DynPar=F LinDyn=F Incr=           1.
 PRISM was handed  1509926589 working-precision words and   702 shell-pairs
 PRISM was handed  1509926589 working-precision words and   702 shell-pairs
 PRISM was handed  1509926589 working-precision words and   702 shell-pairs
 PRISM was handed  1509926589 working-precision words and   702 shell-pairs
 PRISM was handed  1509926589 working-precision words and   702 shell-pairs
 PRISM was handed  1509926589 working-precision words and   702 shell-pairs
 PRISM was handed  1509926589 working-precision words and   702 shell-pairs
 PRISM was handed  1509926589 working-precision words and   702 shell-pairs
 PRISM was handed  1509926589 working-precision words and   702 shell-pairs
 PRISM was handed  1509926589 working-precision words and   702 shell-pairs
 PRISM was handed  1509926589 working-precision words and   702 shell-pairs
 PRISM was handed  1509926589 working-precision words and   702 shell-pairs
 PRISM was handed  1509926589 working-precision words and   702 shell-pairs
 PRISM was handed  1509926589 working-precision words and   702 shell-pairs
 PRISM was handed  1509926589 working-precision words and   702 shell-pairs
 PRISM was handed  1509926589 working-precision words and   702 shell-pairs
 IPart=  8 NShTot=          40 NBatch=          23 AvBLen=         1.7
 IPart= 12 NShTot=          33 NBatch=          18 AvBLen=         1.8
 IPart= 10 NShTot=          35 NBatch=          19 AvBLen=         1.8
 IPart=  2 NShTot=          56 NBatch=          33 AvBLen=         1.7
 IPart=  7 NShTot=          40 NBatch=          23 AvBLen=         1.7
 IPart=  9 NShTot=          36 NBatch=          19 AvBLen=         1.9
 IPart=  3 NShTot=          51 NBatch=          28 AvBLen=         1.8
 IPart=  6 NShTot=          43 NBatch=          25 AvBLen=         1.7
 IPart=  5 NShTot=          46 NBatch=          27 AvBLen=         1.7
 IPart= 15 NShTot=          32 NBatch=          18 AvBLen=         1.8
 IPart=  4 NShTot=          51 NBatch=          28 AvBLen=         1.8
 IPart= 11 NShTot=          35 NBatch=          19 AvBLen=         1.8
 IPart= 14 NShTot=          32 NBatch=          18 AvBLen=         1.8
 IPart= 13 NShTot=          32 NBatch=          18 AvBLen=         1.8
 IPart=  1 NShTot=          67 NBatch=          38 AvBLen=         1.8
 IPart=  0 NShTot=          73 NBatch=          41 AvBLen=         1.8
 PrSmSu:  NxtVal=             17.
 Entering OneElI...
 Calculate potential energy integrals
    NBasis = 114  MinDer = 2  MaxDer = 2
 Requested accuracy = 0.1000D-14
 PrsmSu:  NPrtUS=  16 ThrOK=T IAlg=1 NPAlg=1 LenDen=           0.
 Prism:   IPart=     0 DynPar=F LinDyn=F Incr=           1.
 PRISM was handed  1509928287 working-precision words and   697 shell-pairs
 PRISM was handed  1509928287 working-precision words and   697 shell-pairs
 PRISM was handed  1509928287 working-precision words and   697 shell-pairs
 PRISM was handed  1509928287 working-precision words and   697 shell-pairs
 PRISM was handed  1509928287 working-precision words and   697 shell-pairs
 PRISM was handed  1509928287 working-precision words and   697 shell-pairs
 PRISM was handed  1509928287 working-precision words and   697 shell-pairs
 PRISM was handed  1509928287 working-precision words and   697 shell-pairs
 PRISM was handed  1509928287 working-precision words and   697 shell-pairs
 PRISM was handed  1509928287 working-precision words and   697 shell-pairs
 PRISM was handed  1509928287 working-precision words and   697 shell-pairs
 PRISM was handed  1509928287 working-precision words and   697 shell-pairs
 PRISM was handed  1509928287 working-precision words and   697 shell-pairs
 PRISM was handed  1509928287 working-precision words and   697 shell-pairs
 PRISM was handed  1509928287 working-precision words and   697 shell-pairs
 PRISM was handed  1509928287 working-precision words and   697 shell-pairs
 IPart= 10 NShTot=         140 NBatch=          35 AvBLen=         4.0
 IPart=  1 NShTot=         268 NBatch=          67 AvBLen=         4.0
 IPart= 12 NShTot=         132 NBatch=          33 AvBLen=         4.0
 IPart= 11 NShTot=         136 NBatch=          34 AvBLen=         4.0
 IPart=  8 NShTot=         160 NBatch=          40 AvBLen=         4.0
 IPart=  2 NShTot=         228 NBatch=          57 AvBLen=         4.0
 IPart=  3 NShTot=         208 NBatch=          52 AvBLen=         4.0
 IPart=  6 NShTot=         164 NBatch=          41 AvBLen=         4.0
 IPart=  7 NShTot=         160 NBatch=          40 AvBLen=         4.0
 IPart= 13 NShTot=         128 NBatch=          32 AvBLen=         4.0
 IPart= 15 NShTot=         128 NBatch=          32 AvBLen=         4.0
 IPart=  9 NShTot=         144 NBatch=          36 AvBLen=         4.0
 IPart=  5 NShTot=         176 NBatch=          44 AvBLen=         4.0
 IPart=  4 NShTot=         200 NBatch=          50 AvBLen=         4.0
 IPart=  0 NShTot=         288 NBatch=          72 AvBLen=         4.0
 IPart= 14 NShTot=         128 NBatch=          32 AvBLen=         4.0
 PrSmSu:  NxtVal=             17.
   1 Symmetry operations used in ECPInt.
 ECPInt:  NShTT=     703 NPrTT=    2280 LenC2=     701 LenP2D=    2013.
 LDataN:  DoStor=F MaxTD1= 8 Len=  415
 LDataN:  DoStor=T MaxTD1= 8 Len=  415
 ECPSu:  NPrtUS=  16 ThrOK=T
 Polarizability after L701:
                1             2             3 
      1 -0.397877D+03
      2 -0.153792D-02  0.182714D+02
      3 -0.215726D-03 -0.917408D-01 -0.869874D+03
 Dipole Derivatives after L701:
                 1             2             3             4             5 
      1  -0.290976D+02 -0.161359D+02  0.165761D-04  0.639332D+02 -0.968054D-03
      2  -0.233596D-01 -0.432849D+00  0.431548D-02  0.160878D-03  0.968452D+00
      3  -0.200609D-01  0.120397D-02  0.419233D+02  0.290256D-04 -0.682708D-03
                 6             7             8             9            10 
      1  -0.335667D-04 -0.290944D+02  0.161369D+02  0.381996D-05 -0.574109D+01
      2  -0.141914D-01  0.232134D-01 -0.432832D+00  0.431556D-02 -0.147446D-04
      3  -0.137598D+03  0.200350D-01  0.121752D-02  0.419241D+02 -0.311393D-05
                11            12 
      1  -0.278174D-04  0.131706D-04
      2  -0.102770D+00  0.556034D-02
      3  -0.173879D-02  0.537501D+02
 Hessian after L701:
                1             2             3             4             5 
      1  0.153107D+01
      2 -0.470280D+01  0.782885D+01
      3 -0.104609D-02 -0.825705D-04  0.136150D+02
      4 -0.563444D+01  0.341529D+01  0.119444D-03  0.151418D+02
      5  0.603467D+01 -0.656236D+01 -0.616945D-04  0.118343D-03  0.136220D+02
      6  0.321445D-02 -0.191143D-03 -0.179121D+02 -0.452793D-05  0.286971D-03
      7  0.375544D+01  0.121532D+01  0.924995D-03 -0.563408D+01 -0.603488D+01
      8 -0.121538D+01 -0.147087D+01  0.209902D-03 -0.341552D+01 -0.656270D+01
      9 -0.926238D-03  0.209261D-03  0.162645D+01 -0.116686D-03 -0.616896D-04
     10  0.347928D+00  0.721846D-01  0.165415D-05 -0.387329D+01  0.936489D-04
     11 -0.116491D+00  0.204371D+00 -0.656370D-04  0.103536D-03 -0.496898D+00
     12 -0.124212D-02  0.644525D-04  0.267072D+01  0.176953D-05 -0.163587D-03
                6             7             8             9            10 
      6  0.471057D+02
      7 -0.321040D-02  0.153079D+01
      8 -0.193256D-03  0.470306D+01  0.782915D+01
      9 -0.179129D+02  0.104487D-02 -0.819295D-04  0.136157D+02
     10  0.000000D+00  0.347850D+00 -0.721639D-01 -0.194756D-05  0.317751D+01
     11  0.974268D-04  0.116501D+00  0.204420D+00 -0.656416D-04 -0.114385D-03
     12 -0.112806D+02  0.124054D-02  0.652830D-04  0.267077D+01  0.000000D+00
               11            12 
     11  0.881074D-01
     12  0.338519D-04  0.593915D+01
 Leave Link  701 at Thu Jan 16 16:11:14 2025, MaxMem= 24159191040 cpu:         5.0
 (Enter /usr/local/g09/l702.exe)
 L702 exits ... SP integral derivatives will be done elsewhere.
 Leave Link  702 at Thu Jan 16 16:11:14 2025, MaxMem= 24159191040 cpu:         0.2
 (Enter /usr/local/g09/l703.exe)
 Compute integral second derivatives, UseDBF=F ICtDFT=           0.
 Integral derivatives from FoFJK, PRISM(SPDF).
 ICntrl=  10100127.
 Calling FoFJK, ICntrl=  10100127 FMM=F ISym2X=0 I1Cent= 0 IOpClX= 1 NMat=1 NMatS=1 NMatT=0.
 FoFJK:  IHMeth= 1 ICntrl=10100127 DoSepK=F KAlg= 0 I1Cent=   0 FoldK=F
 IRaf=         0 NMat=   1 IRICut=       1 DoRegI=T DoRafI=F ISym2E= 0.
 FoFCou: FMM=F IPFlag=           0 FMFlag=      100000 FMFlg1=         800
         NFxFlg=           0 DoJE=F BraDBF=F KetDBF=F FulRan=T
         wScrn=  0.000000 ICntrl=10100127 IOpCl=  1 I1Cent=           0 NGrid=           0
         NMat0=    1 NMatS0=      1 NMatT0=    0 NMatD0=    1 NMtDS0=    0 NMtDT0=    0
 Symmetry not used in FoFCou.
 FoFCou:  KetSym=F NOpSet=  1 NOpAb=1 NOp=  1.
 FoFCou:  CnvScl= 1.00D+00 Thresh= 1.00D-12 IAcrcy=      10.
 PrismS was handed 24159107951 working-precision words and   698 shell-pairs
 FoFCou: LinMIO=F DoNuc=F BraDBF=F KetDBF=F HaveP=T PDBF=F HaveZ=T HaveW=F
         NIJTC =      10 NIJTAt=       0 NIJTCD=       0 NIJTT =      10
         IJTBeg=       1 IJTEnd=      10 KLTBeg=       1 KLTEnd=      10
         IPTBeg=       1 IPTEnd=      10 IPTBCv=       1 IPTECv=      10
         IZTBeg=       1 IZTEnd=      10 IZTBCv=       1 IZTECv=      10
         IWTBeg=      11 IWTEnd=      10 IWTBCv=      11 IWTECv=      10
         INTBeg=       1 INTEnd=       0 IFTBCv=       1 IFTECv=      10
 NCel replicated for PrismC:     1
 CoulSu:  IncDef=  1024 NBBP=         243951 NTPThr=   100 NPartT=   16 Incr=         152 LDynOK=F.
 CoulSu:  NPrtUS=  16 ThrOK=T IAlg=1 NPAlg=1 LenDen=           0 LWGrdD=           0 DoCopy=F.
 Enter PrismC: JobTyp=22 DoJE=F Cont=F.
 PrismC:  IPart=     0 DynPar=T LinDyn=F Incr=         152 UseFst=F UseS4=T IGathr=2.
 PrismC was handed  1509928462 working-precision words and   698 shell-pairs
 Enter PrismC: JobTyp=22 DoJE=F Cont=F.
 PrismC was handed  1509928462 working-precision words and   698 shell-pairs
 Enter PrismC: JobTyp=22 DoJE=F Cont=F.
 PrismC was handed  1509928462 working-precision words and   698 shell-pairs
 Enter PrismC: JobTyp=22 DoJE=F Cont=F.
 PrismC was handed  1509928462 working-precision words and   698 shell-pairs
 Enter PrismC: JobTyp=22 DoJE=F Cont=F.
 PrismC was handed  1509928462 working-precision words and   698 shell-pairs
 Enter PrismC: JobTyp=22 DoJE=F Cont=F.
 PrismC was handed  1509928462 working-precision words and   698 shell-pairs
 Enter PrismC: JobTyp=22 DoJE=F Cont=F.
 PrismC was handed  1509928462 working-precision words and   698 shell-pairs
 Enter PrismC: JobTyp=22 DoJE=F Cont=F.
 PrismC was handed  1509928462 working-precision words and   698 shell-pairs
 Enter PrismC: JobTyp=22 DoJE=F Cont=F.
 PrismC was handed  1509928462 working-precision words and   698 shell-pairs
 Enter PrismC: JobTyp=22 DoJE=F Cont=F.
 PrismC was handed  1509928462 working-precision words and   698 shell-pairs
 Enter PrismC: JobTyp=22 DoJE=F Cont=F.
 PrismC was handed  1509928462 working-precision words and   698 shell-pairs
 Enter PrismC: JobTyp=22 DoJE=F Cont=F.
 PrismC was handed  1509928462 working-precision words and   698 shell-pairs
 Enter PrismC: JobTyp=22 DoJE=F Cont=F.
 PrismC was handed  1509928462 working-precision words and   698 shell-pairs
 Enter PrismC: JobTyp=22 DoJE=F Cont=F.
 PrismC was handed  1509928462 working-precision words and   698 shell-pairs
 Enter PrismC: JobTyp=22 DoJE=F Cont=F.
 PrismC was handed  1509928462 working-precision words and   698 shell-pairs
 Enter PrismC: JobTyp=22 DoJE=F Cont=F.
 PrismC was handed  1509928462 working-precision words and   698 shell-pairs
 IPart=  5 NShTot=       25783 NShNF=       25783 NShFF=           0 NBatch=         860 AvBLen=        30.0
 IPart= 12 NShTot=       23529 NShNF=       23529 NShFF=           0 NBatch=         840 AvBLen=        28.0
 IPart=  7 NShTot=       23601 NShNF=       23601 NShFF=           0 NBatch=         928 AvBLen=        25.4
 IPart=  1 NShTot=       25527 NShNF=       25527 NShFF=           0 NBatch=         922 AvBLen=        27.7
 IPart=  9 NShTot=       11705 NShNF=       11705 NShFF=           0 NBatch=         444 AvBLen=        26.4
 IPart=  6 NShTot=       12251 NShNF=       12251 NShFF=           0 NBatch=         490 AvBLen=        25.0
 IPart= 14 NShTot=       13797 NShNF=       13797 NShFF=           0 NBatch=         619 AvBLen=        22.3
 IPart= 11 NShTot=       14554 NShNF=       14554 NShFF=           0 NBatch=         594 AvBLen=        24.5
 IPart= 13 NShTot=       12554 NShNF=       12554 NShFF=           0 NBatch=         543 AvBLen=        23.1
 IPart=  3 NShTot=       12638 NShNF=       12638 NShFF=           0 NBatch=         528 AvBLen=        23.9
 IPart= 15 NShTot=       10568 NShNF=       10568 NShFF=           0 NBatch=         345 AvBLen=        30.6
 IPart= 10 NShTot=       15287 NShNF=       15287 NShFF=           0 NBatch=         642 AvBLen=        23.8
 IPart=  2 NShTot=       12337 NShNF=       12337 NShFF=           0 NBatch=         548 AvBLen=        22.5
 IPart=  8 NShTot=       12954 NShNF=       12954 NShFF=           0 NBatch=         489 AvBLen=        26.5
 IPart=  4 NShTot=       12759 NShNF=       12759 NShFF=           0 NBatch=         573 AvBLen=        22.3
 IPart=  0 NShTot=         273 NShNF=         273 NShFF=           0 NBatch=          24 AvBLen=        11.4
 CoulSu:  NxtVal=         259161.
 ReadGW:  IGet=0 IStart=           1 Next=           1 LGW=           0.
 Remaining memory in FofDFT    23039.97 Mw
 CkSvGd:  ISavGI=        -1 IRadAn=       5 IRASav=       5 ISavGd=        -1.
 CalDSu:  NPrtUS=  16 ThrOK=T IAlg=1 NPAlg=2 DoDPD=T LenP=        6555 LenD1P=             0.
 IPart=  0 IRanGd=          0 ScrnBf=T ScrnGd=T RCrit=4.00D+00 DoMicB=T.
 IPart=  5         9261 of        10036 points in      10 batches and       62 microbatches, Max-NSigAt=       4 Max-NSgAt2=       4
 IPart= 11         6568 of         6890 points in       7 batches and       72 microbatches, Max-NSigAt=       4 Max-NSgAt2=       4
 IPart=  7         7207 of         7556 points in       7 batches and       31 microbatches, Max-NSigAt=       4 Max-NSgAt2=       4
 IPart=  0         3202 of         3322 points in       3 batches and       22 microbatches, Max-NSigAt=       4 Max-NSgAt2=       4
 IPart=  1         6530 of         6666 points in       5 batches and       32 microbatches, Max-NSigAt=       4 Max-NSgAt2=       4
 IPart=  3         3429 of         3568 points in       4 batches and       24 microbatches, Max-NSigAt=       4 Max-NSgAt2=       4
 IPart=  4         4650 of         4720 points in       4 batches and       14 microbatches, Max-NSigAt=       4 Max-NSgAt2=       4
 IPart=  8         3931 of         4144 points in       4 batches and       26 microbatches, Max-NSigAt=       4 Max-NSgAt2=       4
 IPart= 15         4772 of         4910 points in       4 batches and       34 microbatches, Max-NSigAt=       4 Max-NSgAt2=       4
 IPart=  9         4543 of         4748 points in       5 batches and       43 microbatches, Max-NSigAt=       4 Max-NSgAt2=       4
 IPart= 10         5613 of         6004 points in       6 batches and       38 microbatches, Max-NSigAt=       4 Max-NSgAt2=       4
 IPart= 14         4020 of         4130 points in       4 batches and       15 microbatches, Max-NSigAt=       4 Max-NSgAt2=       4
 IPart=  2         4323 of         4488 points in       4 batches and       36 microbatches, Max-NSigAt=       4 Max-NSgAt2=       4
 IPart= 13         4059 of         4144 points in       4 batches and       15 microbatches, Max-NSigAt=       4 Max-NSgAt2=       4
 IPart= 12         6988 of         7164 points in       6 batches and       40 microbatches, Max-NSigAt=       4 Max-NSgAt2=       4
 IPart=  6         6286 of         6392 points in       5 batches and       37 microbatches, Max-NSigAt=       4 Max-NSgAt2=       4
 Polarizability after L703:
                1             2             3 
      1 -0.397877D+03
      2 -0.153792D-02  0.182714D+02
      3 -0.215726D-03 -0.917408D-01 -0.869874D+03
 Dipole Derivatives after L703:
                 1             2             3             4             5 
      1  -0.290976D+02 -0.161359D+02  0.165761D-04  0.639332D+02 -0.968054D-03
      2  -0.233596D-01 -0.432849D+00  0.431548D-02  0.160878D-03  0.968452D+00
      3  -0.200609D-01  0.120397D-02  0.419233D+02  0.290256D-04 -0.682708D-03
                 6             7             8             9            10 
      1  -0.335667D-04 -0.290944D+02  0.161369D+02  0.381996D-05 -0.574109D+01
      2  -0.141914D-01  0.232134D-01 -0.432832D+00  0.431556D-02 -0.147446D-04
      3  -0.137598D+03  0.200350D-01  0.121752D-02  0.419241D+02 -0.311393D-05
                11            12 
      1  -0.278174D-04  0.131706D-04
      2  -0.102770D+00  0.556034D-02
      3  -0.173879D-02  0.537501D+02
 Hessian after L703:
                1             2             3             4             5 
      1  0.237656D+01
      2  0.131275D+01  0.830789D+00
      3 -0.971050D-03  0.536691D-04  0.203280D+01
      4 -0.455899D+01 -0.254766D+01  0.143836D-04  0.100510D+02
      5 -0.257667D+00 -0.271947D+00 -0.273617D-04 -0.139141D-03  0.852583D+00
      6  0.316005D-02 -0.184898D-03 -0.664989D+01 -0.451215D-05  0.102316D-03
      7  0.178716D+01  0.104657D+01  0.959859D-03 -0.455851D+01  0.257801D+00
      8 -0.104676D+01 -0.543534D+00  0.577415D-04  0.254781D+01 -0.272039D+00
      9 -0.961101D-03  0.570996D-04  0.203285D+01 -0.116434D-04 -0.273618D-04
     10  0.395267D+00  0.188340D+00 -0.319358D-05 -0.933533D+00  0.469903D-05
     11 -0.833015D-02 -0.153077D-01 -0.840489D-04 -0.110108D-04 -0.308597D+00
     12 -0.122790D-02  0.741292D-04  0.258423D+01  0.177194D-05 -0.475926D-04
                6             7             8             9            10 
      6  0.217537D+02
      7 -0.315602D-02  0.237613D+01
      8 -0.187016D-03 -0.131270D+01  0.830885D+00
      9 -0.665003D+01  0.969845D-03  0.543128D-04  0.203289D+01
     10  0.000000D+00  0.395223D+00 -0.188349D+00  0.289857D-05  0.143042D+00
     11  0.269598D-03  0.833681D-02 -0.153125D-01 -0.840506D-04  0.435094D-05
     12 -0.845376D+01  0.122631D-02  0.749618D-04  0.258429D+01  0.000000D+00
               11            12 
     11  0.339217D+00
     12 -0.101498D-03  0.328524D+01
 Leave Link  703 at Thu Jan 16 16:11:26 2025, MaxMem= 24159191040 cpu:       185.1
 (Enter /usr/local/g09/l716.exe)
 FrcOut:
 IF    =    40 IFX   =    52 IFXYZ =    64
 IFFX  =    76 IFFFX =   154 IFLen =    12
 IFFLen=    78 IFFFLn=     0 IEDerv=   154
 LEDerv=   629 IFroze=   941 ICStrt= 20794
 Dipole        =-1.25355748D-04 9.39254319D-01-1.55941536D-04
 DipoleDeriv   =-2.90976382D+01-2.33595685D-02-2.00608673D-02
                -1.61358857D+01-4.32849206D-01 1.20397453D-03
                 1.65761314D-05 4.31547515D-03 4.19233486D+01
                 6.39331741D+01 1.60878141D-04 2.90255691D-05
                -9.68054169D-04 9.68451794D-01-6.82707874D-04
                -3.35666709D-05-1.41913740D-02-1.37597546D+02
                -2.90944489D+01 2.32134350D-02 2.00349557D-02
                 1.61368815D+01-4.32832193D-01 1.21752040D-03
                 3.81996413D-06 4.31556075D-03 4.19241148D+01
                -5.74108702D+00-1.47446156D-05-3.11392708D-06
                -2.78174122D-05-1.02770395D-01-1.73878706D-03
                 1.31705708D-05 5.56033812D-03 5.37500826D+01
 Polarizability=-3.97877296D+02-1.53791570D-03 1.82713804D+01
                -2.15726447D-04-9.17408132D-02-8.69874295D+02
 VibFq2-Diag1:  N=     12 IV=           5 MDV= 24159169498 NE2=  2013264124
 Full mass-weighted force constant matrix:
 Low frequencies ---   -4.3823   -2.1200   -1.6692   -0.0012   -0.0012   -0.0007
 Low frequencies ---  651.3862 1282.0556 1478.8421
 OrtVCM:  Ph=1 IPass= 1 DotMx1= 0.00D+00
 OrtVCM:  IS=    1 I=    1 IndO=    1 Dot= 1.00D+00 DotN= 1.00D+00 ElMax1= 5.96D-01 ElMax1N= 5.96D-01
 OrtVCM:  Ph=2 NNew=    0 IAdd=    2 IPass= 1 DotMx2= 0.00D+00
 OrtVCM:  IS=    1 I=    2 IndO=    2 Dot= 1.00D+00 DotN= 1.00D+00 ElMax1= 5.96D-01 ElMax1N= 5.96D-01
 OrtVCM:  Ph=2 NNew=    0 IAdd=    3 IPass= 1 DotMx2= 0.00D+00
 OrtVCM:  IS=    1 I=    3 IndO=    3 Dot= 1.00D+00 DotN= 1.00D+00 ElMax1= 5.96D-01 ElMax1N= 5.96D-01
 OrtVCM:  Ph=2 NNew=    0 IAdd=    4 IPass= 1 DotMx2= 5.35D-17
 OrtVCM:  IS=    1 I=    4 IndO=    4 Dot= 1.00D+00 DotN= 1.00D+00 ElMax1= 6.27D-01 ElMax1N= 6.27D-01
 OrtVCM:  Ph=2 NNew=    0 IAdd=    5 IPass= 1 DotMx2= 2.01D-17
 OrtVCM:  IS=    1 I=    5 IndO=    5 Dot= 1.00D+00 DotN= 1.00D+00 ElMax1= 7.07D-01 ElMax1N= 7.07D-01
 OrtVCM:  Ph=2 NNew=    0 IAdd=    6 IPass= 1 DotMx2= 2.61D-17
 OrtVCM:  IS=    1 I=    6 IndO=    6 Dot= 1.00D+00 DotN= 1.00D+00 ElMax1= 6.47D-01 ElMax1N= 6.47D-01
 OrtVCM:  Ph=1 IPass= 1 DotMx1= 7.07D-01
 OrtVCM:  Ph=1 IPass= 2 DotMx1= 1.91D-16
 OrtVCM:  IS=    1 I=    1 IndO=    7 Dot= 6.25D-01 DotN= 6.25D-01 ElMax1= 6.25D-01 ElMax1N= 6.25D-01
 OrtVCM:  Ph=2 NNew=    0 IAdd=    2 IPass= 1 DotMx2= 1.14D-01
 OrtVCM:  Ph=2 NNew=    0 IAdd=    2 IPass= 2 DotMx2= 1.70D-17
 OrtVCM:  IS=    1 I=    2 IndO=    8 Dot= 2.12D-01 DotN= 2.12D-01 ElMax1= 3.08D-01 ElMax1N= 3.08D-01
 OrtVCM:  Ph=2 NNew=    0 IAdd=    3 IPass= 1 DotMx2= 3.39D-07
 OrtVCM:  Ph=2 NNew=    0 IAdd=    3 IPass= 2 DotMx2= 3.39D-23
 OrtVCM:  IS=    1 I=    3 IndO=    9 Dot= 2.39D-02 DotN= 2.39D-02 ElMax1= 1.21D-01 ElMax1N= 1.21D-01
 OrtVCM:  Ph=2 NNew=    0 IAdd=    4 IPass= 1 DotMx2= 3.45D-01
 OrtVCM:  Ph=2 NNew=    0 IAdd=    4 IPass= 2 DotMx2= 7.37D-17
 OrtVCM:  IS=    1 I=    4 IndO=   10 Dot= 4.79D-01 DotN= 4.79D-01 ElMax1= 4.79D-01 ElMax1N= 4.79D-01
 OrtVCM:  Ph=2 NNew=    0 IAdd=    5 IPass= 1 DotMx2= 6.68D-01
 OrtVCM:  Ph=2 NNew=    0 IAdd=    5 IPass= 2 DotMx2= 1.10D-16
 OrtVCM:  IS=    1 I=    5 IndO=   11 Dot= 2.20D-01 DotN= 2.20D-01 ElMax1= 3.11D-01 ElMax1N= 3.11D-01
 OrtVCM:  Ph=2 NNew=    0 IAdd=    6 IPass= 1 DotMx2= 5.83D-01
 OrtVCM:  Ph=2 NNew=    0 IAdd=    6 IPass= 2 DotMx2= 3.61D-17
 OrtVCM:  IS=    1 I=    6 IndO=    0 Dot= 5.65D-35 DotN= 5.65D-35 ElMax1= 5.34D-18 ElMax1N= 5.34D-18
 SchOr2:  IPass= 1 Test2A= 1.00D-01 IOff=     0 NDo=     6 NNew=     5
 OrtVCM:  Ph=1 IPass= 1 DotMx1= 5.96D-01
 OrtVCM:  Ph=1 IPass= 2 DotMx1= 1.83D-16
 OrtVCM:  IS=    1 I=    1 IndO=   12 Dot= 1.50D-02 DotN= 1.50D-02 ElMax1= 1.03D-01 ElMax1N= 1.03D-01
 SchOr2:  IPass= 1 Test2A= 1.00D-01 IOff=     6 NDo=     1 NNew=     1
 VibFq2-Diag2:  N=      6 IV=           5 MDV= 24159169498 NE2=  4026528249
 Dipole derivatives wrt mode   1: -4.98973D-04  4.75657D+00  3.68153D-04
 Vibrational polarizability contributions from mode   1       0.0000000       1.4349738       0.0000000
 Vibrational hyperpolarizability contributions from mode   1       0.0000000       0.0000000       0.0000000
 Dipole derivatives wrt mode   2: -9.23819D+00 -3.71200D-04  7.21956D-08
 Vibrational polarizability contributions from mode   2       1.3973125       0.0000000       0.0000000
 Vibrational hyperpolarizability contributions from mode   2       0.0000000       0.0000000       0.0000000
 Dipole derivatives wrt mode   3:  5.50405D-04 -7.39597D+00  1.72713D-03
 Vibrational polarizability contributions from mode   3       0.0000000       0.6731001       0.0000000
 Vibrational hyperpolarizability contributions from mode   3       0.0000000       0.0000000       0.0000000
 Dipole derivatives wrt mode   4:  2.04352D-03 -5.65597D+00  1.89101D-03
 Vibrational polarizability contributions from mode   4       0.0000000       0.0895992       0.0000000
 Vibrational hyperpolarizability contributions from mode   4       0.0000000       0.0000000       0.0000000
 Dipole derivatives wrt mode   5:  7.06253D+02  1.57449D-03 -9.88509D-05
 Vibrational polarizability contributions from mode   5     402.0271450       0.0000000       0.0000000
 Vibrational hyperpolarizability contributions from mode   5       0.0000000       0.0000000       0.0000000
 Dipole derivatives wrt mode   6:  6.62785D-04  2.20375D-01  2.13236D+03
 Vibrational polarizability contributions from mode   6       0.0000000       0.0000093     869.3331729
 Vibrational hyperpolarizability contributions from mode   6       0.0000000       0.0000000       0.0000000
 Diagonal vibrational polarizability:
      403.4244576       2.1976824     869.3331730
 NorSel:  MapVib=      1      2      3      4      5      6
 Harmonic frequencies (cm**-1), IR intensities (KM/Mole), Raman scattering
 activities (A**4/AMU), depolarization ratios for plane and unpolarized
 incident light, reduced masses (AMU), force constants (mDyne/A),
 and normal coordinates:
                      1                      2                      3
                      A                      A                      A
 Frequencies --    651.3862              1282.0556              1478.8421
 Red. masses --     12.2034                 1.1753                 8.6591
 Frc consts  --      3.0508                 1.1382                11.1575
 IR Inten    --     22.6250                85.3442                54.7004
  Atom  AN      X      Y      Z        X      Y      Z        X      Y      Z
     1   8     0.51  -0.19   0.00     0.04   0.06   0.00     0.29   0.23   0.00
     2   6     0.00   0.46   0.00    -0.03   0.00   0.00     0.00  -0.57   0.00
     3   8    -0.51  -0.19   0.00     0.04  -0.06   0.00    -0.29   0.23   0.00
     4   1     0.00   0.44   0.00    -0.99   0.00   0.00     0.00  -0.64   0.00
                      4                      5                      6
                      A                      A                      A
 Frequencies --   3099.7162              5778.2888             11864.0891
 Red. masses --      1.0938                 7.0451                 1.5660
 Frc consts  --      6.1917               138.5910               129.8726
 IR Inten    --     31.9900            498793.4795           4546968.6148
  Atom  AN      X      Y      Z        X      Y      Z        X      Y      Z
     1   8     0.00   0.00   0.00    -0.21  -0.12   0.00     0.00   0.00   0.05
     2   6     0.00  -0.09   0.00     0.62   0.00   0.00     0.00   0.00  -0.21
     3   8     0.00   0.00   0.00    -0.21   0.12   0.00     0.00   0.00   0.05
     4   1     0.00   1.00   0.00    -0.70   0.00   0.00     0.00   0.00   0.98

 -------------------
 - Thermochemistry -
 -------------------
 Temperature   298.150 Kelvin.  Pressure   1.00000 Atm.
 Atom     1 has atomic number  8 and mass  15.99491
 Atom     2 has atomic number  6 and mass  12.00000
 Atom     3 has atomic number  8 and mass  15.99491
 Atom     4 has atomic number  1 and mass   1.00783
 Molecular mass:    44.99765 amu.
 Principal axes and moments of inertia in atomic units:
                           1         2         3
     Eigenvalues --    24.04934 124.35327 148.40261
           X            1.00000   0.00000   0.00000
           Y            0.00000   1.00000   0.00000
           Z            0.00000   0.00000   1.00000
 This molecule is an asymmetric top.
 Rotational symmetry number  1.
 Rotational temperatures (Kelvin)      3.60151     0.69651     0.58364
 Rotational constants (GHZ):          75.04328    14.51302    12.16111
 Zero-point vibrational energy     144475.3 (Joules/Mol)
                                   34.53042 (Kcal/Mol)
 Vibrational temperatures:    937.20  1844.59  2127.72  4459.79  8313.66
          (Kelvin)          17069.76
 
 Zero-point correction=                           0.055028 (Hartree/Particle)
 Thermal correction to Energy=                    0.058011
 Thermal correction to Enthalpy=                  0.058956
 Thermal correction to Gibbs Free Energy=         0.030519
 Sum of electronic and zero-point Energies=           -188.981898
 Sum of electronic and thermal Energies=              -188.978914
 Sum of electronic and thermal Enthalpies=            -188.977970
 Sum of electronic and thermal Free Energies=         -189.006406
 
                     E (Thermal)             CV                S
                      KCal/Mol        Cal/Mol-Kelvin    Cal/Mol-Kelvin
 Total                   36.403              7.125             59.850
 Electronic               0.000              0.000              1.377
 Translational            0.889              2.981             37.338
 Rotational               0.889              2.981             20.723
 Vibrational             34.625              1.163              0.412
                       Q            Log10(Q)             Ln(Q)
 Total Bot       0.916571D-14        -14.037834        -32.323307
 Total V=0       0.187546D+12         11.273107         25.957289
 Vib (Bot)       0.512211D-25        -25.290551        -58.233646
 Vib (V=0)       0.104807D+01          0.020390          0.046950
 Electronic      0.200000D+01          0.301030          0.693147
 Translational   0.118642D+08          7.074240         16.289040
 Rotational      0.754132D+04          3.877447          8.928152
 
                                                                 OCHO
                                                             IR Spectrum
 
      1                                                                5                           3                 1 1             
      8                                                                7                           1                 4 2      6      
      6                                                                7                           0                 7 8      5      
      4                                                                8                           0                 9 2      1      
 
      X                                                                X                           X                 X X      X      
      X                                                                X                                                             
      X                                                                                                                              
      X                                                                                                                              
      X                                                                                                                              
      X                                                                                                                              
      X                                                                                                                              
      X                                                                                                                              
      X                                                                                                                              
      X                                                                                                                              
      X                                                                                                                              
      X                                                                                                                              
      X                                                                                                                              
      X                                                                                                                              
      X                                                                                                                              
      X                                                                                                                              
      X                                                                                                                              
      X                                                                                                                              
      X                                                                                                                              
      X                                                                                                                              
 
 Forces in standard orientation:
 -------------------------------------------------------------------
 Center     Atomic                   Forces (Hartrees/Bohr)
 Number     Number              X              Y              Z
 -------------------------------------------------------------------
      1        8           0.000007527    0.000004443   -0.000007231
      2        6          -0.000019385   -0.000001808    0.000023691
      3        8           0.000007916   -0.000001781   -0.000007231
      4        1           0.000003942   -0.000000853   -0.000009229
 -------------------------------------------------------------------
 ***** Axes restored to original set *****
 Rotating derivatives, DoTrsp=F IDiff=-2 LEDeriv=    628 LFDPrp=       0 LDFDPr=       0.
 -------------------------------------------------------------------
 Center     Atomic                   Forces (Hartrees/Bohr)
 Number     Number              X              Y              Z
 -------------------------------------------------------------------
      1        8           0.000008547   -0.000002537   -0.000007014
      2        6          -0.000019864   -0.000002826    0.000023190
      3        8           0.000007453    0.000003602   -0.000007042
      4        1           0.000003864    0.000001761   -0.000009133
 -------------------------------------------------------------------
 Cartesian Forces:  Max     0.000023190 RMS     0.000010363
 Z-matrix is all fixed cartesians, so copy forces.
 Force constants in Cartesian coordinates: 
                1             2             3             4             5 
      1  0.289283D+01
      2 -0.810528D+00  0.313993D+00
      3  0.211729D-01 -0.209876D-01  0.203332D+01
      4 -0.496501D+01  0.140535D+01  0.431592D-01  0.954468D+01
      5 -0.883866D+00  0.132887D+00 -0.229875D-01  0.211280D+01  0.136697D+01
      6  0.462943D-01  0.366358D-01 -0.664870D+01 -0.313289D+00  0.551322D-01
      7  0.165705D+01 -0.510912D+00 -0.866845D-02 -0.367611D+01 -0.108541D+01
      8  0.158171D+01 -0.413171D+00  0.408710D-01 -0.337465D+01 -0.115632D+01
      9 -0.106410D-01 -0.132656D-01  0.203260D+01  0.764440D-01 -0.280987D-01
     10  0.415127D+00 -0.839095D-01 -0.556637D-01 -0.903562D+00 -0.143531D+00
     11  0.112685D+00 -0.337091D-01  0.310422D-02 -0.143508D+00 -0.343538D+00
     12 -0.568262D-01 -0.238253D-02  0.258278D+01  0.193686D+00 -0.404597D-02
                6             7             8             9            10 
      6  0.217456D+02
      7  0.732352D-01  0.168670D+01
      8 -0.874140D-01  0.152043D+01  0.152049D+01
      9 -0.664814D+01 -0.800264D-02  0.392067D-01  0.203271D+01
     10  0.193760D+00  0.332361D+00  0.272509D+00 -0.578004D-01  0.156074D+00
     11 -0.435396D-02  0.758907D-01  0.490013D-01  0.215758D-02 -0.450678D-01
     12 -0.844879D+01 -0.565641D-01  0.733633D-02  0.258283D+01 -0.802956D-01
               11            12 
     11  0.328246D+00
     12 -0.907839D-03  0.328318D+01
 Final forces over variables, Energy=-1.89036925D+02:
  8.54713174D-06-1.98644063D-05 7.45310634D-06 3.86416828D-06
 -2.53748123D-06-2.82564685D-06 3.60212165D-06 1.76100641D-06
 -7.01406641D-06 2.31895911D-05-7.04228239D-06-9.13324229D-06
 Leave Link  716 at Thu Jan 16 16:11:26 2025, MaxMem= 24159191040 cpu:         0.2
 (Enter /usr/local/g09/l103.exe)

 GradGradGradGradGradGradGradGradGradGradGradGradGradGradGradGradGradGrad
 Berny optimization.
 Search for a local minimum.
 Step number   1 out of a maximum of    2
 All quantities printed in internal units (Hartrees-Bohrs-Radians)
 Second derivative matrix not updated -- analytic derivatives used.
 The second derivative matrix:
                          X1        Y1        Z1        X2        Y2
           X1           2.89283
           Y1          -0.81053   0.31399
           Z1           0.02117  -0.02099   2.03332
           X2          -4.96501   1.40535   0.04316   9.54468
           Y2          -0.88387   0.13289  -0.02299   2.11280   1.36697
           Z2           0.04629   0.03664  -6.64870  -0.31329   0.05513
           X3           1.65705  -0.51091  -0.00867  -3.67611  -1.08541
           Y3           1.58171  -0.41317   0.04087  -3.37465  -1.15632
           Z3          -0.01064  -0.01327   2.03260   0.07644  -0.02810
           X4           0.41513  -0.08391  -0.05566  -0.90356  -0.14353
           Y4           0.11268  -0.03371   0.00310  -0.14351  -0.34354
           Z4          -0.05683  -0.00238   2.58278   0.19369  -0.00405
                          Z2        X3        Y3        Z3        X4
           Z2          21.74563
           X3           0.07324   1.68670
           Y3          -0.08741   1.52043   1.52049
           Z3          -6.64814  -0.00800   0.03921   2.03271
           X4           0.19376   0.33236   0.27251  -0.05780   0.15607
           Y4          -0.00435   0.07589   0.04900   0.00216  -0.04507
           Z4          -8.44879  -0.05656   0.00734   2.58283  -0.08030
                          Y4        Z4
           Y4           0.32825
           Z4          -0.00091   3.28318
 ITU=  0
     Eigenvalues ---    0.11609   0.18084   0.48468   1.36672  15.56442
     Eigenvalues ---   24.94327
 Angle between quadratic step and forces=  80.76 degrees.
 Linear search not attempted -- first point.
 TrRot= -0.000003 -0.000002  0.000000  0.000001  0.000000  0.000001
 Variable       Old X    -DE/DX   Delta X   Delta X   Delta X     New X
                                 (Linear)    (Quad)   (Total)
    X1        2.19244   0.00001   0.00000  -0.00001  -0.00001   2.19243
    Y1       -0.67381   0.00000   0.00000   0.00000   0.00000  -0.67381
    Z1        0.05628  -0.00001   0.00000   0.00000   0.00000   0.05628
    X2       -0.03312  -0.00002   0.00000  -0.00001  -0.00001  -0.03313
    Y2        0.13617   0.00000   0.00000   0.00000   0.00000   0.13617
    Z2       -0.00085   0.00002   0.00000   0.00000   0.00000  -0.00085
    X3       -1.63771   0.00001   0.00000   0.00000   0.00000  -1.63770
    Y3       -1.60625   0.00000   0.00000  -0.00001  -0.00001  -1.60626
    Z3       -0.04193  -0.00001   0.00000   0.00000   0.00000  -0.04193
    X4       -0.52160   0.00000   0.00000   0.00002   0.00001  -0.52159
    Y4        2.14389   0.00000   0.00000   0.00001   0.00001   2.14390
    Z4       -0.01349  -0.00001   0.00000   0.00000   0.00000  -0.01349
         Item               Value     Threshold  Converged?
 Maximum Force            0.000023     0.000450     YES
 RMS     Force            0.000010     0.000300     YES
 Maximum Displacement     0.000015     0.001800     YES
 RMS     Displacement     0.000008     0.001200     YES
 Predicted change in Energy=-8.437481D-11
 Optimization completed.
    -- Stationary point found.
 GradGradGradGradGradGradGradGradGradGradGradGradGradGradGradGradGradGrad

 Leave Link  103 at Thu Jan 16 16:11:26 2025, MaxMem= 24159191040 cpu:         0.1
 (Enter /usr/local/g09/l9999.exe)

 Test job not archived.
 1\1\GINC-N132\Freq\UB2PLYPD3-FC\def2TZVP\C1H1O2(2)\JINTAOWU\16-Jan-202
 5\0\\#P guess=read ub2plypd3/def2tzvp freq IOp(7/33=1) integral=(grid=
 ultrafine, Acc2E=12) IOp(2/9=2000) scf=(direct,tight)\\OCHO\\0,2\O,1.1
 60188,-0.356566,0.029781\C,-0.017527,0.072059,-0.000452\O,-0.866638,-0
 .84999,-0.022189\H,-0.276021,1.134498,-0.00714\\Version=EM64L-G09RevD.
 01\State=2-A\HF=-188.8316671\MP2=-189.0369253\S2=0.767375\S2-1=0.\S2A=
 0.750119\RMSD=7.264e-09\RMSF=1.036e-05\ZeroPoint=0.0550277\Thermal=0.0
 580115\Dipole=-0.221906,0.9126474,-0.0055829\DipoleDeriv=-31.1589897,-
 7.4635743,-1.8936399,8.6436978,1.6770648,0.2178623,-1.8742115,-0.19361
 92,41.874786,60.2822649,14.461398,5.0754247,14.4628626,4.4892651,0.364
 499,5.0721696,0.3775765,-137.4674501,-23.736332,-5.7028925,-1.6643704,
 -21.8114606,-5.7483068,-0.5535691,-1.6822854,-0.1480788,41.8814726,-5.
 3869432,-1.2949312,-1.5174144,-1.2950999,-0.4180231,-0.0287922,-1.5156
 727,-0.0358785,53.7111915\Polar=-374.9341892,-95.5810607,-4.9965622,12
 .6798329,-2.4066459,-869.549459\PG=C01 [X(C1H1O2)]\NImag=0\\2.89283354
 ,-0.81052810,0.31399298,0.02117293,-0.02098764,2.03332300,-4.96500770,
 1.40535005,0.04315921,9.54468165,-0.88386591,0.13288703,-0.02298754,2.
 11280438,1.36697176,0.04629430,0.03663582,-6.64869960,-0.31328919,0.05
 513217,21.74562965,1.65704723,-0.51091243,-0.00866845,-3.67611210,-1.0
 8540717,0.07323519,1.68670351,1.58170922,-0.41317091,0.04087097,-3.374
 64674,-1.15632035,-0.08741403,1.52042889,1.52048993,-0.01064102,-0.013
 26565,2.03260137,0.07644404,-0.02809866,-6.64814234,-0.00800264,0.0392
 0673,2.03270699,0.41512693,-0.08390952,-0.05566369,-0.90356185,-0.1435
 3129,0.19375970,0.33236136,0.27250863,-0.05780038,0.15607356,0.1126847
 8,-0.03370910,0.00310422,-0.14350768,-0.34353844,-0.00435396,0.0758907
 2,0.04900133,0.00215758,-0.04506782,0.32824621,-0.05682621,-0.00238253
 ,2.58277522,0.19368595,-0.00404597,-8.44878771,-0.05656410,0.00733633,
 2.58283398,-0.08029564,-0.00090784,3.28317851\\-0.00000855,0.00000254,
 0.00000701,0.00001986,0.00000283,-0.00002319,-0.00000745,-0.00000360,0
 .00000704,-0.00000386,-0.00000176,0.00000913\\\@


 YOU CANNOT THROW TO THE GROUND THE LETTERS OF
 THE GREEK ALPHABET AND PICK UP THE ILIAD.
        - RUFUS CHOATE, 1799-1859
 Job cpu time:       0 days  0 hours 31 minutes 54.0 seconds.
 File lengths (MBytes):  RWF=   1245 Int=      0 D2E=      0 Chk=      3 Scr=      1
 Normal termination of Gaussian 09 at Thu Jan 16 16:11:26 2025.
