 Entering Gaussian System, Link 0=g03
 Input=BenzylEnergy.com
 Output=BenzylEnergy.log
 Initial command:
 /opt/g03/l1.exe /scratch/laitcl/Gau-12260.inp -scrdir=/scratch/laitcl/
 Entering Link 1 = /opt/g03/l1.exe PID=     12262.
  
 Copyright (c) 1988,1990,1992,1993,1995,1998,2003,2004, Gaussian, Inc.
                  All Rights Reserved.
  
 This is the Gaussian(R) 03 program.  It is based on the
 the Gaussian(R) 98 system (copyright 1998, Gaussian, Inc.),
 the Gaussian(R) 94 system (copyright 1995, Gaussian, Inc.),
 the Gaussian 92(TM) system (copyright 1992, Gaussian, Inc.),
 the Gaussian 90(TM) system (copyright 1990, Gaussian, Inc.),
 the Gaussian 88(TM) system (copyright 1988, Gaussian, Inc.),
 the Gaussian 86(TM) system (copyright 1986, Carnegie Mellon
 University), and the Gaussian 82(TM) system (copyright 1983,
 Carnegie Mellon University). Gaussian is a federally registered
 trademark of Gaussian, Inc.
  
 This software contains proprietary and confidential information,
 including trade secrets, belonging to Gaussian, Inc.
  
 This software is provided under written license and may be
 used, copied, transmitted, or stored only in accord with that
 written license.
  
 The following legend is applicable only to US Government
 contracts under FAR:
  
                    RESTRICTED RIGHTS LEGEND
  
 Use, reproduction and disclosure by the US Government is
 subject to restrictions as set forth in subparagraphs (a)
 and (c) of the Commercial Computer Software - Restricted
 Rights clause in FAR 52.227-19.
  
 Gaussian, Inc.
 340 Quinnipiac St., Bldg. 40, Wallingford CT 06492
  
  
 ---------------------------------------------------------------
 Warning -- This program may not be used in any manner that
 competes with the business of Gaussian, Inc. or will provide
 assistance to any competitor of Gaussian, Inc.  The licensee
 of this program is prohibited from giving any competitor of
 Gaussian, Inc. access to this program.  By using this program,
 the user acknowledges that Gaussian, Inc. is engaged in the
 business of creating and licensing software in the field of
 computational chemistry and represents and warrants to the
 licensee that it is not a competitor of Gaussian, Inc. and that
 it will not use this program in any manner prohibited above.
 ---------------------------------------------------------------
  

 Cite this work as:
 Gaussian 03, Revision D.01,
 M. J. Frisch, G. W. Trucks, H. B. Schlegel, G. E. Scuseria, 
 M. A. Robb, J. R. Cheeseman, J. A. Montgomery, Jr., T. Vreven, 
 K. N. Kudin, J. C. Burant, J. M. Millam, S. S. Iyengar, J. Tomasi, 
 V. Barone, B. Mennucci, M. Cossi, G. Scalmani, N. Rega, 
 G. A. Petersson, H. Nakatsuji, M. Hada, M. Ehara, K. Toyota, 
 R. Fukuda, J. Hasegawa, M. Ishida, T. Nakajima, Y. Honda, O. Kitao, 
 H. Nakai, M. Klene, X. Li, J. E. Knox, H. P. Hratchian, J. B. Cross, 
 V. Bakken, C. Adamo, J. Jaramillo, R. Gomperts, R. E. Stratmann, 
 O. Yazyev, A. J. Austin, R. Cammi, C. Pomelli, J. W. Ochterski, 
 P. Y. Ayala, K. Morokuma, G. A. Voth, P. Salvador, J. J. Dannenberg, 
 V. G. Zakrzewski, S. Dapprich, A. D. Daniels, M. C. Strain, 
 O. Farkas, D. K. Malick, A. D. Rabuck, K. Raghavachari, 
 J. B. Foresman, J. V. Ortiz, Q. Cui, A. G. Baboul, S. Clifford, 
 J. Cioslowski, B. B. Stefanov, G. Liu, A. Liashenko, P. Piskorz, 
 I. Komaromi, R. L. Martin, D. J. Fox, T. Keith, M. A. Al-Laham, 
 C. Y. Peng, A. Nanayakkara, M. Challacombe, P. M. W. Gill, 
 B. Johnson, W. Chen, M. W. Wong, C. Gonzalez, and J. A. Pople, 
 Gaussian, Inc., Wallingford CT, 2004.
 
 ******************************************
 Gaussian 03:  AM64L-G03RevD.01 13-Oct-2005
                16-Feb-2017 
 ******************************************
 %chk=BenzylEnergy.chk
 %mem=1000mb
 %nprocshared=8
 Will use up to    8 processors via shared memory.
 ---------
 # cbs-qb3
 ---------
 1/14=-1,18=20,26=3,38=1/1,3;
 2/9=110,17=6,18=5,40=1/2;
 3/5=4,6=6,7=700,11=2,16=1,25=1,30=1,74=-5/1,2,3;
 4//1;
 5/5=2,38=5/2;
 6/7=2,8=2,9=2,10=2,28=1/1;
 7//1,2,3,16;
 1/14=-1,18=20/3(3);
 2/9=110/2;
 6/7=2,8=2,9=2,10=2,19=2,28=1/1;
 99//99;
 2/9=110/2;
 3/5=4,6=6,7=700,11=2,16=1,25=1,30=1,74=-5/1,2,3;
 4/5=5,16=3/1;
 5/5=2,38=5/2;
 7//1,2,3,16;
 1/14=-1,18=20/3(-5);
 2/9=110/2;
 6/7=2,8=2,9=2,10=2,19=2,28=1/1;
 99/9=1/99;
 -------------
 Benzyl Energy
 -------------
 Symbolic Z-matrix:
 Charge =  0 Multiplicity = 2
 C                     0.       -1.8372    0. 
 C                     0.       -1.13214   1.2104 
 C                     0.        0.25141   1.21689 
 C                     0.        0.99448   0. 
 C                     0.        0.25141  -1.21689 
 C                     0.       -1.13214  -1.2104 
 H                     0.       -2.92093   0. 
 H                     0.       -1.67424   2.14976 
 H                     0.        0.79047   2.15838 
 H                     0.        0.79047  -2.15838 
 H                     0.       -1.67424  -2.14976 
 C                     0.        2.39946   0. 
 H                     0.        2.95838   0.92744 
 H                     0.        2.95838  -0.92744 
 

 GradGradGradGradGradGradGradGradGradGradGradGradGradGradGradGradGradGrad
 Berny optimization.
 Initialization pass.
                           ----------------------------
                           !    Initial Parameters    !
                           ! (Angstroms and Degrees)  !
 --------------------------                            --------------------------
 ! Name  Definition              Value          Derivative Info.                !
 --------------------------------------------------------------------------------
 ! R1    R(1,2)                  1.4008         estimate D2E/DX2                !
 ! R2    R(1,6)                  1.4008         estimate D2E/DX2                !
 ! R3    R(1,7)                  1.0837         estimate D2E/DX2                !
 ! R4    R(2,3)                  1.3836         estimate D2E/DX2                !
 ! R5    R(2,8)                  1.0846         estimate D2E/DX2                !
 ! R6    R(3,4)                  1.4258         estimate D2E/DX2                !
 ! R7    R(3,9)                  1.0849         estimate D2E/DX2                !
 ! R8    R(4,5)                  1.4258         estimate D2E/DX2                !
 ! R9    R(4,12)                 1.405          estimate D2E/DX2                !
 ! R10   R(5,6)                  1.3836         estimate D2E/DX2                !
 ! R11   R(5,10)                 1.0849         estimate D2E/DX2                !
 ! R12   R(6,11)                 1.0846         estimate D2E/DX2                !
 ! R13   R(12,13)                1.0828         estimate D2E/DX2                !
 ! R14   R(12,14)                1.0828         estimate D2E/DX2                !
 ! A1    A(2,1,6)              119.5583         estimate D2E/DX2                !
 ! A2    A(2,1,7)              120.2209         estimate D2E/DX2                !
 ! A3    A(6,1,7)              120.2209         estimate D2E/DX2                !
 ! A4    A(1,2,3)              120.4896         estimate D2E/DX2                !
 ! A5    A(1,2,8)              119.7901         estimate D2E/DX2                !
 ! A6    A(3,2,8)              119.7203         estimate D2E/DX2                !
 ! A7    A(2,3,4)              121.1407         estimate D2E/DX2                !
 ! A8    A(2,3,9)              120.0625         estimate D2E/DX2                !
 ! A9    A(4,3,9)              118.7967         estimate D2E/DX2                !
 ! A10   A(3,4,5)              117.181          estimate D2E/DX2                !
 ! A11   A(3,4,12)             121.4095         estimate D2E/DX2                !
 ! A12   A(5,4,12)             121.4095         estimate D2E/DX2                !
 ! A13   A(4,5,6)              121.1407         estimate D2E/DX2                !
 ! A14   A(4,5,10)             118.7967         estimate D2E/DX2                !
 ! A15   A(6,5,10)             120.0625         estimate D2E/DX2                !
 ! A16   A(1,6,5)              120.4896         estimate D2E/DX2                !
 ! A17   A(1,6,11)             119.7901         estimate D2E/DX2                !
 ! A18   A(5,6,11)             119.7203         estimate D2E/DX2                !
 ! A19   A(4,12,13)            121.0752         estimate D2E/DX2                !
 ! A20   A(4,12,14)            121.0752         estimate D2E/DX2                !
 ! A21   A(13,12,14)           117.8496         estimate D2E/DX2                !
 ! D1    D(6,1,2,3)              0.0            estimate D2E/DX2                !
 ! D2    D(6,1,2,8)            180.0            estimate D2E/DX2                !
 ! D3    D(7,1,2,3)            180.0            estimate D2E/DX2                !
 ! D4    D(7,1,2,8)              0.0            estimate D2E/DX2                !
 ! D5    D(2,1,6,5)              0.0            estimate D2E/DX2                !
 ! D6    D(2,1,6,11)           180.0            estimate D2E/DX2                !
 ! D7    D(7,1,6,5)            180.0            estimate D2E/DX2                !
 ! D8    D(7,1,6,11)             0.0            estimate D2E/DX2                !
 ! D9    D(1,2,3,4)              0.0            estimate D2E/DX2                !
 ! D10   D(1,2,3,9)            180.0            estimate D2E/DX2                !
 ! D11   D(8,2,3,4)            180.0            estimate D2E/DX2                !
 ! D12   D(8,2,3,9)              0.0            estimate D2E/DX2                !
 ! D13   D(2,3,4,5)              0.0            estimate D2E/DX2                !
 ! D14   D(2,3,4,12)           180.0            estimate D2E/DX2                !
 ! D15   D(9,3,4,5)            180.0            estimate D2E/DX2                !
 ! D16   D(9,3,4,12)             0.0            estimate D2E/DX2                !
 ! D17   D(3,4,5,6)              0.0            estimate D2E/DX2                !
 ! D18   D(3,4,5,10)           180.0            estimate D2E/DX2                !
 ! D19   D(12,4,5,6)           180.0            estimate D2E/DX2                !
 ! D20   D(12,4,5,10)            0.0            estimate D2E/DX2                !
 ! D21   D(3,4,12,13)            0.0            estimate D2E/DX2                !
 ! D22   D(3,4,12,14)          180.0            estimate D2E/DX2                !
 ! D23   D(5,4,12,13)          180.0            estimate D2E/DX2                !
 ! D24   D(5,4,12,14)            0.0            estimate D2E/DX2                !
 ! D25   D(4,5,6,1)              0.0            estimate D2E/DX2                !
 ! D26   D(4,5,6,11)           180.0            estimate D2E/DX2                !
 ! D27   D(10,5,6,1)           180.0            estimate D2E/DX2                !
 ! D28   D(10,5,6,11)            0.0            estimate D2E/DX2                !
 --------------------------------------------------------------------------------
 Trust Radius=3.00D-01 FncErr=1.00D-07 GrdErr=1.00D-06
 Number of steps in this run=  73 maximum allowed number of steps= 100.
 GradGradGradGradGradGradGradGradGradGradGradGradGradGradGradGradGradGrad

                          Input orientation:                          
 ---------------------------------------------------------------------
 Center     Atomic     Atomic              Coordinates (Angstroms)
 Number     Number      Type              X           Y           Z
 ---------------------------------------------------------------------
    1          6             0        0.000000   -1.837200    0.000000
    2          6             0        0.000000   -1.132140    1.210400
    3          6             0        0.000000    0.251410    1.216890
    4          6             0        0.000000    0.994480    0.000000
    5          6             0        0.000000    0.251410   -1.216890
    6          6             0        0.000000   -1.132140   -1.210400
    7          1             0        0.000000   -2.920930    0.000000
    8          1             0        0.000000   -1.674240    2.149760
    9          1             0        0.000000    0.790470    2.158380
   10          1             0        0.000000    0.790470   -2.158380
   11          1             0        0.000000   -1.674240   -2.149760
   12          6             0        0.000000    2.399460    0.000000
   13          1             0        0.000000    2.958380    0.927440
   14          1             0        0.000000    2.958380   -0.927440
 ---------------------------------------------------------------------
                    Distance matrix (angstroms):
                    1          2          3          4          5
     1  C    0.000000
     2  C    1.400778   0.000000
     3  C    2.417253   1.383565   0.000000
     4  C    2.831680   2.446953   1.425824   0.000000
     5  C    2.417253   2.793913   2.433780   1.425824   0.000000
     6  C    1.400778   2.420800   2.793913   2.446953   1.383565
     7  H    1.083730   2.159824   3.397729   3.915410   3.397729
     8  H    2.155928   1.084560   2.139714   3.426884   3.878461
     9  H    3.400478   2.143617   1.084891   2.168000   3.418045
    10  H    3.400478   3.878802   3.418045   2.168000   1.084891
    11  H    2.155928   3.403608   3.878461   3.426884   2.139714
    12  C    4.236660   3.733265   2.468793   1.404980   2.468793
    13  H    4.884438   4.100295   2.722401   2.171877   3.453381
    14  H    4.884438   4.615486   3.453381   2.171877   2.722401
                    6          7          8          9         10
     6  C    0.000000
     7  H    2.159824   0.000000
     8  H    3.403608   2.485096   0.000000
     9  H    3.878802   4.293378   2.464725   0.000000
    10  H    2.143617   4.293378   4.963352   4.316760   0.000000
    11  H    1.084560   2.485096   4.299520   4.963352   2.464725
    12  C    3.733265   5.320390   4.606137   2.692109   2.692109
    13  H    4.615486   5.952011   4.791162   2.493000   3.771222
    14  H    4.100295   5.952011   5.561504   3.771222   2.493000
                   11         12         13         14
    11  H    0.000000
    12  C    4.606137   0.000000
    13  H    5.561504   1.082837   0.000000
    14  H    4.791162   1.082837   1.854880   0.000000
 Stoichiometry    C7H7(2)
 Framework group  C2V[C2(HCCC),SGV(C4H6)]
 Deg. of freedom    13
 Full point group                 C2V
 Largest Abelian subgroup         C2V     NOp   4
 Largest concise Abelian subgroup C2      NOp   2
                         Standard orientation:                         
 ---------------------------------------------------------------------
 Center     Atomic     Atomic              Coordinates (Angstroms)
 Number     Number      Type              X           Y           Z
 ---------------------------------------------------------------------
    1          6             0        0.000000    0.000000   -1.837199
    2          6             0        0.000000    1.210400   -1.132139
    3          6             0        0.000000    1.216890    0.251411
    4          6             0        0.000000    0.000000    0.994481
    5          6             0        0.000000   -1.216890    0.251411
    6          6             0        0.000000   -1.210400   -1.132139
    7          1             0        0.000000    0.000000   -2.920929
    8          1             0        0.000000    2.149760   -1.674239
    9          1             0        0.000000    2.158380    0.790471
   10          1             0        0.000000   -2.158380    0.790471
   11          1             0        0.000000   -2.149760   -1.674239
   12          6             0        0.000000    0.000000    2.399461
   13          1             0        0.000000    0.927440    2.958381
   14          1             0        0.000000   -0.927440    2.958381
 ---------------------------------------------------------------------
 Rotational constants (GHZ):      5.5450556      2.7044134      1.8178288
 Standard basis: CBSB7 (5D, 7F)
 There are    72 symmetry adapted basis functions of A1  symmetry.
 There are    16 symmetry adapted basis functions of A2  symmetry.
 There are    26 symmetry adapted basis functions of B1  symmetry.
 There are    54 symmetry adapted basis functions of B2  symmetry.
 Integral buffers will be    131072 words long.
 Raffenetti 2 integral format.
 Two-electron integral symmetry is turned on.
   168 basis functions,   280 primitive gaussians,   175 cartesian basis functions
    25 alpha electrons       24 beta electrons
       nuclear repulsion energy       259.9878370970 Hartrees.
 NAtoms=   14 NActive=   14 NUniq=    9 SFac= 1.81D+00 NAtFMM=   80 NAOKFM=F Big=F
 One-electron integrals computed using PRISM.
 NBasis=   168 RedAO= T  NBF=    72    16    26    54
 NBsUse=   168 1.00D-06 NBFU=    72    16    26    54
 Harris functional with IExCor=  402 diagonalized for initial guess.
 ExpMin= 1.03D-01 ExpMax= 4.56D+03 ExpMxC= 6.82D+02 IAcc=1 IRadAn=         1 AccDes= 1.00D-06
 HarFok:  IExCor= 402 AccDes= 1.00D-06 IRadAn=         1 IDoV=1
 ScaDFX=  1.000000  1.000000  1.000000  1.000000
 Initial guess orbital symmetries:
 Alpha Orbitals:
       Occupied  (A1) (B2) (A1) (A1) (B2) (A1) (A1) (A1) (A1) (B2)
                 (A1) (B2) (A1) (A1) (B2) (A1) (B2) (A1) (B2) (A1)
                 (B1) (B2) (B1) (A2) (B1)
       Virtual   (A2) (B1) (A1) (B1) (B2) (A1) (A1) (B2) (B2) (A1)
                 (A1) (B2) (A1) (B2) (A1) (A1) (B2) (A1) (B1) (B2)
                 (A1) (A1) (A1) (B2) (B1) (A1) (A2) (B2) (B1) (A2)
                 (B2) (B1) (A1) (B2) (A1) (B2) (B1) (A1) (A1) (B2)
                 (A1) (A1) (B2) (A1) (A1) (B2) (B2) (B1) (A1) (A2)
                 (B2) (A2) (B1) (A2) (B2) (A1) (B1) (A2) (A1) (A1)
                 (A1) (B2) (B2) (A1) (B2) (B1) (A1) (A2) (B2) (B1)
                 (A1) (A1) (B1) (B2) (B2) (B1) (A1) (A2) (A2) (B2)
                 (A1) (B1) (A1) (B1) (B2) (B2) (A1) (A2) (A1) (B2)
                 (A2) (B1) (A1) (A1) (B2) (B2) (B1) (A2) (A1) (B2)
                 (A1) (B1) (B2) (A1) (B1) (A1) (A1) (B2) (A2) (A1)
                 (B2) (A1) (A1) (B2) (B1) (A2) (A1) (B1) (B2) (B1)
                 (B2) (B2) (A1) (B2) (A1) (A1) (B2) (A1) (A1) (B2)
                 (B2) (A1) (A1) (B2) (A1) (B2) (A1) (A1) (B2) (A1)
                 (A1) (B2) (A1)
 Beta  Orbitals:
       Occupied  (A1) (B2) (A1) (A1) (B2) (A1) (A1) (A1) (A1) (B2)
                 (A1) (B2) (A1) (A1) (B2) (A1) (B2) (A1) (B2) (A1)
                 (B1) (B2) (B1) (A2)
       Virtual   (B1) (A2) (B1) (A1) (B1) (B2) (A1) (A1) (B2) (B2)
                 (A1) (A1) (B2) (A1) (B2) (A1) (A1) (B2) (A1) (B1)
                 (B2) (A1) (A1) (A1) (B2) (B1) (A1) (A2) (B2) (B1)
                 (A2) (B2) (B1) (A1) (B2) (A1) (B2) (B1) (A1) (A1)
                 (B2) (A1) (A1) (B2) (A1) (A1) (B2) (B2) (B1) (A1)
                 (A2) (B2) (A2) (B1) (A2) (B2) (A1) (B1) (A2) (A1)
                 (A1) (A1) (B2) (B2) (A1) (B2) (B1) (A1) (A2) (B2)
                 (B1) (A1) (A1) (B1) (B2) (B2) (B1) (A1) (A2) (A2)
                 (B2) (A1) (B1) (A1) (B1) (B2) (B2) (A1) (A2) (A1)
                 (B2) (A2) (B1) (A1) (A1) (B2) (B2) (B1) (A2) (A1)
                 (B2) (A1) (B1) (B2) (A1) (B1) (A1) (A1) (B2) (A2)
                 (A1) (B2) (A1) (A1) (B2) (B1) (A2) (A1) (B1) (B2)
                 (B1) (B2) (B2) (A1) (B2) (A1) (A1) (B2) (A1) (A1)
                 (B2) (B2) (A1) (A1) (B2) (A1) (B2) (A1) (A1) (B2)
                 (A1) (A1) (B2) (A1)
 The electronic state of the initial guess is 2-B1.
 <S**2> of initial guess= 0.7500
 Requested convergence on RMS density matrix=1.00D-08 within 128 cycles.
 Requested convergence on MAX density matrix=1.00D-06.
 Requested convergence on             energy=1.00D-06.
 No special actions if energy rises.
 Integral accuracy reduced to 1.0D-05 until final iterations.
 Initial convergence to 1.0D-05 achieved.  Increase integral accuracy.
 SCF Done:  E(UB+HF-LYP) =  -270.983924846     A.U. after   18 cycles
             Convg  =    0.9341D-08             -V/T =  2.0045
             S**2   =   0.7813
 Annihilation of the first spin contaminant:
 S**2 before annihilation     0.7813,   after     0.7507

 **********************************************************************

            Population analysis using the SCF density.

 **********************************************************************

 Orbital symmetries:
 Alpha Orbitals:
       Occupied  (A1) (A1) (B2) (A1) (A1) (B2) (A1) (A1) (A1) (B2)
                 (A1) (B2) (A1) (A1) (B2) (A1) (B2) (A1) (B2) (B1)
                 (A1) (B2) (B1) (A2) (B1)
       Virtual   (A2) (B1) (A1) (A1) (B2) (A1) (B2) (A1) (B2) (B1)
                 (A1) (B2) (A1) (B2) (A1) (A1) (B2) (A1) (B1) (B2)
                 (A1) (B1) (A1) (B2) (A2) (A1) (A1) (B1) (B2) (A2)
                 (B1) (A1) (B2) (B2) (B1) (B2) (A1) (A1) (A1) (B2)
                 (A1) (B2) (A1) (A1) (A1) (B2) (B2) (A1) (B1) (B2)
                 (A2) (B2) (A1) (A2) (B1) (A2) (B1) (A2) (A1) (A1)
                 (A1) (B2) (B2) (A1) (B2) (B1) (A1) (A2) (B1) (B2)
                 (A1) (B1) (A1) (B2) (B1) (B2) (A1) (A2) (A2) (B2)
                 (A1) (B1) (A1) (B2) (B2) (B1) (A1) (A2) (A1) (A2)
                 (B2) (B1) (A1) (A1) (B2) (B2) (B1) (A2) (A1) (B2)
                 (A1) (B1) (B2) (A1) (A1) (B2) (A1) (B2) (A1) (B1)
                 (A1) (A1) (A2) (B2) (B1) (A2) (A1) (B1) (B2) (B1)
                 (B2) (B2) (B2) (A1) (A1) (A1) (B2) (A1) (A1) (B2)
                 (B2) (A1) (A1) (B2) (A1) (B2) (A1) (A1) (B2) (A1)
                 (A1) (B2) (A1)
 Beta  Orbitals:
       Occupied  (A1) (A1) (B2) (A1) (B2) (A1) (A1) (A1) (A1) (B2)
                 (A1) (B2) (A1) (A1) (B2) (A1) (B2) (A1) (B2) (B1)
                 (A1) (B2) (B1) (A2)
       Virtual   (B1) (A2) (B1) (A1) (A1) (B2) (A1) (B2) (A1) (B2)
                 (B1) (A1) (B2) (A1) (B2) (A1) (A1) (B2) (A1) (B1)
                 (B2) (A1) (A1) (B1) (B2) (A2) (A1) (A1) (B2) (B1)
                 (A2) (B1) (B2) (A1) (B2) (B1) (B2) (A1) (A1) (A1)
                 (B2) (A1) (B2) (A1) (A1) (A1) (B2) (B2) (A1) (B1)
                 (B2) (A2) (B2) (A1) (A2) (B1) (A2) (B1) (A2) (A1)
                 (A1) (A1) (B2) (B2) (A1) (B2) (B1) (A1) (A2) (B1)
                 (B2) (A1) (A1) (B1) (B2) (B1) (B2) (A1) (A2) (B2)
                 (A2) (A1) (B1) (A1) (B2) (B2) (B1) (A1) (A2) (A1)
                 (B2) (A2) (B1) (A1) (A1) (B2) (B2) (B1) (A2) (A1)
                 (B2) (A1) (B2) (B1) (A1) (A1) (B2) (A1) (B2) (A1)
                 (A1) (B1) (A1) (A2) (B2) (B1) (A2) (A1) (B1) (B2)
                 (B1) (B2) (B2) (B2) (A1) (A1) (A1) (B2) (A1) (A1)
                 (B2) (B2) (A1) (A1) (B2) (A1) (B2) (A1) (A1) (B2)
                 (A1) (A1) (B2) (A1)
 The electronic state is 2-B1.
 Alpha  occ. eigenvalues --  -10.18584 -10.17801 -10.17771 -10.17768 -10.17735
 Alpha  occ. eigenvalues --  -10.17512 -10.17507  -0.86217  -0.77956  -0.75248
 Alpha  occ. eigenvalues --   -0.68151  -0.60942  -0.58485  -0.51617  -0.47245
 Alpha  occ. eigenvalues --   -0.46566  -0.42687  -0.42148  -0.40067  -0.38205
 Alpha  occ. eigenvalues --   -0.35956  -0.34199  -0.29877  -0.26516  -0.18786
 Alpha virt. eigenvalues --   -0.01223   0.01134   0.04543   0.06748   0.07082
 Alpha virt. eigenvalues --    0.09978   0.10565   0.13566   0.13948   0.14688
 Alpha virt. eigenvalues --    0.21780   0.27161   0.27618   0.29048   0.30257
 Alpha virt. eigenvalues --    0.32942   0.33109   0.36432   0.37744   0.39521
 Alpha virt. eigenvalues --    0.41166   0.41559   0.43135   0.44049   0.44158
 Alpha virt. eigenvalues --    0.44387   0.47790   0.48802   0.49162   0.52063
 Alpha virt. eigenvalues --    0.55934   0.59341   0.59515   0.60395   0.61978
 Alpha virt. eigenvalues --    0.62488   0.62883   0.64768   0.68617   0.72548
 Alpha virt. eigenvalues --    0.73254   0.75127   0.75739   0.80140   0.80908
 Alpha virt. eigenvalues --    0.83855   0.88084   0.91940   0.94682   0.95520
 Alpha virt. eigenvalues --    0.98444   1.02938   1.04111   1.05306   1.06753
 Alpha virt. eigenvalues --    1.07950   1.13438   1.14686   1.23995   1.31732
 Alpha virt. eigenvalues --    1.37995   1.39973   1.42543   1.46557   1.47326
 Alpha virt. eigenvalues --    1.49129   1.52326   1.54184   1.54756   1.56021
 Alpha virt. eigenvalues --    1.58705   1.64125   1.64264   1.65667   1.72893
 Alpha virt. eigenvalues --    1.74044   1.74321   1.76872   1.82065   1.82428
 Alpha virt. eigenvalues --    1.83586   1.84732   1.89387   1.90814   1.91111
 Alpha virt. eigenvalues --    1.92108   1.95993   2.01506   2.08074   2.08641
 Alpha virt. eigenvalues --    2.08706   2.09870   2.18687   2.23799   2.27057
 Alpha virt. eigenvalues --    2.29801   2.31161   2.35904   2.36823   2.45020
 Alpha virt. eigenvalues --    2.46953   2.54589   2.54969   2.59712   2.60966
 Alpha virt. eigenvalues --    2.61582   2.63096   2.64768   2.65133   2.65234
 Alpha virt. eigenvalues --    2.67182   2.69767   2.71020   2.74961   2.77103
 Alpha virt. eigenvalues --    2.83872   2.84807   2.88486   2.91138   3.03815
 Alpha virt. eigenvalues --    3.09241   3.13220   3.30312   3.30481   3.35796
 Alpha virt. eigenvalues --    3.46057   3.47157   3.54775   3.62592   3.75672
 Alpha virt. eigenvalues --    3.96496   4.01825   4.10846   4.12019   4.35644
 Alpha virt. eigenvalues --    4.81251  23.52860  23.85595  23.89741  24.00809
 Alpha virt. eigenvalues --   24.04034  24.10886  24.18137
  Beta  occ. eigenvalues --  -10.18830 -10.17686 -10.17683 -10.17428 -10.17427
  Beta  occ. eigenvalues --  -10.17414 -10.16703  -0.85822  -0.77145  -0.74938
  Beta  occ. eigenvalues --   -0.66339  -0.60734  -0.57961  -0.51273  -0.46940
  Beta  occ. eigenvalues --   -0.46311  -0.42604  -0.41820  -0.39561  -0.37070
  Beta  occ. eigenvalues --   -0.35695  -0.34103  -0.27386  -0.25613
  Beta virt. eigenvalues --   -0.08842  -0.00424   0.03174   0.04636   0.07066
  Beta virt. eigenvalues --    0.07140   0.10200   0.10636   0.13718   0.14129
  Beta virt. eigenvalues --    0.15512   0.21843   0.27210   0.27853   0.29164
  Beta virt. eigenvalues --    0.30683   0.33172   0.33181   0.38012   0.38991
  Beta virt. eigenvalues --    0.39751   0.41672   0.43676   0.43961   0.44178
  Beta virt. eigenvalues --    0.44536   0.44622   0.48023   0.49419   0.51022
  Beta virt. eigenvalues --    0.52435   0.56161   0.59688   0.59726   0.60401
  Beta virt. eigenvalues --    0.62251   0.62965   0.63057   0.65172   0.69388
  Beta virt. eigenvalues --    0.72558   0.73701   0.75588   0.75981   0.80554
  Beta virt. eigenvalues --    0.81427   0.83976   0.88433   0.92430   0.95332
  Beta virt. eigenvalues --    0.95613   0.99359   1.03194   1.04377   1.06873
  Beta virt. eigenvalues --    1.07830   1.08302   1.14233   1.15271   1.24244
  Beta virt. eigenvalues --    1.32323   1.38938   1.39998   1.42635   1.47012
  Beta virt. eigenvalues --    1.47452   1.50278   1.53377   1.54420   1.54997
  Beta virt. eigenvalues --    1.56193   1.58957   1.64376   1.64660   1.65591
  Beta virt. eigenvalues --    1.73125   1.74276   1.75939   1.77123   1.82686
  Beta virt. eigenvalues --    1.83121   1.83981   1.86250   1.89940   1.90847
  Beta virt. eigenvalues --    1.91032   1.92567   1.96180   2.02940   2.07991
  Beta virt. eigenvalues --    2.08857   2.09182   2.11009   2.19509   2.23842
  Beta virt. eigenvalues --    2.27205   2.29965   2.32038   2.36514   2.37062
  Beta virt. eigenvalues --    2.45070   2.47272   2.55269   2.55406   2.59757
  Beta virt. eigenvalues --    2.61054   2.61625   2.63333   2.64788   2.65291
  Beta virt. eigenvalues --    2.67320   2.67840   2.70151   2.71468   2.75162
  Beta virt. eigenvalues --    2.79717   2.84452   2.85021   2.89337   2.91199
  Beta virt. eigenvalues --    3.04311   3.09567   3.13328   3.30410   3.30707
  Beta virt. eigenvalues --    3.36019   3.46202   3.47301   3.55272   3.62836
  Beta virt. eigenvalues --    3.77098   3.96683   4.02167   4.11132   4.12263
  Beta virt. eigenvalues --    4.36550   4.81545  23.53006  23.86046  23.89882
  Beta virt. eigenvalues --   24.01353  24.04346  24.10953  24.18234
          Condensed to atoms (all electrons):
              1          2          3          4          5          6
     1  C    4.904141   0.503207  -0.063567  -0.035415  -0.063567   0.503207
     2  C    0.503207   4.838459   0.543625  -0.047698  -0.033220  -0.055805
     3  C   -0.063567   0.543625   4.885919   0.480276  -0.060650  -0.033220
     4  C   -0.035415  -0.047698   0.480276   4.902288   0.480276  -0.047698
     5  C   -0.063567  -0.033220  -0.060650   0.480276   4.885919   0.543625
     6  C    0.503207  -0.055805  -0.033220  -0.047698   0.543625   4.838459
     7  H    0.415177  -0.041569   0.007424  -0.000352   0.007424  -0.041569
     8  H   -0.043322   0.414781  -0.041003   0.007997  -0.000354   0.007302
     9  H    0.007911  -0.039034   0.414799  -0.046194   0.007631  -0.000713
    10  H    0.007911  -0.000713   0.007631  -0.046194   0.414799  -0.039034
    11  H   -0.043322   0.007302  -0.000354   0.007997  -0.041003   0.414781
    12  C    0.000545   0.005413  -0.068721   0.494545  -0.068721   0.005413
    13  H    0.000007   0.000401  -0.008673  -0.033609   0.006811  -0.000433
    14  H    0.000007  -0.000433   0.006811  -0.033609  -0.008673   0.000401
              7          8          9         10         11         12
     1  C    0.415177  -0.043322   0.007911   0.007911  -0.043322   0.000545
     2  C   -0.041569   0.414781  -0.039034  -0.000713   0.007302   0.005413
     3  C    0.007424  -0.041003   0.414799   0.007631  -0.000354  -0.068721
     4  C   -0.000352   0.007997  -0.046194  -0.046194   0.007997   0.494545
     5  C    0.007424  -0.000354   0.007631   0.414799  -0.041003  -0.068721
     6  C   -0.041569   0.007302  -0.000713  -0.039034   0.414781   0.005413
     7  H    0.573166  -0.007726  -0.000343  -0.000343  -0.007726   0.000033
     8  H   -0.007726   0.577591  -0.008975   0.000078  -0.000386  -0.000345
     9  H   -0.000343  -0.008975   0.580684  -0.000350   0.000078  -0.007362
    10  H   -0.000343   0.000078  -0.000350   0.580684  -0.008975  -0.007362
    11  H   -0.007726  -0.000386   0.000078  -0.008975   0.577591  -0.000345
    12  C    0.000033  -0.000345  -0.007362  -0.007362  -0.000345   5.003839
    13  H   -0.000002  -0.000025   0.003624  -0.000031   0.000020   0.405024
    14  H   -0.000002   0.000020  -0.000031   0.003624  -0.000025   0.405024
             13         14
     1  C    0.000007   0.000007
     2  C    0.000401  -0.000433
     3  C   -0.008673   0.006811
     4  C   -0.033609  -0.033609
     5  C    0.006811  -0.008673
     6  C   -0.000433   0.000401
     7  H   -0.000002  -0.000002
     8  H   -0.000025   0.000020
     9  H    0.003624  -0.000031
    10  H   -0.000031   0.003624
    11  H    0.000020  -0.000025
    12  C    0.405024   0.405024
    13  H    0.559654  -0.038191
    14  H   -0.038191   0.559654
 Mulliken atomic charges:
              1
     1  C   -0.092919
     2  C   -0.094718
     3  C   -0.070298
     4  C   -0.082610
     5  C   -0.070298
     6  C   -0.094718
     7  H    0.096408
     8  H    0.094367
     9  H    0.088275
    10  H    0.088275
    11  H    0.094367
    12  C   -0.166977
    13  H    0.105423
    14  H    0.105423
 Sum of Mulliken charges=   0.00000
 Atomic charges with hydrogens summed into heavy atoms:
              1
     1  C    0.003489
     2  C   -0.000351
     3  C    0.017977
     4  C   -0.082610
     5  C    0.017977
     6  C   -0.000351
     7  H    0.000000
     8  H    0.000000
     9  H    0.000000
    10  H    0.000000
    11  H    0.000000
    12  C    0.043868
    13  H    0.000000
    14  H    0.000000
 Sum of Mulliken charges=   0.00000
          Atomic-Atomic Spin Densities.
              1          2          3          4          5          6
     1  C    0.315110  -0.001774  -0.015089  -0.001115  -0.015089  -0.001774
     2  C   -0.001774  -0.137004   0.004262   0.001659   0.001152  -0.000071
     3  C   -0.015089   0.004262   0.262166   0.005847   0.009005   0.001152
     4  C   -0.001115   0.001659   0.005847  -0.166829   0.005847   0.001659
     5  C   -0.015089   0.001152   0.009005   0.005847   0.262166   0.004262
     6  C   -0.001774  -0.000071   0.001152   0.001659   0.004262  -0.137004
     7  H    0.002253   0.000189  -0.000143  -0.000064  -0.000143   0.000189
     8  H   -0.000393   0.000193  -0.000586   0.000141  -0.000042   0.000049
     9  H   -0.000144   0.000756   0.001610   0.000834  -0.000198  -0.000003
    10  H   -0.000144  -0.000003  -0.000198   0.000834   0.001610   0.000756
    11  H   -0.000393   0.000049  -0.000042   0.000141  -0.000586   0.000193
    12  C    0.000890  -0.000574  -0.022594  -0.034095  -0.022594  -0.000574
    13  H   -0.000003  -0.000099   0.001063  -0.004826  -0.000641   0.000064
    14  H   -0.000003   0.000064  -0.000641  -0.004826   0.001063  -0.000099
              7          8          9         10         11         12
     1  C    0.002253  -0.000393  -0.000144  -0.000144  -0.000393   0.000890
     2  C    0.000189   0.000193   0.000756  -0.000003   0.000049  -0.000574
     3  C   -0.000143  -0.000586   0.001610  -0.000198  -0.000042  -0.022594
     4  C   -0.000064   0.000141   0.000834   0.000834   0.000141  -0.034095
     5  C   -0.000143  -0.000042  -0.000198   0.001610  -0.000586  -0.022594
     6  C    0.000189   0.000049  -0.000003   0.000756   0.000193  -0.000574
     7  H   -0.018610   0.000161   0.000010   0.000010   0.000161   0.000001
     8  H    0.000161   0.006402   0.000058  -0.000002  -0.000002  -0.000005
     9  H    0.000010   0.000058  -0.016004   0.000006  -0.000002   0.000356
    10  H    0.000010  -0.000002   0.000006  -0.016004   0.000058   0.000356
    11  H    0.000161  -0.000002  -0.000002   0.000058   0.006402  -0.000005
    12  C    0.000001  -0.000005   0.000356   0.000356  -0.000005   0.853831
    13  H    0.000000  -0.000001  -0.000133  -0.000044   0.000000   0.007280
    14  H    0.000000   0.000000  -0.000044  -0.000133  -0.000001   0.007280
             13         14
     1  C   -0.000003  -0.000003
     2  C   -0.000099   0.000064
     3  C    0.001063  -0.000641
     4  C   -0.004826  -0.004826
     5  C   -0.000641   0.001063
     6  C    0.000064  -0.000099
     7  H    0.000000   0.000000
     8  H   -0.000001   0.000000
     9  H   -0.000133  -0.000044
    10  H   -0.000044  -0.000133
    11  H    0.000000  -0.000001
    12  C    0.007280   0.007280
    13  H   -0.044993   0.004090
    14  H    0.004090  -0.044993
 Mulliken atomic spin densities:
              1
     1  C    0.282331
     2  C   -0.131201
     3  C    0.245813
     4  C   -0.194792
     5  C    0.245813
     6  C   -0.131201
     7  H   -0.015987
     8  H    0.005974
     9  H   -0.012898
    10  H   -0.012898
    11  H    0.005974
    12  C    0.789556
    13  H   -0.038243
    14  H   -0.038243
 Sum of Mulliken spin densities=   1.00000
 Electronic spatial extent (au):  <R**2>=   680.7607
 Charge=     0.0000 electrons
 Dipole moment (field-independent basis, Debye):
    X=     0.0000    Y=     0.0000    Z=    -0.1319  Tot=     0.1319
 Quadrupole moment (field-independent basis, Debye-Ang):
   XX=   -46.2983   YY=   -37.2421   ZZ=   -37.6925
   XY=     0.0000   XZ=     0.0000   YZ=     0.0000
 Traceless Quadrupole moment (field-independent basis, Debye-Ang):
   XX=    -5.8874   YY=     3.1689   ZZ=     2.7185
   XY=     0.0000   XZ=     0.0000   YZ=     0.0000
 Octapole moment (field-independent basis, Debye-Ang**2):
  XXX=     0.0000  YYY=     0.0000  ZZZ=    -4.0592  XYY=     0.0000
  XXY=     0.0000  XXZ=    -0.4531  XZZ=     0.0000  YZZ=     0.0000
  YYZ=     0.3210  XYZ=     0.0000
 Hexadecapole moment (field-independent basis, Debye-Ang**3):
 XXXX=   -52.5468 YYYY=  -288.6786 ZZZZ=  -553.9405 XXXY=     0.0000
 XXXZ=     0.0000 YYYX=     0.0000 YYYZ=     0.0000 ZZZX=     0.0000
 ZZZY=     0.0000 XXYY=   -67.3465 XXZZ=  -119.6298 YYZZ=  -134.5676
 XXYZ=     0.0000 YYXZ=     0.0000 ZZXY=     0.0000
 N-N= 2.599878370970D+02 E-N=-1.148257600525D+03  KE= 2.697622412218D+02
 Symmetry A1   KE= 1.819504695016D+02
 Symmetry A2   KE= 2.259554079624D+00
 Symmetry B1   KE= 5.294258022413D+00
 Symmetry B2   KE= 8.025795961819D+01
                          Isotropic Fermi Contact Couplings
        Atom                 a.u.       MegaHertz       Gauss      10(-4) cm-1
     1  C(13)              0.01858      20.88839       7.45350       6.96762
     2  C(13)             -0.01763     -19.82498      -7.07405      -6.61290
     3  C(13)              0.01778      19.98779       7.13214       6.66721
     4  C(13)             -0.03586     -40.31828     -14.38656     -13.44873
     5  C(13)              0.01778      19.98779       7.13214       6.66721
     6  C(13)             -0.01763     -19.82498      -7.07405      -6.61290
     7  H(1)              -0.00383     -17.13528      -6.11430      -5.71572
     8  H(1)               0.00141       6.28234       2.24170       2.09556
     9  H(1)              -0.00332     -14.85729      -5.30145      -4.95586
    10  H(1)              -0.00332     -14.85729      -5.30145      -4.95586
    11  H(1)               0.00141       6.28234       2.24170       2.09556
    12  C(13)              0.04546      51.10846      18.23677      17.04795
    13  H(1)              -0.01014     -45.30840     -16.16716     -15.11326
    14  H(1)              -0.01014     -45.30840     -16.16716     -15.11326
 --------------------------------------------------------
       Center         ----  Spin Dipole Couplings  ----
                      3XX-RR        3YY-RR        3ZZ-RR
 --------------------------------------------------------
     1   Atom        0.297731     -0.155282     -0.142448
     2   Atom       -0.113865      0.052104      0.061761
     3   Atom        0.261128     -0.130843     -0.130284
     4   Atom       -0.149812      0.058979      0.090833
     5   Atom        0.261128     -0.130843     -0.130284
     6   Atom       -0.113865      0.052104      0.061761
     7   Atom       -0.000611     -0.020333      0.020944
     8   Atom       -0.004132     -0.000741      0.004873
     9   Atom       -0.004441      0.011945     -0.007504
    10   Atom       -0.004441      0.011945     -0.007504
    11   Atom       -0.004132     -0.000741      0.004873
    12   Atom        0.841142     -0.416579     -0.424563
    13   Atom       -0.002577      0.026989     -0.024412
    14   Atom       -0.002577      0.026989     -0.024412
 --------------------------------------------------------
                        XY            XZ            YZ
 --------------------------------------------------------
     1   Atom        0.000000      0.000000      0.000000
     2   Atom        0.000000      0.000000      0.004469
     3   Atom        0.000000      0.000000     -0.001042
     4   Atom        0.000000      0.000000      0.000000
     5   Atom        0.000000      0.000000      0.001042
     6   Atom        0.000000      0.000000     -0.004469
     7   Atom        0.000000      0.000000      0.000000
     8   Atom        0.000000      0.000000      0.003507
     9   Atom        0.000000      0.000000      0.009467
    10   Atom        0.000000      0.000000     -0.009467
    11   Atom        0.000000      0.000000     -0.003507
    12   Atom        0.000000      0.000000      0.000000
    13   Atom        0.000000      0.000000      0.047087
    14   Atom        0.000000      0.000000     -0.047087
 --------------------------------------------------------


 ---------------------------------------------------------------------------------
              Anisotropic Spin Dipole Couplings in Principal Axis System
 ---------------------------------------------------------------------------------

       Atom             a.u.   MegaHertz   Gauss  10(-4) cm-1        Axes

              Baa    -0.1553   -20.837    -7.435    -6.951  0.0000  1.0000  0.0000
     1 C(13)  Bbb    -0.1424   -19.115    -6.821    -6.376  0.0000  0.0000  1.0000
              Bcc     0.2977    39.953    14.256    13.327  1.0000  0.0000  0.0000
 
              Baa    -0.1139   -15.280    -5.452    -5.097  1.0000  0.0000  0.0000
     2 C(13)  Bbb     0.0504     6.757     2.411     2.254  0.0000  0.9311 -0.3648
              Bcc     0.0635     8.523     3.041     2.843  0.0000  0.3648  0.9311
 
              Baa    -0.1316   -17.665    -6.303    -5.892  0.0000  0.7934  0.6087
     3 C(13)  Bbb    -0.1295   -17.376    -6.200    -5.796  0.0000 -0.6087  0.7934
              Bcc     0.2611    35.041    12.503    11.688  1.0000  0.0000  0.0000
 
              Baa    -0.1498   -20.103    -7.173    -6.706  1.0000  0.0000  0.0000
     4 C(13)  Bbb     0.0590     7.914     2.824     2.640  0.0000  1.0000  0.0000
              Bcc     0.0908    12.189     4.349     4.066  0.0000  0.0000  1.0000
 
              Baa    -0.1316   -17.665    -6.303    -5.892  0.0000  0.7934 -0.6087
     5 C(13)  Bbb    -0.1295   -17.376    -6.200    -5.796  0.0000  0.6087  0.7934
              Bcc     0.2611    35.041    12.503    11.688  1.0000  0.0000  0.0000
 
              Baa    -0.1139   -15.280    -5.452    -5.097  1.0000  0.0000  0.0000
     6 C(13)  Bbb     0.0504     6.757     2.411     2.254  0.0000  0.9311  0.3648
              Bcc     0.0635     8.523     3.041     2.843  0.0000 -0.3648  0.9311
 
              Baa    -0.0203   -10.849    -3.871    -3.619  0.0000  1.0000  0.0000
     7 H(1)   Bbb    -0.0006    -0.326    -0.116    -0.109  1.0000  0.0000  0.0000
              Bcc     0.0209    11.175     3.987     3.727  0.0000  0.0000  1.0000
 
              Baa    -0.0041    -2.205    -0.787    -0.735  1.0000  0.0000  0.0000
     8 H(1)   Bbb    -0.0024    -1.294    -0.462    -0.432  0.0000  0.9013 -0.4331
              Bcc     0.0066     3.499     1.249     1.167  0.0000  0.4331  0.9013
 
              Baa    -0.0114    -6.057    -2.161    -2.020  0.0000 -0.3765  0.9264
     9 H(1)   Bbb    -0.0044    -2.369    -0.845    -0.790  1.0000  0.0000  0.0000
              Bcc     0.0158     8.426     3.007     2.811  0.0000  0.9264  0.3765
 
              Baa    -0.0114    -6.057    -2.161    -2.020  0.0000  0.3765  0.9264
    10 H(1)   Bbb    -0.0044    -2.369    -0.845    -0.790  1.0000  0.0000  0.0000
              Bcc     0.0158     8.426     3.007     2.811  0.0000  0.9264 -0.3765
 
              Baa    -0.0041    -2.205    -0.787    -0.735  1.0000  0.0000  0.0000
    11 H(1)   Bbb    -0.0024    -1.294    -0.462    -0.432  0.0000  0.9013  0.4331
              Bcc     0.0066     3.499     1.249     1.167  0.0000 -0.4331  0.9013
 
              Baa    -0.4246   -56.972   -20.329   -19.004  0.0000  0.0000  1.0000
    12 C(13)  Bbb    -0.4166   -55.901   -19.947   -18.647  0.0000  1.0000  0.0000
              Bcc     0.8411   112.873    40.276    37.650  1.0000  0.0000  0.0000
 
              Baa    -0.0524   -27.935    -9.968    -9.318  0.0000 -0.5103  0.8600
    13 H(1)   Bbb    -0.0026    -1.375    -0.491    -0.459  1.0000  0.0000  0.0000
              Bcc     0.0549    29.309    10.458     9.777  0.0000  0.8600  0.5103
 
              Baa    -0.0524   -27.935    -9.968    -9.318  0.0000  0.5103  0.8600
    14 H(1)   Bbb    -0.0026    -1.375    -0.491    -0.459  1.0000  0.0000  0.0000
              Bcc     0.0549    29.309    10.458     9.777  0.0000  0.8600 -0.5103
 

 ---------------------------------------------------------------------------------

 ***** Axes restored to original set *****
 -------------------------------------------------------------------
 Center     Atomic                   Forces (Hartrees/Bohr)
 Number     Number              X              Y              Z
 -------------------------------------------------------------------
    1          6           0.000000000    0.000596014    0.000000000
    2          6           0.000000000    0.000409510   -0.000609920
    3          6           0.000000000   -0.000503977   -0.000311154
    4          6           0.000000000    0.000306463    0.000000000
    5          6           0.000000000   -0.000503977    0.000311154
    6          6           0.000000000    0.000409510    0.000609920
    7          1           0.000000000    0.000014344    0.000000000
    8          1           0.000000000   -0.000019264   -0.000018848
    9          1           0.000000000    0.000055736   -0.000063567
   10          1           0.000000000    0.000055736    0.000063567
   11          1           0.000000000   -0.000019264    0.000018848
   12          6           0.000000000   -0.000828863    0.000000000
   13          1           0.000000000    0.000014015   -0.000066921
   14          1           0.000000000    0.000014015    0.000066921
 -------------------------------------------------------------------
 Cartesian Forces:  Max     0.000828863 RMS     0.000264687

 GradGradGradGradGradGradGradGradGradGradGradGradGradGradGradGradGradGrad
 Berny optimization.
 Internal  Forces:  Max     0.000800832 RMS     0.000217885
 Search for a local minimum.
 Step number   1 out of a maximum of  73
 All quantities printed in internal units (Hartrees-Bohrs-Radians)
 Second derivative matrix not updated -- first step.
     Eigenvalues ---    0.01784   0.01885   0.01993   0.02023   0.02023
     Eigenvalues ---    0.02038   0.02078   0.02136   0.02150   0.02203
     Eigenvalues ---    0.02215   0.16000   0.16000   0.16000   0.16000
     Eigenvalues ---    0.16000   0.16000   0.16000   0.22000   0.22000
     Eigenvalues ---    0.23451   0.25000   0.35410   0.35410   0.35449
     Eigenvalues ---    0.35449   0.35547   0.35654   0.35654   0.39290
     Eigenvalues ---    0.40310   0.44158   0.44261   0.44805   0.46657
     Eigenvalues ---    0.484561000.000001000.000001000.000001000.00000
     Eigenvalues --- 1000.000001000.000001000.000001000.000001000.00000
     Eigenvalues --- 1000.000001000.000001000.000001000.000001000.00000
     Eigenvalues --- 1000.000001000.000001000.000001000.000001000.00000
     Eigenvalues --- 1000.000001000.000001000.000001000.000001000.00000
     Eigenvalues --- 1000.000001000.000001000.00000
 RFO step:  Lambda=-6.73002038D-06.
 Linear search not attempted -- first point.
 Iteration  1 RMS(Cart)=  0.00085722 RMS(Int)=  0.00000005
 Iteration  2 RMS(Cart)=  0.00000005 RMS(Int)=  0.00000001
 Variable       Old X    -DE/DX   Delta X   Delta X   Delta X     New X
                                 (Linear)    (Quad)   (Total)
    R1        2.64709  -0.00064   0.00000  -0.00144  -0.00144   2.64565
    R2        2.64709  -0.00064   0.00000  -0.00144  -0.00144   2.64565
    R3        2.04795  -0.00001   0.00000  -0.00004  -0.00004   2.04791
    R4        2.61456  -0.00070   0.00000  -0.00143  -0.00143   2.61312
    R5        2.04952  -0.00001   0.00000  -0.00002  -0.00002   2.04950
    R6        2.69442  -0.00050   0.00000  -0.00118  -0.00118   2.69324
    R7        2.05015  -0.00003   0.00000  -0.00008  -0.00008   2.05007
    R8        2.69442  -0.00050   0.00000  -0.00118  -0.00118   2.69324
    R9        2.65503  -0.00080   0.00000  -0.00179  -0.00179   2.65324
   R10        2.61456  -0.00070   0.00000  -0.00143  -0.00143   2.61312
   R11        2.05015  -0.00003   0.00000  -0.00008  -0.00008   2.05007
   R12        2.04952  -0.00001   0.00000  -0.00002  -0.00002   2.04950
   R13        2.04627  -0.00005   0.00000  -0.00014  -0.00014   2.04613
   R14        2.04627  -0.00005   0.00000  -0.00014  -0.00014   2.04613
    A1        2.08669   0.00001   0.00000  -0.00002  -0.00002   2.08666
    A2        2.09825  -0.00001   0.00000   0.00001   0.00001   2.09826
    A3        2.09825  -0.00001   0.00000   0.00001   0.00001   2.09826
    A4        2.10294   0.00004   0.00000   0.00012   0.00012   2.10306
    A5        2.09073  -0.00004   0.00000  -0.00023  -0.00023   2.09050
    A6        2.08951   0.00001   0.00000   0.00011   0.00011   2.08962
    A7        2.11430  -0.00004   0.00000  -0.00013  -0.00013   2.11418
    A8        2.09549   0.00010   0.00000   0.00058   0.00058   2.09606
    A9        2.07339  -0.00006   0.00000  -0.00045  -0.00045   2.07295
   A10        2.04519  -0.00001   0.00000   0.00004   0.00004   2.04523
   A11        2.11900   0.00001   0.00000  -0.00002  -0.00002   2.11898
   A12        2.11900   0.00001   0.00000  -0.00002  -0.00002   2.11898
   A13        2.11430  -0.00004   0.00000  -0.00013  -0.00013   2.11418
   A14        2.07339  -0.00006   0.00000  -0.00045  -0.00045   2.07295
   A15        2.09549   0.00010   0.00000   0.00058   0.00058   2.09606
   A16        2.10294   0.00004   0.00000   0.00012   0.00012   2.10306
   A17        2.09073  -0.00004   0.00000  -0.00023  -0.00023   2.09050
   A18        2.08951   0.00001   0.00000   0.00011   0.00011   2.08962
   A19        2.11316   0.00003   0.00000   0.00020   0.00020   2.11336
   A20        2.11316   0.00003   0.00000   0.00020   0.00020   2.11336
   A21        2.05686  -0.00006   0.00000  -0.00040  -0.00040   2.05647
    D1        0.00000   0.00000   0.00000   0.00000   0.00000   0.00000
    D2        3.14159   0.00000   0.00000   0.00000   0.00000   3.14159
    D3        3.14159   0.00000   0.00000   0.00000   0.00000   3.14159
    D4        0.00000   0.00000   0.00000   0.00000   0.00000   0.00000
    D5        0.00000   0.00000   0.00000   0.00000   0.00000   0.00000
    D6        3.14159   0.00000   0.00000   0.00000   0.00000   3.14159
    D7        3.14159   0.00000   0.00000   0.00000   0.00000   3.14159
    D8        0.00000   0.00000   0.00000   0.00000   0.00000   0.00000
    D9        0.00000   0.00000   0.00000   0.00000   0.00000   0.00000
   D10        3.14159   0.00000   0.00000   0.00000   0.00000   3.14159
   D11        3.14159   0.00000   0.00000   0.00000   0.00000   3.14159
   D12        0.00000   0.00000   0.00000   0.00000   0.00000   0.00000
   D13        0.00000   0.00000   0.00000   0.00000   0.00000   0.00000
   D14        3.14159   0.00000   0.00000   0.00000   0.00000   3.14159
   D15        3.14159   0.00000   0.00000   0.00000   0.00000   3.14159
   D16        0.00000   0.00000   0.00000   0.00000   0.00000   0.00000
   D17        0.00000   0.00000   0.00000   0.00000   0.00000   0.00000
   D18        3.14159   0.00000   0.00000   0.00000   0.00000   3.14159
   D19        3.14159   0.00000   0.00000   0.00000   0.00000   3.14159
   D20        0.00000   0.00000   0.00000   0.00000   0.00000   0.00000
   D21        0.00000   0.00000   0.00000   0.00000   0.00000   0.00000
   D22        3.14159   0.00000   0.00000   0.00000   0.00000   3.14159
   D23        3.14159   0.00000   0.00000   0.00000   0.00000   3.14159
   D24        0.00000   0.00000   0.00000   0.00000   0.00000   0.00000
   D25        0.00000   0.00000   0.00000   0.00000   0.00000   0.00000
   D26        3.14159   0.00000   0.00000   0.00000   0.00000   3.14159
   D27        3.14159   0.00000   0.00000   0.00000   0.00000   3.14159
   D28        0.00000   0.00000   0.00000   0.00000   0.00000   0.00000
         Item               Value     Threshold  Converged?
 Maximum Force            0.000801     0.000450     NO 
 RMS     Force            0.000218     0.000300     YES
 Maximum Displacement     0.002690     0.001800     NO 
 RMS     Displacement     0.000857     0.001200     YES
 Predicted change in Energy=-3.365013D-06
 GradGradGradGradGradGradGradGradGradGradGradGradGradGradGradGradGradGrad

                          Input orientation:                          
 ---------------------------------------------------------------------
 Center     Atomic     Atomic              Coordinates (Angstroms)
 Number     Number      Type              X           Y           Z
 ---------------------------------------------------------------------
    1          6             0        0.000000   -1.836202    0.000000
    2          6             0        0.000000   -1.131511    1.209734
    3          6             0        0.000000    0.251279    1.216371
    4          6             0        0.000000    0.994002    0.000000
    5          6             0        0.000000    0.251279   -1.216371
    6          6             0        0.000000   -1.131511   -1.209734
    7          1             0        0.000000   -2.919910    0.000000
    8          1             0        0.000000   -1.673808    2.148968
    9          1             0        0.000000    0.790759    2.157573
   10          1             0        0.000000    0.790759   -2.157573
   11          1             0        0.000000   -1.673808   -2.148968
   12          6             0        0.000000    2.398037    0.000000
   13          1             0        0.000000    2.957102    0.927265
   14          1             0        0.000000    2.957102   -0.927265
 ---------------------------------------------------------------------
                    Distance matrix (angstroms):
                    1          2          3          4          5
     1  C    0.000000
     2  C    1.400016   0.000000
     3  C    2.416016   1.382806   0.000000
     4  C    2.830204   2.445662   1.425200   0.000000
     5  C    2.416016   2.792506   2.432741   1.425200   0.000000
     6  C    1.400016   2.419468   2.792506   2.445662   1.382806
     7  H    1.083709   2.159127   3.396469   3.913913   3.396469
     8  H    2.155095   1.084550   2.139089   3.425679   3.877044
     9  H    3.399418   2.143249   1.084850   2.167125   3.416802
    10  H    3.399418   3.877354   3.416802   2.167125   1.084850
    11  H    2.155095   3.402200   3.877044   3.425679   2.139089
    12  C    4.234238   3.731107   2.467412   1.404034   2.467412
    13  H    4.882170   4.098359   2.721224   2.171079   3.452051
    14  H    4.882170   4.613407   3.452051   2.171079   2.721224
                    6          7          8          9         10
     6  C    0.000000
     7  H    2.159127   0.000000
     8  H    3.402200   2.484116   0.000000
     9  H    3.877354   4.292340   2.464582   0.000000
    10  H    2.143249   4.292340   4.961894   4.315147   0.000000
    11  H    1.084550   2.484116   4.297936   4.961894   2.464582
    12  C    3.731107   5.317947   4.604127   2.690440   2.690440
    13  H    4.613407   5.949714   4.789352   2.491326   3.769519
    14  H    4.098359   5.949714   5.559545   3.769519   2.491326
                   11         12         13         14
    11  H    0.000000
    12  C    4.604127   0.000000
    13  H    5.559545   1.082763   0.000000
    14  H    4.789352   1.082763   1.854531   0.000000
 Stoichiometry    C7H7(2)
 Framework group  C2V[C2(HCCC),SGV(C4H6)]
 Deg. of freedom    13
 Full point group                 C2V
 Largest Abelian subgroup         C2V     NOp   4
 Largest concise Abelian subgroup C2      NOp   2
                         Standard orientation:                         
 ---------------------------------------------------------------------
 Center     Atomic     Atomic              Coordinates (Angstroms)
 Number     Number      Type              X           Y           Z
 ---------------------------------------------------------------------
    1          6             0        0.000000    0.000000   -1.836211
    2          6             0        0.000000    1.209734   -1.131520
    3          6             0        0.000000    1.216371    0.251270
    4          6             0        0.000000    0.000000    0.993993
    5          6             0        0.000000   -1.216371    0.251270
    6          6             0        0.000000   -1.209734   -1.131520
    7          1             0        0.000000    0.000000   -2.919919
    8          1             0        0.000000    2.148968   -1.673817
    9          1             0        0.000000    2.157573    0.790749
   10          1             0        0.000000   -2.157573    0.790749
   11          1             0        0.000000   -2.148968   -1.673817
   12          6             0        0.000000    0.000000    2.398028
   13          1             0        0.000000    0.927265    2.957093
   14          1             0        0.000000   -0.927265    2.957093
 ---------------------------------------------------------------------
 Rotational constants (GHZ):      5.5501433      2.7072575      1.8196606
 Standard basis: CBSB7 (5D, 7F)
 There are    72 symmetry adapted basis functions of A1  symmetry.
 There are    16 symmetry adapted basis functions of A2  symmetry.
 There are    26 symmetry adapted basis functions of B1  symmetry.
 There are    54 symmetry adapted basis functions of B2  symmetry.
 Integral buffers will be    131072 words long.
 Raffenetti 2 integral format.
 Two-electron integral symmetry is turned on.
   168 basis functions,   280 primitive gaussians,   175 cartesian basis functions
    25 alpha electrons       24 beta electrons
       nuclear repulsion energy       260.1084892876 Hartrees.
 NAtoms=   14 NActive=   14 NUniq=    9 SFac= 1.81D+00 NAtFMM=   80 NAOKFM=F Big=F
 One-electron integrals computed using PRISM.
 NBasis=   168 RedAO= T  NBF=    72    16    26    54
 NBsUse=   168 1.00D-06 NBFU=    72    16    26    54
 Initial guess read from the read-write file:
 Initial guess orbital symmetries:
 Alpha Orbitals:
       Occupied  (A1) (A1) (B2) (A1) (A1) (B2) (A1) (A1) (A1) (B2)
                 (A1) (B2) (A1) (A1) (B2) (A1) (B2) (A1) (B2) (B1)
                 (A1) (B2) (B1) (A2) (B1)
       Virtual   (A2) (B1) (A1) (A1) (B2) (A1) (B2) (A1) (B2) (B1)
                 (A1) (B2) (A1) (B2) (A1) (A1) (B2) (A1) (B1) (B2)
                 (A1) (B1) (A1) (B2) (A2) (A1) (A1) (B1) (B2) (A2)
                 (B1) (A1) (B2) (B2) (B1) (B2) (A1) (A1) (A1) (B2)
                 (A1) (B2) (A1) (A1) (A1) (B2) (B2) (A1) (B1) (B2)
                 (A2) (B2) (A1) (A2) (B1) (A2) (B1) (A2) (A1) (A1)
                 (A1) (B2) (B2) (A1) (B2) (B1) (A1) (A2) (B1) (B2)
                 (A1) (B1) (A1) (B2) (B1) (B2) (A1) (A2) (A2) (B2)
                 (A1) (B1) (A1) (B2) (B2) (B1) (A1) (A2) (A1) (A2)
                 (B2) (B1) (A1) (A1) (B2) (B2) (B1) (A2) (A1) (B2)
                 (A1) (B1) (B2) (A1) (A1) (B2) (A1) (B2) (A1) (B1)
                 (A1) (A1) (A2) (B2) (B1) (A2) (A1) (B1) (B2) (B1)
                 (B2) (B2) (B2) (A1) (A1) (A1) (B2) (A1) (A1) (B2)
                 (B2) (A1) (A1) (B2) (A1) (B2) (A1) (A1) (B2) (A1)
                 (A1) (B2) (A1)
 Beta  Orbitals:
       Occupied  (A1) (A1) (B2) (A1) (B2) (A1) (A1) (A1) (A1) (B2)
                 (A1) (B2) (A1) (A1) (B2) (A1) (B2) (A1) (B2) (B1)
                 (A1) (B2) (B1) (A2)
       Virtual   (B1) (A2) (B1) (A1) (A1) (B2) (A1) (B2) (A1) (B2)
                 (B1) (A1) (B2) (A1) (B2) (A1) (A1) (B2) (A1) (B1)
                 (B2) (A1) (A1) (B1) (B2) (A2) (A1) (A1) (B2) (B1)
                 (A2) (B1) (B2) (A1) (B2) (B1) (B2) (A1) (A1) (A1)
                 (B2) (A1) (B2) (A1) (A1) (A1) (B2) (B2) (A1) (B1)
                 (B2) (A2) (B2) (A1) (A2) (B1) (A2) (B1) (A2) (A1)
                 (A1) (A1) (B2) (B2) (A1) (B2) (B1) (A1) (A2) (B1)
                 (B2) (A1) (A1) (B1) (B2) (B1) (B2) (A1) (A2) (B2)
                 (A2) (A1) (B1) (A1) (B2) (B2) (B1) (A1) (A2) (A1)
                 (B2) (A2) (B1) (A1) (A1) (B2) (B2) (B1) (A2) (A1)
                 (B2) (A1) (B2) (B1) (A1) (A1) (B2) (A1) (B2) (A1)
                 (A1) (B1) (A1) (A2) (B2) (B1) (A2) (A1) (B1) (B2)
                 (B1) (B2) (B2) (B2) (A1) (A1) (A1) (B2) (A1) (A1)
                 (B2) (B2) (A1) (A1) (B2) (A1) (B2) (A1) (A1) (B2)
                 (A1) (A1) (B2) (A1)
 <S**2> of initial guess= 0.7812
 Requested convergence on RMS density matrix=1.00D-08 within 128 cycles.
 Requested convergence on MAX density matrix=1.00D-06.
 Requested convergence on             energy=1.00D-06.
 No special actions if energy rises.
 SCF Done:  E(UB+HF-LYP) =  -270.983927998     A.U. after    8 cycles
             Convg  =    0.9692D-08             -V/T =  2.0045
             S**2   =   0.7812
 Annihilation of the first spin contaminant:
 S**2 before annihilation     0.7812,   after     0.7507
 ***** Axes restored to original set *****
 -------------------------------------------------------------------
 Center     Atomic                   Forces (Hartrees/Bohr)
 Number     Number              X              Y              Z
 -------------------------------------------------------------------
    1          6           0.000000000   -0.000054209    0.000000000
    2          6           0.000000000    0.000024988    0.000038665
    3          6           0.000000000   -0.000089973    0.000091726
    4          6           0.000000000    0.000181640    0.000000000
    5          6           0.000000000   -0.000089973   -0.000091726
    6          6           0.000000000    0.000024988   -0.000038665
    7          1           0.000000000   -0.000009507    0.000000000
    8          1           0.000000000   -0.000016601    0.000012457
    9          1           0.000000000    0.000026484   -0.000003605
   10          1           0.000000000    0.000026484    0.000003605
   11          1           0.000000000   -0.000016601   -0.000012457
   12          6           0.000000000   -0.000093210    0.000000000
   13          1           0.000000000    0.000042745   -0.000011494
   14          1           0.000000000    0.000042745    0.000011494
 -------------------------------------------------------------------
 Cartesian Forces:  Max     0.000181640 RMS     0.000045819

 GradGradGradGradGradGradGradGradGradGradGradGradGradGradGradGradGradGrad
 Berny optimization.
 Internal  Forces:  Max     0.000117281 RMS     0.000027488
 Search for a local minimum.
 Step number   2 out of a maximum of  73
 All quantities printed in internal units (Hartrees-Bohrs-Radians)
 Update second derivatives using D2CorX and points  1  2
 Trust test= 9.37D-01 RLast= 3.97D-03 DXMaxT set to 3.00D-01
     Eigenvalues ---    0.01784   0.01885   0.01993   0.02023   0.02023
     Eigenvalues ---    0.02038   0.02078   0.02136   0.02150   0.02203
     Eigenvalues ---    0.02215   0.15489   0.16000   0.16000   0.16000
     Eigenvalues ---    0.16000   0.16000   0.16023   0.22000   0.22006
     Eigenvalues ---    0.23472   0.25000   0.35410   0.35415   0.35431
     Eigenvalues ---    0.35449   0.35548   0.35654   0.35671   0.39340
     Eigenvalues ---    0.40309   0.43985   0.44156   0.46656   0.47001
     Eigenvalues ---    0.508791000.000001000.000001000.000001000.00000
     Eigenvalues --- 1000.000001000.000001000.000001000.000001000.00000
     Eigenvalues --- 1000.000001000.000001000.000001000.000001000.00000
     Eigenvalues --- 1000.000001000.000001000.000001000.000001000.00000
     Eigenvalues --- 1000.000001000.000001000.000001000.000001000.00000
     Eigenvalues --- 1000.000001000.000001000.00000
 RFO step:  Lambda=-1.04582833D-07.
 Quartic linear search produced a step of -0.06003.
 Iteration  1 RMS(Cart)=  0.00011226 RMS(Int)=  0.00000001
 Iteration  2 RMS(Cart)=  0.00000001 RMS(Int)=  0.00000000
 Variable       Old X    -DE/DX   Delta X   Delta X   Delta X     New X
                                 (Linear)    (Quad)   (Total)
    R1        2.64565   0.00006   0.00009   0.00002   0.00011   2.64575
    R2        2.64565   0.00006   0.00009   0.00002   0.00011   2.64575
    R3        2.04791   0.00001   0.00000   0.00002   0.00002   2.04794
    R4        2.61312   0.00002   0.00009  -0.00006   0.00002   2.61315
    R5        2.04950   0.00002   0.00000   0.00005   0.00005   2.04955
    R6        2.69324   0.00012   0.00007   0.00018   0.00025   2.69349
    R7        2.05007   0.00001   0.00000   0.00002   0.00003   2.05010
    R8        2.69324   0.00012   0.00007   0.00018   0.00025   2.69349
    R9        2.65324  -0.00001   0.00011  -0.00015  -0.00004   2.65320
   R10        2.61312   0.00002   0.00009  -0.00006   0.00002   2.61315
   R11        2.05007   0.00001   0.00000   0.00002   0.00003   2.05010
   R12        2.04950   0.00002   0.00000   0.00005   0.00005   2.04955
   R13        2.04613   0.00001   0.00001   0.00002   0.00003   2.04616
   R14        2.04613   0.00001   0.00001   0.00002   0.00003   2.04616
    A1        2.08666   0.00001   0.00000   0.00002   0.00002   2.08668
    A2        2.09826   0.00000   0.00000  -0.00001  -0.00001   2.09825
    A3        2.09826   0.00000   0.00000  -0.00001  -0.00001   2.09825
    A4        2.10306   0.00000  -0.00001   0.00001   0.00000   2.10307
    A5        2.09050  -0.00001   0.00001  -0.00007  -0.00005   2.09045
    A6        2.08962   0.00001  -0.00001   0.00006   0.00005   2.08967
    A7        2.11418   0.00001   0.00001   0.00003   0.00004   2.11421
    A8        2.09606   0.00002  -0.00003   0.00017   0.00014   2.09620
    A9        2.07295  -0.00003   0.00003  -0.00020  -0.00018   2.07277
   A10        2.04523  -0.00003   0.00000  -0.00010  -0.00010   2.04513
   A11        2.11898   0.00001   0.00000   0.00005   0.00005   2.11903
   A12        2.11898   0.00001   0.00000   0.00005   0.00005   2.11903
   A13        2.11418   0.00001   0.00001   0.00003   0.00004   2.11421
   A14        2.07295  -0.00003   0.00003  -0.00020  -0.00018   2.07277
   A15        2.09606   0.00002  -0.00003   0.00017   0.00014   2.09620
   A16        2.10306   0.00000  -0.00001   0.00001   0.00000   2.10307
   A17        2.09050  -0.00001   0.00001  -0.00007  -0.00005   2.09045
   A18        2.08962   0.00001  -0.00001   0.00006   0.00005   2.08967
   A19        2.11336   0.00003  -0.00001   0.00019   0.00017   2.11353
   A20        2.11336   0.00003  -0.00001   0.00019   0.00017   2.11353
   A21        2.05647  -0.00006   0.00002  -0.00037  -0.00035   2.05612
    D1        0.00000   0.00000   0.00000   0.00000   0.00000   0.00000
    D2        3.14159   0.00000   0.00000   0.00000   0.00000   3.14159
    D3        3.14159   0.00000   0.00000   0.00000   0.00000   3.14159
    D4        0.00000   0.00000   0.00000   0.00000   0.00000   0.00000
    D5        0.00000   0.00000   0.00000   0.00000   0.00000   0.00000
    D6        3.14159   0.00000   0.00000   0.00000   0.00000   3.14159
    D7        3.14159   0.00000   0.00000   0.00000   0.00000   3.14159
    D8        0.00000   0.00000   0.00000   0.00000   0.00000   0.00000
    D9        0.00000   0.00000   0.00000   0.00000   0.00000   0.00000
   D10        3.14159   0.00000   0.00000   0.00000   0.00000   3.14159
   D11        3.14159   0.00000   0.00000   0.00000   0.00000   3.14159
   D12        0.00000   0.00000   0.00000   0.00000   0.00000   0.00000
   D13        0.00000   0.00000   0.00000   0.00000   0.00000   0.00000
   D14        3.14159   0.00000   0.00000   0.00000   0.00000   3.14159
   D15        3.14159   0.00000   0.00000   0.00000   0.00000   3.14159
   D16        0.00000   0.00000   0.00000   0.00000   0.00000   0.00000
   D17        0.00000   0.00000   0.00000   0.00000   0.00000   0.00000
   D18        3.14159   0.00000   0.00000   0.00000   0.00000   3.14159
   D19        3.14159   0.00000   0.00000   0.00000   0.00000   3.14159
   D20        0.00000   0.00000   0.00000   0.00000   0.00000   0.00000
   D21        0.00000   0.00000   0.00000   0.00000   0.00000   0.00000
   D22        3.14159   0.00000   0.00000   0.00000   0.00000   3.14159
   D23        3.14159   0.00000   0.00000   0.00000   0.00000   3.14159
   D24        0.00000   0.00000   0.00000   0.00000   0.00000   0.00000
   D25        0.00000   0.00000   0.00000   0.00000   0.00000   0.00000
   D26        3.14159   0.00000   0.00000   0.00000   0.00000   3.14159
   D27        3.14159   0.00000   0.00000   0.00000   0.00000   3.14159
   D28        0.00000   0.00000   0.00000   0.00000   0.00000   0.00000
         Item               Value     Threshold  Converged?
 Maximum Force            0.000117     0.000450     YES
 RMS     Force            0.000027     0.000300     YES
 Maximum Displacement     0.000417     0.001800     YES
 RMS     Displacement     0.000112     0.001200     YES
 Predicted change in Energy=-6.521234D-08
 Optimization completed.
    -- Stationary point found.
                           ----------------------------
                           !   Optimized Parameters   !
                           ! (Angstroms and Degrees)  !
 --------------------------                            --------------------------
 ! Name  Definition              Value          Derivative Info.                !
 --------------------------------------------------------------------------------
 ! R1    R(1,2)                  1.4            -DE/DX =    0.0001              !
 ! R2    R(1,6)                  1.4            -DE/DX =    0.0001              !
 ! R3    R(1,7)                  1.0837         -DE/DX =    0.0                 !
 ! R4    R(2,3)                  1.3828         -DE/DX =    0.0                 !
 ! R5    R(2,8)                  1.0845         -DE/DX =    0.0                 !
 ! R6    R(3,4)                  1.4252         -DE/DX =    0.0001              !
 ! R7    R(3,9)                  1.0849         -DE/DX =    0.0                 !
 ! R8    R(4,5)                  1.4252         -DE/DX =    0.0001              !
 ! R9    R(4,12)                 1.404          -DE/DX =    0.0                 !
 ! R10   R(5,6)                  1.3828         -DE/DX =    0.0                 !
 ! R11   R(5,10)                 1.0849         -DE/DX =    0.0                 !
 ! R12   R(6,11)                 1.0845         -DE/DX =    0.0                 !
 ! R13   R(12,13)                1.0828         -DE/DX =    0.0                 !
 ! R14   R(12,14)                1.0828         -DE/DX =    0.0                 !
 ! A1    A(2,1,6)              119.5569         -DE/DX =    0.0                 !
 ! A2    A(2,1,7)              120.2215         -DE/DX =    0.0                 !
 ! A3    A(6,1,7)              120.2215         -DE/DX =    0.0                 !
 ! A4    A(1,2,3)              120.4965         -DE/DX =    0.0                 !
 ! A5    A(1,2,8)              119.7771         -DE/DX =    0.0                 !
 ! A6    A(3,2,8)              119.7264         -DE/DX =    0.0                 !
 ! A7    A(2,3,4)              121.1335         -DE/DX =    0.0                 !
 ! A8    A(2,3,9)              120.0955         -DE/DX =    0.0                 !
 ! A9    A(4,3,9)              118.771          -DE/DX =    0.0                 !
 ! A10   A(3,4,5)              117.183          -DE/DX =    0.0                 !
 ! A11   A(3,4,12)             121.4085         -DE/DX =    0.0                 !
 ! A12   A(5,4,12)             121.4085         -DE/DX =    0.0                 !
 ! A13   A(4,5,6)              121.1335         -DE/DX =    0.0                 !
 ! A14   A(4,5,10)             118.771          -DE/DX =    0.0                 !
 ! A15   A(6,5,10)             120.0955         -DE/DX =    0.0                 !
 ! A16   A(1,6,5)              120.4965         -DE/DX =    0.0                 !
 ! A17   A(1,6,11)             119.7771         -DE/DX =    0.0                 !
 ! A18   A(5,6,11)             119.7264         -DE/DX =    0.0                 !
 ! A19   A(4,12,13)            121.0866         -DE/DX =    0.0                 !
 ! A20   A(4,12,14)            121.0866         -DE/DX =    0.0                 !
 ! A21   A(13,12,14)           117.8269         -DE/DX =   -0.0001              !
 ! D1    D(6,1,2,3)              0.0            -DE/DX =    0.0                 !
 ! D2    D(6,1,2,8)            180.0            -DE/DX =    0.0                 !
 ! D3    D(7,1,2,3)            180.0            -DE/DX =    0.0                 !
 ! D4    D(7,1,2,8)              0.0            -DE/DX =    0.0                 !
 ! D5    D(2,1,6,5)              0.0            -DE/DX =    0.0                 !
 ! D6    D(2,1,6,11)           180.0            -DE/DX =    0.0                 !
 ! D7    D(7,1,6,5)            180.0            -DE/DX =    0.0                 !
 ! D8    D(7,1,6,11)             0.0            -DE/DX =    0.0                 !
 ! D9    D(1,2,3,4)              0.0            -DE/DX =    0.0                 !
 ! D10   D(1,2,3,9)            180.0            -DE/DX =    0.0                 !
 ! D11   D(8,2,3,4)            180.0            -DE/DX =    0.0                 !
 ! D12   D(8,2,3,9)              0.0            -DE/DX =    0.0                 !
 ! D13   D(2,3,4,5)              0.0            -DE/DX =    0.0                 !
 ! D14   D(2,3,4,12)           180.0            -DE/DX =    0.0                 !
 ! D15   D(9,3,4,5)            180.0            -DE/DX =    0.0                 !
 ! D16   D(9,3,4,12)             0.0            -DE/DX =    0.0                 !
 ! D17   D(3,4,5,6)              0.0            -DE/DX =    0.0                 !
 ! D18   D(3,4,5,10)           180.0            -DE/DX =    0.0                 !
 ! D19   D(12,4,5,6)           180.0            -DE/DX =    0.0                 !
 ! D20   D(12,4,5,10)            0.0            -DE/DX =    0.0                 !
 ! D21   D(3,4,12,13)            0.0            -DE/DX =    0.0                 !
 ! D22   D(3,4,12,14)          180.0            -DE/DX =    0.0                 !
 ! D23   D(5,4,12,13)          180.0            -DE/DX =    0.0                 !
 ! D24   D(5,4,12,14)            0.0            -DE/DX =    0.0                 !
 ! D25   D(4,5,6,1)              0.0            -DE/DX =    0.0                 !
 ! D26   D(4,5,6,11)           180.0            -DE/DX =    0.0                 !
 ! D27   D(10,5,6,1)           180.0            -DE/DX =    0.0                 !
 ! D28   D(10,5,6,11)            0.0            -DE/DX =    0.0                 !
 --------------------------------------------------------------------------------
 GradGradGradGradGradGradGradGradGradGradGradGradGradGradGradGradGradGrad

                          Input orientation:                          
 ---------------------------------------------------------------------
 Center     Atomic     Atomic              Coordinates (Angstroms)
 Number     Number      Type              X           Y           Z
 ---------------------------------------------------------------------
    1          6             0        0.000000   -1.836202    0.000000
    2          6             0        0.000000   -1.131511    1.209734
    3          6             0        0.000000    0.251279    1.216371
    4          6             0        0.000000    0.994002    0.000000
    5          6             0        0.000000    0.251279   -1.216371
    6          6             0        0.000000   -1.131511   -1.209734
    7          1             0        0.000000   -2.919910    0.000000
    8          1             0        0.000000   -1.673808    2.148968
    9          1             0        0.000000    0.790759    2.157573
   10          1             0        0.000000    0.790759   -2.157573
   11          1             0        0.000000   -1.673808   -2.148968
   12          6             0        0.000000    2.398037    0.000000
   13          1             0        0.000000    2.957102    0.927265
   14          1             0        0.000000    2.957102   -0.927265
 ---------------------------------------------------------------------
                    Distance matrix (angstroms):
                    1          2          3          4          5
     1  C    0.000000
     2  C    1.400016   0.000000
     3  C    2.416016   1.382806   0.000000
     4  C    2.830204   2.445662   1.425200   0.000000
     5  C    2.416016   2.792506   2.432741   1.425200   0.000000
     6  C    1.400016   2.419468   2.792506   2.445662   1.382806
     7  H    1.083709   2.159127   3.396469   3.913913   3.396469
     8  H    2.155095   1.084550   2.139089   3.425679   3.877044
     9  H    3.399418   2.143249   1.084850   2.167125   3.416802
    10  H    3.399418   3.877354   3.416802   2.167125   1.084850
    11  H    2.155095   3.402200   3.877044   3.425679   2.139089
    12  C    4.234238   3.731107   2.467412   1.404034   2.467412
    13  H    4.882170   4.098359   2.721224   2.171079   3.452051
    14  H    4.882170   4.613407   3.452051   2.171079   2.721224
                    6          7          8          9         10
     6  C    0.000000
     7  H    2.159127   0.000000
     8  H    3.402200   2.484116   0.000000
     9  H    3.877354   4.292340   2.464582   0.000000
    10  H    2.143249   4.292340   4.961894   4.315147   0.000000
    11  H    1.084550   2.484116   4.297936   4.961894   2.464582
    12  C    3.731107   5.317947   4.604127   2.690440   2.690440
    13  H    4.613407   5.949714   4.789352   2.491326   3.769519
    14  H    4.098359   5.949714   5.559545   3.769519   2.491326
                   11         12         13         14
    11  H    0.000000
    12  C    4.604127   0.000000
    13  H    5.559545   1.082763   0.000000
    14  H    4.789352   1.082763   1.854531   0.000000
 Stoichiometry    C7H7(2)
 Framework group  C2V[C2(HCCC),SGV(C4H6)]
 Deg. of freedom    13
 Full point group                 C2V
 Largest Abelian subgroup         C2V     NOp   4
 Largest concise Abelian subgroup C2      NOp   2
                         Standard orientation:                         
 ---------------------------------------------------------------------
 Center     Atomic     Atomic              Coordinates (Angstroms)
 Number     Number      Type              X           Y           Z
 ---------------------------------------------------------------------
    1          6             0        0.000000    0.000000   -1.836211
    2          6             0        0.000000    1.209734   -1.131520
    3          6             0        0.000000    1.216371    0.251270
    4          6             0        0.000000    0.000000    0.993993
    5          6             0        0.000000   -1.216371    0.251270
    6          6             0        0.000000   -1.209734   -1.131520
    7          1             0        0.000000    0.000000   -2.919919
    8          1             0        0.000000    2.148968   -1.673817
    9          1             0        0.000000    2.157573    0.790749
   10          1             0        0.000000   -2.157573    0.790749
   11          1             0        0.000000   -2.148968   -1.673817
   12          6             0        0.000000    0.000000    2.398028
   13          1             0        0.000000    0.927265    2.957093
   14          1             0        0.000000   -0.927265    2.957093
 ---------------------------------------------------------------------
 Rotational constants (GHZ):      5.5501433      2.7072575      1.8196606

 **********************************************************************

            Population analysis using the SCF density.

 **********************************************************************

 Orbital symmetries:
 Alpha Orbitals:
[...]
  Beta virt. eigenvalues --    5.61904   5.78786   5.93372   5.98754   6.04511
  Beta virt. eigenvalues --    6.17608   6.23470   6.26708   6.33762   6.34012
  Beta virt. eigenvalues --    6.65710   6.97334  25.04182  25.55915  25.58190
  Beta virt. eigenvalues --   25.66045  25.84352  25.87801  26.28758
          Condensed to atoms (all electrons):
              1          2          3          4          5          6
     1  C    5.618844  -0.056347   0.517150  -0.838857   0.517150  -0.056347
     2  C   -0.056347   5.874924  -0.766964   0.813469  -0.391899   0.442857
     3  C    0.517150  -0.766964   8.693895  -1.203123  -0.550750  -0.391899
     4  C   -0.838857   0.813469  -1.203123   7.810372  -1.203123   0.813469
     5  C    0.517150  -0.391899  -0.550750  -1.203123   8.693895  -0.766964
     6  C   -0.056347   0.442857  -0.391899   0.813469  -0.766964   5.874924
     7  H    0.335223   0.021970  -0.009536   0.010380  -0.009536   0.021970
     8  H    0.026334   0.327882   0.013997   0.009818  -0.003967  -0.003376
     9  H    0.016011   0.004055   0.406726  -0.045345   0.012103  -0.011606
    10  H    0.016011  -0.011606   0.012103  -0.045345   0.406726   0.004055
    11  H    0.026334  -0.003376  -0.003967   0.009818   0.013997   0.327882
    12  C    0.176643  -0.264275   0.139812  -1.404606   0.139812  -0.264275
    13  H   -0.002508   0.022541   0.001373  -0.037479  -0.007821   0.000000
    14  H   -0.002508   0.000000  -0.007821  -0.037479   0.001373   0.022541
              7          8          9         10         11         12
     1  C    0.335223   0.026334   0.016011   0.016011   0.026334   0.176643
     2  C    0.021970   0.327882   0.004055  -0.011606  -0.003376  -0.264275
     3  C   -0.009536   0.013997   0.406726   0.012103  -0.003967   0.139812
     4  C    0.010380   0.009818  -0.045345  -0.045345   0.009818  -1.404606
     5  C   -0.009536  -0.003967   0.012103   0.406726   0.013997   0.139812
     6  C    0.021970  -0.003376  -0.011606   0.004055   0.327882  -0.264275
     7  H    0.468928  -0.001265   0.000436   0.000436  -0.001265   0.002671
     8  H   -0.001265   0.469496  -0.003886  -0.000453   0.000469   0.002990
     9  H    0.000436  -0.003886   0.492933   0.000907  -0.000453   0.019365
    10  H    0.000436  -0.000453   0.000907   0.492933  -0.003886   0.019365
    11  H   -0.001265   0.000469  -0.000453  -0.003886   0.469496   0.002990
    12  C    0.002671   0.002990   0.019365   0.019365   0.002990   6.880710
    13  H   -0.000070   0.000024   0.001856  -0.001247   0.000004   0.403945
    14  H   -0.000070   0.000004  -0.001247   0.001856   0.000024   0.403945
             13         14
     1  C   -0.002508  -0.002508
     2  C    0.022541   0.000000
     3  C    0.001373  -0.007821
     4  C   -0.037479  -0.037479
     5  C   -0.007821   0.001373
     6  C    0.000000   0.022541
     7  H   -0.000070  -0.000070
     8  H    0.000024   0.000004
     9  H    0.001856  -0.001247
    10  H   -0.001247   0.001856
    11  H    0.000004   0.000024
    12  C    0.403945   0.403945
    13  H    0.511106  -0.008109
    14  H   -0.008109   0.511106
 Mulliken atomic charges:
              1
     1  C   -0.293132
     2  C   -0.013231
     3  C   -0.850996
     4  C    1.348032
     5  C   -0.850996
     6  C   -0.013231
     7  H    0.159727
     8  H    0.161931
     9  H    0.108144
    10  H    0.108144
    11  H    0.161931
    12  C   -0.259092
    13  H    0.116383
    14  H    0.116383
 Sum of Mulliken charges=   0.00000
 Atomic charges with hydrogens summed into heavy atoms:
              1
     1  C   -0.133405
     2  C    0.148701
     3  C   -0.742851
     4  C    1.348032
     5  C   -0.742851
     6  C    0.148701
     7  H    0.000000
     8  H    0.000000
     9  H    0.000000
    10  H    0.000000
    11  H    0.000000
    12  C   -0.026326
    13  H    0.000000
    14  H    0.000000
 Sum of Mulliken charges=   0.00000
          Atomic-Atomic Spin Densities.
              1          2          3          4          5          6
     1  C    0.724496  -0.013593   0.061237  -0.052957   0.061237  -0.013593
     2  C   -0.013593  -0.596777  -0.135287   0.096869  -0.107839   0.047314
     3  C    0.061237  -0.135287   1.159397  -0.216648   0.041881  -0.107839
     4  C   -0.052957   0.096869  -0.216648  -0.328810  -0.216648   0.096869
     5  C    0.061237  -0.107839   0.041881  -0.216648   1.159397  -0.135287
     6  C   -0.013593   0.047314  -0.107839   0.096869  -0.135287  -0.596777
     7  H    0.008796   0.000739   0.001218  -0.004094   0.001218   0.000739
     8  H   -0.002800  -0.007595  -0.006167   0.006558  -0.001208   0.001917
     9  H   -0.000752  -0.000169   0.027608  -0.013585  -0.000678  -0.001181
    10  H   -0.000752  -0.001181  -0.000678  -0.013585   0.027608  -0.000169
    11  H   -0.002800   0.001917  -0.001208   0.006558  -0.006167  -0.007595
    12  C   -0.035186   0.061041  -0.086145  -0.066951  -0.086145   0.061041
    13  H   -0.002415   0.000095  -0.011866  -0.003136  -0.003105   0.003376
    14  H   -0.002415   0.003376  -0.003105  -0.003136  -0.011866   0.000095
              7          8          9         10         11         12
     1  C    0.008796  -0.002800  -0.000752  -0.000752  -0.002800  -0.035186
     2  C    0.000739  -0.007595  -0.000169  -0.001181   0.001917   0.061041
     3  C    0.001218  -0.006167   0.027608  -0.000678  -0.001208  -0.086145
     4  C   -0.004094   0.006558  -0.013585  -0.013585   0.006558  -0.066951
     5  C    0.001218  -0.001208  -0.000678   0.027608  -0.006167  -0.086145
     6  C    0.000739   0.001917  -0.001181  -0.000169  -0.007595   0.061041
     7  H   -0.068062   0.000071  -0.000004  -0.000004   0.000071  -0.001332
     8  H    0.000071   0.058731  -0.000166  -0.000039   0.000088   0.002049
     9  H   -0.000004  -0.000166  -0.065989   0.000100  -0.000039  -0.000683
    10  H   -0.000004  -0.000039   0.000100  -0.065989  -0.000166  -0.000683
    11  H    0.000071   0.000088  -0.000039  -0.000166   0.058731   0.002049
    12  C   -0.001332   0.002049  -0.000683  -0.000683   0.002049   1.161794
    13  H   -0.000024   0.000193  -0.002433  -0.000452   0.000066   0.024632
    14  H   -0.000024   0.000066  -0.000452  -0.002433   0.000193   0.024632
             13         14
     1  C   -0.002415  -0.002415
     2  C    0.000095   0.003376
     3  C   -0.011866  -0.003105
     4  C   -0.003136  -0.003136
     5  C   -0.003105  -0.011866
     6  C    0.003376   0.000095
     7  H   -0.000024  -0.000024
     8  H    0.000193   0.000066
     9  H   -0.002433  -0.000452
    10  H   -0.000452  -0.002433
    11  H    0.000066   0.000193
    12  C    0.024632   0.024632
    13  H   -0.090382   0.013258
    14  H    0.013258  -0.090382
 Mulliken atomic spin densities:
              1
     1  C    0.728503
     2  C   -0.651091
     3  C    0.722399
     4  C   -0.712696
     5  C    0.722399
     6  C   -0.651091
     7  H   -0.060692
     8  H    0.051696
     9  H   -0.058423
    10  H   -0.058423
    11  H    0.051696
    12  C    1.060112
    13  H   -0.072195
    14  H   -0.072195
 Sum of Mulliken spin densities=   1.00000
 Electronic spatial extent (au):  <R**2>=   681.3399
 Charge=     0.0000 electrons
 Dipole moment (field-independent basis, Debye):
    X=     0.0000    Y=     0.0000    Z=    -0.0444  Tot=     0.0444
 Quadrupole moment (field-independent basis, Debye-Ang):
   XX=   -47.1279   YY=   -37.6793   ZZ=   -37.9663
   XY=     0.0000   XZ=     0.0000   YZ=     0.0000
 Traceless Quadrupole moment (field-independent basis, Debye-Ang):
   XX=    -6.2034   YY=     3.2452   ZZ=     2.9581
   XY=     0.0000   XZ=     0.0000   YZ=     0.0000
 Octapole moment (field-independent basis, Debye-Ang**2):
  XXX=     0.0000  YYY=     0.0000  ZZZ=    -3.3056  XYY=     0.0000
  XXY=     0.0000  XXZ=    -0.1989  XZZ=     0.0000  YZZ=     0.0000
  YYZ=     0.6245  XYZ=     0.0000
 Hexadecapole moment (field-independent basis, Debye-Ang**3):
 XXXX=   -56.9669 YYYY=  -289.1607 ZZZZ=  -554.5685 XXXY=     0.0000
 XXXZ=     0.0000 YYYX=     0.0000 YYYZ=     0.0000 ZZZX=     0.0000
 ZZZY=     0.0000 XXYY=   -69.3795 XXZZ=  -122.3493 YYZZ=  -134.3982
 XXYZ=     0.0000 YYXZ=     0.0000 ZZXY=     0.0000
 N-N= 2.601084892876D+02 E-N=-1.146918480383D+03  KE= 2.691103511337D+02
 Symmetry A1   KE= 1.818430400490D+02
 Symmetry A2   KE= 2.161531452088D+00
 Symmetry B1   KE= 5.061444929569D+00
 Symmetry B2   KE= 8.004433470301D+01
 1\1\GINC-NODE33\SP\UMP2-FC\CBSB3\C7H7(2)\LAITCL\16-Feb-2017\0\\#N Geom
 =AllCheck Guess=Read SCRF=Check MP2/CBSB3 CBSExtrap=(NMin=10,MinPop)\\
 Benzyl Energy\\0,2\C,0,0.,-1.8362016541,0.\C,0,0.,-1.1315106129,1.2097
 338327\C,0,0.,0.2512794984,1.2163707388\C,0,0.,0.9940024615,0.\C,0,0.,
 0.2512794984,-1.2163707388\C,0,0.,-1.1315106129,-1.2097338327\H,0,0.,-
 2.9199103015,0.\H,0,0.,-1.673808234,2.1489682171\H,0,0.,0.7907585007,2
 .1575733929\H,0,0.,0.7907585007,-2.1575733929\H,0,0.,-1.673808234,-2.1
 489682171\C,0,0.,2.3980366413,0.\H,0,0.,2.9571022742,0.9272654218\H,0,
 0.,2.9571022742,-0.9272654218\\Version=AM64L-G03RevD.01\State=2-B1\HF=
 -269.2210297\MP2=-270.2472761\E2(CBS)=-1.1269967\CBS-Int=-1.0940075\OI
 ii=8.2340392\PUHF=-269.2628709\PMP2-0=-270.2850069\S2=1.334885\S2-1=1.
 184854\S2A=1.062181\RMSD=5.005e-09\Thermal=0.\PG=C02V [C2(H1C1C1C1),SG
 V(C4H6)]\\@


 O WAD SOME POWER THE GIFTIE GIE US       
 TO SEE OURSELS AS OTHERS SEE US.....     
 IT WOULD FRAE MONIE A BLUNDER FREE US,   
                     AND FOOLISH NOTION...
 WHAT AIRS IN DRESS AND GAIT WAD LEA'E US,
                     AND EV'N DEVOTION....
                                          
              (ROBERT BURNS 'TO A LOUSE') 
 Diagonal vibrational polarizability:
        0.0000000       0.0000000       0.0000000

 Complete Basis Set (CBS) Extrapolation:
 M. R. Nyden and G. A. Petersson, JCP 75, 1843 (1981)
 G. A. Petersson and M. A. Al-Laham, JCP 94, 6081 (1991)
 G. A. Petersson, T. Tensfeldt, and J. A. Montgomery, JCP 94, 6091 (1991)
 J. A. Montgomery, J. W. Ochterski, and G. A. Petersson, JCP 101, 5900 (1994)

 Temperature=            298.150000 Pressure=                    1.000000
 E(ZPE)=                   0.113010 E(Thermal)=                  0.118750
 E(SCF)=                 -269.221030 DE(MP2)=                     -1.026246
 DE(CBS)=                  -0.100750 DE(MP34)=                    -0.068174
 DE(CCSD)=                 -0.054619 DE(Int)=                      0.032989
 DE(Empirical)=            -0.053255
 CBS-QB3 (0 K)=          -270.378075 CBS-QB3 Energy=            -270.372334
 CBS-QB3 Enthalpy=       -270.371390 CBS-QB3 Free Energy=       -270.407130
 1\1\GINC-NODE33\Mixed\CBS-QB3\CBS-QB3\C7H7(2)\LAITCL\16-Feb-2017\0\\# 
 cbs-qb3\\Benzyl Energy\\0,2\C,0,0.,-1.8362016541,0.\C,0,0.,-1.13151061
 29,1.2097338327\C,0,0.,0.2512794984,1.2163707388\C,0,0.,0.9940024615,0
 .\C,0,0.,0.2512794984,-1.2163707388\C,0,0.,-1.1315106129,-1.2097338327
 \H,0,0.,-2.9199103015,0.\H,0,0.,-1.673808234,2.1489682171\H,0,0.,0.790
 7585007,2.1575733929\H,0,0.,0.7907585007,-2.1575733929\H,0,0.,-1.67380
 8234,-2.1489682171\C,0,0.,2.3980366413,0.\H,0,0.,2.9571022742,0.927265
 4218\H,0,0.,2.9571022742,-0.9272654218\\Version=AM64L-G03RevD.01\State
 =2-B1\HF/CbsB3=-269.2210297\E2(CBS)/CbsB3=-1.1269967\CBS-Int/CbsB3=0.0
 329892\OIii/CbsB3=8.2340392\MP2/CbsB4=-270.0263232\MP4(SDQ)/CbsB4=-270
 .0944971\MP4(SDQ)/6-31+G(d')=-270.0375843\QCISD(T)/6-31+G(d')=-270.092
 2033\CBSQB3=-270.3780747\FreqCoord=0.,-3.4699182529,0.,0.,-2.138245176
 ,2.2860656388,0.,0.4748494351,2.2986075736,0.,1.8783924286,0.,0.,0.474
 8494351,-2.2986075736,0.,-2.138245176,-2.2860656388,0.,-5.5178308054,0
 .,0.,-3.1630391631,4.0609614008,0.,1.4943170043,4.0772228264,0.,1.4943
 170043,-4.0772228264,0.,-3.1630391631,-4.0609614008,0.,4.5316325112,0.
 ,0.,5.5881134483,1.7522777007,0.,5.5881134483,-1.7522777007\PG=C02V [C
 2(H1C1C1C1),SGV(C4H6)]\NImag=0\\0.12526381,0.,0.72533384,0.,0.,0.61918
 265,-0.06044053,0.,0.,0.13017824,0.,-0.16733066,-0.03631512,0.,0.66952
 924,0.,-0.11051313,-0.26288715,0.,-0.04966714,0.69829386,0.00828532,0.
 ,0.,-0.05840126,0.,0.,0.12831097,0.,-0.03569512,-0.07989820,0.,-0.3434
 3018,0.03898381,0.,0.69181732,0.,-0.02683593,0.02407768,0.,-0.03048710
 ,-0.12936117,0.,0.05570962,0.66104519,-0.00833395,0.,0.,0.00740310,0.,
 0.,-0.06735931,0.,0.,0.14601305,0.,0.01707355,0.00000001,0.,-0.0494532
 1,0.01555970,0.,-0.12058468,0.05281597,0.,0.61002900,0.,0.,-0.05032354
 ,0.,0.05584755,0.02769971,0.,0.04670187,-0.24313234,0.,0.00000001,0.61
 725018,0.00828532,0.,0.,-0.00553830,0.,0.,0.00672272,0.,0.,-0.06735931
 ,0.,0.,0.12831097,0.,-0.03569512,0.07989820,0.,-0.04101841,-0.02410069
 ,0.,0.04399758,-0.00238046,0.,-0.12058471,-0.04670187,0.,0.69181732,0.
 ,0.02683593,0.02407768,0.,-0.01359398,-0.00922747,0.,0.00238046,-0.038
 18245,0.,-0.05281600,-0.24313234,0.,-0.05570962,0.66104519,-0.06044053
 ,0.,0.,0.00750145,0.,0.,-0.00553830,0.,0.,0.00740310,0.,0.,-0.05840126
 ,0.,0.,0.13017824,0.,-0.16733067,0.03631511,0.,0.06345889,0.02228651,0
 .,-0.04101841,0.01359398,0.,-0.04945319,-0.05584755,0.,-0.34343018,0.0
 3048710,0.,0.66952924,0.,0.11051313,-0.26288715,0.,-0.02228651,-0.0580
 3872,0.,0.02410069,-0.00922747,0.,-0.01555972,0.02769970,0.,-0.0389838
 1,-0.12936117,0.,0.04966714,0.69829386,-0.03306144,0.,0.,0.00306144,0.
 ,0.,0.00609408,0.,0.,-0.00101875,0.,0.,0.00609408,0.,0.,0.00306144,0.,
 0.,0.02291106,0.,-0.33644149,0.,0.,-0.01127220,0.00303867,0.,0.0007818
 1,-0.00311227,0.,0.00054323,0.,0.,0.00078181,0.00311227,0.,-0.01127220
 ,-0.00303867,0.,0.35661461,0.,0.,-0.05932043,0.,-0.02803322,0.00477309
 ,0.,-0.00216798,-0.00461687,0.,0.,-0.00104226,0.,0.00216798,-0.0046168
 7,0.,0.02803322,0.00477309,0.,0.,0.05783797,0.00298689,0.,0.,-0.036988
 28,0.,0.,0.00329949,0.,0.,0.00824851,0.,0.,-0.00056960,0.,0.,0.0063607
 2,0.,0.,-0.00352076,0.,0.,0.02564757,0.,0.01177176,-0.01484681,0.,-0.1
 2785400,0.11843741,0.,-0.01110328,0.02935026,0.,-0.00548092,-0.0018598
 6,0.,-0.00061901,-0.00061513,0.,-0.00090315,-0.00317205,0.,0.00076145,
 0.00056939,0.,0.13244938,0.,0.01630843,-0.01847968,0.,0.11869424,-0.26
 535457,0.,-0.00191634,0.00340849,0.,-0.00085693,0.00178565,0.,-0.00085
 450,0.00040247,0.,-0.00407398,-0.00301690,0.,-0.00032756,0.00095185,0.
 ,-0.12826498,0.28054220,0.00746219,0.,0.,0.00380991,0.,0.,-0.03415203,
 0.,0.,0.00255953,0.,0.,0.00496508,0.,0.,-0.00059085,0.,0.,0.00018889,0
 .,0.,-0.00448825,0.,0.,0.02317414,0.,-0.00546149,0.00161068,0.,-0.0107
 1994,-0.02918751,0.,-0.12544865,-0.11773819,0.,0.01029402,0.01411418,0
 .,-0.00140233,0.00305660,0.,-0.00045201,0.00056264,0.,-0.00068089,-0.0
 0139935,0.,0.00096557,0.00034675,0.,0.13123365,0.,0.00052670,0.0019725
 3,0.,0.00227984,0.00338767,0.,-0.11809223,-0.26556237,0.,-0.01531534,-
 0.01912157,0.,0.00404301,-0.00283117,0.,0.00085511,0.00005060,0.,0.000
 17192,0.00000516,0.,-0.00039470,0.00084407,0.,0.12736298,0.28078064,0.
 00746219,0.,0.,-0.00059085,0.,0.,0.00496508,0.,0.,0.00255953,0.,0.,-0.
 03415203,0.,0.,0.00380991,0.,0.,0.00018889,0.,0.,-0.00106188,0.,0.,0.0
 0034627,0.,0.,0.02317414,0.,-0.00546149,-0.00161068,0.,-0.00045201,-0.
 00056264,0.,-0.00140233,-0.00305660,0.,0.01029402,-0.01411418,0.,-0.12
 544865,0.11773819,0.,-0.01071994,0.02918751,0.,-0.00068089,0.00139935,
 0.,0.00005517,0.00010438,0.,0.00054309,-0.00078907,0.,0.13123365,0.,-0
 .00052670,0.00197252,0.,-0.00085511,0.00005060,0.,-0.00404301,-0.00283
 117,0.,0.01531534,-0.01912158,0.,0.11809223,-0.26556237,0.,-0.00227984
 ,0.00338767,0.,-0.00017192,0.00000516,0.,0.00011145,-0.00002058,0.,0.0
 0078907,-0.00111020,0.,-0.12736298,0.28078064,0.00298689,0.,0.,0.00636
 072,0.,0.,-0.00056960,0.,0.,0.00824851,0.,0.,0.00329949,0.,0.,-0.03698
 828,0.,0.,-0.00352076,0.,0.,0.00023925,0.,0.,-0.00106188,0.,0.,-0.0044
 8825,0.,0.,0.02564757,0.,0.01177176,0.01484681,0.,-0.00090315,0.003172
 05,0.,-0.00061901,0.00061513,0.,-0.00548092,0.00185985,0.,-0.01110328,
 -0.02935026,0.,-0.12785400,-0.11843741,0.,0.00076145,-0.00056939,0.,0.
 00038240,0.00079000,0.,0.00005517,-0.00011145,0.,0.00096557,0.00039470
 ,0.,0.13244938,0.,-0.01630843,-0.01847969,0.,0.00407398,-0.00301690,0.
 ,0.00085450,0.00040247,0.,0.00085694,0.00178565,0.,0.00191634,0.003408
 49,0.,-0.11869424,-0.26535457,0.,0.00032756,0.00095185,0.,-0.00079000,
 -0.00105764,0.,-0.00010438,-0.00002058,0.,-0.00034675,0.00084407,0.,0.
 12826498,0.28054220,-0.00063132,0.,0.,0.00350770,0.,0.,0.00618610,0.,0
 .,-0.04404367,0.,0.,0.00618610,0.,0.,0.00350770,0.,0.,-0.00051532,0.,0
 .,0.00019933,0.,0.,-0.00222742,0.,0.,-0.00222742,0.,0.,0.00019933,0.,0
 .,0.06838796,0.,-0.01280885,0.,0.,0.01932086,0.01028225,0.,-0.05342177
 ,0.03563479,0.,-0.27837600,0.,0.,-0.05342175,-0.03563477,0.,0.01932085
 ,-0.01028224,0.,0.00011073,0.,0.,0.00009626,0.00004839,0.,0.00103400,-
 0.00195213,0.,0.00103400,0.00195213,0.,0.00009626,-0.00004840,0.,0.617
 46657,0.,0.,0.00066646,0.,0.00094476,-0.00651232,0.,0.03617878,0.00255
 029,0.,0.00000002,-0.10520773,0.,-0.03617878,0.00255029,0.,-0.00094476
 ,-0.00651232,0.,0.,0.00022727,0.,0.00151542,-0.00002660,0.,0.00119021,
 0.00084630,0.,-0.00119022,0.00084630,0.,-0.00151542,-0.00002660,0.,-0.
 00000001,0.64870908,0.00008758,0.,0.,-0.00000208,0.,0.,-0.00300394,0.,
 0.,0.00283983,0.,0.,0.00516067,0.,0.,0.00013876,0.,0.,0.00001859,0.,0.
 ,0.00007450,0.,0.,0.00015865,0.,0.,-0.00014424,0.,0.,-0.00042749,0.,0.
 ,-0.01926453,0.,0.,0.01162961,0.,0.00013699,0.00006487,0.,0.00013519,0
 .00043741,0.,0.00132338,-0.00177920,0.,-0.00941009,-0.02757028,0.,-0.0
 0519667,0.00233001,0.,-0.00001042,-0.00183329,0.,-0.00000372,0.0000755
 3,0.,-0.00002891,0.00001331,0.,-0.00002567,0.00118268,0.,0.00006548,-0
 .00023267,0.,-0.00049271,0.00001120,0.,-0.13022558,-0.12221964,0.,0.13
 388371,0.,0.00018042,0.00021408,0.,-0.00044709,0.00015818,0.,0.0014450
 2,0.00058896,0.,0.00243793,0.00243024,0.,0.00023696,0.00084074,0.,0.00
 015511,0.00003518,0.,-0.00003833,0.00003549,0.,-0.00006838,0.00000726,
 0.,-0.00036918,0.00036013,0.,0.00023452,0.00039879,0.,-0.00002800,0.00
 001398,0.,-0.12629304,-0.26905520,0.,0.13603707,0.27828802,0.00008758,
 0.,0.,0.00013876,0.,0.,0.00516067,0.,0.,0.00283983,0.,0.,-0.00300394,0
 .,0.,-0.00000208,0.,0.,0.00001859,0.,0.,-0.00042749,0.,0.,-0.00014424,
 0.,0.,0.00015865,0.,0.,0.00007450,0.,0.,-0.01926453,0.,0.,0.00273410,0
 .,0.,0.01162961,0.,0.00013699,-0.00006487,0.,-0.00001042,0.00183329,0.
 ,-0.00519667,-0.00233001,0.,-0.00941010,0.02757028,0.,0.00132338,0.001
 77920,0.,0.00013519,-0.00043741,0.,-0.00000372,-0.00007553,0.,-0.00049
 271,-0.00001120,0.,0.00006548,0.00023267,0.,-0.00002567,-0.00118268,0.
 ,-0.00002891,-0.00001331,0.,-0.13022557,0.12221964,0.,0.00984902,-0.01
 348299,0.,0.13388371,0.,-0.00018041,0.00021408,0.,-0.00015511,0.000035
 18,0.,-0.00023696,0.00084074,0.,-0.00243795,0.00243024,0.,-0.00144502,
 0.00058896,0.,0.00044709,0.00015818,0.,0.00003833,0.00003549,0.,0.0000
 2800,0.00001398,0.,-0.00023452,0.00039879,0.,0.00036918,0.00036013,0.,
 0.00006838,0.00000726,0.,0.12629305,-0.26905520,0.,0.01348299,-0.01431
 588,0.,-0.13603707,0.27828802\\0.,0.00005429,0.,0.,-0.00002509,-0.0000
 3872,0.,0.00008979,-0.00009162,0.,-0.00018159,0.,0.,0.00008979,0.00009
 162,0.,-0.00002509,0.00003872,0.,0.00000959,0.,0.,0.00001665,-0.000012
 52,0.,-0.00002643,0.00000366,0.,-0.00002643,-0.00000366,0.,0.00001665,
 0.00001252,0.,0.00009330,0.,0.,-0.00004272,0.00001155,0.,-0.00004272,-
 0.00001155\\\@
 Job cpu time:  0 days  0 hours 53 minutes 26.7 seconds.
 File lengths (MBytes):  RWF=   3833 Int=      0 D2E=      0 Chk=     16 Scr=      1
 Normal termination of Gaussian 03 at Thu Feb 16 17:28:06 2017.
