 Entering Gaussian System, Link 0=/Local/ce_dana/g09/g09
 Initial command:
 /Local/ce_dana/g09/l1.exe "/storage/ce_dana/alongd/scratch/g09/Gau-834.inp" -scrdir="/storage/ce_dana/alongd/scratch/g09/"
 Entering Link 1 = /Local/ce_dana/g09/l1.exe PID=       835.
  
 Copyright (c) 1988,1990,1992,1993,1995,1998,2003,2009,2013,
            Gaussian, Inc.  All Rights Reserved.
  
 This is part of the Gaussian(R) 09 program.  It is based on
 the Gaussian(R) 03 system (copyright 2003, Gaussian, Inc.),
 the Gaussian(R) 98 system (copyright 1998, Gaussian, Inc.),
 the Gaussian(R) 94 system (copyright 1995, Gaussian, Inc.),
 the Gaussian 92(TM) system (copyright 1992, Gaussian, Inc.),
 the Gaussian 90(TM) system (copyright 1990, Gaussian, Inc.),
 the Gaussian 88(TM) system (copyright 1988, Gaussian, Inc.),
 the Gaussian 86(TM) system (copyright 1986, Carnegie Mellon
 University), and the Gaussian 82(TM) system (copyright 1983,
 Carnegie Mellon University). Gaussian is a federally registered
 trademark of Gaussian, Inc.
  
 This software contains proprietary and confidential information,
 including trade secrets, belonging to Gaussian, Inc.
  
 This software is provided under written license and may be
 used, copied, transmitted, or stored only in accord with that
 written license.
  
 The following legend is applicable only to US Government
 contracts under FAR:
  
                    RESTRICTED RIGHTS LEGEND
  
 Use, reproduction and disclosure by the US Government is
 subject to restrictions as set forth in subparagraphs (a)
 and (c) of the Commercial Computer Software - Restricted
 Rights clause in FAR 52.227-19.
  
 Gaussian, Inc.
 340 Quinnipiac St., Bldg. 40, Wallingford CT 06492
  
  
 ---------------------------------------------------------------
 Warning -- This program may not be used in any manner that
 competes with the business of Gaussian, Inc. or will provide
 assistance to any competitor of Gaussian, Inc.  The licensee
 of this program is prohibited from giving any competitor of
 Gaussian, Inc. access to this program.  By using this program,
 the user acknowledges that Gaussian, Inc. is engaged in the
 business of creating and licensing software in the field of
 computational chemistry and represents and warrants to the
 licensee that it is not a competitor of Gaussian, Inc. and that
 it will not use this program in any manner prohibited above.
 ---------------------------------------------------------------
  

 Cite this work as:
 Gaussian 09, Revision D.01,
 M. J. Frisch, G. W. Trucks, H. B. Schlegel, G. E. Scuseria, 
 M. A. Robb, J. R. Cheeseman, G. Scalmani, V. Barone, B. Mennucci, 
 G. A. Petersson, H. Nakatsuji, M. Caricato, X. Li, H. P. Hratchian, 
 A. F. Izmaylov, J. Bloino, G. Zheng, J. L. Sonnenberg, M. Hada, 
 M. Ehara, K. Toyota, R. Fukuda, J. Hasegawa, M. Ishida, T. Nakajima, 
 Y. Honda, O. Kitao, H. Nakai, T. Vreven, J. A. Montgomery, Jr., 
 J. E. Peralta, F. Ogliaro, M. Bearpark, J. J. Heyd, E. Brothers, 
 K. N. Kudin, V. N. Staroverov, T. Keith, R. Kobayashi, J. Normand, 
 K. Raghavachari, A. Rendell, J. C. Burant, S. S. Iyengar, J. Tomasi, 
 M. Cossi, N. Rega, J. M. Millam, M. Klene, J. E. Knox, J. B. Cross, 
 V. Bakken, C. Adamo, J. Jaramillo, R. Gomperts, R. E. Stratmann, 
 O. Yazyev, A. J. Austin, R. Cammi, C. Pomelli, J. W. Ochterski, 
 R. L. Martin, K. Morokuma, V. G. Zakrzewski, G. A. Voth, 
 P. Salvador, J. J. Dannenberg, S. Dapprich, A. D. Daniels, 
 O. Farkas, J. B. Foresman, J. V. Ortiz, J. Cioslowski, 
 and D. J. Fox, Gaussian, Inc., Wallingford CT, 2013.
 
 ******************************************
 Gaussian 09:  ES64L-G09RevD.01 24-Apr-2013
                12-Nov-2022 
 ******************************************
 %chk=check.chk
 %mem=7168mb
 %NProcShared=10
 Will use up to   10 processors via shared memory.
 ----------------------------------------------------------------------
 #P guess=read ub2plypd3/def2tzvp freq IOp(7/33=1) scf=(tight, direct) 
 integral=(grid=ultrafine, Acc2E=12) IOp(2/9=2000) scf=xqc
 ----------------------------------------------------------------------
 1/10=4,30=1,38=1/1,3;
 2/9=2000,12=2,17=6,18=5,40=1/2;
 3/5=44,7=101,11=2,16=1,25=1,30=1,71=2,74=-60,75=-5,116=2,140=1/1,2,3;
 4/5=1/1;
 5/5=2,8=3,13=1,32=2,38=6,87=12,98=1/2,8;
 8/6=3,8=1,10=1,19=11,30=-1,87=12/1;
 9/15=3,16=-3,87=12/6;
 11/6=1,8=1,15=11,17=12,24=-1,27=1,28=-2,29=300,32=6,42=3,87=12/1,2,10;
 10/6=2,21=1,87=12/2;
 8/6=4,8=1,10=1,19=11,30=-1,87=12/11,4;
 10/5=1,20=4,87=12/2;
 11/12=2,14=11,16=1,17=2,28=-2,42=3,87=12/2,10,12;
 6/7=2,8=2,9=2,10=2/1;
 7/8=1,10=1,12=2,25=1,33=1,44=2,87=12/1,2,3,16;
 1/10=4,30=1/3;
 99//99;
 Leave Link    1 at Sat Nov 12 22:36:59 2022, MaxMem=   939524096 cpu:         0.1
 (Enter /Local/ce_dana/g09/l101.exe)
 ---
 TS0
 ---
 Symbolic Z-matrix:
 Charge =  0 Multiplicity = 2
 N                     0.02765   1.18177   0.34495 
 H                    -0.81771   1.47937  -0.14763 
 H                    -0.29097   0.99197   1.29799 
 C                     0.04468  -1.25556  -0.48301 
 H                     0.14441  -0.00641  -0.0982 
 H                     0.82841  -1.75912   0.07359 
 H                    -0.95088  -1.60945  -0.23974 
 H                     0.23707  -1.2117   -1.55009 
 
 NAtoms=      8 NQM=        8 NQMF=       0 NMMI=      0 NMMIF=      0
                NMic=       0 NMicF=      0.
                    Isotopes and Nuclear Properties:
 (Nuclear quadrupole moments (NQMom) in fm**2, nuclear magnetic moments (NMagM)
  in nuclear magnetons)

  Atom         1           2           3           4           5           6           7           8
 IAtWgt=          14           1           1          12           1           1           1           1
 AtmWgt=  14.0030740   1.0078250   1.0078250  12.0000000   1.0078250   1.0078250   1.0078250   1.0078250
 NucSpn=           2           1           1           0           1           1           1           1
 AtZEff=   0.0000000   0.0000000   0.0000000   0.0000000   0.0000000   0.0000000   0.0000000   0.0000000
 NQMom=    2.0440000   0.0000000   0.0000000   0.0000000   0.0000000   0.0000000   0.0000000   0.0000000
 NMagM=    0.4037610   2.7928460   2.7928460   0.0000000   2.7928460   2.7928460   2.7928460   2.7928460
 AtZNuc=   7.0000000   1.0000000   1.0000000   6.0000000   1.0000000   1.0000000   1.0000000   1.0000000
 Leave Link  101 at Sat Nov 12 22:36:59 2022, MaxMem=   939524096 cpu:         0.1
 (Enter /Local/ce_dana/g09/l103.exe)

 GradGradGradGradGradGradGradGradGradGradGradGradGradGradGradGradGradGrad
 Berny optimization.
 Initialization pass.
 Trust Radius=3.00D-01 FncErr=1.00D-07 GrdErr=1.00D-07
 Number of steps in this run=      2 maximum allowed number of steps=      2.
 GradGradGradGradGradGradGradGradGradGradGradGradGradGradGradGradGradGrad

 Leave Link  103 at Sat Nov 12 22:36:59 2022, MaxMem=   939524096 cpu:         0.0
 (Enter /Local/ce_dana/g09/l202.exe)
                          Input orientation:                          
 ---------------------------------------------------------------------
 Center     Atomic      Atomic             Coordinates (Angstroms)
 Number     Number       Type             X           Y           Z
 ---------------------------------------------------------------------
      1          7           0        0.027646    1.181770    0.344950
      2          1           0       -0.817709    1.479370   -0.147631
      3          1           0       -0.290972    0.991973    1.297991
      4          6           0        0.044680   -1.255558   -0.483007
      5          1           0        0.144413   -0.006410   -0.098195
      6          1           0        0.828412   -1.759119    0.073587
      7          1           0       -0.950884   -1.609453   -0.239736
      8          1           0        0.237070   -1.211704   -1.550092
 ---------------------------------------------------------------------
                    Distance matrix (angstroms):
                    1          2          3          4          5
     1  N    0.000000
     2  H    1.022657   0.000000
     3  H    1.022657   1.613949   0.000000
     4  C    2.574174   2.887217   2.887215   0.000000
     5  H    1.273493   1.770781   1.770781   1.310877   0.000000
     6  H    3.060015   3.639569   3.212584   1.085176   1.889273
     7  H    3.015013   3.093064   3.093138   1.084237   1.946653
     8  H    3.060026   3.212683   3.639588   1.085176   1.889265
                    6          7          8
     6  H    0.000000
     7  H    1.812861   0.000000
     8  H    1.812645   1.812863   0.000000
 Stoichiometry    CH6N(2)
 Framework group  C1[X(CH6N)]
 Deg. of freedom    18
 Full point group                 C1      NOp   1
 Largest Abelian subgroup         C1      NOp   1
 Largest concise Abelian subgroup C1      NOp   1
                         Standard orientation:                         
 ---------------------------------------------------------------------
 Center     Atomic      Atomic             Coordinates (Angstroms)
 Number     Number       Type             X           Y           Z
 ---------------------------------------------------------------------
      1          7           0       -1.311872   -0.000000   -0.136528
      2          1           0       -1.476313   -0.806973    0.469757
      3          1           0       -1.476311    0.806976    0.469752
      4          6           0        1.257954   -0.000000    0.013026
      5          1           0       -0.039032   -0.000002   -0.177303
      6          1           0        1.590263    0.906395   -0.482579
      7          1           0        1.446488   -0.000143    1.080745
      8          1           0        1.590291   -0.906250   -0.482829
 ---------------------------------------------------------------------
 Rotational constants (GHZ):     95.3772487      8.8710056      8.7727801
 Leave Link  202 at Sat Nov 12 22:36:59 2022, MaxMem=   939524096 cpu:         0.0
 (Enter /Local/ce_dana/g09/l301.exe)
 Standard basis: def2TZVP (5D, 7F)
 Ernie: Thresh=  0.10000D-02 Tol=  0.10000D-05 Strict=F.
 There are   108 symmetry adapted cartesian basis functions of A   symmetry.
 There are    98 symmetry adapted basis functions of A   symmetry.
    98 basis functions,   150 primitive gaussians,   108 cartesian basis functions
    10 alpha electrons        9 beta electrons
       nuclear repulsion energy        39.4340255649 Hartrees.
 IExCor=  419 DFT=T Ex+Corr=B2PLYPD3 ExCW=0 ScaHFX=  0.530000
 ScaDFX=  0.470000  0.470000  0.730000  0.730000 ScalE2=  0.270000  0.270000
 IRadAn=      5 IRanWt=     -1 IRanGd=            0 ICorTp=0 IEmpDi=141
 NAtoms=    8 NActive=    8 NUniq=    8 SFac= 1.00D+00 NAtFMM=   60 NAOKFM=F Big=F
 Integral buffers will be    131072 words long.
 Raffenetti 2 integral format.
 Two-electron integral symmetry is turned on.
 R6Disp:  Grimme-D3(BJ) Dispersion energy=       -0.0020571257 Hartrees.
 Nuclear repulsion after empirical dispersion term =       39.4319684392 Hartrees.
 Leave Link  301 at Sat Nov 12 22:36:59 2022, MaxMem=   939524096 cpu:         0.1
 (Enter /Local/ce_dana/g09/l302.exe)
 NPDir=0 NMtPBC=     1 NCelOv=     1 NCel=       1 NClECP=     1 NCelD=      1
         NCelK=      1 NCelE2=     1 NClLst=     1 CellRange=     0.0.
 One-electron integrals computed using PRISM.
   1 Symmetry operations used in ECPInt.
 ECPInt:  NShTT=    1081 NPrTT=    2988 LenC2=    1080 LenP2D=    2693.
 LDataN:  DoStor=T MaxTD1= 6 Len=  172
 NBasis=    98 RedAO= T EigKep=  7.26D-04  NBF=    98
 NBsUse=    98 1.00D-06 EigRej= -1.00D+00 NBFU=    98
 Precomputing XC quadrature grid using
 IXCGrd= 4 IRadAn=           5 IRanWt=          -1 IRanGd=           0 AccXCQ= 0.00D+00.
 Generated NRdTot=       0 NPtTot=           0 NUsed=           0 NTot=          32
 NSgBfM=   108   108   108   108   108 MxSgAt=     8 MxSgA2=     8.
 Leave Link  302 at Sat Nov 12 22:37:00 2022, MaxMem=   939524096 cpu:         1.6
 (Enter /Local/ce_dana/g09/l303.exe)
 DipDrv:  MaxL=1.
 Leave Link  303 at Sat Nov 12 22:37:00 2022, MaxMem=   939524096 cpu:         0.1
 (Enter /Local/ce_dana/g09/l401.exe)
 Initial guess from the checkpoint file:  "check.chk"
 B after Tr=     0.000000    0.000000    0.000000
         Rot=   -0.000000    0.000000    0.000001    1.000000 Ang= 180.00 deg.
 Guess basis will be translated and rotated to current coordinates.
 JPrj=2 DoOrth=T DoCkMO=T.
 Initial guess <Sx>= 0.0000 <Sy>= 0.0000 <Sz>= 0.5000 <S**2>= 0.7685 S= 0.5092
 Leave Link  401 at Sat Nov 12 22:37:00 2022, MaxMem=   939524096 cpu:         0.3
 (Enter /Local/ce_dana/g09/l502.exe)
 UHF open shell SCF:
 Using DIIS extrapolation, IDIIS=  1040.
 Integral symmetry usage will be decided dynamically.
 Keep R1 and R2 ints in memory in canonical form, NReq=25576585.
 IVT=       42822 IEndB=       42822 NGot=   939524096 MDV=   915944223
 LenX=   915944223 LenY=   915932118
 Requested convergence on RMS density matrix=1.00D-08 within  64 cycles.
 Requested convergence on MAX density matrix=1.00D-06.
 Requested convergence on             energy=1.00D-06.
 No special actions if energy rises.
 FoFCou: FMM=F IPFlag=           0 FMFlag=           0 FMFlg1=           0
         NFxFlg=           0 DoJE=F BraDBF=F KetDBF=F FulRan=T
         wScrn=  0.000000 ICntrl=     600 IOpCl=  0 I1Cent=           0 NGrid=           0
         NMat0=    1 NMatS0=   4851 NMatT0=    0 NMatD0=    1 NMtDS0=    0 NMtDT0=    0
 Symmetry not used in FoFCou.

 Cycle   1  Pass 1  IDiag  1:
 E= -96.1877059651991    
 DIIS: error= 5.19D-08 at cycle   1 NSaved=   1.
 NSaved= 1 IEnMin= 1 EnMin= -96.1877059651991     IErMin= 1 ErrMin= 5.19D-08
 ErrMax= 5.19D-08  0.00D+00 EMaxC= 1.00D-01 BMatC= 9.29D-13 BMatP= 9.29D-13
 IDIUse=1 WtCom= 1.00D+00 WtEn= 0.00D+00
 Coeff-Com:  0.100D+01
 Coeff:      0.100D+01
 Gap=     0.362 Goal=   None    Shift=    0.000
 Gap=     0.312 Goal=   None    Shift=    0.000
 RMSDP=4.41D-09 MaxDP=5.42D-08              OVMax= 2.24D-07

 SCF Done:  E(UB2PLYPD3) =  -96.1877059652     A.U. after    1 cycles
            NFock=  1  Conv=0.44D-08     -V/T= 2.0034
 <Sx>= 0.0000 <Sy>= 0.0000 <Sz>= 0.5000 <S**2>= 0.7685 S= 0.5092
 <L.S>=  0.00000000000    
 KE= 9.586272079518D+01 PE=-3.027614227687D+02 EE= 7.127902756917D+01
 Annihilation of the first spin contaminant:
 S**2 before annihilation     0.7685,   after     0.7501
 Leave Link  502 at Sat Nov 12 22:37:01 2022, MaxMem=   939524096 cpu:         7.1
 (Enter /Local/ce_dana/g09/l508.exe)
 QCSCF skips out because SCF is already converged.
 Leave Link  508 at Sat Nov 12 22:37:01 2022, MaxMem=   939524096 cpu:         0.0
 (Enter /Local/ce_dana/g09/l801.exe)
 DoSCS=T DFT=T ScalE2(SS,OS)=  0.270000  0.270000
 ExpMin= 9.52D-02 ExpMax= 1.97D+04 ExpMxC= 6.73D+02 IAcc=3 IRadAn=         5 AccDes= 0.00D+00
 HarFok:  IExCor=  205 AccDes= 0.00D+00 IRadAn=         5 IDoV=-2 UseB2=F ITyADJ=14
 ICtDFT= 12500011 ScaDFX=  1.000000  1.000000  1.000000  1.000000
 Largest valence mixing into a core orbital is  8.51D-05
 Largest core mixing into a valence orbital is  1.54D-05
 Largest valence mixing into a core orbital is  1.04D-04
 Largest core mixing into a valence orbital is  2.10D-05
 Range of M.O.s used for correlation:     3    98
 NBasis=    98 NAE=    10 NBE=     9 NFC=     2 NFV=     0
 NROrb=     96 NOA=     8 NOB=     7 NVA=    88 NVB=    89

 **** Warning!!: The largest alpha MO coefficient is  0.12866593D+02


 **** Warning!!: The largest beta MO coefficient is  0.12365759D+02

 Leave Link  801 at Sat Nov 12 22:37:01 2022, MaxMem=   939524096 cpu:         0.8
 (Enter /Local/ce_dana/g09/l906.exe)
 DoSCS=T DFT=T ScalE2(SS,OS)=  0.270000  0.270000
 Frozen-core derivative calculation, NFC=   2 NFV=   0.
 FulOut=F Deriv=T AODrv=T NAtomX=     8
   MMem=           0  MDisk=           8 MDiskD=           8
  W3Min=      211680 MinDsk=      546854 NBas6D=         108
 NBas2D=        6072    NTT=        5886    LW2=     7400000
    MDV=   939348410 MDiskM=       43395 NBas2p=        6069
 Disk-based method using ON**2 memory for  8 occupieds at a time.
 Permanent disk used for amplitudes=     1018116 words.
 Estimated scratch disk usage=    18537590 words.
 IMap=   1   2   3   4   5   6   7   8   9  10
 Actual    scratch disk usage=    18537590 words.
 JobTyp=2 Pass  1:  I=   3 to  10 NPSUse= 10 ParTrn=T ParDer=T DoDerP=T.
 (rs|ai) integrals will be sorted in core.
 IMap=   1   2   3   4   5   6   7   8   9
 Actual    scratch disk usage=    18537590 words.
 JobTyp=3 Pass  1:  I=   3 to   9 NPSUse= 10 ParTrn=T ParDer=T DoDerP=T.
 (rs|ai) integrals will be sorted in core.
 Spin components of T(2) and E(2):
     alpha-alpha T2 =       0.2383452502D-01 E2=     -0.1649096242D-01
     alpha-beta  T2 =       0.1440788852D+00 E2=     -0.1007045642D+00
     beta-beta   T2 =       0.2127454462D-01 E2=     -0.1252386729D-01
 The integrals were generated   2 times.
 E2(B2PLYPD3) =    -0.1297193939D+00 E(B2PLYPD3) =    -0.96317425359078D+02
 Leave Link  906 at Sat Nov 12 22:37:34 2022, MaxMem=   939524096 cpu:       179.7
 (Enter /Local/ce_dana/g09/l1101.exe)
 Using compressed Sx but separate Hx and Fx, NAtomX=     8.
 Will process      9 centers per pass.
   1 Symmetry operations used in ECPInt.
 ECPInt:  NShTT=    1081 NPrTT=    2988 LenC2=    1080 LenP2D=    2693.
 LDataN:  DoStor=T MaxTD1= 7 Len=  274
 R6Disp: Adding Grimme-D3(BJ) dispersion energy 1st derivatives to the gradient.
 Leave Link 1101 at Sat Nov 12 22:37:36 2022, MaxMem=   939524096 cpu:         4.0
 (Enter /Local/ce_dana/g09/l1102.exe)
 Leave Link 1102 at Sat Nov 12 22:37:36 2022, MaxMem=   939524096 cpu:         0.1
 (Enter /Local/ce_dana/g09/l1110.exe)
 Forming Gx(P) for the SCF density, NAtomX=     8.
 Integral derivatives from FoFJK, PRISM(SPDF).
 Do as many integral derivatives as possible in FoFJK.
 G2DrvN: MDV=     939523928.
 G2DrvN: will do     9 centers at a time, making    1 passes.
 Calling FoFCou, ICntrl=  3107 FMM=F I1Cent=   0 AccDes= 1.00D-12.
 FoFJK:  IHMeth= 1 ICntrl=    3107 DoSepK=F KAlg= 0 I1Cent=   0 FoldK=F
 IRaf=         0 NMat=   1 IRICut=       1 DoRegI=T DoRafI=F ISym2E= 0.
 FoFCou: FMM=F IPFlag=           0 FMFlag=      100000 FMFlg1=           0
         NFxFlg=           0 DoJE=F BraDBF=F KetDBF=F FulRan=T
         wScrn=  0.000000 ICntrl=    3107 IOpCl=  1 I1Cent=           0 NGrid=           0
         NMat0=    1 NMatS0=      1 NMatT0=    0 NMatD0=    1 NMtDS0=    0 NMtDT0=    0
 Symmetry not used in FoFCou.
 End of G2Drv F.D. properties file   721 does not exist.
 End of G2Drv F.D. properties file   722 does not exist.
 End of G2Drv F.D. properties file   788 does not exist.
 Leave Link 1110 at Sat Nov 12 22:37:46 2022, MaxMem=   939524096 cpu:        85.3
 (Enter /Local/ce_dana/g09/l1002.exe)
 Minotr:  UHF open shell wavefunction.
          IDoAtm=11111111
          Frozen-core window.
          Direct CPHF calculation.
          Differentiating once with respect to electric field.
                with respect to dipole field.
          Differentiating once with respect to nuclear coordinates.
          Requested convergence is 1.0D-08 RMS, and 1.0D-07 maximum.
          Secondary convergence is 1.0D-12 RMS, and 1.0D-12 maximum.
          NewPWx=T KeepS1=T KeepF1=T KeepIn=T MapXYZ=F SortEE=F KeepMc=T.
          MDV=     939523820 using IRadAn=       1.
 Generate precomputed XC quadrature information.
 Keep R1 and R2 ints in memory in canonical form, NReq=25555330.
 FoFCou: FMM=F IPFlag=           0 FMFlag=           0 FMFlg1=           0
         NFxFlg=           0 DoJE=F BraDBF=F KetDBF=F FulRan=T
         wScrn=  0.000000 ICntrl=     600 IOpCl=  0 I1Cent=           0 NGrid=           0
         NMat0=    1 NMatS0=   4851 NMatT0=    0 NMatD0=    1 NMtDS0=    0 NMtDT0=    0
 Symmetry not used in FoFCou.
          Solving linear equations simultaneously, MaxMat=       0.
          There are    27 degrees of freedom in the 1st order CPHF.  IDoFFX=6 NUNeed=    27.
     24 vectors produced by pass  0 Test12= 6.23D-15 3.70D-09 XBig12= 4.34D+01 4.12D+00.
 AX will form    24 AO Fock derivatives at one time.
     24 vectors produced by pass  1 Test12= 6.23D-15 3.70D-09 XBig12= 2.79D+00 5.04D-01.
     24 vectors produced by pass  2 Test12= 6.23D-15 3.70D-09 XBig12= 1.07D-01 7.54D-02.
     24 vectors produced by pass  3 Test12= 6.23D-15 3.70D-09 XBig12= 1.34D-03 6.74D-03.
     24 vectors produced by pass  4 Test12= 6.23D-15 3.70D-09 XBig12= 1.02D-05 7.51D-04.
     24 vectors produced by pass  5 Test12= 6.23D-15 3.70D-09 XBig12= 6.81D-08 5.36D-05.
     22 vectors produced by pass  6 Test12= 6.23D-15 3.70D-09 XBig12= 4.68D-10 3.37D-06.
      6 vectors produced by pass  7 Test12= 6.23D-15 3.70D-09 XBig12= 2.98D-12 2.63D-07.
      2 vectors produced by pass  8 Test12= 6.23D-15 3.70D-09 XBig12= 1.05D-14 1.63D-08.
 InvSVY:  IOpt=1 It=  1 EMax= 2.66D-15
 Solved reduced A of dimension   174 with    27 vectors.
 FullF1:  Do perturbations    1 to    27.
 Saving first derivative matrices.
 End of Minotr F.D. properties file   721 does not exist.
 End of Minotr F.D. properties file   722 does not exist.
 End of Minotr F.D. properties file   788 does not exist.
 Leave Link 1002 at Sat Nov 12 22:38:07 2022, MaxMem=   939524096 cpu:       135.0
 (Enter /Local/ce_dana/g09/l811.exe)
 MDV=   939524096.
 DoSCS=T DFT=T ScalE2(SS,OS)=  0.270000  0.270000
 Form MO integral derivatives with frozen-active canonical formalism.
 MOERI=1 MOERIx=1 NAtoms=     8 NAtomX=     8.
 Discarding MO integrals.
 MO basis two electron integral derivatives will not be stored on disk.
 IAlg= 3 DoFC=T DoPWx=T Debug=F.
 Frozen-core window:  NFC=   2 NFV=   0.
 Reordered first order wavefunction length =      4153152
 In DefCFB: NBatch=  1 ICI= 10 ICA= 89 LFMax= 45
            Large arrays: LIAPS=    71166816 LIARS=    48444480 words.
 In StABat: MaxSiz= 36 MinSiz= 36 NAtomB=  3
 DoIAMN: NPSUse= 10.
 In DefCFB: NBatch=  1 ICI= 10 ICA= 89 LFMax= 45
            Large arrays: LIAPS=    71166816 LIARS=    48444480 words.
 In StABat: MaxSiz= 36 MinSiz= 36 NAtomB=  3
 Leave Link  811 at Sat Nov 12 22:39:36 2022, MaxMem=   939524096 cpu:       304.4
 (Enter /Local/ce_dana/g09/l804.exe)
 Frozen-core window:  NFC=   2 NFV=   0.
 Open-shell transformation, MDV=   939524096 ITran=4 ISComp=1.
 Semi-Direct transformation.
 ModeAB=           2 MOrb=            10 LenV=     938907612
 LASXX=      4355935 LTotXX=     4355935 LenRXX=     4355935
 LTotAB=     4535685 MaxLAS=     5768280 LenRXY=     5768280
 NonZer=     8711870 LenScr=    13833216 LnRSAI=           0
 LnScr1=           0 LExtra=           0 Total=     23957431
 MaxDsk=          -1 SrtSym=           F ITran=            4
 DoSDTr:  NPSUse= 10
 JobTyp=1 Pass  1:  I=   1 to  10.
 (rs|ai) integrals will be sorted in core.
 Complete sort for first half transformation.
 First half transformation complete.
 Begin second half transformation for I=  10.
 Begin second half transformation for I=  10.
 Complete sort for second half transformation.
 Second half transformation complete.
 ModeAB=           2 MOrb=             9 LenV=     938907612
 LASXX=      3948795 LTotXX=     3948795 LenRXX=     5191452
 LTotAB=     3312936 MaxLAS=     5191452 LenRXY=     3312936
 NonZer=     7897590 LenScr=    12585984 LnRSAI=           0
 LnScr1=           0 LExtra=           0 Total=     21090372
 MaxDsk=          -1 SrtSym=           F ITran=            4
 DoSDTr:  NPSUse= 10
 JobTyp=2 Pass  1:  I=   1 to   9.
 (rs|ai) integrals will be sorted in core.
 Complete sort for first half transformation.
 First half transformation complete.
 Complete sort for second half transformation.
 Second half transformation complete.
 SymMOI:  orbitals are not symmetric.
 DoSCS=T DFT=T ScalE2(SS,OS)=  0.270000  0.270000
 Spin components of T(2) and E(2):
     alpha-alpha T2 =       0.2383452502D-01 E2=     -0.1649096242D-01
     alpha-beta  T2 =       0.1440788852D+00 E2=     -0.1007045642D+00
     beta-beta   T2 =       0.2127454462D-01 E2=     -0.1252386729D-01
 E2(B2PLYPD3) =    -0.1297193939D+00 E(B2PLYPD3) =    -0.96317425359078D+02
 Leave Link  804 at Sat Nov 12 22:39:48 2022, MaxMem=   939524096 cpu:        35.2
 (Enter /Local/ce_dana/g09/l1002.exe)
 Minotr:  UHF open shell wavefunction.
          Computing MP2/KS-MP2 derivatives.
          Using Z-Vector for PSCF gradient.
          Skipping F1 and S1 gradient terms here.
          IDoAtm=11111111
          Frozen-core window.
          Direct CPHF calculation.
          Differentiating once with respect to electric field.
                with respect to dipole field.
          Differentiating once with respect to nuclear coordinates.
          Requested convergence is 1.0D-10 RMS, and 1.0D-09 maximum.
          NewPWx=T KeepS1=F KeepF1=F KeepIn=T MapXYZ=F SortEE=F KeepMc=T.
          MDV=     939523820 using IRadAn=       5.
 Using stored XC quadrature information.
 Keep R1 and R2 ints in memory in canonical form, NReq=25552952.
 FoFCou: FMM=F IPFlag=           0 FMFlag=           0 FMFlg1=           0
         NFxFlg=           0 DoJE=F BraDBF=F KetDBF=F FulRan=T
         wScrn=  0.000000 ICntrl=     600 IOpCl=  0 I1Cent=           0 NGrid=           0
         NMat0=    1 NMatS0=   4851 NMatT0=    0 NMatD0=    1 NMtDS0=    0 NMtDT0=    0
 Symmetry not used in FoFCou.
          Solving linear equations separately, MaxMat=       0.
          There are     1 degrees of freedom in the 1st order CPHF.  IDoFFX=0 NUNeed=     1.
 LinEq1:  Iter=  0 NonCon=     1 RMS=1.20D-03 Max=1.31D-02 NDo=     1
 AX will form     1 AO Fock derivatives at one time.
 LinEq1:  Iter=  1 NonCon=     1 RMS=3.70D-04 Max=3.78D-03 NDo=     1
 LinEq1:  Iter=  2 NonCon=     1 RMS=2.11D-04 Max=3.73D-03 NDo=     1
 LinEq1:  Iter=  3 NonCon=     1 RMS=6.80D-05 Max=1.25D-03 NDo=     1
 LinEq1:  Iter=  4 NonCon=     1 RMS=4.17D-05 Max=6.27D-04 NDo=     1
 LinEq1:  Iter=  5 NonCon=     1 RMS=1.37D-05 Max=2.88D-04 NDo=     1
 LinEq1:  Iter=  6 NonCon=     1 RMS=4.58D-06 Max=7.49D-05 NDo=     1
 LinEq1:  Iter=  7 NonCon=     1 RMS=1.45D-06 Max=2.72D-05 NDo=     1
 LinEq1:  Iter=  8 NonCon=     1 RMS=3.38D-07 Max=3.09D-06 NDo=     1
 LinEq1:  Iter=  9 NonCon=     1 RMS=1.03D-07 Max=1.33D-06 NDo=     1
 LinEq1:  Iter= 10 NonCon=     1 RMS=2.38D-08 Max=2.26D-07 NDo=     1
 LinEq1:  Iter= 11 NonCon=     1 RMS=6.09D-09 Max=5.70D-08 NDo=     1
 LinEq1:  Iter= 12 NonCon=     1 RMS=1.45D-09 Max=1.43D-08 NDo=     1
 LinEq1:  Iter= 13 NonCon=     1 RMS=2.31D-10 Max=3.10D-09 NDo=     1
 LinEq1:  Iter= 14 NonCon=     0 RMS=3.56D-11 Max=6.17D-10 NDo=     1
 Linear equations converged to 1.000D-10 1.000D-09 after    14 iterations.
 End of Minotr F.D. properties file   721 does not exist.
 End of Minotr F.D. properties file   722 does not exist.
 End of Minotr F.D. properties file   788 does not exist.
 Leave Link 1002 at Sat Nov 12 22:40:11 2022, MaxMem=   939524096 cpu:       108.8
 (Enter /Local/ce_dana/g09/l1102.exe)
 Use density number 2.
 Symmetrizing basis deriv contribution to polar:
 IMax=3 JMax=2 DiffMx= 0.00D+00
 Leave Link 1102 at Sat Nov 12 22:40:11 2022, MaxMem=   939524096 cpu:         0.1
 (Enter /Local/ce_dana/g09/l1110.exe)
 Forming Gx(P) for generalized density number  2 NAtomX=     8.
 Integral derivatives from FoFJK, PRISM(SPDF).
 Do as many integral derivatives as possible in FoFJK.
 G2DrvN: MDV=     939523928.
 G2DrvN: will do     9 centers at a time, making    1 passes.
 Calling FoFCou, ICntrl=  3107 FMM=F I1Cent=   0 AccDes= 1.00D-12.
 FoFJK:  IHMeth= 1 ICntrl=    3107 DoSepK=F KAlg= 0 I1Cent=   0 FoldK=F
 IRaf=         0 NMat=   1 IRICut=       1 DoRegI=T DoRafI=F ISym2E= 0.
 FoFCou: FMM=F IPFlag=           0 FMFlag=      100000 FMFlg1=           0
         NFxFlg=           0 DoJE=F BraDBF=F KetDBF=F FulRan=T
         wScrn=  0.000000 ICntrl=    3107 IOpCl=  1 I1Cent=           0 NGrid=           0
         NMat0=    1 NMatS0=      1 NMatT0=    0 NMatD0=    1 NMtDS0=    0 NMtDT0=    0
 Symmetry not used in FoFCou.
 End of G2Drv F.D. properties file   721 does not exist.
 End of G2Drv F.D. properties file   722 does not exist.
 End of G2Drv F.D. properties file   788 does not exist.
 Leave Link 1110 at Sat Nov 12 22:40:20 2022, MaxMem=   939524096 cpu:        86.2
 (Enter /Local/ce_dana/g09/l1112.exe)
 MP22nd: MDV=     939524096
 DoSCS=T DFT=T ScalE2(SS,OS)=  0.270000  0.270000
 Using stored XC quadrature information.
 This link is doing NAtomX=     8 total of    27 degrees of freedom.
 Using ON3 I/O method in MakUI.
 Frozen-core window:  NFC=   2 NFV=   0.
 Using Ix for Sx.
 Use MO integrals over full window.
 Using OV2 memory method for fx*t*t/D, MaxI=     9 DoOO2=F NP=  10.
 R2 and R3 integrals will be kept in memory, NReq=    36590882.
 FoFCou: FMM=F IPFlag=           0 FMFlag=           0 FMFlg1=           0
         NFxFlg=           0 DoJE=F BraDBF=F KetDBF=F FulRan=T
         wScrn=  0.000000 ICntrl=     600 IOpCl=  0 I1Cent=           0 NGrid=           0
         NMat0=    1 NMatS0=      1 NMatT0=    0 NMatD0=    1 NMtDS0=    0 NMtDT0=    0
 Symmetry not used in FoFCou.
 DD1Dir will call FoFMem   1 times, MxPair=       262
 NAB=    90 NAA=    45 NBB=    36.
 Symmetry is being used.
 FoFJK:  IHMeth= 1 ICntrl=       0 DoSepK=F KAlg= 0 I1Cent=   0 FoldK=F
 IRaf=         0 NMat=  27 IRICut=      67 DoRegI=T DoRafI=T ISym2E= 2.
 R6Disp: Adding Grimme-D3(BJ) dispersion energy 1st derivatives to the gradient.
 Discarding MO integrals.
 Leave Link 1112 at Sat Nov 12 22:42:09 2022, MaxMem=   939524096 cpu:       311.2
 (Enter /Local/ce_dana/g09/l601.exe)
 Copying SCF densities to generalized density rwf, IOpCl= 1 IROHF=0.

 **********************************************************************

            Population analysis using the SCF density.

 **********************************************************************

 Orbital symmetries:
 Alpha Orbitals:
       Occupied  (A) (A) (A) (A) (A) (A) (A) (A) (A) (A)
       Virtual   (A) (A) (A) (A) (A) (A) (A) (A) (A) (A) (A) (A)
                 (A) (A) (A) (A) (A) (A) (A) (A) (A) (A) (A) (A)
                 (A) (A) (A) (A) (A) (A) (A) (A) (A) (A) (A) (A)
                 (A) (A) (A) (A) (A) (A) (A) (A) (A) (A) (A) (A)
                 (A) (A) (A) (A) (A) (A) (A) (A) (A) (A) (A) (A)
                 (A) (A) (A) (A) (A) (A) (A) (A) (A) (A) (A) (A)
                 (A) (A) (A) (A) (A) (A) (A) (A) (A) (A) (A) (A)
                 (A) (A) (A) (A)
 Beta  Orbitals:
       Occupied  (A) (A) (A) (A) (A) (A) (A) (A) (A)
       Virtual   (A) (A) (A) (A) (A) (A) (A) (A) (A) (A) (A) (A)
                 (A) (A) (A) (A) (A) (A) (A) (A) (A) (A) (A) (A)
                 (A) (A) (A) (A) (A) (A) (A) (A) (A) (A) (A) (A)
                 (A) (A) (A) (A) (A) (A) (A) (A) (A) (A) (A) (A)
                 (A) (A) (A) (A) (A) (A) (A) (A) (A) (A) (A) (A)
                 (A) (A) (A) (A) (A) (A) (A) (A) (A) (A) (A) (A)
                 (A) (A) (A) (A) (A) (A) (A) (A) (A) (A) (A) (A)
                 (A) (A) (A) (A) (A)
 The electronic state is 2-A.
 Alpha  occ. eigenvalues --  -14.84144 -10.61601  -0.98212  -0.80732  -0.53685
 Alpha  occ. eigenvalues --   -0.52712  -0.47906  -0.47725  -0.37616  -0.29458
 Alpha virt. eigenvalues --    0.06738   0.11720   0.14429   0.16281   0.16582
 Alpha virt. eigenvalues --    0.22276   0.24780   0.25493   0.33388   0.36957
 Alpha virt. eigenvalues --    0.39561   0.41981   0.47047   0.52860   0.54192
 Alpha virt. eigenvalues --    0.54713   0.58643   0.59846   0.60996   0.64930
 Alpha virt. eigenvalues --    0.68453   0.82243   0.99707   1.00233   1.02965
 Alpha virt. eigenvalues --    1.04032   1.08735   1.20671   1.37011   1.47161
 Alpha virt. eigenvalues --    1.55974   1.56972   1.58757   1.61659   1.67180
 Alpha virt. eigenvalues --    1.69276   1.76287   1.79743   1.98337   2.00989
 Alpha virt. eigenvalues --    2.03861   2.10284   2.13231   2.14601   2.18939
 Alpha virt. eigenvalues --    2.21968   2.24048   2.33784   2.36011   2.43988
 Alpha virt. eigenvalues --    2.48223   2.49000   2.52423   2.66392   2.66774
 Alpha virt. eigenvalues --    2.69497   2.70609   2.79475   2.99321   3.08918
 Alpha virt. eigenvalues --    3.09799   3.17860   3.28130   3.33897   3.45445
 Alpha virt. eigenvalues --    3.47284   3.57085   3.57451   3.61268   3.74369
 Alpha virt. eigenvalues --    3.97899   4.10627   4.28907   4.29276   4.37380
 Alpha virt. eigenvalues --    4.40648   4.49619   4.65266   4.77474   4.79934
 Alpha virt. eigenvalues --    4.82038   5.02627   5.13808   5.37234   5.53010
 Alpha virt. eigenvalues --    5.75452  22.57225  32.14323
  Beta  occ. eigenvalues --  -14.82474 -10.60437  -0.93289  -0.77323  -0.52623
  Beta  occ. eigenvalues --   -0.47681  -0.46993  -0.46021  -0.33733
  Beta virt. eigenvalues --   -0.02523   0.07206   0.12549   0.14704   0.16605
  Beta virt. eigenvalues --    0.16909   0.23150   0.25128   0.25513   0.34214
  Beta virt. eigenvalues --    0.36986   0.41611   0.44322   0.49799   0.53992
  Beta virt. eigenvalues --    0.55194   0.55568   0.59314   0.60861   0.61699
  Beta virt. eigenvalues --    0.66474   0.69977   0.83357   1.00626   1.00858
  Beta virt. eigenvalues --    1.04466   1.06126   1.11084   1.22375   1.37226
  Beta virt. eigenvalues --    1.50788   1.56333   1.57888   1.59740   1.61484
  Beta virt. eigenvalues --    1.67956   1.69503   1.78529   1.79542   1.99802
  Beta virt. eigenvalues --    2.01600   2.05019   2.11018   2.15235   2.15411
  Beta virt. eigenvalues --    2.19665   2.22807   2.25683   2.33973   2.36149
  Beta virt. eigenvalues --    2.44330   2.48543   2.49387   2.52522   2.66735
  Beta virt. eigenvalues --    2.67491   2.70459   2.71055   2.80950   3.00749
  Beta virt. eigenvalues --    3.10407   3.12854   3.19978   3.29915   3.35426
  Beta virt. eigenvalues --    3.47499   3.49208   3.57950   3.58680   3.62576
  Beta virt. eigenvalues --    3.76844   4.00639   4.13007   4.30229   4.30238
  Beta virt. eigenvalues --    4.40324   4.43413   4.51318   4.66217   4.78684
  Beta virt. eigenvalues --    4.84634   4.86301   5.03699   5.19206   5.40747
  Beta virt. eigenvalues --    5.54465   5.76304  22.58246  32.15673
          Condensed to atoms (all electrons):
               1          2          3          4          5          6
     1  N    6.843774   0.340357   0.340357  -0.127377   0.181571   0.004650
     2  H    0.340357   0.483610  -0.027020   0.014938  -0.033410   0.000296
     3  H    0.340357  -0.027020   0.483610   0.014938  -0.033411  -0.001174
     4  C   -0.127377   0.014938   0.014938   5.247281   0.215954   0.385559
     5  H    0.181571  -0.033410  -0.033411   0.215954   0.428694  -0.012488
     6  H    0.004650   0.000296  -0.001174   0.385559  -0.012488   0.533756
     7  H    0.000453  -0.000996  -0.000996   0.378583  -0.008805  -0.022042
     8  H    0.004650  -0.001173   0.000296   0.385561  -0.012490  -0.018904
               7          8
     1  N    0.000453   0.004650
     2  H   -0.000996  -0.001173
     3  H   -0.000996   0.000296
     4  C    0.378583   0.385561
     5  H   -0.008805  -0.012490
     6  H   -0.022042  -0.018904
     7  H    0.553851  -0.022042
     8  H   -0.022042   0.533752
          Atomic-Atomic Spin Densities.
               1          2          3          4          5          6
     1  N    0.835143  -0.010436  -0.010436  -0.149787  -0.066546   0.007963
     2  H   -0.010436  -0.021067   0.002652   0.006236   0.006519  -0.000275
     3  H   -0.010436   0.002652  -0.021067   0.006236   0.006519  -0.000394
     4  C   -0.149787   0.006236   0.006236   0.692178   0.051142  -0.015865
     5  H   -0.066546   0.006519   0.006519   0.051142  -0.114976   0.000346
     6  H    0.007963  -0.000275  -0.000394  -0.015865   0.000346  -0.010029
     7  H    0.006496  -0.000310  -0.000310  -0.007478   0.002998   0.002278
     8  H    0.007963  -0.000394  -0.000275  -0.015866   0.000346   0.004018
               7          8
     1  N    0.006496   0.007963
     2  H   -0.000310  -0.000394
     3  H   -0.000310  -0.000275
     4  C   -0.007478  -0.015866
     5  H    0.002998   0.000346
     6  H    0.002278   0.004018
     7  H   -0.021396   0.002278
     8  H    0.002278  -0.010027
 Mulliken charges and spin densities:
               1          2
     1  N   -0.588435   0.620361
     2  H    0.223398  -0.017074
     3  H    0.223398  -0.017074
     4  C   -0.515438   0.566797
     5  H    0.274386  -0.113651
     6  H    0.130348  -0.011958
     7  H    0.121993  -0.015445
     8  H    0.130350  -0.011957
 Sum of Mulliken charges =  -0.00000   1.00000
 Mulliken charges and spin densities with hydrogens summed into heavy atoms:
               1          2
     1  N    0.132746   0.472562
     4  C   -0.132746   0.527438
 APT charges:
               1
     1  N   -0.210110
     2  H    0.136940
     3  H    0.136940
     4  C    0.205769
     5  H   -0.184071
     6  H   -0.023178
     7  H   -0.039116
     8  H   -0.023175
 Sum of APT charges =  -0.00000
 APT charges with hydrogens summed into heavy atoms:
               1
     1  N   -0.120300
     4  C    0.120300
 Electronic spatial extent (au):  <R**2>=            170.9295
 Charge=             -0.0000 electrons
 Dipole moment (field-independent basis, Debye):
    X=              0.5699    Y=              0.0000    Z=              1.6382  Tot=              1.7345
 Quadrupole moment (field-independent basis, Debye-Ang):
   XX=            -16.4869   YY=            -13.7739   ZZ=            -15.9894
   XY=             -0.0000   XZ=             -3.0210   YZ=              0.0000
 Traceless Quadrupole moment (field-independent basis, Debye-Ang):
   XX=             -1.0702   YY=              1.6428   ZZ=             -0.5726
   XY=             -0.0000   XZ=             -3.0210   YZ=              0.0000
 Octapole moment (field-independent basis, Debye-Ang**2):
  XXX=             -2.5353  YYY=              0.0003  ZZZ=              2.4047  XYY=             -2.2798
  XXY=             -0.0000  XXZ=              4.5261  XZZ=              0.7151  YZZ=             -0.0003
  YYZ=              0.5027  XYZ=              0.0001
 Hexadecapole moment (field-independent basis, Debye-Ang**3):
 XXXX=           -189.1237 YYYY=            -25.4267 ZZZZ=            -26.9497 XXXY=             -0.0000
 XXXZ=             -9.6876 YYYX=              0.0005 YYYZ=              0.0000 ZZZX=             -1.8976
 ZZZY=             -0.0000 XXYY=            -29.9075 XXZZ=            -34.9569 YYZZ=             -8.5116
 XXYZ=              0.0001 YYXZ=             -3.2734 ZZXY=             -0.0005
 N-N= 3.943196843916D+01 E-N=-3.027614224067D+02  KE= 9.586272079518D+01
  Exact polarizability:  51.647   0.000  24.868   0.287   0.000  23.612
 Approx polarizability:  41.417   0.000  26.769   0.119   0.000  24.978
                          Isotropic Fermi Contact Couplings
        Atom                 a.u.       MegaHertz       Gauss      10(-4) cm-1
     1  N(14)              0.08918      28.81374      10.28146       9.61123
     2  H(1)              -0.00825     -36.88971     -13.16316     -12.30508
     3  H(1)              -0.00825     -36.88970     -13.16316     -12.30508
     4  C(13)              0.17000     191.10701      68.19173      63.74644
     5  H(1)              -0.02973    -132.88371     -47.41621     -44.32523
     6  H(1)              -0.00401     -17.93124      -6.39831      -5.98122
     7  H(1)              -0.00574     -25.67268      -9.16065      -8.56348
     8  H(1)              -0.00401     -17.92961      -6.39773      -5.98067
 --------------------------------------------------------
       Center         ----  Spin Dipole Couplings  ----
                      3XX-RR        3YY-RR        3ZZ-RR
 --------------------------------------------------------
     1   Atom        1.376995     -0.714465     -0.662530
     2   Atom       -0.004751      0.024660     -0.019909
     3   Atom       -0.004751      0.024661     -0.019909
     4   Atom        0.640501     -0.324120     -0.316381
     5   Atom        0.246228     -0.125180     -0.121048
     6   Atom        0.005117      0.017666     -0.022783
     7   Atom        0.002225     -0.040070      0.037845
     8   Atom        0.005118      0.017647     -0.022765
 --------------------------------------------------------
                        XY            XZ            YZ
 --------------------------------------------------------
     1   Atom       -0.000002      0.357552     -0.000000
     2   Atom        0.020986     -0.006925     -0.062748
     3   Atom       -0.020986     -0.006925      0.062748
     4   Atom        0.000003      0.073542     -0.000000
     5   Atom       -0.000000      0.006207      0.000000
     6   Atom        0.015661     -0.005361     -0.031661
     7   Atom       -0.000001      0.014614     -0.000010
     8   Atom       -0.015660     -0.005366      0.031672
 --------------------------------------------------------


 ---------------------------------------------------------------------------------
              Anisotropic Spin Dipole Couplings in Principal Axis System
 ---------------------------------------------------------------------------------

       Atom             a.u.   MegaHertz   Gauss  10(-4) cm-1        Axes

              Baa    -0.7234   -27.900    -9.955    -9.306 -0.1678  0.0000  0.9858
     1 N(14)  Bbb    -0.7145   -27.555    -9.832    -9.191  0.0000  1.0000 -0.0000
              Bcc     1.4379    55.455    19.788    18.498  0.9858 -0.0000  0.1678
 
              Baa    -0.0649   -34.651   -12.364   -11.558 -0.1127  0.5875  0.8013
     2 H(1)   Bbb    -0.0097    -5.160    -1.841    -1.721  0.9595 -0.1453  0.2414
              Bcc     0.0746    39.811    14.206    13.279  0.2583  0.7960 -0.5474
 
              Baa    -0.0649   -34.651   -12.364   -11.558 -0.1127 -0.5875  0.8013
     3 H(1)   Bbb    -0.0097    -5.160    -1.841    -1.721  0.9595  0.1453  0.2414
              Bcc     0.0746    39.811    14.205    13.279 -0.2583  0.7961  0.5474
 
              Baa    -0.3241   -43.494   -15.520   -14.508 -0.0000  1.0000  0.0002
     4 C(13)  Bbb    -0.3220   -43.209   -15.418   -14.413 -0.0762 -0.0002  0.9971
              Bcc     0.6461    86.703    30.938    28.921  0.9971  0.0000  0.0762
 
              Baa    -0.1252   -66.790   -23.832   -22.279  0.0000  1.0000 -0.0000
     5 H(1)   Bbb    -0.1212   -64.641   -23.066   -21.562 -0.0169  0.0000  0.9999
              Bcc     0.2463   131.431    46.898    43.841  0.9999 -0.0000  0.0169
 
              Baa    -0.0403   -21.512    -7.676    -7.176 -0.0672  0.4921  0.8680
     6 H(1)   Bbb    -0.0019    -1.006    -0.359    -0.335  0.9125 -0.3214  0.2529
              Bcc     0.0422    22.517     8.035     7.511  0.4034  0.8090 -0.4274
 
              Baa    -0.0401   -21.379    -7.629    -7.131 -0.0000  1.0000  0.0001
     7 H(1)   Bbb    -0.0030    -1.603    -0.572    -0.535  0.9416  0.0001 -0.3369
              Bcc     0.0431    22.982     8.200     7.666  0.3369 -0.0001  0.9416
 
              Baa    -0.0403   -21.512    -7.676    -7.176 -0.0672 -0.4923  0.8678
     8 H(1)   Bbb    -0.0019    -1.006    -0.359    -0.335  0.9125  0.3214  0.2530
              Bcc     0.0422    22.517     8.035     7.511 -0.4035  0.8089  0.4277
 

 ---------------------------------------------------------------------------------

 No NMR shielding tensors so no spin-rotation constants.
 Leave Link  601 at Sat Nov 12 22:42:11 2022, MaxMem=   939524096 cpu:         3.0
 (Enter /Local/ce_dana/g09/l701.exe)
 Compute integral second derivatives.
 ... and contract with generalized density number  2.
 Use density number 2.
 R6Disp: Adding Grimme-D3(BJ) dispersion energy 2nd derivatives to the Hessian.
 Entering OneElI...
 Calculate overlap and kinetic energy integrals
    NBasis = 108  MinDer = 2  MaxDer = 2
 Requested accuracy = 0.1000D-14
 PrsmSu:  NPrtUS=  10 ThrOK=T IAlg=1 NPAlg=1 LenDen=           0.
 Prism:   IPart=     0 DynPar=F LinDyn=F Incr=           1.
 PRISM was handed    93920552 working-precision words and  1080 shell-pairs
 PRISM was handed    93920552 working-precision words and  1080 shell-pairs
 PRISM was handed    93920552 working-precision words and  1080 shell-pairs
 PRISM was handed    93920552 working-precision words and  1080 shell-pairs
 PRISM was handed    93920552 working-precision words and  1080 shell-pairs
 PRISM was handed    93920552 working-precision words and  1080 shell-pairs
 PRISM was handed    93920552 working-precision words and  1080 shell-pairs
 PRISM was handed    93920552 working-precision words and  1080 shell-pairs
 PRISM was handed    93920552 working-precision words and  1080 shell-pairs
 PRISM was handed    93920552 working-precision words and  1080 shell-pairs
 IPart=  6 NShTot=         100 NBatch=          24 AvBLen=         4.2
 IPart=  0 NShTot=         127 NBatch=          41 AvBLen=         3.1
 IPart=  8 NShTot=          95 NBatch=          19 AvBLen=         5.0
 IPart=  2 NShTot=         115 NBatch=          34 AvBLen=         3.4
 IPart=  9 NShTot=          94 NBatch=          18 AvBLen=         5.2
 IPart=  7 NShTot=          99 NBatch=          23 AvBLen=         4.3
 IPart=  5 NShTot=         105 NBatch=          26 AvBLen=         4.0
 IPart=  3 NShTot=         113 NBatch=          32 AvBLen=         3.5
 IPart=  4 NShTot=         107 NBatch=          27 AvBLen=         4.0
 IPart=  1 NShTot=         125 NBatch=          40 AvBLen=         3.1
 PrSmSu:  NxtVal=             11.
 Entering OneElI...
 Calculate potential energy integrals
    NBasis = 108  MinDer = 2  MaxDer = 2
 Requested accuracy = 0.1000D-14
 PrsmSu:  NPrtUS=  10 ThrOK=T IAlg=1 NPAlg=1 LenDen=           0.
 Prism:   IPart=     0 DynPar=F LinDyn=F Incr=           8.
 PRISM was handed    93922879 working-precision words and  1075 shell-pairs
 PRISM was handed    93922879 working-precision words and  1075 shell-pairs
 PRISM was handed    93922879 working-precision words and  1075 shell-pairs
 PRISM was handed    93922879 working-precision words and  1075 shell-pairs
 PRISM was handed    93922879 working-precision words and  1075 shell-pairs
 PRISM was handed    93922879 working-precision words and  1075 shell-pairs
 PRISM was handed    93922879 working-precision words and  1075 shell-pairs
 PRISM was handed    93922879 working-precision words and  1075 shell-pairs
 PRISM was handed    93922879 working-precision words and  1075 shell-pairs
 PRISM was handed    93922879 working-precision words and  1075 shell-pairs
 IPart=  3 NShTot=         896 NBatch=         112 AvBLen=         8.0
 IPart=  1 NShTot=         976 NBatch=         122 AvBLen=         8.0
 IPart=  9 NShTot=         736 NBatch=          92 AvBLen=         8.0
 IPart=  0 NShTot=        1000 NBatch=         125 AvBLen=         8.0
 IPart=  2 NShTot=         904 NBatch=         113 AvBLen=         8.0
 IPart=  7 NShTot=         816 NBatch=         102 AvBLen=         8.0
 IPart=  5 NShTot=         832 NBatch=         104 AvBLen=         8.0
 IPart=  6 NShTot=         816 NBatch=         102 AvBLen=         8.0
 IPart=  4 NShTot=         856 NBatch=         107 AvBLen=         8.0
 IPart=  8 NShTot=         768 NBatch=          96 AvBLen=         8.0
 PrSmSu:  NxtVal=             81.
   1 Symmetry operations used in ECPInt.
 ECPInt:  NShTT=    1081 NPrTT=    2988 LenC2=    1080 LenP2D=    2693.
 LDataN:  DoStor=F MaxTD1= 8 Len=  415
 LDataN:  DoStor=T MaxTD1= 8 Len=  415
 ECPSu:  NPrtUS=  10 ThrOK=T
 Polarizability after L701:
                1             2             3 
      1  0.516474D+02
      2  0.209501D-04  0.248678D+02
      3  0.286961D+00  0.301116D-04  0.236123D+02
 Dipole Derivatives after L701:
                 1             2             3             4             5 
      1  -0.102455D+00  0.000000D+00 -0.996527D-01  0.243277D+00  0.461976D-01
      2   0.000000D+00 -0.245605D+00  0.000000D+00  0.168231D-01  0.859814D-01
      3  -0.806649D-01  0.000000D+00 -0.282270D+00  0.300936D-01  0.109148D+00
                 6             7             8             9            10 
      1   0.203967D-01  0.243276D+00 -0.461985D-01  0.203969D-01  0.610686D+00
      2   0.142187D+00 -0.168234D-01  0.859796D-01 -0.142187D+00  0.000000D+00
      3   0.815627D-01  0.300932D-01 -0.109149D+00  0.815646D-01  0.701843D-02
                11            12            13            14            15 
      1   0.126680D-05 -0.597812D-02 -0.783204D+00  0.000000D+00  0.926040D-01
      2   0.880370D-03 -0.235019D-05  0.000000D+00  0.949711D-01  0.142469D-05
      3  -0.316621D-05  0.573925D-02 -0.199029D-02  0.106993D-05  0.136020D+00
                16            17            18            19            20 
      1  -0.618245D-01 -0.251265D-01  0.157952D-02 -0.879341D-01  0.224432D-05
      2  -0.448837D-01 -0.397639D-01  0.512344D-01  0.386947D-05  0.572857D-01
      3   0.253306D-01  0.525670D-01  0.320544D-01 -0.352261D-01  0.192048D-04
                21            22            23            24 
      1  -0.309340D-01 -0.618220D-01  0.251238D-01  0.158769D-02
      2   0.198318D-04  0.448810D-01 -0.397295D-01 -0.512531D-01
      3  -0.866986D-01  0.253456D-01 -0.525841D-01  0.320274D-01
 Hessian after L701:
                1             2             3             4             5 
      1  0.422512D+01
      2  0.000000D+00  0.442888D+01
      3  0.360726D+00  0.374914D-05  0.582118D+01
      4 -0.279817D+01  0.356128D+00 -0.268716D+00  0.266054D+01
      5  0.285475D+00 -0.135598D+01 -0.115610D+01 -0.355671D+00  0.146309D+01
      6 -0.202343D+00 -0.107823D+01 -0.205896D+01  0.261714D+00  0.111918D+01
      7 -0.279817D+01 -0.356126D+00 -0.268711D+00  0.514969D-01 -0.204187D-02
      8 -0.285472D+00 -0.135596D+01  0.115610D+01  0.204137D-02 -0.112105D+00
      9 -0.202338D+00  0.107822D+01 -0.205898D+01 -0.737197D-02  0.341463D-01
     10  0.362528D+00 -0.133707D-05 -0.572487D-01  0.105396D+00  0.895448D-01
     11 -0.156289D-05 -0.255598D+00 -0.108498D-05  0.500079D-01 -0.269305D-01
     12 -0.103712D+00 -0.155723D-05 -0.244801D+00 -0.340820D-01 -0.239972D-01
     13  0.755227D+00 -0.181177D-05  0.182377D+00 -0.294092D-01 -0.385659D-01
     14 -0.239722D-05 -0.139813D+01  0.000000D+00 -0.575586D-01  0.312713D-01
     15  0.119394D+00  0.000000D+00 -0.140080D+01  0.501720D-01  0.280094D-01
     16  0.970436D-01  0.480379D-01 -0.446730D-02  0.578280D-02  0.943102D-02
     17  0.789573D-01 -0.123469D-01 -0.507720D-04  0.893749D-02  0.800228D-02
     18 -0.313735D-01 -0.142112D-01 -0.435463D-01 -0.489066D-02 -0.589936D-02
     19  0.593632D-01 -0.579618D-05  0.605230D-01  0.260226D-02  0.597176D-02
     20 -0.104996D-04 -0.385031D-01 -0.808072D-05  0.105113D-02 -0.459703D-03
     21  0.910432D-01 -0.595760D-05  0.294505D-01  0.649461D-02  0.894470D-02
     22  0.970473D-01 -0.480311D-01 -0.448235D-02  0.176263D-02  0.585615D-02
     23 -0.789457D-01 -0.123576D-01  0.599794D-04 -0.493679D-02 -0.689084D-02
     24 -0.313976D-01  0.142185D-01 -0.435423D-01 -0.331979D-02 -0.428145D-02
                6             7             8             9            10 
      6  0.201988D+01
      7 -0.737205D-02  0.266054D+01
      8 -0.341452D-01  0.355668D+00  0.146307D+01
      9  0.605750D-01  0.261709D+00 -0.111917D+01  0.201990D+01
     10 -0.576461D-01  0.105396D+00 -0.895446D-01 -0.576459D-01  0.551763D+01
     11 -0.235067D-01 -0.500071D-01 -0.269307D-01  0.235063D-01  0.417962D-05
     12 -0.415954D-01 -0.340816D-01  0.239973D-01 -0.415958D-01  0.116602D+00
     13  0.203410D-01 -0.294091D-01  0.385665D-01  0.203410D-01  0.298311D+00
     14  0.192406D-01  0.575593D-01  0.312710D-01 -0.192408D-01  0.315448D-05
     15  0.230059D-01  0.501718D-01 -0.280097D-01  0.230065D-01  0.247507D+00
     16 -0.691267D-02  0.176114D-02 -0.585610D-02 -0.486245D-02 -0.209033D+01
     17 -0.718352D-02  0.493763D-02 -0.689163D-02 -0.557431D-02  0.404471D+00
     18  0.982854D-03 -0.331774D-02  0.427960D-02  0.248449D-02 -0.220161D+00
     19 -0.291831D-02  0.260302D-02 -0.597206D-02 -0.291803D-02 -0.220862D+01
     20 -0.927995D-03 -0.105332D-02 -0.457179D-03  0.929221D-03 -0.327809D-04
     21 -0.637451D-02  0.649455D-02 -0.894507D-02 -0.637434D-02  0.248885D+00
     22 -0.486341D-02  0.578336D-02 -0.943131D-02 -0.691356D-02 -0.209030D+01
     23  0.557352D-02 -0.893675D-02  0.800060D-02  0.718335D-02 -0.404445D+00
     24  0.248624D-02 -0.489273D-02  0.590157D-02  0.984724D-03 -0.220294D+00
               11            12            13            14            15 
     11  0.597564D+01
     12  0.197127D-05  0.594965D+01
     13  0.255739D-05  0.243862D+00 -0.935418D+00
     14 -0.129545D+01  0.000000D+00 -0.185895D-05  0.261716D+01
     15  0.000000D+00 -0.125436D+01 -0.453605D+00  0.000000D+00  0.259643D+01
     16  0.452661D+00 -0.249190D+00 -0.204552D-01 -0.226573D-01  0.936398D-02
     17 -0.105332D+01 -0.665048D+00  0.794395D-02  0.611257D-02 -0.270142D-02
     18 -0.661848D+00 -0.189161D+01 -0.816096D-02 -0.370451D-02  0.748141D-02
     19 -0.411630D-04  0.309937D+00 -0.183934D-01  0.410428D-05 -0.323740D-01
     20 -0.226371D+01 -0.225266D-03  0.000000D+00  0.164803D-02  0.000000D+00
     21 -0.225242D-03 -0.584445D+00  0.300805D-02  0.000000D+00 -0.225333D-02
     22 -0.452626D+00 -0.249336D+00 -0.204544D-01  0.226536D-01  0.936984D-02
     23 -0.105371D+01  0.665272D+00 -0.794261D-02  0.611351D-02  0.270125D-02
     24  0.662072D+00 -0.189125D+01 -0.816321D-02  0.370408D-02  0.748492D-02
               16            17            18            19            20 
     16  0.195194D+01
     17 -0.496811D+00  0.109603D+01
     18  0.260936D+00  0.641447D+00  0.192519D+01
     19  0.280170D-01  0.186913D-02  0.151940D-01  0.210641D+01
     20  0.488444D-02  0.131951D-01  0.610053D-01  0.468018D-04  0.227507D+01
     21  0.335677D-02  0.180635D-01 -0.309467D-01 -0.362639D+00  0.220022D-03
     22  0.262406D-01 -0.103057D-01 -0.822609D-02  0.280173D-01 -0.488493D-02
     23  0.103103D-01 -0.507820D-01 -0.210695D-01 -0.187278D-02  0.132165D-01
     24 -0.822390D-02  0.210471D-01  0.299660D-01  0.151954D-01 -0.609931D-01
               21            22            23            24 
     21  0.631913D+00
     22  0.335598D-02  0.195191D+01
     23 -0.180521D-01  0.496769D+00  0.109641D+01
     24 -0.309694D-01  0.261095D+00 -0.641669D+00  0.192484D+01
 Leave Link  701 at Sat Nov 12 22:42:12 2022, MaxMem=   939524096 cpu:         6.1
 (Enter /Local/ce_dana/g09/l702.exe)
 L702 exits ... SP integral derivatives will be done elsewhere.
 Leave Link  702 at Sat Nov 12 22:42:12 2022, MaxMem=   939524096 cpu:         0.1
 (Enter /Local/ce_dana/g09/l703.exe)
 Compute integral second derivatives, UseDBF=F ICtDFT=           0.
 Integral derivatives from FoFJK, PRISM(SPDF).
 ICntrl=  10100127.
 Calling FoFJK, ICntrl=  10100127 FMM=F ISym2X=0 I1Cent= 0 IOpClX= 1 NMat=1 NMatS=1 NMatT=0.
 FoFJK:  IHMeth= 1 ICntrl=10100127 DoSepK=F KAlg= 0 I1Cent=   0 FoldK=F
 IRaf=         0 NMat=   1 IRICut=       1 DoRegI=T DoRafI=F ISym2E= 0.
 FoFCou: FMM=F IPFlag=           0 FMFlag=      100000 FMFlg1=         800
         NFxFlg=           0 DoJE=F BraDBF=F KetDBF=F FulRan=T
         wScrn=  0.000000 ICntrl=10100127 IOpCl=  1 I1Cent=           0 NGrid=           0
         NMat0=    1 NMatS0=      1 NMatT0=    0 NMatD0=    1 NMtDS0=    0 NMtDT0=    0
 Symmetry not used in FoFCou.
 FoFCou:  KetSym=F NOpSet=  1 NOpAb=1 NOp=  1.
 FoFCou:  CnvScl= 1.00D+00 Thresh= 1.00D-12 IAcrcy=      10.
 PrismS was handed   939428961 working-precision words and  1078 shell-pairs
 FoFCou: LinMIO=F DoNuc=F BraDBF=F KetDBF=F HaveP=T PDBF=F HaveZ=T HaveW=F
         NIJTC =      10 NIJTAt=       0 NIJTCD=       0 NIJTT =      10
         IJTBeg=       1 IJTEnd=      10 KLTBeg=       1 KLTEnd=      10
         IPTBeg=       1 IPTEnd=      10 IPTBCv=       1 IPTECv=      10
         IZTBeg=       1 IZTEnd=      10 IZTBCv=       1 IZTECv=      10
         IWTBeg=      11 IWTEnd=      10 IWTBCv=      11 IWTECv=      10
         INTBeg=       1 INTEnd=       0 IFTBCv=       1 IFTECv=      10
 NCel replicated for PrismC:     1
 CoulSu:  IncDef=  1024 NBBP=         581581 NTPThr=   100 NPartT=   10 Incr=         581 LDynOK=F.
 CoulSu:  NPrtUS=  10 ThrOK=T IAlg=1 NPAlg=1 LenDen=           0 LWGrdD=           0 DoCopy=F.
 Enter PrismC: JobTyp=22 DoJE=F Cont=F.
 Enter PrismC: JobTyp=22 DoJE=F Cont=F.
 Enter PrismC: JobTyp=22 DoJE=F Cont=F.
 Enter PrismC: JobTyp=22 DoJE=F Cont=F.
 PrismC:  IPart=     0 DynPar=T LinDyn=F Incr=         581 UseFst=F UseS4=T IGathr=2.
 PrismC was handed    93922629 working-precision words and  1078 shell-pairs
 Enter PrismC: JobTyp=22 DoJE=F Cont=F.
 PrismC was handed    93922629 working-precision words and  1078 shell-pairs
 Enter PrismC: JobTyp=22 DoJE=F Cont=F.
 Enter PrismC: JobTyp=22 DoJE=F Cont=F.
 PrismC was handed    93922629 working-precision words and  1078 shell-pairs
 Enter PrismC: JobTyp=22 DoJE=F Cont=F.
 PrismC was handed    93922629 working-precision words and  1078 shell-pairs
 PrismC was handed    93922629 working-precision words and  1078 shell-pairs
 PrismC was handed    93922629 working-precision words and  1078 shell-pairs
 Enter PrismC: JobTyp=22 DoJE=F Cont=F.
 PrismC was handed    93922629 working-precision words and  1078 shell-pairs
 Enter PrismC: JobTyp=22 DoJE=F Cont=F.
 PrismC was handed    93922629 working-precision words and  1078 shell-pairs
 PrismC was handed    93922629 working-precision words and  1078 shell-pairs
 PrismC was handed    93922629 working-precision words and  1078 shell-pairs
 IPart=  5 NShTot=       62651 NShNF=       62651 NShFF=           0 NBatch=        1634 AvBLen=        38.3
 IPart=  4 NShTot=       46975 NShNF=       46975 NShFF=           0 NBatch=        1327 AvBLen=        35.4
 IPart=  8 NShTot=       44384 NShNF=       44384 NShFF=           0 NBatch=        1473 AvBLen=        30.1
 IPart=  9 NShTot=       64352 NShNF=       64352 NShFF=           0 NBatch=        1660 AvBLen=        38.8
 IPart=  1 NShTot=       35855 NShNF=       35855 NShFF=           0 NBatch=         872 AvBLen=        41.1
 IPart=  7 NShTot=       62656 NShNF=       62656 NShFF=           0 NBatch=        1806 AvBLen=        34.7
 IPart=  0 NShTot=       52326 NShNF=       52326 NShFF=           0 NBatch=        1021 AvBLen=        51.2
 IPart=  6 NShTot=       56660 NShNF=       56660 NShFF=           0 NBatch=        1489 AvBLen=        38.1
 IPart=  3 NShTot=       63036 NShNF=       63036 NShFF=           0 NBatch=        1739 AvBLen=        36.2
 IPart=  2 NShTot=       62926 NShNF=       62926 NShFF=           0 NBatch=        1562 AvBLen=        40.3
 CoulSu:  NxtVal=         635615.
 ReadGW:  IGet=0 IStart=           1 Next=           1 LGW=           0.
 Remaining memory in FofDFT      895.98 Mw
 CkSvGd:  ISavGI=        -1 IRadAn=       5 IRASav=       5 ISavGd=        -1.
 CalDSu:  NPrtUS=  10 ThrOK=T IAlg=1 NPAlg=2 DoDPD=T LenP=        5886 LenD1P=             0.
 IPart=  0 IRanGd=          0 ScrnBf=T ScrnGd=T RCrit=4.00D+00 DoMicB=T.
 IPart=  9        15474 of        16716 points in      15 batches and       77 microbatches, Max-NSigAt=       8 Max-NSgAt2=       8
 IPart=  4        17157 of        19280 points in      20 batches and      122 microbatches, Max-NSigAt=       8 Max-NSgAt2=       8
 IPart=  3        16489 of        18058 points in      17 batches and       96 microbatches, Max-NSigAt=       8 Max-NSgAt2=       8
 IPart=  7        15452 of        16590 points in      17 batches and      116 microbatches, Max-NSigAt=       8 Max-NSgAt2=       8
 IPart=  2        16677 of        17848 points in      16 batches and      108 microbatches, Max-NSigAt=       8 Max-NSgAt2=       8
 IPart=  8        17395 of        18796 points in      16 batches and       92 microbatches, Max-NSigAt=       8 Max-NSgAt2=       8
 IPart=  1        17369 of        18724 points in      15 batches and       85 microbatches, Max-NSigAt=       8 Max-NSgAt2=       8
 IPart=  0        15606 of        16800 points in      15 batches and      106 microbatches, Max-NSigAt=       8 Max-NSgAt2=       8
 IPart=  5        16005 of        17080 points in      15 batches and      119 microbatches, Max-NSigAt=       8 Max-NSgAt2=       8
 IPart=  6        16890 of        18072 points in      15 batches and       80 microbatches, Max-NSigAt=       8 Max-NSgAt2=       8
 Polarizability after L703:
                1             2             3 
      1  0.516474D+02
      2  0.209501D-04  0.248678D+02
      3  0.286961D+00  0.301116D-04  0.236123D+02
 Dipole Derivatives after L703:
                 1             2             3             4             5 
      1  -0.102455D+00  0.000000D+00 -0.996527D-01  0.243277D+00  0.461976D-01
      2   0.000000D+00 -0.245605D+00  0.000000D+00  0.168231D-01  0.859814D-01
      3  -0.806649D-01  0.000000D+00 -0.282270D+00  0.300936D-01  0.109148D+00
                 6             7             8             9            10 
      1   0.203967D-01  0.243276D+00 -0.461985D-01  0.203969D-01  0.610686D+00
      2   0.142187D+00 -0.168234D-01  0.859796D-01 -0.142187D+00  0.000000D+00
      3   0.815627D-01  0.300932D-01 -0.109149D+00  0.815646D-01  0.701843D-02
                11            12            13            14            15 
      1   0.126680D-05 -0.597812D-02 -0.783204D+00  0.000000D+00  0.926040D-01
      2   0.880370D-03 -0.235019D-05  0.000000D+00  0.949711D-01  0.142469D-05
      3  -0.316621D-05  0.573925D-02 -0.199029D-02  0.106993D-05  0.136020D+00
                16            17            18            19            20 
      1  -0.618245D-01 -0.251265D-01  0.157952D-02 -0.879341D-01  0.224432D-05
      2  -0.448837D-01 -0.397639D-01  0.512344D-01  0.386947D-05  0.572857D-01
      3   0.253306D-01  0.525670D-01  0.320544D-01 -0.352261D-01  0.192048D-04
                21            22            23            24 
      1  -0.309340D-01 -0.618220D-01  0.251238D-01  0.158769D-02
      2   0.198318D-04  0.448810D-01 -0.397295D-01 -0.512531D-01
      3  -0.866986D-01  0.253456D-01 -0.525841D-01  0.320274D-01
 Hessian after L703:
                1             2             3             4             5 
      1  0.101322D+00
      2  0.000000D+00  0.562810D+00
      3 -0.852406D-01  0.000000D+00  0.347083D+00
      4 -0.352401D-01 -0.363951D-01  0.351630D-01  0.396770D-01
      5 -0.422178D-01 -0.267366D+00  0.149774D+00  0.465124D-01  0.295008D+00
      6  0.529678D-01  0.199543D+00 -0.166690D+00 -0.447366D-01 -0.175093D+00
      7 -0.352399D-01  0.363945D-01  0.351622D-01  0.239864D-02 -0.677301D-02
      8  0.422173D-01 -0.267368D+00 -0.149773D+00  0.677290D-02 -0.281364D-01
      9  0.529668D-01 -0.199542D+00 -0.166688D+00 -0.390092D-02  0.254689D-01
     10 -0.132473D+00  0.000000D+00 -0.200691D-02  0.174671D-02 -0.190988D-02
     11  0.000000D+00  0.302664D-02  0.000000D+00 -0.826274D-03  0.492390D-03
     12 -0.225099D-01  0.000000D+00  0.956272D-03  0.181964D-02 -0.385738D-03
     13  0.839742D-01  0.000000D+00  0.179164D-01 -0.816411D-02  0.337195D-02
     14  0.000000D+00 -0.333020D-01  0.000000D+00 -0.167148D-01  0.147139D-03
     15 -0.170736D-02  0.000000D+00 -0.163127D-01  0.121429D-01  0.565862D-03
     16  0.729138D-02  0.497768D-03 -0.227366D-03 -0.460899D-03  0.558407D-03
     17 -0.178359D-02  0.988015D-03 -0.628039D-03  0.788417D-03 -0.124196D-03
     18  0.154049D-02 -0.415976D-03  0.227724D-03 -0.390762D-03 -0.700041D-04
     19  0.307369D-02  0.000000D+00 -0.539364D-03  0.322122D-03  0.554410D-04
     20  0.000000D+00  0.223534D-03  0.000000D+00 -0.136401D-03 -0.576970D-04
     21  0.441620D-03  0.000000D+00  0.119577D-02 -0.287449D-03 -0.206819D-03
     22  0.729180D-02 -0.497730D-03 -0.227401D-03 -0.279329D-03  0.402491D-03
     23  0.178361D-02  0.987667D-03  0.628112D-03 -0.114925D-05  0.359863D-04
     24  0.154119D-02  0.416443D-03  0.228104D-03  0.190201D-03 -0.524947D-04
                6             7             8             9            10 
      6  0.159821D+00
      7 -0.390094D-02  0.396768D-01
      8 -0.254686D-01 -0.465118D-01  0.295011D+00
      9  0.867800D-02 -0.447357D-01  0.175092D+00  0.159819D+00
     10  0.213225D-02  0.174672D-02  0.190988D-02  0.213224D-02  0.178907D+00
     11 -0.175327D-02  0.826388D-03  0.492622D-03  0.175293D-02  0.000000D+00
     12  0.142773D-02  0.181970D-02  0.385978D-03  0.142761D-02 -0.349641D-01
     13 -0.565848D-02 -0.816412D-02 -0.337195D-02 -0.565845D-02  0.892895D-01
     14  0.293173D-02  0.167149D-01  0.147087D-03 -0.293175D-02  0.000000D+00
     15 -0.279778D-02  0.121428D-01 -0.565938D-03 -0.279775D-02 -0.508375D-02
     16 -0.985025D-03 -0.279241D-03 -0.402461D-03  0.323816D-03 -0.522821D-01
     17 -0.145918D-04  0.000000D+00  0.359667D-04 -0.270942D-04 -0.723862D-01
     18 -0.333309D-03  0.190298D-03  0.524278D-04 -0.910686D-04  0.418642D-01
     19 -0.142614D-03  0.322140D-03 -0.554152D-04 -0.142784D-03 -0.346477D-01
     20 -0.172121D-03  0.136464D-03 -0.578665D-04  0.172227D-03  0.653912D-05
     21 -0.141186D-04 -0.287299D-03  0.206751D-03 -0.141088D-04 -0.459612D-01
     22  0.323658D-03 -0.460972D-03 -0.558462D-03 -0.984951D-03 -0.522866D-01
     23  0.271828D-04 -0.788360D-03 -0.124236D-03  0.147134D-04  0.723804D-01
     24 -0.911524D-04 -0.391022D-03  0.699556D-04 -0.333311D-03  0.418873D-01
               11            12            13            14            15 
     11  0.571334D+00
     12 -0.101150D-05  0.571957D+00
     13  0.000000D+00  0.160075D-01 -0.104772D+00
     14 -0.279825D-01  0.000000D+00  0.000000D+00  0.639344D-01
     15  0.000000D+00 -0.297446D-01 -0.172349D-01  0.000000D+00  0.520561D-01
     16 -0.828453D-01  0.473936D-01 -0.195408D-01 -0.143130D-01  0.784216D-02
     17 -0.248580D+00  0.108420D+00  0.222025D-02 -0.914838D-03  0.490969D-03
     18  0.107696D+00 -0.108647D+00 -0.315856D-02 -0.143725D-02  0.667659D-03
     19  0.789569D-05 -0.569864D-01 -0.130813D-01  0.234877D-05 -0.159477D-01
     20 -0.502681D-01  0.370337D-04  0.000000D+00 -0.111456D-02  0.000000D+00
     21  0.372508D-04 -0.328671D+00  0.945673D-03  0.000000D+00 -0.173879D-02
     22  0.828382D-01  0.474198D-01 -0.195417D-01  0.143107D-01  0.784586D-02
     23 -0.248515D+00 -0.108457D+00 -0.221996D-02 -0.914686D-03 -0.491295D-03
     24 -0.107733D+00 -0.108706D+00 -0.315931D-02  0.143660D-02  0.667919D-03
               16            17            18            19            20 
     16  0.575329D-01
     17  0.805101D-01  0.262533D+00
     18 -0.454760D-01 -0.118542D+00  0.109961D+00
     19  0.301919D-02  0.337509D-03  0.108501D-01  0.379724D-01
     20  0.630488D-02  0.271997D-02  0.254237D-01 -0.720146D-05  0.458285D-01
     21 -0.345377D-02 -0.239991D-02 -0.988763D-02  0.520580D-01 -0.405686D-04
     22  0.471960D-02 -0.968747D-02 -0.541974D-02  0.301942D-02 -0.630394D-02
     23  0.968960D-02 -0.166573D-01 -0.127070D-01 -0.340465D-03  0.272614D-02
     24 -0.541744D-02  0.127001D-01  0.810273D-02  0.108507D-01 -0.254198D-01
               21            22            23            24 
     21  0.349024D+00
     22 -0.345558D-02  0.575377D-01
     23  0.240329D-02 -0.805037D-01  0.262462D+00
     24 -0.989386D-02 -0.455017D-01  0.118582D+00  0.110026D+00
 Leave Link  703 at Sat Nov 12 22:42:29 2022, MaxMem=   939524096 cpu:       139.4
 (Enter /Local/ce_dana/g09/l716.exe)
 FrcOut:
 IF    =    52 IFX   =    76 IFXYZ =   100
 IFFX  =   124 IFFFX =   424 IFLen =    24
 IFFLen=   300 IFFFLn=     0 IEDerv=   424
 LEDerv=  1205 IFroze=  1911 ICStrt= 21412
 Dipole        = 2.46958258D-01 1.72934710D-06 6.31848168D-01
 DipoleDeriv   =-1.02454651D-01-6.26737431D-07-8.06648890D-02
                -1.68248794D-07-2.45604689D-01 4.18015088D-07
                -9.96526989D-02-4.30856658D-07-2.82269849D-01
                 2.43276622D-01 1.68230969D-02 3.00935580D-02
                 4.61976460D-02 8.59813716D-02 1.09148389D-01
                 2.03967369D-02 1.42187369D-01 8.15626968D-02
                 2.43276237D-01-1.68233836D-02 3.00931594D-02
                -4.61984740D-02 8.59795858D-02-1.09148813D-01
                 2.03968521D-02-1.42187099D-01 8.15645884D-02
                 6.10686344D-01-3.74134399D-07 7.01843447D-03
                 1.26679614D-06 8.80370038D-04-3.16621434D-06
                -5.97811657D-03-2.35019379D-06 5.73924943D-03
                -7.83203932D-01 7.55440140D-08-1.99028598D-03
                 2.21349352D-07 9.49711146D-02 1.06993475D-06
                 9.26039865D-02 1.42469465D-06 1.36020090D-01
                -6.18245334D-02-4.48836998D-02 2.53305553D-02
                -2.51265057D-02-3.97639263D-02 5.25669921D-02
                 1.57951885D-03 5.12343928D-02 3.20543617D-02
                -8.79341094D-02 3.86946950D-06-3.52261181D-02
                 2.24432348D-06 5.72856740D-02 1.92047834D-05
                -3.09339711D-02 1.98317515D-05-8.66985501D-02
                -6.18219763D-02 4.48810423D-02 2.53455858D-02
                 2.51237695D-02-3.97295012D-02-5.25840950D-02
                 1.58769216D-03-5.12531385D-02 3.20274128D-02
 Polarizability= 5.16474287D+01 2.09500907D-05 2.48678161D+01
                 2.86961279D-01 3.01115842D-05 2.36123377D+01
 VibFq2-Diag1:  N=     24 IV=           9 MDV=   939500356 NE2=    39145847
 Full mass-weighted force constant matrix:
 Low frequencies ----1791.1825  -10.5862   -8.5104   -8.1897   -0.0006   -0.0006
 Low frequencies ---   -0.0004   41.1424  378.7952
 OrtVCM:  Ph=1 IPass= 1 DotMx1= 0.00D+00
 OrtVCM:  IS=    1 I=    1 IndO=    1 Dot= 1.00D+00 DotN= 1.00D+00 ElMax1= 6.61D-01 ElMax1N= 6.61D-01
 OrtVCM:  Ph=2 NNew=    0 IAdd=    2 IPass= 1 DotMx2= 0.00D+00
 OrtVCM:  IS=    1 I=    2 IndO=    2 Dot= 1.00D+00 DotN= 1.00D+00 ElMax1= 6.61D-01 ElMax1N= 6.61D-01
 OrtVCM:  Ph=2 NNew=    0 IAdd=    3 IPass= 1 DotMx2= 0.00D+00
 OrtVCM:  IS=    1 I=    3 IndO=    3 Dot= 1.00D+00 DotN= 1.00D+00 ElMax1= 6.61D-01 ElMax1N= 6.61D-01
 OrtVCM:  Ph=2 NNew=    0 IAdd=    4 IPass= 1 DotMx2= 4.16D-17
 OrtVCM:  IS=    1 I=    4 IndO=    4 Dot= 1.00D+00 DotN= 1.00D+00 ElMax1= 4.67D-01 ElMax1N= 4.67D-01
 OrtVCM:  Ph=2 NNew=    0 IAdd=    5 IPass= 1 DotMx2= 1.04D-15
 OrtVCM:  IS=    1 I=    5 IndO=    5 Dot= 1.00D+00 DotN= 1.00D+00 ElMax1= 6.25D-01 ElMax1N= 6.25D-01
 OrtVCM:  Ph=2 NNew=    0 IAdd=    6 IPass= 1 DotMx2= 5.55D-17
 OrtVCM:  IS=    1 I=    6 IndO=    6 Dot= 1.00D+00 DotN= 1.00D+00 ElMax1= 6.23D-01 ElMax1N= 6.23D-01
 OrtVCM:  Ph=1 IPass= 1 DotMx1= 6.61D-01
 OrtVCM:  Ph=1 IPass= 2 DotMx1= 1.87D-16
 OrtVCM:  IS=    1 I=    1 IndO=    7 Dot= 5.60D-01 DotN= 5.60D-01 ElMax1= 5.60D-01 ElMax1N= 5.60D-01
 OrtVCM:  Ph=2 NNew=    0 IAdd=    2 IPass= 1 DotMx2= 1.44D-07
 OrtVCM:  Ph=2 NNew=    0 IAdd=    2 IPass= 2 DotMx2= 5.20D-18
 OrtVCM:  IS=    1 I=    2 IndO=    8 Dot= 1.59D-01 DotN= 1.59D-01 ElMax1= 2.04D-01 ElMax1N= 2.04D-01
 OrtVCM:  Ph=2 NNew=    0 IAdd=    3 IPass= 1 DotMx2= 4.53D-02
 OrtVCM:  Ph=2 NNew=    0 IAdd=    3 IPass= 2 DotMx2= 4.34D-18
 OrtVCM:  IS=    1 I=    3 IndO=    9 Dot= 1.70D-01 DotN= 1.70D-01 ElMax1= 2.36D-01 ElMax1N= 2.36D-01
 OrtVCM:  Ph=2 NNew=    0 IAdd=    4 IPass= 1 DotMx2= 1.64D-01
 OrtVCM:  Ph=2 NNew=    0 IAdd=    4 IPass= 2 DotMx2= 2.78D-17
 OrtVCM:  IS=    1 I=    4 IndO=   10 Dot= 8.96D-01 DotN= 8.96D-01 ElMax1= 8.96D-01 ElMax1N= 8.96D-01
 OrtVCM:  Ph=2 NNew=    0 IAdd=    5 IPass= 1 DotMx2= 5.12D-01
 OrtVCM:  Ph=2 NNew=    0 IAdd=    5 IPass= 2 DotMx2= 4.16D-17
 OrtVCM:  IS=    1 I=    5 IndO=   11 Dot= 6.05D-01 DotN= 6.05D-01 ElMax1= 6.05D-01 ElMax1N= 6.05D-01
 OrtVCM:  Ph=2 NNew=    0 IAdd=    6 IPass= 1 DotMx2= 5.73D-01
 OrtVCM:  Ph=2 NNew=    0 IAdd=    6 IPass= 2 DotMx2= 1.11D-16
 OrtVCM:  IS=    1 I=    6 IndO=   12 Dot= 4.60D-01 DotN= 4.60D-01 ElMax1= 4.60D-01 ElMax1N= 4.60D-01
 OrtVCM:  Ph=2 NNew=    0 IAdd=    7 IPass= 1 DotMx2= 1.64D-01
 OrtVCM:  Ph=2 NNew=    0 IAdd=    7 IPass= 2 DotMx2= 2.78D-17
 OrtVCM:  IS=    1 I=    7 IndO=   13 Dot= 8.73D-01 DotN= 8.73D-01 ElMax1= 8.73D-01 ElMax1N= 8.73D-01
 OrtVCM:  Ph=2 NNew=    0 IAdd=    8 IPass= 1 DotMx2= 5.12D-01
 OrtVCM:  Ph=2 NNew=    0 IAdd=    8 IPass= 2 DotMx2= 9.71D-17
 OrtVCM:  IS=    1 I=    8 IndO=   14 Dot= 3.12D-01 DotN= 3.12D-01 ElMax1= 3.13D-01 ElMax1N= 3.13D-01
 OrtVCM:  Ph=2 NNew=    0 IAdd=    9 IPass= 1 DotMx2= 5.73D-01
 OrtVCM:  Ph=2 NNew=    0 IAdd=    9 IPass= 2 DotMx2= 1.87D-16
 OrtVCM:  IS=    1 I=    9 IndO=   15 Dot= 3.03D-01 DotN= 3.03D-01 ElMax1= 3.09D-01 ElMax1N= 3.09D-01
 OrtVCM:  Ph=2 NNew=    0 IAdd=   10 IPass= 1 DotMx2= 5.39D-01
 OrtVCM:  Ph=2 NNew=    0 IAdd=   10 IPass= 2 DotMx2= 1.53D-16
 OrtVCM:  IS=    1 I=   10 IndO=   16 Dot= 2.51D-01 DotN= 2.51D-01 ElMax1= 2.51D-01 ElMax1N= 2.51D-01
 OrtVCM:  Ph=2 NNew=    0 IAdd=   11 IPass= 1 DotMx2= 8.23D-02
 OrtVCM:  Ph=2 NNew=    0 IAdd=   11 IPass= 2 DotMx2= 4.16D-17
 OrtVCM:  IS=    1 I=   11 IndO=   17 Dot= 2.49D-01 DotN= 2.49D-01 ElMax1= 2.49D-01 ElMax1N= 2.49D-01
 OrtVCM:  Ph=2 NNew=    0 IAdd=   12 IPass= 1 DotMx2= 7.95D-02
 OrtVCM:  Ph=2 NNew=    0 IAdd=   12 IPass= 2 DotMx2= 5.20D-17
 OrtVCM:  IS=    1 I=   12 IndO=   18 Dot= 2.49D-01 DotN= 2.49D-01 ElMax1= 2.49D-01 ElMax1N= 2.49D-01
 OrtVCM:  Ph=2 NNew=    0 IAdd=   13 IPass= 1 DotMx2= 4.30D-01
 OrtVCM:  Ph=2 NNew=    0 IAdd=   13 IPass= 2 DotMx2= 6.94D-17
 OrtVCM:  IS=    1 I=   13 IndO=   19 Dot= 7.43D-01 DotN= 7.43D-01 ElMax1= 7.43D-01 ElMax1N= 7.43D-01
 OrtVCM:  Ph=2 NNew=    0 IAdd=   14 IPass= 1 DotMx2= 5.61D-01
 OrtVCM:  Ph=2 NNew=    0 IAdd=   14 IPass= 2 DotMx2= 3.82D-16
 OrtVCM:  IS=    1 I=   14 IndO=   20 Dot= 3.47D-01 DotN= 3.47D-01 ElMax1= 3.47D-01 ElMax1N= 3.47D-01
 OrtVCM:  Ph=2 NNew=    0 IAdd=   15 IPass= 1 DotMx2= 5.61D-01
 OrtVCM:  Ph=2 NNew=    0 IAdd=   15 IPass= 2 DotMx2= 1.63D-16
 OrtVCM:  IS=    1 I=   15 IndO=   21 Dot= 3.50D-01 DotN= 3.50D-01 ElMax1= 3.51D-01 ElMax1N= 3.51D-01
 OrtVCM:  Ph=2 NNew=    0 IAdd=   16 IPass= 1 DotMx2= 5.15D-01
 OrtVCM:  Ph=2 NNew=    0 IAdd=   16 IPass= 2 DotMx2= 9.69D-17
 OrtVCM:  IS=    1 I=   16 IndO=    0 Dot= 3.49D-03 DotN= 3.49D-03 ElMax1= 3.80D-02 ElMax1N= 3.80D-02
 OrtVCM:  Ph=2 NNew=    0 IAdd=   17 IPass= 1 DotMx2= 4.48D-01
 OrtVCM:  Ph=2 NNew=    0 IAdd=   17 IPass= 2 DotMx2= 5.90D-17
 OrtVCM:  IS=    1 I=   17 IndO=   22 Dot= 5.83D-01 DotN= 5.83D-01 ElMax1= 5.83D-01 ElMax1N= 5.83D-01
 OrtVCM:  Ph=2 NNew=    0 IAdd=   18 IPass= 1 DotMx2= 4.54D-01
 OrtVCM:  Ph=2 NNew=    0 IAdd=   18 IPass= 2 DotMx2= 6.25D-17
 OrtVCM:  IS=    1 I=   18 IndO=   23 Dot= 3.78D-01 DotN= 3.78D-01 ElMax1= 3.78D-01 ElMax1N= 3.78D-01
 SchOr2:  IPass= 1 Test2A= 1.00D-01 IOff=     0 NDo=    18 NNew=    17
 OrtVCM:  Ph=1 IPass= 1 DotMx1= 5.94D-01
 OrtVCM:  Ph=1 IPass= 2 DotMx1= 2.20D-16
 OrtVCM:  IS=    1 I=    1 IndO=    0 Dot= 3.15D-03 DotN= 3.15D-03 ElMax1= 3.42D-02 ElMax1N= 3.42D-02
 SchOr2:  IPass= 1 Test2A= 1.00D-01 IOff=    18 NDo=     1 NNew=     0
 OrtVCM:  Ph=1 IPass= 1 DotMx1= 4.67D-01
 OrtVCM:  Ph=1 IPass= 2 DotMx1= 2.91D-16
 OrtVCM:  IS=    1 I=    1 IndO=   24 Dot= 1.25D-01 DotN= 1.25D-01 ElMax1= 2.16D-01 ElMax1N= 2.16D-01
 SchOr2:  IPass= 1 Test2A= 1.00D-01 IOff=    19 NDo=     1 NNew=     1
 VibFq2-Diag2:  N=     18 IV=           9 MDV=   939500356 NE2=    52194463
 ******    1 imaginary frequencies (negative Signs) ****** 
 Dipole derivatives wrt mode   1: -2.34361D+01  1.06794D-05  7.55517D-01
 Vibrational polarizability contributions from mode   1       4.6070757       0.0000000       0.0047879
 Vibrational hyperpolarizability contributions from mode   1      -0.0000000       0.0000000       0.0000000
 Dipole derivatives wrt mode   2:  2.78292D-06  5.67321D+00 -2.59462D-05
 Vibrational polarizability contributions from mode   2       0.0000000     512.3158013       0.0000000
 Vibrational hyperpolarizability contributions from mode   2       0.0000000       0.0000000      -0.0000000
 Dipole derivatives wrt mode   3: -1.35807D-04 -1.56936D+00  1.20612D-05
 Vibrational polarizability contributions from mode   3       0.0000000       0.4619251       0.0000000
 Vibrational hyperpolarizability contributions from mode   3      -0.0000000      -0.0000000       0.0000000
 Dipole derivatives wrt mode   4:  2.98673D+00 -5.51818D-05 -5.98836D-02
 Vibrational polarizability contributions from mode   4       1.6322386       0.0000000       0.0006562
 Vibrational hyperpolarizability contributions from mode   4       0.0000000      -0.0000000      -0.0000000
 Dipole derivatives wrt mode   5: -2.12744D+00 -6.53807D-06 -4.76185D-01
 Vibrational polarizability contributions from mode   5       0.3700203       0.0000000       0.0185380
 Vibrational hyperpolarizability contributions from mode   5      -0.0000000      -0.0000000      -0.0000000
 Dipole derivatives wrt mode   6: -9.42325D-05  1.86568D+00  3.18462D-05
 Vibrational polarizability contributions from mode   6       0.0000000       0.1480382       0.0000000
 Vibrational hyperpolarizability contributions from mode   6      -0.0000000       0.0000000       0.0000000
 Dipole derivatives wrt mode   7: -1.00594D+01  2.10832D-05 -1.36819D+00
 Vibrational polarizability contributions from mode   7       3.5933845       0.0000000       0.0664740
 Vibrational hyperpolarizability contributions from mode   7      -0.0000000       0.0000000      -0.0000000
 Dipole derivatives wrt mode   8:  2.40916D+00  8.50702D-06  1.76040D+00
 Vibrational polarizability contributions from mode   8       0.1115775       0.0000000       0.0595753
 Vibrational hyperpolarizability contributions from mode   8       0.0000000       0.0000000       0.0000000
 Dipole derivatives wrt mode   9: -8.22620D+00 -2.04531D-04 -6.55116D+00
 Vibrational polarizability contributions from mode   9       0.9934089       0.0000000       0.6300364
 Vibrational hyperpolarizability contributions from mode   9      -0.0000000      -0.0000000      -0.0000000
 Dipole derivatives wrt mode  10:  3.18373D-04 -3.48975D+00  3.44471D-04
 Vibrational polarizability contributions from mode  10       0.0000000       0.1608641       0.0000000
 Vibrational hyperpolarizability contributions from mode  10       0.0000000      -0.0000000       0.0000000
 Dipole derivatives wrt mode  11:  2.05593D+00  5.91041D-05 -5.71360D-01
 Vibrational polarizability contributions from mode  11       0.0537514       0.0000000       0.0041514
 Vibrational hyperpolarizability contributions from mode  11       0.0000000       0.0000000      -0.0000000
 Dipole derivatives wrt mode  12: -3.04622D-05  1.48783D+00  2.35697D-05
 Vibrational polarizability contributions from mode  12       0.0000000       0.0265624       0.0000000
 Vibrational hyperpolarizability contributions from mode  12      -0.0000000       0.0000000       0.0000000
 Dipole derivatives wrt mode  13: -3.74573D+00  4.32129D-05  3.93737D+00
 Vibrational polarizability contributions from mode  13       0.1528106       0.0000000       0.1688470
 Vibrational hyperpolarizability contributions from mode  13      -0.0000000       0.0000000       0.0000000
 Dipole derivatives wrt mode  14: -2.46988D+00  1.73576D-05 -2.25882D-01
 Vibrational polarizability contributions from mode  14       0.0172497       0.0000000       0.0001443
 Vibrational hyperpolarizability contributions from mode  14      -0.0000000       0.0000000      -0.0000000
 Dipole derivatives wrt mode  15:  5.67917D-05  3.01442D+00  1.08372D-03
 Vibrational polarizability contributions from mode  15       0.0000000       0.0236688       0.0000000
 Vibrational hyperpolarizability contributions from mode  15       0.0000000       0.0000000       0.0000000
 Dipole derivatives wrt mode  16:  7.21656D-02 -1.15481D-03  3.19998D+00
 Vibrational polarizability contributions from mode  16       0.0000135       0.0000000       0.0266005
 Vibrational hyperpolarizability contributions from mode  16       0.0000000      -0.0000000       0.0000000
 Dipole derivatives wrt mode  17:  2.48814D+00  4.63822D-06  1.87676D+00
 Vibrational polarizability contributions from mode  17       0.0143826       0.0000000       0.0081828
 Vibrational hyperpolarizability contributions from mode  17       0.0000000       0.0000000       0.0000000
[...]
     0   0     11    8                                                     7  9 52 5      8          7  9       7     87           4 
     0   3     94    5                                                     2  8 57 4      3          1  5       4     49           1 
 
         X     XX    X                                                     X  X XX X      X          X  X       X     XX           X 
         X     XX                                                          X     X X      X          X                X            X 
                                                                           X       X                 X                             X 
                                                                           X       X                 X                             X 
                                                                           X       X                 X                             X 
                                                                                   X                 X                             X 
                                                                                   X                 X                               
                                                                                   X                 X                               
                                                                                   X                 X                               
                                                                                   X                 X                               
                                                                                   X                 X                               
                                                                                   X                 X                               
                                                                                   X                 X                               
                                                                                   X                 X                               
                                                                                   X                 X                               
                                                                                   X                 X                               
                                                                                   X                 X                               
                                                                                   X                 X                               
                                                                                   X                 X                               
                                                                                   X                                                 
 
 Forces in standard orientation:
 -------------------------------------------------------------------
 Center     Atomic                   Forces (Hartrees/Bohr)
 Number     Number              X              Y              Z
 -------------------------------------------------------------------
      1        7          -0.000000027   -0.000000202   -0.000000148
      2        1           0.000000001    0.000000019   -0.000000082
      3        1          -0.000000050    0.000000172    0.000000031
      4        6          -0.000000027    0.000000188   -0.000000715
      5        1           0.000000070    0.000000022    0.000000020
      6        1          -0.000000057   -0.000000324    0.000000321
      7        1           0.000000076    0.000000057    0.000000484
      8        1           0.000000014    0.000000068    0.000000089
 -------------------------------------------------------------------
 ***** Axes restored to original set *****
 Rotating derivatives, DoTrsp=F IDiff=-2 LEDeriv=   1204 LFDPrp=       0 LDFDPr=       0.
 -------------------------------------------------------------------
 Center     Atomic                   Forces (Hartrees/Bohr)
 Number     Number              X              Y              Z
 -------------------------------------------------------------------
      1        7          -0.000000072   -0.000000110    0.000000214
      2        1          -0.000000083   -0.000000007    0.000000007
      3        1          -0.000000024    0.000000010   -0.000000180
      4        6          -0.000000734   -0.000000087    0.000000028
      5        1           0.000000007    0.000000076   -0.000000002
      6        1           0.000000412   -0.000000098    0.000000178
      7        1           0.000000433    0.000000168   -0.000000164
      8        1           0.000000061    0.000000048   -0.000000081
 -------------------------------------------------------------------
 Cartesian Forces:  Max     0.000000734 RMS     0.000000216
 Z-matrix is all fixed cartesians, so copy forces.
 Force constants in Cartesian coordinates: 
                1             2             3             4             5 
      1  0.379024D+00
      2 -0.816802D-01  0.123635D+00
      3  0.394270D-01 -0.118308D+00  0.508556D+00
      4 -0.291142D+00  0.111226D+00 -0.166469D+00  0.288626D+00
      5  0.767335D-01 -0.511137D-01  0.461782D-01 -0.101064D+00  0.611899D-01
      6 -0.126088D+00  0.489215D-01 -0.127041D+00  0.155832D+00 -0.583634D-01
      7 -0.729173D-01 -0.134749D-01  0.137238D+00  0.518571D-02  0.725943D-02
      8 -0.108782D-01 -0.415033D-01  0.788876D-01 -0.610638D-02 -0.142744D-02
      9  0.861026D-01  0.645226D-01 -0.354875D+00  0.130853D-01  0.397329D-02
     10  0.209456D-02 -0.124101D-01 -0.384400D-02  0.170351D-02  0.193693D-02
     11  0.595469D-02 -0.120266D+00 -0.437381D-01  0.206530D-02  0.135562D-02
     12  0.234707D-02 -0.370466D-01 -0.103191D-01  0.204459D-02  0.775702D-03
     13 -0.186833D-01 -0.581228D-02 -0.728618D-02 -0.422530D-02  0.158912D-01
     14  0.117649D-01  0.730465D-01  0.315690D-01 -0.503284D-02 -0.985768D-02
     15 -0.135995D-02  0.379734D-01 -0.200036D-01 -0.433905D-02  0.781316D-02
     16  0.554810D-03  0.133623D-02  0.108060D-02 -0.178598D-03 -0.620310D-03
     17 -0.975714D-03  0.631004D-02  0.170510D-02 -0.106761D-02 -0.263130D-03
     18  0.367743D-03  0.329305D-02  0.164227D-02 -0.270608D-03 -0.644470D-03
     19  0.110508D-02  0.383933D-03 -0.191694D-03  0.122496D-03 -0.277052D-03
     20 -0.494778D-03  0.274692D-02  0.103118D-02 -0.190776D-03  0.169423D-03
     21 -0.487792D-03  0.710985D-03  0.640997D-03  0.419110D-04  0.352330D-03
     22 -0.362322D-04  0.431653D-03  0.458740D-04 -0.922915D-04  0.139914D-03
     23 -0.424157D-03  0.714411D-02  0.267483D-02  0.170287D-03 -0.529438D-04
     24 -0.308873D-03 -0.672433D-04  0.139969D-02  0.754480D-04 -0.847872D-04
                6             7             8             9            10 
      6  0.144690D+00
      7 -0.369795D-01  0.692875D-01
      8  0.136166D-01  0.997653D-02  0.434948D-01
      9 -0.208180D-01 -0.101970D+00 -0.720798D-01  0.381724D+00
     10  0.486779D-03  0.496403D-03  0.138980D-02  0.191916D-03  0.574462D+00
     11  0.161165D-02  0.182121D-02  0.312122D-02 -0.185052D-02 -0.784218D-02
     12  0.607695D-03 -0.117654D-02 -0.810620D-03  0.493354D-04 -0.378244D-02
     13  0.658663D-02 -0.153605D-02  0.576872D-02  0.292258D-02 -0.297407D-01
     14 -0.517822D-02 -0.519663D-02 -0.264219D-02  0.459192D-02  0.717828D-02
     15  0.326824D-02  0.309661D-02 -0.200189D-01 -0.663654D-02  0.306002D-02
     16 -0.772434D-04 -0.123945D-03  0.187152D-03  0.385116D-04 -0.198163D+00
     17 -0.230162D-03  0.395889D-03 -0.277915D-03  0.162049D-03  0.103863D+00
     18 -0.476675D-03  0.220336D-03 -0.169967D-03  0.675161D-04 -0.102498D+00
     19  0.625381D-04 -0.107576D-03 -0.259262D-03 -0.290827D-03 -0.291954D+00
     20  0.126243D-03 -0.862955D-04  0.253283D-03  0.156176D-03 -0.944080D-01
     21 -0.416128D-04 -0.182976D-03  0.244767D-04  0.104458D-03  0.561929D-01
     22  0.176838D-03 -0.284784D-03 -0.783947D-04 -0.799591D-04 -0.588984D-01
     23 -0.504171D-03 -0.695271D-03 -0.101842D-02  0.524239D-03  0.291989D-03
     24 -0.189260D-03 -0.245557D-03  0.550651D-03  0.384688D-03  0.501932D-01
               11            12            13            14            15 
     11  0.214610D+00
     12 -0.117412D+00  0.533127D+00
     13 -0.117133D-01 -0.330929D-02  0.547280D-01
     14  0.770250D-01  0.327880D-01 -0.719896D-02 -0.904418D-01
     15  0.396715D-01 -0.157218D-01  0.927455D-03 -0.494254D-01  0.469325D-01
     16  0.956548D-01 -0.105221D+00  0.199330D-03 -0.240405D-02 -0.686052D-03
     17 -0.910389D-01  0.821768D-01  0.128613D-01 -0.200343D-01  0.413513D-02
     18  0.740713D-01 -0.120307D+00  0.356574D-02 -0.798811D-02  0.469199D-04
     19 -0.845323D-01  0.595224D-01 -0.844575D-03  0.159365D-02  0.439016D-03
     20 -0.601556D-01  0.310500D-01 -0.135387D-01 -0.140119D-01  0.582189D-03
     21  0.274531D-01 -0.614778D-01 -0.466276D-02 -0.492869D-02 -0.107821D-02
     22 -0.140822D-02  0.495755D-01  0.102663D-03 -0.704308D-03 -0.113805D-02
     23 -0.246513D-01  0.847886D-02  0.374199D-02 -0.130837D-01 -0.207312D-01
     24  0.201932D-01 -0.325958D+00  0.125583D-02 -0.142853D-02 -0.680741D-02
               16            17            18            19            20 
     16  0.207507D+00
     17 -0.105333D+00  0.973034D-01
     18  0.114898D+00 -0.797789D-01  0.125215D+00
     19 -0.158794D-01 -0.915366D-02  0.624118D-02  0.309536D+00
     20  0.148062D-01  0.682354D-02 -0.392103D-02  0.934077D-01  0.634213D-01
     21 -0.145710D-01 -0.659321D-02  0.490734D-02 -0.645503D-01 -0.280878D-01
     22  0.608372D-02 -0.590192D-03 -0.225244D-01 -0.197797D-02  0.504710D-03
     23 -0.362666D-02  0.117721D-02  0.151382D-01 -0.116302D-02  0.752939D-03
     24  0.453813D-02 -0.157674D-02 -0.110959D-01 -0.123233D-02 -0.936972D-03
               21            22            23            24 
     21  0.598681D-01
     22  0.282200D-01  0.551033D-01
     23  0.110688D-01  0.170483D-02  0.297321D-01
     24 -0.292326D-02 -0.542758D-01 -0.166496D-01  0.345190D+00
 Final forces over variables, Energy=-9.63174254D+01:
 -7.20698410D-08-8.33303339D-08-2.37423527D-08-7.34202160D-07
  7.31271363D-09 4.12089217D-07 4.33174504D-07 6.07682743D-08
 -1.10428206D-07-7.15530121D-09 9.83297258D-09-8.68219939D-08
  7.60798682D-08-9.80611672D-08 1.68317026D-07 4.82367824D-08
  2.14390067D-07 6.63713158D-09-1.79620976D-07 2.78094049D-08
 -1.59253173D-09 1.78225815D-07-1.64498137D-07-8.13507762D-08
 Leave Link  716 at Sat Nov 12 22:42:29 2022, MaxMem=   939524096 cpu:         0.1
 (Enter /Local/ce_dana/g09/l103.exe)

 GradGradGradGradGradGradGradGradGradGradGradGradGradGradGradGradGradGrad
 Berny optimization.
 Search for a local minimum.
 Step number   1 out of a maximum of    2
 All quantities printed in internal units (Hartrees-Bohrs-Radians)
 Second derivative matrix not updated -- analytic derivatives used.
 ITU=  0
     Eigenvalues ---   -0.17987   0.00007   0.00571   0.00648   0.02845
     Eigenvalues ---    0.03287   0.06117   0.09184   0.09345   0.10866
     Eigenvalues ---    0.10868   0.13079   0.20838   0.44242   0.64162
     Eigenvalues ---    0.76555   0.76971   0.82039
 Eigenvalue     1 is  -1.80D-01 should be greater than     0.000000 Eigenvector:
                          Y5        Z5        Y1        Y4        Y8
   1                    0.85231   0.28954  -0.27223  -0.22608   0.12248
                          Y6        Z1        Y3        Z4        Y2
   1                    0.09633  -0.08367   0.07157  -0.07077   0.06600
 Angle between quadratic step and forces=  88.60 degrees.
 Linear search not attempted -- first point.
 TrRot=  0.000003 -0.000003  0.000007 -0.000001 -0.000001 -0.000001
 Variable       Old X    -DE/DX   Delta X   Delta X   Delta X     New X
                                 (Linear)    (Quad)   (Total)
    X1        0.05224  -0.00000   0.00000   0.00001   0.00002   0.05226
    Y1        2.23322  -0.00000   0.00000  -0.00001  -0.00001   2.23321
    Z1        0.65186   0.00000   0.00000   0.00003   0.00004   0.65190
    X2       -1.54525  -0.00000   0.00000   0.00011   0.00011  -1.54513
    Y2        2.79560  -0.00000   0.00000   0.00004   0.00004   2.79565
    Z2       -0.27898   0.00000   0.00000  -0.00010  -0.00009  -0.27907
    X3       -0.54986  -0.00000   0.00000  -0.00015  -0.00015  -0.55000
    Y3        1.87456   0.00000   0.00000  -0.00000  -0.00001   1.87455
    Z3        2.45285  -0.00000   0.00000  -0.00002  -0.00001   2.45283
    X4        0.08443  -0.00000   0.00000   0.00000   0.00000   0.08443
    Y4       -2.37266  -0.00000   0.00000  -0.00000  -0.00000  -2.37267
    Z4       -0.91275   0.00000   0.00000   0.00000   0.00001  -0.91274
    X5        0.27290   0.00000   0.00000   0.00001   0.00002   0.27292
    Y5       -0.01211   0.00000   0.00000  -0.00001  -0.00002  -0.01213
    Z5       -0.18556  -0.00000   0.00000   0.00004   0.00004  -0.18552
    X6        1.56547   0.00000   0.00000   0.00006   0.00006   1.56554
    Y6       -3.32425  -0.00000   0.00000   0.00000   0.00000  -3.32425
    Z6        0.13906   0.00000   0.00000  -0.00008  -0.00007   0.13899
    X7       -1.79691   0.00000   0.00000   0.00003   0.00003  -1.79688
    Y7       -3.04143   0.00000   0.00000  -0.00003  -0.00003  -3.04145
    Z7       -0.45304  -0.00000   0.00000   0.00008   0.00009  -0.45295
    X8        0.44800   0.00000   0.00000  -0.00010  -0.00010   0.44790
    Y8       -2.28979   0.00000   0.00000   0.00003   0.00003  -2.28976
    Z8       -2.92925  -0.00000   0.00000  -0.00001  -0.00001  -2.92926
         Item               Value     Threshold  Converged?
 Maximum Force            0.000001     0.000450     YES
 RMS     Force            0.000000     0.000300     YES
 Maximum Displacement     0.000147     0.001800     YES
 RMS     Displacement     0.000057     0.001200     YES
 Predicted change in Energy=-2.564983D-12
 Optimization completed.
    -- Stationary point found.
 GradGradGradGradGradGradGradGradGradGradGradGradGradGradGradGradGradGrad

 Leave Link  103 at Sat Nov 12 22:42:30 2022, MaxMem=   939524096 cpu:         0.1
 (Enter /Local/ce_dana/g09/l9999.exe)

 Test job not archived.
 1\1\GINC-TECH-WN083\Freq\UB2PLYPD3-FC\def2TZVP\C1H6N1(2)\ALONGD\12-Nov
 -2022\0\\#P guess=read ub2plypd3/def2tzvp freq IOp(7/33=1) scf=(tight,
  direct) integral=(grid=ultrafine, Acc2E=12) IOp(2/9=2000) scf=xqc\\TS
 0\\0,2\N,0.027646,1.18177,0.34495\H,-0.817709,1.47937,-0.147631\H,-0.2
 90972,0.991973,1.297991\C,0.04468,-1.255558,-0.483007\H,0.144413,-0.00
 641,-0.098195\H,0.828412,-1.759119,0.073587\H,-0.950884,-1.609453,-0.2
 39736\H,0.23707,-1.211704,-1.550092\\Version=ES64L-G09RevD.01\State=2-
 A\HF=-96.187706\MP2=-96.3174254\S2=0.768466\S2-1=0.\S2A=0.750128\RMSD=
 4.409e-09\RMSF=2.164e-07\ZeroPoint=0.0636814\Thermal=0.0683871\Dipole=
 -0.580791,-0.3365542,0.0981508\DipoleDeriv=-0.2672202,-0.1014203,-0.02
 63178,-0.0844124,-0.1485015,0.0634961,-0.0205844,0.0696925,-0.2146074,
 0.0036101,0.0281109,-0.1090869,0.0340527,0.2627907,0.0032648,-0.070273
 7,-0.0192452,0.1444199,0.1558224,-0.0121514,0.1190323,-0.000723,0.2018
 997,0.0832858,0.0860762,0.1121256,0.0530983,0.0074527,-0.0398266,-0.01
 58199,-0.0281853,0.5386215,0.1915712,-0.0118941,0.1958113,0.0712317,0.
 1229097,0.1391589,0.0367365,0.0544302,-0.6637739,-0.2756453,0.0081704,
 -0.3065175,-0.0113485,-0.0108718,0.0339241,-0.0561258,0.061336,-0.0677
 014,0.005796,-0.0469301,-0.0051703,0.0090391,-0.0675398,-0.0411488,0.0
 315878,-0.044994,-0.0849458,-0.0315672,0.0302919,-0.0329665,0.0351386,
 0.0558369,-0.0066467,0.0199939,0.0084959,-0.0383894,-0.0402013,0.02514
 38,-0.0137298,-0.0869716\Polar=23.8188492,-1.4917534,48.5245613,-0.120
 7735,8.5194391,27.7841719\PG=C01 [X(C1H6N1)]\NImag=1\\0.37902419,-0.08
 168021,0.12363529,0.03942703,-0.11830776,0.50855567,-0.29114178,0.1112
 2563,-0.16646935,0.28862625,0.07673347,-0.05111371,0.04617823,-0.10106
 361,0.06118987,-0.12608784,0.04892150,-0.12704081,0.15583177,-0.058363
 45,0.14469041,-0.07291728,-0.01347486,0.13723772,0.00518571,0.00725943
 ,-0.03697947,0.06928753,-0.01087817,-0.04150333,0.07888757,-0.00610638
 ,-0.00142744,0.01361660,0.00997653,0.04349480,0.08610262,0.06452264,-0
 .35487508,0.01308528,0.00397329,-0.02081798,-0.10197012,-0.07207979,0.
 38172361,0.00209456,-0.01241010,-0.00384400,0.00170351,0.00193693,0.00
 048678,0.00049640,0.00138980,0.00019192,0.57446153,0.00595469,-0.12026
 581,-0.04373812,0.00206530,0.00135562,0.00161165,0.00182121,0.00312122
 ,-0.00185052,-0.00784218,0.21460970,0.00234707,-0.03704661,-0.01031911
 ,0.00204459,0.00077570,0.00060770,-0.00117654,-0.00081062,0.00004934,-
 0.00378244,-0.11741215,0.53312666,-0.01868335,-0.00581228,-0.00728618,
 -0.00422530,0.01589124,0.00658663,-0.00153605,0.00576872,0.00292258,-0
 .02974074,-0.01171329,-0.00330929,0.05472802,0.01176487,0.07304649,0.0
 3156898,-0.00503284,-0.00985768,-0.00517822,-0.00519663,-0.00264219,0.
 00459192,0.00717828,0.07702500,0.03278802,-0.00719896,-0.09044182,-0.0
 0135995,0.03797344,-0.02000362,-0.00433905,0.00781316,0.00326824,0.003
 09661,-0.02001891,-0.00663654,0.00306002,0.03967154,-0.01572184,0.0009
 2745,-0.04942537,0.04693246,0.00055481,0.00133623,0.00108060,-0.000178
 60,-0.00062031,-0.00007724,-0.00012394,0.00018715,0.00003851,-0.198163
 21,0.09565476,-0.10522131,0.00019933,-0.00240405,-0.00068605,0.2075072
 5,-0.00097571,0.00631004,0.00170510,-0.00106761,-0.00026313,-0.0002301
 6,0.00039589,-0.00027791,0.00016205,0.10386330,-0.09103886,0.08217676,
 0.01286132,-0.02003425,0.00413513,-0.10533334,0.09730336,0.00036774,0.
 00329305,0.00164227,-0.00027061,-0.00064447,-0.00047667,0.00022034,-0.
 00016997,0.00006752,-0.10249834,0.07407128,-0.12030673,0.00356574,-0.0
 0798811,0.00004692,0.11489837,-0.07977892,0.12521531,0.00110508,0.0003
 8393,-0.00019169,0.00012250,-0.00027705,0.00006254,-0.00010758,-0.0002
 5926,-0.00029083,-0.29195367,-0.08453228,0.05952239,-0.00084457,0.0015
 9365,0.00043902,-0.01587935,-0.00915366,0.00624118,0.30953557,-0.00049
 478,0.00274692,0.00103118,-0.00019078,0.00016942,0.00012624,-0.0000863
 0,0.00025328,0.00015618,-0.09440802,-0.06015558,0.03105004,-0.01353874
 ,-0.01401186,0.00058219,0.01480621,0.00682354,-0.00392103,0.09340769,0
 .06342133,-0.00048779,0.00071099,0.00064100,0.00004191,0.00035233,-0.0
 0004161,-0.00018298,0.00002448,0.00010446,0.05619290,0.02745314,-0.061
 47781,-0.00466276,-0.00492869,-0.00107821,-0.01457100,-0.00659321,0.00
 490734,-0.06455028,-0.02808782,0.05986810,-0.00003623,0.00043165,0.000
 04587,-0.00009229,0.00013991,0.00017684,-0.00028478,-0.00007839,-0.000
 07996,-0.05889838,-0.00140822,0.04957554,0.00010266,-0.00070431,-0.001
 13805,0.00608372,-0.00059019,-0.02252442,-0.00197797,0.00050471,0.0282
 2000,0.05510328,-0.00042416,0.00714411,0.00267483,0.00017029,-0.000052
 94,-0.00050417,-0.00069527,-0.00101842,0.00052424,0.00029199,-0.024651
 28,0.00847886,0.00374199,-0.01308369,-0.02073116,-0.00362666,0.0011772
 1,0.01513817,-0.00116302,0.00075294,0.01106878,0.00170483,0.02973207,-
 0.00030887,-0.00006724,0.00139969,0.00007545,-0.00008479,-0.00018926,-
 0.00024556,0.00055065,0.00038469,0.05019317,0.02019318,-0.32595819,0.0
 0125583,-0.00142853,-0.00680741,0.00453813,-0.00157674,-0.01109595,-0.
 00123233,-0.00093697,-0.00292326,-0.05427582,-0.01664956,0.34518969\\0
 .00000007,0.00000011,-0.00000021,0.00000008,0.,0.,0.00000002,0.,0.0000
 0018,0.00000073,0.00000009,-0.00000003,0.,-0.00000008,0.,-0.00000041,0
 .00000010,-0.00000018,-0.00000043,-0.00000017,0.00000016,-0.00000006,-
 0.00000005,0.00000008\\\@


 QED = W**5 (WHICH WAS WHAT WE WANTED)
 Job cpu time:       0 days  0 hours 23 minutes 30.2 seconds.
 File lengths (MBytes):  RWF=   1002 Int=      0 D2E=      0 Chk=      3 Scr=      1
 Normal termination of Gaussian 09 at Sat Nov 12 22:42:30 2022.
