 Entering Gaussian System, Link 0=/Local/ce_dana/g09/g09
 Initial command:
 /Local/ce_dana/g09/l1.exe "/storage/ce_dana/alongd/scratch/g09/Gau-55964.inp" -scrdir="/storage/ce_dana/alongd/scratch/g09/"
 Entering Link 1 = /Local/ce_dana/g09/l1.exe PID=     55968.
  
 Copyright (c) 1988,1990,1992,1993,1995,1998,2003,2009,2013,
            Gaussian, Inc.  All Rights Reserved.
  
 This is part of the Gaussian(R) 09 program.  It is based on
 the Gaussian(R) 03 system (copyright 2003, Gaussian, Inc.),
 the Gaussian(R) 98 system (copyright 1998, Gaussian, Inc.),
 the Gaussian(R) 94 system (copyright 1995, Gaussian, Inc.),
 the Gaussian 92(TM) system (copyright 1992, Gaussian, Inc.),
 the Gaussian 90(TM) system (copyright 1990, Gaussian, Inc.),
 the Gaussian 88(TM) system (copyright 1988, Gaussian, Inc.),
 the Gaussian 86(TM) system (copyright 1986, Carnegie Mellon
 University), and the Gaussian 82(TM) system (copyright 1983,
 Carnegie Mellon University). Gaussian is a federally registered
 trademark of Gaussian, Inc.
  
 This software contains proprietary and confidential information,
 including trade secrets, belonging to Gaussian, Inc.
  
 This software is provided under written license and may be
 used, copied, transmitted, or stored only in accord with that
 written license.
  
 The following legend is applicable only to US Government
 contracts under FAR:
  
                    RESTRICTED RIGHTS LEGEND
  
 Use, reproduction and disclosure by the US Government is
 subject to restrictions as set forth in subparagraphs (a)
 and (c) of the Commercial Computer Software - Restricted
 Rights clause in FAR 52.227-19.
  
 Gaussian, Inc.
 340 Quinnipiac St., Bldg. 40, Wallingford CT 06492
  
  
 ---------------------------------------------------------------
 Warning -- This program may not be used in any manner that
 competes with the business of Gaussian, Inc. or will provide
 assistance to any competitor of Gaussian, Inc.  The licensee
 of this program is prohibited from giving any competitor of
 Gaussian, Inc. access to this program.  By using this program,
 the user acknowledges that Gaussian, Inc. is engaged in the
 business of creating and licensing software in the field of
 computational chemistry and represents and warrants to the
 licensee that it is not a competitor of Gaussian, Inc. and that
 it will not use this program in any manner prohibited above.
 ---------------------------------------------------------------
  

 Cite this work as:
 Gaussian 09, Revision D.01,
 M. J. Frisch, G. W. Trucks, H. B. Schlegel, G. E. Scuseria, 
 M. A. Robb, J. R. Cheeseman, G. Scalmani, V. Barone, B. Mennucci, 
 G. A. Petersson, H. Nakatsuji, M. Caricato, X. Li, H. P. Hratchian, 
 A. F. Izmaylov, J. Bloino, G. Zheng, J. L. Sonnenberg, M. Hada, 
 M. Ehara, K. Toyota, R. Fukuda, J. Hasegawa, M. Ishida, T. Nakajima, 
 Y. Honda, O. Kitao, H. Nakai, T. Vreven, J. A. Montgomery, Jr., 
 J. E. Peralta, F. Ogliaro, M. Bearpark, J. J. Heyd, E. Brothers, 
 K. N. Kudin, V. N. Staroverov, T. Keith, R. Kobayashi, J. Normand, 
 K. Raghavachari, A. Rendell, J. C. Burant, S. S. Iyengar, J. Tomasi, 
 M. Cossi, N. Rega, J. M. Millam, M. Klene, J. E. Knox, J. B. Cross, 
 V. Bakken, C. Adamo, J. Jaramillo, R. Gomperts, R. E. Stratmann, 
 O. Yazyev, A. J. Austin, R. Cammi, C. Pomelli, J. W. Ochterski, 
 R. L. Martin, K. Morokuma, V. G. Zakrzewski, G. A. Voth, 
 P. Salvador, J. J. Dannenberg, S. Dapprich, A. D. Daniels, 
 O. Farkas, J. B. Foresman, J. V. Ortiz, J. Cioslowski, 
 and D. J. Fox, Gaussian, Inc., Wallingford CT, 2013.
 
 ******************************************
 Gaussian 09:  ES64L-G09RevD.01 24-Apr-2013
                23-Oct-2022 
 ******************************************
 %chk=check.chk
 %mem=7168mb
 %NProcShared=10
 Will use up to   10 processors via shared memory.
 ----------------------------------------------------------------------
 #P guess=read b2plypd3/def2tzvp freq IOp(7/33=1) scf=(tight, direct) i
 ntegral=(grid=ultrafine, Acc2E=12) IOp(2/9=2000) scf=xqc
 ----------------------------------------------------------------------
 1/10=4,30=1,38=1/1,3;
 2/9=2000,12=2,17=6,18=5,40=1/2;
 3/5=44,7=101,11=9,16=1,25=1,30=1,71=2,74=-60,75=-5,116=-2,140=1/1,2,3;
 4/5=1/1;
 5/5=2,8=3,13=1,32=2,38=6,87=12,98=1/2,8;
 8/6=3,8=1,10=1,19=11,30=-1,87=12/1;
 9/15=3,16=-3,87=12/6;
 11/6=1,8=1,15=11,17=12,24=-1,27=1,28=-2,29=300,32=6,42=3,87=12/1,2,10;
 10/6=2,21=1,87=12/2;
 8/6=4,8=1,10=1,19=11,30=-1,87=12/11,4;
 10/5=1,20=4,87=12/2;
 11/12=2,14=11,16=1,17=2,28=-2,42=3,87=12/2,10,12;
 6/7=2,8=2,9=2,10=2/1;
 7/8=1,10=1,12=2,25=1,33=1,44=2,87=12/1,2,3,16;
 1/10=4,30=1/3;
 99//99;
 Leave Link    1 at Sun Oct 23 07:35:35 2022, MaxMem=   939524096 cpu:         0.1
 (Enter /Local/ce_dana/g09/l101.exe)
 --------------------
 Nitrosodioxaziridine
 --------------------
 Symbolic Z-matrix:
 Charge =  0 Multiplicity = 1
 O                     1.94571  -0.14108   0.13021 
 N                     0.87351  -0.25619   0.54576 
 N                    -0.23986   0.28057  -0.59303 
 O                    -1.25059   0.77696   0.25913 
 O                    -1.32455  -0.57715  -0.30682 
 
 NAtoms=      5 NQM=        5 NQMF=       0 NMMI=      0 NMMIF=      0
                NMic=       0 NMicF=      0.
                    Isotopes and Nuclear Properties:
 (Nuclear quadrupole moments (NQMom) in fm**2, nuclear magnetic moments (NMagM)
  in nuclear magnetons)

  Atom         1           2           3           4           5
 IAtWgt=          16          14          14          16          16
 AtmWgt=  15.9949146  14.0030740  14.0030740  15.9949146  15.9949146
 NucSpn=           0           2           2           0           0
 AtZEff=   0.0000000   0.0000000   0.0000000   0.0000000   0.0000000
 NQMom=    0.0000000   2.0440000   2.0440000   0.0000000   0.0000000
 NMagM=    0.0000000   0.4037610   0.4037610   0.0000000   0.0000000
 AtZNuc=   8.0000000   7.0000000   7.0000000   8.0000000   8.0000000
 Leave Link  101 at Sun Oct 23 07:35:35 2022, MaxMem=   939524096 cpu:         0.1
 (Enter /Local/ce_dana/g09/l103.exe)

 GradGradGradGradGradGradGradGradGradGradGradGradGradGradGradGradGradGrad
 Berny optimization.
 Initialization pass.
 Trust Radius=3.00D-01 FncErr=1.00D-07 GrdErr=1.00D-07
 Number of steps in this run=      2 maximum allowed number of steps=      2.
 GradGradGradGradGradGradGradGradGradGradGradGradGradGradGradGradGradGrad

 Leave Link  103 at Sun Oct 23 07:35:35 2022, MaxMem=   939524096 cpu:         0.0
 (Enter /Local/ce_dana/g09/l202.exe)
                          Input orientation:                          
 ---------------------------------------------------------------------
 Center     Atomic      Atomic             Coordinates (Angstroms)
 Number     Number       Type             X           Y           Z
 ---------------------------------------------------------------------
      1          8           0        1.945712   -0.141076    0.130211
      2          7           0        0.873514   -0.256193    0.545760
      3          7           0       -0.239859    0.280572   -0.593030
      4          8           0       -1.250593    0.776958    0.259129
      5          8           0       -1.324552   -0.577145   -0.306816
 ---------------------------------------------------------------------
                    Distance matrix (angstroms):
                    1          2          3          4          5
     1  O    0.000000
     2  N    1.155656   0.000000
     3  N    2.340424   1.680642   0.000000
     4  O    3.328028   2.379367   1.412146   0.000000
     5  O    3.328029   2.379368   1.412146   1.469476   0.000000
 Stoichiometry    N2O3
 Framework group  C1[X(N2O3)]
 Deg. of freedom     9
 Full point group                 C1      NOp   1
 Largest Abelian subgroup         C1      NOp   1
 Largest concise Abelian subgroup C1      NOp   1
                         Standard orientation:                         
 ---------------------------------------------------------------------
 Center     Atomic      Atomic             Coordinates (Angstroms)
 Number     Number       Type             X           Y           Z
 ---------------------------------------------------------------------
      1          8           0       -1.967862    0.000000    0.121294
      2          7           0       -0.969963    0.000000   -0.461577
      3          7           0        0.319653   -0.000001    0.616128
      4          8           0        1.268441    0.734738   -0.128263
      5          8           0        1.268441   -0.734737   -0.128263
 ---------------------------------------------------------------------
 Rotational constants (GHZ):     19.1939297      3.6868569      3.4785485
 Leave Link  202 at Sun Oct 23 07:35:36 2022, MaxMem=   939524096 cpu:         0.0
 (Enter /Local/ce_dana/g09/l301.exe)
 Standard basis: def2TZVP (5D, 7F)
 Ernie: Thresh=  0.10000D-02 Tol=  0.10000D-05 Strict=F.
 There are   180 symmetry adapted cartesian basis functions of A   symmetry.
 There are   155 symmetry adapted basis functions of A   symmetry.
   155 basis functions,   255 primitive gaussians,   180 cartesian basis functions
    19 alpha electrons       19 beta electrons
       nuclear repulsion energy       164.0118730974 Hartrees.
 IExCor=  419 DFT=T Ex+Corr=B2PLYPD3 ExCW=0 ScaHFX=  0.530000
 ScaDFX=  0.470000  0.470000  0.730000  0.730000 ScalE2=  0.270000  0.270000
 IRadAn=      5 IRanWt=     -1 IRanGd=            0 ICorTp=0 IEmpDi=141
 NAtoms=    5 NActive=    5 NUniq=    5 SFac= 1.00D+00 NAtFMM=   60 NAOKFM=F Big=F
 Integral buffers will be    131072 words long.
 Regular integral format.
 Two-electron integral symmetry is turned on.
 R6Disp:  Grimme-D3(BJ) Dispersion energy=       -0.0018202720 Hartrees.
 Nuclear repulsion after empirical dispersion term =      164.0100528254 Hartrees.
 Leave Link  301 at Sun Oct 23 07:35:36 2022, MaxMem=   939524096 cpu:         0.1
 (Enter /Local/ce_dana/g09/l302.exe)
 NPDir=0 NMtPBC=     1 NCelOv=     1 NCel=       1 NClECP=     1 NCelD=      1
         NCelK=      1 NCelE2=     1 NClLst=     1 CellRange=     0.0.
 One-electron integrals computed using PRISM.
   1 Symmetry operations used in ECPInt.
 ECPInt:  NShTT=    1540 NPrTT=    5160 LenC2=    1511 LenP2D=    4144.
 LDataN:  DoStor=T MaxTD1= 6 Len=  172
 NBasis=   155 RedAO= T EigKep=  9.15D-04  NBF=   155
 NBsUse=   155 1.00D-06 EigRej= -1.00D+00 NBFU=   155
 Precomputing XC quadrature grid using
 IXCGrd= 4 IRadAn=           5 IRanWt=          -1 IRanGd=           0 AccXCQ= 0.00D+00.
 Generated NRdTot=       0 NPtTot=           0 NUsed=           0 NTot=          32
 NSgBfM=   179   179   179   179   179 MxSgAt=     5 MxSgA2=     5.
 Leave Link  302 at Sun Oct 23 07:35:36 2022, MaxMem=   939524096 cpu:         1.5
 (Enter /Local/ce_dana/g09/l303.exe)
 DipDrv:  MaxL=1.
 Leave Link  303 at Sun Oct 23 07:35:36 2022, MaxMem=   939524096 cpu:         0.1
 (Enter /Local/ce_dana/g09/l401.exe)
 Initial guess from the checkpoint file:  "check.chk"
 B after Tr=    -0.000000    0.000000    0.000000
         Rot=   -0.000000    0.000000   -0.000000    1.000000 Ang=-180.00 deg.
 Guess basis will be translated and rotated to current coordinates.
 JPrj=2 DoOrth=T DoCkMO=T.
 Leave Link  401 at Sun Oct 23 07:35:37 2022, MaxMem=   939524096 cpu:         0.4
 (Enter /Local/ce_dana/g09/l502.exe)
 Closed shell SCF:
 Using DIIS extrapolation, IDIIS=  1040.
 Integral symmetry usage will be decided dynamically.
 Keep R1 ints in memory in canonical form, NReq=76161117.
 IVT=      106242 IEndB=      106242 NGot=   939524096 MDV=   866327760
 LenX=   866327760 LenY=   866294919
 Requested convergence on RMS density matrix=1.00D-08 within  64 cycles.
 Requested convergence on MAX density matrix=1.00D-06.
 Requested convergence on             energy=1.00D-06.
 No special actions if energy rises.
 FoFCou: FMM=F IPFlag=           0 FMFlag=           0 FMFlg1=           0
         NFxFlg=           0 DoJE=F BraDBF=F KetDBF=F FulRan=T
         wScrn=  0.000000 ICntrl=     600 IOpCl=  0 I1Cent=           0 NGrid=           0
         NMat0=    1 NMatS0=  12090 NMatT0=    0 NMatD0=    1 NMtDS0=    0 NMtDT0=    0
 Symmetry not used in FoFCou.

 Cycle   1  Pass 1  IDiag  1:
 E= -334.407896877186    
 DIIS: error= 5.53D-08 at cycle   1 NSaved=   1.
 NSaved= 1 IEnMin= 1 EnMin= -334.407896877186     IErMin= 1 ErrMin= 5.53D-08
 ErrMax= 5.53D-08  0.00D+00 EMaxC= 1.00D-01 BMatC= 7.20D-13 BMatP= 7.20D-13
 IDIUse=1 WtCom= 1.00D+00 WtEn= 0.00D+00
 Coeff-Com:  0.100D+01
 Coeff:      0.100D+01
 Gap=     0.275 Goal=   None    Shift=    0.000
 RMSDP=4.97D-09 MaxDP=1.14D-07              OVMax= 2.10D-07

 SCF Done:  E(RB2PLYPD3) =  -334.407896877     A.U. after    1 cycles
            NFock=  1  Conv=0.50D-08     -V/T= 2.0033
 KE= 3.333019744467D+02 PE=-1.116247983094D+03 EE= 2.845280589448D+02
 Leave Link  502 at Sun Oct 23 07:35:39 2022, MaxMem=   939524096 cpu:        11.8
 (Enter /Local/ce_dana/g09/l508.exe)
 QCSCF skips out because SCF is already converged.
 Leave Link  508 at Sun Oct 23 07:35:39 2022, MaxMem=   939524096 cpu:         0.0
 (Enter /Local/ce_dana/g09/l801.exe)
 DoSCS=T DFT=T ScalE2(SS,OS)=  0.270000  0.270000
 ExpMin= 1.36D-01 ExpMax= 2.70D+04 ExpMxC= 9.22D+02 IAcc=3 IRadAn=         5 AccDes= 0.00D+00
 HarFok:  IExCor=  205 AccDes= 0.00D+00 IRadAn=         5 IDoV=-2 UseB2=F ITyADJ=14
 ICtDFT= 12500011 ScaDFX=  1.000000  1.000000  1.000000  1.000000
 Largest valence mixing into a core orbital is  1.07D-04
 Largest core mixing into a valence orbital is  2.38D-05
 Range of M.O.s used for correlation:     6   155
 NBasis=   155 NAE=    19 NBE=    19 NFC=     5 NFV=     0
 NROrb=    150 NOA=    14 NOB=    14 NVA=   136 NVB=   136

 **** Warning!!: The largest alpha MO coefficient is  0.11390015D+02

 Leave Link  801 at Sun Oct 23 07:35:39 2022, MaxMem=   939524096 cpu:         0.6
 (Enter /Local/ce_dana/g09/l906.exe)
 DoSCS=T DFT=T ScalE2(SS,OS)=  0.270000  0.270000
 Frozen-core derivative calculation, NFC=   5 NFV=   0.
 FulOut=F Deriv=T AODrv=T NAtomX=     5
   MMem=           0  MDisk=          14 MDiskD=          14
  W3Min=      530100 MinDsk=     1430510 NBas6D=         180
 NBas2D=       16710    NTT=       16290    LW2=     7400000
    MDV=   939236656 MDiskM=       26034 NBas2p=       16628
 Disk-based method using ON**2 memory for 14 occupieds at a time.
 Permanent disk used for amplitudes=     8246836 words.
 Estimated scratch disk usage=   149558276 words.
 IMap=   1   2   3   4   5   6   7   8   9  10  11  12  13  14  15  16  17  18  19
 Actual    scratch disk usage=   144845828 words.
 JobTyp=1 Pass  1:  I=   6 to  19 NPSUse= 10 ParTrn=T ParDer=T DoDerP=T.
 (rs|ai) integrals will be sorted in core.
 Spin components of T(2) and E(2):
     alpha-alpha T2 =       0.7258818595D-01 E2=     -0.5004681592D-01
     alpha-beta  T2 =       0.4119298748D+00 E2=     -0.2788049679D+00
     beta-beta   T2 =       0.7258818595D-01 E2=     -0.5004681592D-01
 The integrals were generated   1 times.
 E2(B2PLYPD3) =    -0.3788985997D+00 E(B2PLYPD3) =    -0.33478679547691D+03
 Leave Link  906 at Sun Oct 23 07:37:14 2022, MaxMem=   939524096 cpu:       896.4
 (Enter /Local/ce_dana/g09/l1101.exe)
 Using compressed Sx but separate Hx and Fx, NAtomX=     5.
 Will process      6 centers per pass.
   1 Symmetry operations used in ECPInt.
 ECPInt:  NShTT=    1540 NPrTT=    5160 LenC2=    1511 LenP2D=    4144.
 LDataN:  DoStor=T MaxTD1= 7 Len=  274
 R6Disp: Adding Grimme-D3(BJ) dispersion energy 1st derivatives to the gradient.
 Leave Link 1101 at Sun Oct 23 07:37:15 2022, MaxMem=   939524096 cpu:         5.3
 (Enter /Local/ce_dana/g09/l1102.exe)
 Leave Link 1102 at Sun Oct 23 07:37:15 2022, MaxMem=   939524096 cpu:         0.0
 (Enter /Local/ce_dana/g09/l1110.exe)
 Forming Gx(P) for the SCF density, NAtomX=     5.
 Integral derivatives from FoFJK, PRISM(SPDF).
 Do as many integral derivatives as possible in FoFJK.
 G2DrvN: MDV=     939523952.
 G2DrvN: will do     6 centers at a time, making    1 passes.
 Calling FoFCou, ICntrl=  3107 FMM=F I1Cent=   0 AccDes= 1.00D-12.
 FoFJK:  IHMeth= 1 ICntrl=    3107 DoSepK=F KAlg= 0 I1Cent=   0 FoldK=F
 IRaf=         0 NMat=   1 IRICut=       1 DoRegI=T DoRafI=F ISym2E= 0.
 FoFCou: FMM=F IPFlag=           0 FMFlag=      100000 FMFlg1=           0
         NFxFlg=           0 DoJE=F BraDBF=F KetDBF=F FulRan=T
         wScrn=  0.000000 ICntrl=    3107 IOpCl=  0 I1Cent=           0 NGrid=           0
         NMat0=    1 NMatS0=      1 NMatT0=    0 NMatD0=    1 NMtDS0=    0 NMtDT0=    0
 Symmetry not used in FoFCou.
 End of G2Drv F.D. properties file   721 does not exist.
 End of G2Drv F.D. properties file   722 does not exist.
 End of G2Drv F.D. properties file   788 does not exist.
 Leave Link 1110 at Sun Oct 23 07:37:25 2022, MaxMem=   939524096 cpu:        90.9
 (Enter /Local/ce_dana/g09/l1002.exe)
 Minotr:  Closed shell wavefunction.
          IDoAtm=11111
          Frozen-core window.
          Direct CPHF calculation.
          Differentiating once with respect to electric field.
                with respect to dipole field.
          Differentiating once with respect to nuclear coordinates.
          Requested convergence is 1.0D-08 RMS, and 1.0D-07 maximum.
          Secondary convergence is 1.0D-12 RMS, and 1.0D-12 maximum.
          NewPWx=T KeepS1=T KeepF1=T KeepIn=T MapXYZ=F SortEE=F KeepMc=T.
          MDV=     939523892 using IRadAn=       1.
 Generate precomputed XC quadrature information.
 Keep R1 ints in memory in canonical form, NReq=76057649.
 FoFCou: FMM=F IPFlag=           0 FMFlag=           0 FMFlg1=           0
         NFxFlg=           0 DoJE=F BraDBF=F KetDBF=F FulRan=T
         wScrn=  0.000000 ICntrl=     600 IOpCl=  0 I1Cent=           0 NGrid=           0
         NMat0=    1 NMatS0=  12090 NMatT0=    0 NMatD0=    1 NMtDS0=    0 NMtDT0=    0
 Symmetry not used in FoFCou.
          Solving linear equations simultaneously, MaxMat=       0.
          There are    18 degrees of freedom in the 1st order CPHF.  IDoFFX=6 NUNeed=    18.
     15 vectors produced by pass  0 Test12= 1.44D-14 5.56D-09 XBig12= 2.58D+01 3.56D+00.
 AX will form    15 AO Fock derivatives at one time.
     15 vectors produced by pass  1 Test12= 1.44D-14 5.56D-09 XBig12= 5.39D+00 8.81D-01.
     15 vectors produced by pass  2 Test12= 1.44D-14 5.56D-09 XBig12= 5.89D-01 2.40D-01.
     15 vectors produced by pass  3 Test12= 1.44D-14 5.56D-09 XBig12= 1.97D-02 3.33D-02.
     15 vectors produced by pass  4 Test12= 1.44D-14 5.56D-09 XBig12= 6.09D-04 6.69D-03.
     15 vectors produced by pass  5 Test12= 1.44D-14 5.56D-09 XBig12= 1.24D-05 1.06D-03.
     15 vectors produced by pass  6 Test12= 1.44D-14 5.56D-09 XBig12= 1.04D-07 7.56D-05.
     10 vectors produced by pass  7 Test12= 1.44D-14 5.56D-09 XBig12= 5.79D-10 6.21D-06.
      3 vectors produced by pass  8 Test12= 1.44D-14 5.56D-09 XBig12= 2.80D-12 5.44D-07.
      1 vectors produced by pass  9 Test12= 1.44D-14 5.56D-09 XBig12= 1.74D-14 4.04D-08.
 InvSVY:  IOpt=1 It=  1 EMax= 1.33D-15
 Solved reduced A of dimension   119 with    15 vectors.
 FullF1:  Do perturbations    1 to    18.
 Saving first derivative matrices.
 End of Minotr F.D. properties file   721 does not exist.
 End of Minotr F.D. properties file   722 does not exist.
 End of Minotr F.D. properties file   788 does not exist.
 Leave Link 1002 at Sun Oct 23 07:37:40 2022, MaxMem=   939524096 cpu:       142.1
 (Enter /Local/ce_dana/g09/l811.exe)
 MDV=   939524096.
 DoSCS=T DFT=T ScalE2(SS,OS)=  0.270000  0.270000
 Form MO integral derivatives with frozen-active canonical formalism.
 MOERI=1 MOERIx=1 NAtoms=     5 NAtomX=     5.
 Discarding MO integrals.
 MO basis two electron integral derivatives will not be stored on disk.
 IAlg= 3 DoFC=T DoPWx=T Debug=F.
 Frozen-core window:  NFC=   5 NFV=   0.
 Reordered first order wavefunction length =     13354112
 In DefCFB: NBatch=  1 ICI= 19 ICA=136 LFMax= 46
            Large arrays: LIAPS=   288374400 LIARS=   117210240 words.
 In StABat: MaxSiz= 36 MinSiz= 36 NAtomB=  5
 DoIAMN: NPSUse= 10.
 Leave Link  811 at Sun Oct 23 07:39:12 2022, MaxMem=   939524096 cpu:       458.6
 (Enter /Local/ce_dana/g09/l804.exe)
 Frozen-core window:  NFC=   5 NFV=   0.
 Closed-shell transformation, MDV=   939524096 ITran=4 ISComp=1.
 Semi-Direct transformation.
 ModeAB=           2 MOrb=            19 LenV=     938623203
 LASXX=     32424526 LTotXX=    32424526 LenRXX=    32424526
 LTotAB=    33046700 MaxLAS=    47974050 LenRXY=    47974050
 NonZer=    64849052 LenScr=    98048000 LnRSAI=           0
 LnScr1=           0 LExtra=           0 Total=    178446576
 MaxDsk=          -1 SrtSym=           F ITran=            4
 DoSDTr:  NPSUse= 10
 JobTyp=0 Pass  1:  I=   1 to  19.
 (rs|ai) integrals will be sorted in core.
 Complete sort for first half transformation.
 First half transformation complete.
 Begin second half transformation for I=  10.
 Begin second half transformation for I=  10.
 Complete sort for second half transformation.
 Second half transformation complete.
 SymMOI:  orbitals are not symmetric.
 DoSCS=T DFT=T ScalE2(SS,OS)=  0.270000  0.270000
 Spin components of T(2) and E(2):
     alpha-alpha T2 =       0.7258818595D-01 E2=     -0.5004681592D-01
     alpha-beta  T2 =       0.4119298748D+00 E2=     -0.2788049679D+00
     beta-beta   T2 =       0.7258818595D-01 E2=     -0.5004681592D-01
 E2(B2PLYPD3) =    -0.3788985997D+00 E(B2PLYPD3) =    -0.33478679547691D+03
 Leave Link  804 at Sun Oct 23 07:39:31 2022, MaxMem=   939524096 cpu:        88.1
 (Enter /Local/ce_dana/g09/l1002.exe)
 Minotr:  Closed shell wavefunction.
          Computing MP2/KS-MP2 derivatives.
          Using Z-Vector for PSCF gradient.
          Skipping F1 and S1 gradient terms here.
          IDoAtm=11111
          Frozen-core window.
          Direct CPHF calculation.
          Differentiating once with respect to electric field.
                with respect to dipole field.
          Differentiating once with respect to nuclear coordinates.
          Requested convergence is 1.0D-10 RMS, and 1.0D-09 maximum.
          NewPWx=T KeepS1=F KeepF1=F KeepIn=T MapXYZ=F SortEE=F KeepMc=T.
          MDV=     939523892 using IRadAn=       5.
 Using stored XC quadrature information.
 Keep R1 ints in memory in canonical form, NReq=76056172.
 FoFCou: FMM=F IPFlag=           0 FMFlag=           0 FMFlg1=           0
         NFxFlg=           0 DoJE=F BraDBF=F KetDBF=F FulRan=T
         wScrn=  0.000000 ICntrl=     600 IOpCl=  0 I1Cent=           0 NGrid=           0
         NMat0=    1 NMatS0=  12090 NMatT0=    0 NMatD0=    1 NMtDS0=    0 NMtDT0=    0
 Symmetry not used in FoFCou.
          Solving linear equations separately, MaxMat=       0.
          There are     1 degrees of freedom in the 1st order CPHF.  IDoFFX=0 NUNeed=     1.
 LinEq1:  Iter=  0 NonCon=     1 RMS=3.44D-03 Max=7.75D-02 NDo=     1
 AX will form     1 AO Fock derivatives at one time.
 LinEq1:  Iter=  1 NonCon=     1 RMS=1.57D-03 Max=4.24D-02 NDo=     1
 LinEq1:  Iter=  2 NonCon=     1 RMS=8.52D-04 Max=2.34D-02 NDo=     1
 LinEq1:  Iter=  3 NonCon=     1 RMS=4.77D-04 Max=8.97D-03 NDo=     1
 LinEq1:  Iter=  4 NonCon=     1 RMS=1.84D-04 Max=3.05D-03 NDo=     1
 LinEq1:  Iter=  5 NonCon=     1 RMS=1.02D-04 Max=1.93D-03 NDo=     1
 LinEq1:  Iter=  6 NonCon=     1 RMS=6.09D-05 Max=1.07D-03 NDo=     1
 LinEq1:  Iter=  7 NonCon=     1 RMS=2.53D-05 Max=2.73D-04 NDo=     1
 LinEq1:  Iter=  8 NonCon=     1 RMS=6.39D-06 Max=1.33D-04 NDo=     1
 LinEq1:  Iter=  9 NonCon=     1 RMS=1.40D-06 Max=3.83D-05 NDo=     1
 LinEq1:  Iter= 10 NonCon=     1 RMS=3.90D-07 Max=9.89D-06 NDo=     1
 LinEq1:  Iter= 11 NonCon=     1 RMS=1.12D-07 Max=2.03D-06 NDo=     1
 LinEq1:  Iter= 12 NonCon=     1 RMS=2.30D-08 Max=4.24D-07 NDo=     1
 LinEq1:  Iter= 13 NonCon=     1 RMS=9.45D-09 Max=1.72D-07 NDo=     1
 LinEq1:  Iter= 14 NonCon=     1 RMS=7.45D-09 Max=1.09D-07 NDo=     1
 LinEq1:  Iter= 15 NonCon=     1 RMS=1.88D-09 Max=2.34D-08 NDo=     1
 LinEq1:  Iter= 16 NonCon=     1 RMS=4.19D-10 Max=7.90D-09 NDo=     1
 LinEq1:  Iter= 17 NonCon=     1 RMS=8.20D-11 Max=1.15D-09 NDo=     1
 LinEq1:  Iter= 18 NonCon=     0 RMS=1.73D-11 Max=2.44D-10 NDo=     1
 Linear equations converged to 1.000D-10 1.000D-09 after    18 iterations.
 End of Minotr F.D. properties file   721 does not exist.
 End of Minotr F.D. properties file   722 does not exist.
 End of Minotr F.D. properties file   788 does not exist.
 Leave Link 1002 at Sun Oct 23 07:39:46 2022, MaxMem=   939524096 cpu:       115.1
 (Enter /Local/ce_dana/g09/l1102.exe)
 Use density number 2.
 Symmetrizing basis deriv contribution to polar:
 IMax=3 JMax=2 DiffMx= 0.00D+00
 Leave Link 1102 at Sun Oct 23 07:39:46 2022, MaxMem=   939524096 cpu:         0.1
 (Enter /Local/ce_dana/g09/l1110.exe)
 Forming Gx(P) for generalized density number  2 NAtomX=     5.
 Integral derivatives from FoFJK, PRISM(SPDF).
 Do as many integral derivatives as possible in FoFJK.
 G2DrvN: MDV=     939523952.
 G2DrvN: will do     6 centers at a time, making    1 passes.
 Calling FoFCou, ICntrl=  3107 FMM=F I1Cent=   0 AccDes= 1.00D-12.
 FoFJK:  IHMeth= 1 ICntrl=    3107 DoSepK=F KAlg= 0 I1Cent=   0 FoldK=F
 IRaf=         0 NMat=   1 IRICut=       1 DoRegI=T DoRafI=F ISym2E= 0.
 FoFCou: FMM=F IPFlag=           0 FMFlag=      100000 FMFlg1=           0
         NFxFlg=           0 DoJE=F BraDBF=F KetDBF=F FulRan=T
         wScrn=  0.000000 ICntrl=    3107 IOpCl=  0 I1Cent=           0 NGrid=           0
         NMat0=    1 NMatS0=      1 NMatT0=    0 NMatD0=    1 NMtDS0=    0 NMtDT0=    0
 Symmetry not used in FoFCou.
 End of G2Drv F.D. properties file   721 does not exist.
 End of G2Drv F.D. properties file   722 does not exist.
 End of G2Drv F.D. properties file   788 does not exist.
 Leave Link 1110 at Sun Oct 23 07:39:56 2022, MaxMem=   939524096 cpu:        93.6
 (Enter /Local/ce_dana/g09/l1112.exe)
 MP22nd: MDV=     939524096
 DoSCS=T DFT=T ScalE2(SS,OS)=  0.270000  0.270000
 Using stored XC quadrature information.
 This link is doing NAtomX=     5 total of    18 degrees of freedom.
 Using ON3 I/O method in MakUI.
 Frozen-core window:  NFC=   5 NFV=   0.
 Using Ix for Sx.
 Use MO integrals over full window.
 Using OV2 memory method for fx*t*t/D, MaxI=    19 DoOO2=F NP=  10.
 R2 and R3 integrals will be kept in memory, NReq=   268345170.
 FoFCou: FMM=F IPFlag=           0 FMFlag=           0 FMFlg1=           0
         NFxFlg=           0 DoJE=F BraDBF=F KetDBF=F FulRan=T
         wScrn=  0.000000 ICntrl=     600 IOpCl=  0 I1Cent=           0 NGrid=           0
         NMat0=    1 NMatS0=      1 NMatT0=    0 NMatD0=    1 NMtDS0=    0 NMtDT0=    0
 Symmetry not used in FoFCou.
 DD1Dir will call FoFMem   1 times, MxPair=       552
 NAB=   190 NAA=   171 NBB=     0.
 Symmetry is being used.
 FoFJK:  IHMeth= 1 ICntrl=       0 DoSepK=F KAlg= 0 I1Cent=   0 FoldK=F
 IRaf=         0 NMat=  18 IRICut=      45 DoRegI=T DoRafI=T ISym2E= 2.
 R6Disp: Adding Grimme-D3(BJ) dispersion energy 1st derivatives to the gradient.
 Discarding MO integrals.
 Leave Link 1112 at Sun Oct 23 07:42:14 2022, MaxMem=   939524096 cpu:       503.3
 (Enter /Local/ce_dana/g09/l601.exe)
 Copying SCF densities to generalized density rwf, IOpCl= 0 IROHF=0.

 **********************************************************************

            Population analysis using the SCF density.

 **********************************************************************

 Orbital symmetries:
       Occupied  (A) (A) (A) (A) (A) (A) (A) (A) (A) (A) (A) (A)
                 (A) (A) (A) (A) (A) (A) (A)
       Virtual   (A) (A) (A) (A) (A) (A) (A) (A) (A) (A) (A) (A)
                 (A) (A) (A) (A) (A) (A) (A) (A) (A) (A) (A) (A)
                 (A) (A) (A) (A) (A) (A) (A) (A) (A) (A) (A) (A)
                 (A) (A) (A) (A) (A) (A) (A) (A) (A) (A) (A) (A)
                 (A) (A) (A) (A) (A) (A) (A) (A) (A) (A) (A) (A)
                 (A) (A) (A) (A) (A) (A) (A) (A) (A) (A) (A) (A)
                 (A) (A) (A) (A) (A) (A) (A) (A) (A) (A) (A) (A)
                 (A) (A) (A) (A) (A) (A) (A) (A) (A) (A) (A) (A)
                 (A) (A) (A) (A) (A) (A) (A) (A) (A) (A) (A) (A)
                 (A) (A) (A) (A) (A) (A) (A) (A) (A) (A) (A) (A)
                 (A) (A) (A) (A) (A) (A) (A) (A) (A) (A) (A) (A)
                 (A) (A) (A) (A)
 The electronic state is 1-A.
 Alpha  occ. eigenvalues --  -19.88158 -19.87778 -19.87763 -15.06028 -15.02664
 Alpha  occ. eigenvalues --   -1.43870  -1.41441  -1.04730  -0.93761  -0.80364
 Alpha  occ. eigenvalues --   -0.68014  -0.63429  -0.60838  -0.58958  -0.54599
 Alpha  occ. eigenvalues --   -0.53068  -0.48167  -0.41071  -0.33933
 Alpha virt. eigenvalues --   -0.06458   0.01683   0.05815   0.07807   0.15143
 Alpha virt. eigenvalues --    0.24485   0.30207   0.33908   0.34402   0.39823
 Alpha virt. eigenvalues --    0.42008   0.42488   0.43027   0.44258   0.45258
 Alpha virt. eigenvalues --    0.51440   0.53025   0.54722   0.56457   0.59199
 Alpha virt. eigenvalues --    0.64345   0.65233   0.67489   0.78919   0.81825
 Alpha virt. eigenvalues --    0.90291   0.91699   1.02818   1.12398   1.20298
 Alpha virt. eigenvalues --    1.29006   1.37174   1.38670   1.46911   1.51939
 Alpha virt. eigenvalues --    1.59515   1.62726   1.67924   1.68598   1.72354
 Alpha virt. eigenvalues --    1.79666   1.88124   1.89557   1.92687   1.95137
 Alpha virt. eigenvalues --    2.00319   2.06492   2.08032   2.08437   2.11237
 Alpha virt. eigenvalues --    2.11988   2.13030   2.19817   2.24630   2.30321
 Alpha virt. eigenvalues --    2.45622   2.47593   2.63900   2.68532   2.70923
 Alpha virt. eigenvalues --    2.77174   2.83698   2.91656   2.93728   3.00775
 Alpha virt. eigenvalues --    3.03094   3.29766   3.36568   3.65196   3.66057
 Alpha virt. eigenvalues --    3.74276   3.80676   3.87523   3.89583   3.91630
 Alpha virt. eigenvalues --    3.96053   4.08561   4.09463   4.17345   4.35902
 Alpha virt. eigenvalues --    4.36060   4.47279   4.63219   4.71177   4.72232
 Alpha virt. eigenvalues --    4.76578   4.82659   4.85436   4.86835   4.89112
 Alpha virt. eigenvalues --    4.99039   5.03564   5.15263   5.19798   5.20597
 Alpha virt. eigenvalues --    5.24362   5.25237   5.29484   5.31659   5.37135
 Alpha virt. eigenvalues --    5.42519   5.46455   5.66453   5.69215   5.84892
 Alpha virt. eigenvalues --    5.89023   5.92146   5.94072   6.01335   6.19635
 Alpha virt. eigenvalues --    6.35751   6.36375   6.37436   6.39614   6.49142
 Alpha virt. eigenvalues --    6.54238   6.61688   6.62761   6.68847   6.81545
 Alpha virt. eigenvalues --    6.87056   6.92226   7.02558   7.06108   7.14472
 Alpha virt. eigenvalues --    7.19324   7.24800   7.35423   7.57090   7.65982
 Alpha virt. eigenvalues --    8.10447  32.07409  32.43887  44.16614  44.24894
 Alpha virt. eigenvalues --   44.42054
          Condensed to atoms (all electrons):
               1          2          3          4          5
     1  O    7.854301   0.318044  -0.057923   0.003098   0.003098
     2  N    0.318044   6.466327   0.022311  -0.007094  -0.007094
     3  N   -0.057923   0.022311   6.747871   0.087087   0.087086
     4  O    0.003098  -0.007094   0.087087   7.978887   0.038249
     5  O    0.003098  -0.007094   0.087086   0.038249   7.978887
 Mulliken charges:
               1
     1  O   -0.120619
     2  N    0.207505
     3  N    0.113568
     4  O   -0.100227
     5  O   -0.100227
 Sum of Mulliken charges =  -0.00000
 Mulliken charges with hydrogens summed into heavy atoms:
               1
     1  O   -0.120619
     2  N    0.207505
     3  N    0.113568
     4  O   -0.100227
     5  O   -0.100227
 APT charges:
               1
     1  O   -0.404687
     2  N    0.654922
     3  N    0.070665
     4  O   -0.160450
     5  O   -0.160450
 Sum of APT charges =  -0.00000
 APT charges with hydrogens summed into heavy atoms:
               1
     1  O   -0.404687
     2  N    0.654922
     3  N    0.070665
     4  O   -0.160450
     5  O   -0.160450
 Electronic spatial extent (au):  <R**2>=            336.0023
 Charge=              0.0000 electrons
 Dipole moment (field-independent basis, Debye):
    X=             -1.0143    Y=             -0.0000    Z=             -0.0826  Tot=              1.0177
 Quadrupole moment (field-independent basis, Debye-Ang):
   XX=            -27.9289   YY=            -25.1188   ZZ=            -28.1228
   XY=              0.0000   XZ=              0.0490   YZ=              0.0000
 Traceless Quadrupole moment (field-independent basis, Debye-Ang):
   XX=             -0.8720   YY=              1.9380   ZZ=             -1.0660
   XY=              0.0000   XZ=              0.0490   YZ=              0.0000
 Octapole moment (field-independent basis, Debye-Ang**2):
  XXX=              1.4904  YYY=             -0.0000  ZZZ=             -1.2590  XYY=             -1.6778
  XXY=              0.0000  XXZ=             -1.3198  XZZ=              0.4384  YZZ=              0.0000
  YYZ=              0.2970  XYZ=             -0.0000
 Hexadecapole moment (field-independent basis, Debye-Ang**3):
 XXXX=           -280.4666 YYYY=            -49.8019 ZZZZ=            -47.1591 XXXY=              0.0000
 XXXZ=             -3.4754 YYYX=             -0.0000 YYYZ=              0.0000 ZZZX=             -2.2624
 ZZZY=              0.0000 XXYY=            -53.4056 XXZZ=            -52.4856 YYZZ=            -16.0912
 XXYZ=             -0.0000 YYXZ=             -0.6178 ZZXY=              0.0000
 N-N= 1.640100528254D+02 E-N=-1.116247983574D+03  KE= 3.333019744467D+02
  Exact polarizability:  46.202   0.000  23.348   0.153  -0.000  21.607
 Approx polarizability:  54.298  -0.000  35.181  -1.798  -0.000  28.289
 No NMR shielding tensors so no spin-rotation constants.
 Leave Link  601 at Sun Oct 23 07:42:15 2022, MaxMem=   939524096 cpu:         1.7
 (Enter /Local/ce_dana/g09/l701.exe)
 Compute integral second derivatives.
 ... and contract with generalized density number  2.
 Use density number 2.
 R6Disp: Adding Grimme-D3(BJ) dispersion energy 2nd derivatives to the Hessian.
 Entering OneElI...
 Calculate overlap and kinetic energy integrals
    NBasis = 180  MinDer = 2  MaxDer = 2
 Requested accuracy = 0.1000D-14
 PrsmSu:  NPrtUS=  10 ThrOK=T IAlg=1 NPAlg=1 LenDen=           0.
 Prism:   IPart=     0 DynPar=F LinDyn=F Incr=           1.
 PRISM was handed    93896611 working-precision words and  1525 shell-pairs
 PRISM was handed    93896611 working-precision words and  1525 shell-pairs
 PRISM was handed    93896611 working-precision words and  1525 shell-pairs
 PRISM was handed    93896611 working-precision words and  1525 shell-pairs
 PRISM was handed    93896611 working-precision words and  1525 shell-pairs
 PRISM was handed    93896611 working-precision words and  1525 shell-pairs
 PRISM was handed    93896611 working-precision words and  1525 shell-pairs
 PRISM was handed    93896611 working-precision words and  1525 shell-pairs
 PRISM was handed    93896611 working-precision words and  1525 shell-pairs
 PRISM was handed    93896611 working-precision words and  1525 shell-pairs
 IPart=  0 NShTot=         168 NBatch=          39 AvBLen=         4.3
 IPart=  5 NShTot=         144 NBatch=          26 AvBLen=         5.5
 IPart=  1 NShTot=         167 NBatch=          38 AvBLen=         4.4
 IPart=  6 NShTot=         143 NBatch=          25 AvBLen=         5.7
 IPart=  3 NShTot=         161 NBatch=          32 AvBLen=         5.0
 IPart=  2 NShTot=         162 NBatch=          33 AvBLen=         4.9
 IPart=  4 NShTot=         158 NBatch=          30 AvBLen=         5.3
 IPart=  8 NShTot=         140 NBatch=          25 AvBLen=         5.6
 IPart=  9 NShTot=         140 NBatch=          25 AvBLen=         5.6
 IPart=  7 NShTot=         142 NBatch=          25 AvBLen=         5.7
 PrSmSu:  NxtVal=             11.
 Entering OneElI...
 Calculate potential energy integrals
    NBasis = 180  MinDer = 2  MaxDer = 2
 Requested accuracy = 0.1000D-14
 PrsmSu:  NPrtUS=  10 ThrOK=T IAlg=1 NPAlg=1 LenDen=           0.
 Prism:   IPart=     0 DynPar=F LinDyn=F Incr=           7.
 PRISM was handed    93903505 working-precision words and  1478 shell-pairs
 PRISM was handed    93903505 working-precision words and  1478 shell-pairs
 PRISM was handed    93903505 working-precision words and  1478 shell-pairs
 PRISM was handed    93903505 working-precision words and  1478 shell-pairs
 PRISM was handed    93903505 working-precision words and  1478 shell-pairs
 PRISM was handed    93903505 working-precision words and  1478 shell-pairs
 PRISM was handed    93903505 working-precision words and  1478 shell-pairs
 PRISM was handed    93903505 working-precision words and  1478 shell-pairs
 PRISM was handed    93903505 working-precision words and  1478 shell-pairs
 PRISM was handed    93903505 working-precision words and  1478 shell-pairs
 IPart=  4 NShTot=         740 NBatch=         148 AvBLen=         5.0
 IPart=  2 NShTot=         785 NBatch=         157 AvBLen=         5.0
 IPart=  0 NShTot=         845 NBatch=         169 AvBLen=         5.0
 IPart=  5 NShTot=         710 NBatch=         142 AvBLen=         5.0
 IPart=  1 NShTot=         800 NBatch=         160 AvBLen=         5.0
 IPart=  8 NShTot=         685 NBatch=         137 AvBLen=         5.0
 IPart=  7 NShTot=         690 NBatch=         138 AvBLen=         5.0
 IPart=  3 NShTot=         765 NBatch=         153 AvBLen=         5.0
 IPart=  6 NShTot=         695 NBatch=         139 AvBLen=         5.0
 IPart=  9 NShTot=         675 NBatch=         135 AvBLen=         5.0
 PrSmSu:  NxtVal=             71.
   1 Symmetry operations used in ECPInt.
 ECPInt:  NShTT=    1540 NPrTT=    5160 LenC2=    1511 LenP2D=    4144.
 LDataN:  DoStor=F MaxTD1= 8 Len=  415
 LDataN:  DoStor=T MaxTD1= 8 Len=  415
 ECPSu:  NPrtUS=  10 ThrOK=T
 Polarizability after L701:
                1             2             3 
      1  0.462017D+02
      2  0.000000D+00  0.233477D+02
      3  0.153418D+00 -0.225101D-05  0.216069D+02
 Dipole Derivatives after L701:
                 1             2             3             4             5 
      1  -0.123890D+01  0.000000D+00  0.773738D+00  0.182212D+01  0.000000D+00
      2   0.000000D+00  0.950725D-02  0.000000D+00  0.000000D+00 -0.180155D-02
      3  -0.152393D+00  0.000000D+00  0.153321D-01  0.242086D+00  0.000000D+00
                 6             7             8             9            10 
      1  -0.407824D+00 -0.388136D-01  0.000000D+00 -0.698420D+00 -0.272204D+00
      2   0.000000D+00  0.000000D+00  0.286551D+00  0.000000D+00 -0.628301D-01
      3   0.144444D+00 -0.188559D-01  0.000000D+00 -0.357411D-01 -0.354184D-01
                11            12            13            14            15 
      1  -0.196017D+00  0.166252D+00 -0.272205D+00  0.196017D+00  0.166253D+00
      2  -0.147128D+00  0.158684D+00  0.628303D-01 -0.147128D+00 -0.158684D+00
      3   0.778407D-01 -0.620173D-01 -0.354183D-01 -0.778408D-01 -0.620176D-01
 Hessian after L701:
                1             2             3             4             5 
      1 -0.169693D+01
      2  0.000000D+00  0.190674D+02
      3  0.807443D+01  0.348357D-05  0.102872D+02
      4 -0.191765D+00  0.122041D-05 -0.884122D+01 -0.229860D+01
      5  0.142182D-05 -0.183920D+02 -0.297887D-05  0.171613D-05  0.226270D+02
      6 -0.891497D+01 -0.302139D-05 -0.983250D+01  0.599229D+01  0.427912D-05
      7  0.801196D+00  0.000000D+00  0.111936D+01  0.706255D+00 -0.306791D-05
      8  0.000000D+00 -0.263272D+00  0.000000D+00 -0.327139D-05 -0.326830D+01
      9  0.109144D+01  0.000000D+00  0.623698D-01  0.177963D+01 -0.132509D-05
     10  0.543750D+00  0.228492D+00 -0.176280D+00  0.892057D+00  0.352591D+00
     11  0.211138D+00 -0.206089D+00 -0.450568D-01  0.360413D+00 -0.483357D+00
     12 -0.125446D+00 -0.342309D-01 -0.258515D+00  0.534649D+00  0.171024D+00
     13  0.543750D+00 -0.228492D+00 -0.176280D+00  0.892057D+00 -0.352591D+00
     14 -0.211138D+00 -0.206090D+00  0.450569D-01 -0.360412D+00 -0.483356D+00
     15 -0.125446D+00  0.342309D-01 -0.258515D+00  0.534650D+00 -0.171024D+00
                6             7             8             9            10 
      6  0.136447D+02
      7  0.174342D+01  0.365118D+01
      8 -0.133939D-05 -0.125695D-05  0.122279D+02
      9 -0.288601D+01  0.288980D+01  0.642426D-05  0.103056D+02
     10  0.589627D+00 -0.257932D+01  0.298860D+01 -0.288043D+01  0.608036D+01
     11  0.192989D+00  0.317965D+01 -0.434813D+01 -0.243378D+01 -0.366044D+01
     12 -0.463074D+00 -0.287628D+01 -0.229587D+01 -0.374097D+01  0.185887D+01
     13  0.589628D+00 -0.257931D+01 -0.298859D+01 -0.288044D+01 -0.493685D+01
     14 -0.192989D+00 -0.317964D+01 -0.434815D+01  0.243378D+01  0.907572D-01
     15 -0.463074D+00 -0.287629D+01  0.229587D+01 -0.374097D+01  0.608206D+00
               11            12            13            14            15 
     11  0.225132D+01
     12  0.222246D+01  0.909988D+01
     13 -0.907633D-01  0.608206D+00  0.608035D+01
     14  0.278626D+01 -0.633832D-01  0.366044D+01  0.225134D+01
     15  0.633905D-01 -0.463733D+01  0.185888D+01 -0.222246D+01  0.909988D+01
 Leave Link  701 at Sun Oct 23 07:42:16 2022, MaxMem=   939524096 cpu:         5.6
 (Enter /Local/ce_dana/g09/l702.exe)
 L702 exits ... SP integral derivatives will be done elsewhere.
 Leave Link  702 at Sun Oct 23 07:42:16 2022, MaxMem=   939524096 cpu:         0.0
 (Enter /Local/ce_dana/g09/l703.exe)
 Compute integral second derivatives, UseDBF=F ICtDFT=           0.
 Integral derivatives from FoFJK, PRISM(SPDF).
 ICntrl=  10100127.
 Calling FoFJK, ICntrl=  10100127 FMM=F ISym2X=0 I1Cent= 0 IOpClX= 0 NMat=1 NMatS=1 NMatT=0.
 FoFJK:  IHMeth= 1 ICntrl=10100127 DoSepK=F KAlg= 0 I1Cent=   0 FoldK=F
 IRaf=         0 NMat=   1 IRICut=       1 DoRegI=T DoRafI=F ISym2E= 0.
 FoFCou: FMM=F IPFlag=           0 FMFlag=      100000 FMFlg1=         800
         NFxFlg=           0 DoJE=F BraDBF=F KetDBF=F FulRan=T
         wScrn=  0.000000 ICntrl=10100127 IOpCl=  0 I1Cent=           0 NGrid=           0
         NMat0=    1 NMatS0=      1 NMatT0=    0 NMatD0=    1 NMtDS0=    0 NMtDT0=    0
 Symmetry not used in FoFCou.
 FoFCou:  KetSym=F NOpSet=  1 NOpAb=1 NOp=  1.
 FoFCou:  CnvScl= 1.00D+00 Thresh= 1.00D-12 IAcrcy=      10.
 PrismS was handed   939374462 working-precision words and  1506 shell-pairs
 FoFCou: LinMIO=F DoNuc=F BraDBF=F KetDBF=F HaveP=T PDBF=F HaveZ=T HaveW=F
         NIJTC =      10 NIJTAt=       0 NIJTCD=       0 NIJTT =      10
         IJTBeg=       1 IJTEnd=      10 KLTBeg=       1 KLTEnd=      10
         IPTBeg=       1 IPTEnd=      10 IPTBCv=       1 IPTECv=      10
         IZTBeg=       1 IZTEnd=      10 IZTBCv=       1 IZTECv=      10
         IWTBeg=      11 IWTEnd=      10 IWTBCv=      11 IWTECv=      10
         INTBeg=       1 INTEnd=       0 IFTBCv=       1 IFTECv=      10
 NCel replicated for PrismC:     1
 CoulSu:  IncDef=  1024 NBBP=        1134771 NTPThr=   100 NPartT=   10 Incr=        1024 LDynOK=F.
 CoulSu:  NPrtUS=  10 ThrOK=T IAlg=1 NPAlg=1 LenDen=           0 LWGrdD=           0 DoCopy=F.
 Enter PrismC: JobTyp=22 DoJE=F Cont=F.
 PrismC:  IPart=     0 DynPar=T LinDyn=F Incr=        1024 UseFst=F UseS4=T IGathr=2.
 PrismC was handed    93906910 working-precision words and  1506 shell-pairs
 Enter PrismC: JobTyp=22 DoJE=F Cont=F.
 Enter PrismC: JobTyp=22 DoJE=F Cont=F.
 Enter PrismC: JobTyp=22 DoJE=F Cont=F.
 Enter PrismC: JobTyp=22 DoJE=F Cont=F.
 Enter PrismC: JobTyp=22 DoJE=F Cont=F.
 Enter PrismC: JobTyp=22 DoJE=F Cont=F.
 Enter PrismC: JobTyp=22 DoJE=F Cont=F.
 PrismC was handed    93906910 working-precision words and  1506 shell-pairs
 PrismC was handed    93906910 working-precision words and  1506 shell-pairs
 PrismC was handed    93906910 working-precision words and  1506 shell-pairs
 PrismC was handed    93906910 working-precision words and  1506 shell-pairs
 Enter PrismC: JobTyp=22 DoJE=F Cont=F.
 PrismC was handed    93906910 working-precision words and  1506 shell-pairs
 PrismC was handed    93906910 working-precision words and  1506 shell-pairs
 PrismC was handed    93906910 working-precision words and  1506 shell-pairs
 PrismC was handed    93906910 working-precision words and  1506 shell-pairs
 Enter PrismC: JobTyp=22 DoJE=F Cont=F.
 PrismC was handed    93906910 working-precision words and  1506 shell-pairs
 IPart=  6 NShTot=      104750 NShNF=      104750 NShFF=           0 NBatch=        4728 AvBLen=        22.2
 IPart=  9 NShTot=       99252 NShNF=       99252 NShFF=           0 NBatch=        4777 AvBLen=        20.8
 IPart=  8 NShTot=      103162 NShNF=      103162 NShFF=           0 NBatch=        4934 AvBLen=        20.9
 IPart=  2 NShTot=      104497 NShNF=      104497 NShFF=           0 NBatch=        4526 AvBLen=        23.1
 IPart=  3 NShTot=      110793 NShNF=      110793 NShFF=           0 NBatch=        4145 AvBLen=        26.7
 IPart=  5 NShTot=      114064 NShNF=      114064 NShFF=           0 NBatch=        5184 AvBLen=        22.0
 IPart=  0 NShTot=       90259 NShNF=       90259 NShFF=           0 NBatch=        3859 AvBLen=        23.4
 IPart=  4 NShTot=       90122 NShNF=       90122 NShFF=           0 NBatch=        4187 AvBLen=        21.5
 IPart=  1 NShTot=      102007 NShNF=      102007 NShFF=           0 NBatch=        3852 AvBLen=        26.5
 IPart=  7 NShTot=       81552 NShNF=       81552 NShFF=           0 NBatch=        3699 AvBLen=        22.0
 CoulSu:  NxtVal=        1205249.
 ReadGW:  IGet=0 IStart=           1 Next=           1 LGW=           0.
 Remaining memory in FofDFT      895.97 Mw
 CkSvGd:  ISavGI=        -1 IRadAn=       5 IRASav=       5 ISavGd=        -1.
 CalDSu:  NPrtUS=  10 ThrOK=T IAlg=1 NPAlg=2 DoDPD=T LenP=       16290 LenD1P=             0.
 IPart=  0 IRanGd=          0 ScrnBf=T ScrnGd=T RCrit=4.00D+00 DoMicB=T.
 IPart=  2        10134 of        10676 points in      11 batches and       64 microbatches, Max-NSigAt=       5 Max-NSgAt2=       5
 IPart=  4        10560 of        10886 points in       9 batches and       34 microbatches, Max-NSigAt=       5 Max-NSgAt2=       5
 IPart=  3        10227 of        10592 points in       9 batches and       61 microbatches, Max-NSigAt=       5 Max-NSgAt2=       5
 IPart=  9        10182 of        10704 points in      13 batches and       99 microbatches, Max-NSigAt=       5 Max-NSgAt2=       5
 IPart=  1        12042 of        12656 points in      11 batches and       75 microbatches, Max-NSigAt=       5 Max-NSgAt2=       5
 IPart=  8        10365 of        10866 points in      11 batches and       84 microbatches, Max-NSigAt=       5 Max-NSgAt2=       5
 IPart=  7        12244 of        12866 points in      12 batches and       71 microbatches, Max-NSigAt=       5 Max-NSgAt2=       5
 IPart=  5        10673 of        11054 points in      10 batches and       63 microbatches, Max-NSigAt=       5 Max-NSgAt2=       5
 IPart=  6         9792 of         9988 points in       8 batches and       46 microbatches, Max-NSigAt=       5 Max-NSgAt2=       5
 IPart=  0        10770 of        11054 points in       9 batches and       71 microbatches, Max-NSigAt=       5 Max-NSgAt2=       5
 Polarizability after L703:
                1             2             3 
      1  0.462017D+02
      2  0.000000D+00  0.233477D+02
      3  0.153418D+00 -0.225101D-05  0.216069D+02
 Dipole Derivatives after L703:
                 1             2             3             4             5 
      1  -0.123890D+01  0.000000D+00  0.773738D+00  0.182212D+01  0.000000D+00
      2   0.000000D+00  0.950725D-02  0.000000D+00  0.000000D+00 -0.180155D-02
      3  -0.152393D+00  0.000000D+00  0.153321D-01  0.242086D+00  0.000000D+00
                 6             7             8             9            10 
      1  -0.407824D+00 -0.388136D-01  0.000000D+00 -0.698420D+00 -0.272204D+00
      2   0.000000D+00  0.000000D+00  0.286551D+00  0.000000D+00 -0.628301D-01
      3   0.144444D+00 -0.188559D-01  0.000000D+00 -0.357411D-01 -0.354184D-01
                11            12            13            14            15 
      1  -0.196017D+00  0.166252D+00 -0.272205D+00  0.196017D+00  0.166253D+00
      2  -0.147128D+00  0.158684D+00  0.628303D-01 -0.147128D+00 -0.158684D+00
      3   0.778407D-01 -0.620173D-01 -0.354183D-01 -0.778408D-01 -0.620176D-01
 Hessian after L703:
                1             2             3             4             5 
      1  0.720609D+00
      2  0.000000D+00  0.156307D-02
      3 -0.347266D+00  0.000000D+00  0.262172D+00
      4 -0.630769D+00  0.000000D+00  0.347550D+00  0.618424D+00
      5  0.000000D+00 -0.581063D-02  0.000000D+00  0.000000D+00  0.284007D-01
      6  0.345972D+00  0.000000D+00 -0.326835D+00 -0.363211D+00  0.000000D+00
      7 -0.544712D-01  0.000000D+00  0.172343D-01  0.326356D-01  0.000000D+00
      8  0.000000D+00  0.587744D-02  0.000000D+00  0.000000D+00 -0.165217D-01
      9 -0.109021D-03  0.000000D+00  0.766976D-01  0.289823D-01  0.000000D+00
     10 -0.176845D-01  0.159647D-02 -0.875957D-02 -0.101456D-01 -0.198002D-01
     11 -0.132987D-02 -0.814944D-03 -0.106540D-02  0.560742D-02 -0.303421D-02
     12  0.701340D-03  0.456086D-02 -0.601759D-02 -0.666105D-02 -0.157964D-01
     13 -0.176846D-01 -0.159644D-02 -0.875960D-02 -0.101455D-01  0.198001D-01
     14  0.132987D-02 -0.814936D-03  0.106540D-02 -0.560743D-02 -0.303421D-02
     15  0.701324D-03 -0.456085D-02 -0.601762D-02 -0.666103D-02  0.157964D-01
                6             7             8             9            10 
      6  0.462295D+00
      7 -0.331863D-01  0.261057D+00
      8  0.000000D+00  0.000000D+00  0.111327D+00
      9 -0.168402D+00 -0.159532D+00  0.000000D+00  0.271064D+00
     10  0.252124D-01 -0.119611D+00 -0.596538D-01  0.653290D-01  0.138868D+00
     11  0.431963D-02 -0.932343D-01 -0.503417D-01  0.689196D-01  0.834070D-01
     12  0.164710D-01  0.877416D-01  0.611411D-01 -0.896795D-01 -0.663521D-01
     13  0.252125D-01 -0.119611D+00  0.596539D-01  0.653294D-01  0.857242D-02
     14 -0.431963D-02  0.932343D-01 -0.503415D-01 -0.689197D-01 -0.554944D-02
     15  0.164711D-01  0.877420D-01 -0.611412D-01 -0.896799D-01 -0.154298D-01
               11            12            13            14            15 
     11  0.308962D+00
     12 -0.610395D-01  0.749373D-01
     13  0.554975D-02 -0.154298D-01  0.138869D+00
     14 -0.254771D+00  0.111340D-01 -0.834073D-01  0.308962D+00
     15 -0.111344D-01  0.428879D-02 -0.663525D-01  0.610400D-01  0.749376D-01
 Leave Link  703 at Sun Oct 23 07:42:41 2022, MaxMem=   939524096 cpu:       247.8
 (Enter /Local/ce_dana/g09/l716.exe)
 FrcOut:
 IF    =    36 IFX   =    51 IFXYZ =    66
 IFFX  =    81 IFFFX =   201 IFLen =    15
 IFFLen=   120 IFFFLn=     0 IEDerv=   201
 LEDerv=   773 IFroze=  1163 ICStrt= 49587
 Dipole        =-3.89820243D-01-1.75034371D-07-3.19332739D-02
 DipoleDeriv   =-1.23890061D+00 1.37488263D-07-1.52392971D-01
                -2.47181367D-08 9.50724591D-03 6.10555105D-08
                 7.73738106D-01-1.50720801D-07 1.53320715D-02
                 1.82212390D+00-1.89410448D-07 2.42085519D-01
                -3.63291058D-07-1.80154529D-03-2.27243562D-07
                -4.07823893D-01 7.97211129D-08 1.44443989D-01
                -3.88135745D-02-1.30664503D-07-1.88558920D-02
                 1.94529403D-07 2.86550913D-01 2.92534597D-07
                -6.98419933D-01 2.29915740D-07-3.57411340D-02
                -2.72204354D-01-6.28301267D-02-3.54183788D-02
                -1.96016835D-01-1.47128352D-01 7.78406678D-02
                 1.66252305D-01 1.58684279D-01-6.20172770D-02
                -2.72205364D-01 6.28303093D-02-3.54182765D-02
                 1.96017029D-01-1.47128262D-01-7.78407941D-02
                 1.66253415D-01-1.58684438D-01-6.20176491D-02
 Polarizability= 4.62017062D+01 2.89487060D-07 2.33477150D+01
                 1.53417908D-01-2.25100690D-06 2.16068521D+01
 VibFq2-Diag1:  N=     15 IV=           6 MDV=   939473447 NE2=    62631562
 Full mass-weighted force constant matrix:
 Low frequencies ---   -4.8949   -4.6084   -3.3649   -0.0014   -0.0011    0.0004
 Low frequencies ---   45.2908  302.4686  312.2904
 OrtVCM:  Ph=1 IPass= 1 DotMx1= 0.00D+00
 OrtVCM:  IS=    1 I=    1 IndO=    1 Dot= 1.00D+00 DotN= 1.00D+00 ElMax1= 4.59D-01 ElMax1N= 4.59D-01
 OrtVCM:  Ph=2 NNew=    0 IAdd=    2 IPass= 1 DotMx2= 0.00D+00
 OrtVCM:  IS=    1 I=    2 IndO=    2 Dot= 1.00D+00 DotN= 1.00D+00 ElMax1= 4.59D-01 ElMax1N= 4.59D-01
 OrtVCM:  Ph=2 NNew=    0 IAdd=    3 IPass= 1 DotMx2= 0.00D+00
 OrtVCM:  IS=    1 I=    3 IndO=    3 Dot= 1.00D+00 DotN= 1.00D+00 ElMax1= 4.59D-01 ElMax1N= 4.59D-01
 OrtVCM:  Ph=2 NNew=    0 IAdd=    4 IPass= 1 DotMx2= 6.25D-17
 OrtVCM:  IS=    1 I=    4 IndO=    4 Dot= 1.00D+00 DotN= 1.00D+00 ElMax1= 5.73D-01 ElMax1N= 5.73D-01
 OrtVCM:  Ph=2 NNew=    0 IAdd=    5 IPass= 1 DotMx2= 4.92D-16
 OrtVCM:  IS=    1 I=    5 IndO=    5 Dot= 1.00D+00 DotN= 1.00D+00 ElMax1= 6.72D-01 ElMax1N= 6.72D-01
 OrtVCM:  Ph=2 NNew=    0 IAdd=    6 IPass= 1 DotMx2= 8.33D-17
 OrtVCM:  IS=    1 I=    6 IndO=    6 Dot= 1.00D+00 DotN= 1.00D+00 ElMax1= 6.53D-01 ElMax1N= 6.53D-01
 OrtVCM:  Ph=1 IPass= 1 DotMx1= 6.72D-01
 OrtVCM:  Ph=1 IPass= 2 DotMx1= 1.80D-16
 OrtVCM:  IS=    1 I=    1 IndO=    7 Dot= 7.88D-01 DotN= 7.88D-01 ElMax1= 7.88D-01 ElMax1N= 7.88D-01
 OrtVCM:  Ph=2 NNew=    0 IAdd=    2 IPass= 1 DotMx2= 1.59D-08
 OrtVCM:  Ph=2 NNew=    0 IAdd=    2 IPass= 2 DotMx2= 1.73D-18
 OrtVCM:  IS=    1 I=    2 IndO=    8 Dot= 3.54D-01 DotN= 3.54D-01 ElMax1= 3.62D-01 ElMax1N= 3.62D-01
 OrtVCM:  Ph=2 NNew=    0 IAdd=    3 IPass= 1 DotMx2= 3.14D-02
 OrtVCM:  Ph=2 NNew=    0 IAdd=    3 IPass= 2 DotMx2= 1.04D-17
 OrtVCM:  IS=    1 I=    3 IndO=    9 Dot= 3.37D-01 DotN= 3.37D-01 ElMax1= 4.06D-01 ElMax1N= 4.06D-01
 OrtVCM:  Ph=2 NNew=    0 IAdd=    4 IPass= 1 DotMx2= 2.15D-01
 OrtVCM:  Ph=2 NNew=    0 IAdd=    4 IPass= 2 DotMx2= 9.30D-17
 OrtVCM:  IS=    1 I=    4 IndO=   10 Dot= 7.22D-01 DotN= 7.22D-01 ElMax1= 7.22D-01 ElMax1N= 7.22D-01
 OrtVCM:  Ph=2 NNew=    0 IAdd=    5 IPass= 1 DotMx2= 6.08D-01
 OrtVCM:  Ph=2 NNew=    0 IAdd=    5 IPass= 2 DotMx2= 4.16D-17
 OrtVCM:  IS=    1 I=    5 IndO=   11 Dot= 2.42D-01 DotN= 2.42D-01 ElMax1= 2.42D-01 ElMax1N= 2.42D-01
 OrtVCM:  Ph=2 NNew=    0 IAdd=    6 IPass= 1 DotMx2= 6.99D-01
 OrtVCM:  Ph=2 NNew=    0 IAdd=    6 IPass= 2 DotMx2= 1.67D-16
 OrtVCM:  IS=    1 I=    6 IndO=   12 Dot= 1.98D-01 DotN= 1.98D-01 ElMax1= 3.11D-01 ElMax1N= 3.11D-01
 OrtVCM:  Ph=2 NNew=    0 IAdd=    7 IPass= 1 DotMx2= 4.44D-01
 OrtVCM:  Ph=2 NNew=    0 IAdd=    7 IPass= 2 DotMx2= 8.33D-17
 OrtVCM:  IS=    1 I=    7 IndO=   13 Dot= 4.31D-01 DotN= 4.31D-01 ElMax1= 4.31D-01 ElMax1N= 4.31D-01
 OrtVCM:  Ph=2 NNew=    0 IAdd=    8 IPass= 1 DotMx2= 3.69D-01
 OrtVCM:  Ph=2 NNew=    0 IAdd=    8 IPass= 2 DotMx2= 1.04D-16
 OrtVCM:  IS=    1 I=    8 IndO=   14 Dot= 3.82D-01 DotN= 3.82D-01 ElMax1= 3.82D-01 ElMax1N= 3.82D-01
 OrtVCM:  Ph=2 NNew=    0 IAdd=    9 IPass= 1 DotMx2= 7.01D-01
 OrtVCM:  Ph=2 NNew=    0 IAdd=    9 IPass= 2 DotMx2= 3.34D-16
 OrtVCM:  IS=    1 I=    9 IndO=    0 Dot= 6.73D-33 DotN= 6.73D-33 ElMax1= 5.98D-17 ElMax1N= 5.98D-17
 SchOr2:  IPass= 1 Test2A= 1.00D-01 IOff=     0 NDo=     9 NNew=     8
 OrtVCM:  Ph=1 IPass= 1 DotMx1= 4.79D-01
 OrtVCM:  Ph=1 IPass= 2 DotMx1= 2.79D-16
 OrtVCM:  IS=    1 I=    1 IndO=    0 Dot= 8.39D-14 DotN= 8.39D-14 ElMax1= 2.05D-07 ElMax1N= 2.05D-07
 SchOr2:  IPass= 1 Test2A= 1.00D-01 IOff=     9 NDo=     1 NNew=     0
 OrtVCM:  Ph=1 IPass= 1 DotMx1= 4.59D-01
 OrtVCM:  Ph=1 IPass= 2 DotMx1= 4.82D-17
 OrtVCM:  IS=    1 I=    1 IndO=   15 Dot= 5.00D-01 DotN= 5.00D-01 ElMax1= 5.00D-01 ElMax1N= 5.00D-01
 SchOr2:  IPass= 1 Test2A= 1.00D-01 IOff=    10 NDo=     1 NNew=     1
 VibFq2-Diag2:  N=      9 IV=           6 MDV=   939473447 NE2=   104385938
 Dipole derivatives wrt mode   1:  9.06113D-07 -7.17061D-01 -4.67484D-07
 Vibrational polarizability contributions from mode   1       0.0000000       6.7456708       0.0000000
 Vibrational hyperpolarizability contributions from mode   1       0.0000000      -0.0000000      -0.0000000
 Dipole derivatives wrt mode   2:  2.80729D+00  2.23300D-06  1.43796D+00
 Vibrational polarizability contributions from mode   2       2.3181764       0.0000000       0.6082318
 Vibrational hyperpolarizability contributions from mode   2       0.0000000       0.0000000       0.0000000
 Dipole derivatives wrt mode   3:  5.79039D+00 -2.33577D-07  4.08358D-02
 Vibrational polarizability contributions from mode   3       9.2519071       0.0000000       0.0004601
 Vibrational hyperpolarizability contributions from mode   3       0.0000000      -0.0000000       0.0000000
 Dipole derivatives wrt mode   4:  1.26398D-06 -9.14298D-01  1.11190D-06
 Vibrational polarizability contributions from mode   4       0.0000000       0.1495193       0.0000000
 Vibrational hyperpolarizability contributions from mode   4       0.0000000      -0.0000000       0.0000000
 Dipole derivatives wrt mode   5: -1.48922D-02  3.20394D+00 -4.24887D-03
 Vibrational polarizability contributions from mode   5       0.0000111       0.5160833       0.0000009
 Vibrational hyperpolarizability contributions from mode   5      -0.0000000       0.0000000      -0.0000000
 Dipole derivatives wrt mode   6:  3.34249D+00  1.42801D-02  9.54288D-01
 Vibrational polarizability contributions from mode   6       0.5616245       0.0000103       0.0457788
 Vibrational hyperpolarizability contributions from mode   6       0.0000000       0.0000000       0.0000000
 Dipole derivatives wrt mode   7:  4.77682D+00 -4.56330D-06  1.78361D+00
 Vibrational polarizability contributions from mode   7       0.8334950       0.0000000       0.1162051
 Vibrational hyperpolarizability contributions from mode   7       0.0000000      -0.0000000       0.0000000
 Dipole derivatives wrt mode   8:  6.09982D+00 -4.91903D-06 -2.63970D-01
 Vibrational polarizability contributions from mode   8       0.7321333       0.0000000       0.0013711
 Vibrational hyperpolarizability contributions from mode   8       0.0000000      -0.0000000      -0.0000000
 Dipole derivatives wrt mode   9: -1.76437D+01  2.18879D-06 -1.37941D+00
 Vibrational polarizability contributions from mode   9       2.6644125       0.0000000       0.0162858
 Vibrational hyperpolarizability contributions from mode   9      -0.0000000       0.0000000      -0.0000000
 Diagonal vibrational polarizability:
       16.3617599       7.4112837       0.7883337
 NorSel:  MapVib=      1      2      3      4      5      6      7      8      9
 Harmonic frequencies (cm**-1), IR intensities (KM/Mole), Raman scattering
 activities (A**4/AMU), depolarization ratios for plane and unpolarized
 incident light, reduced masses (AMU), force constants (mDyne/A),
 and normal coordinates:
                      1                      2                      3
                      A                      A                      A
 Frequencies --     45.2908               302.4686               312.2904
 Red. masses --     15.1346                14.8967                14.6767
 Frc consts  --      0.0183                 0.8030                 0.8433
 IR Inten    --      0.5142                 9.9486                33.5303
  Atom  AN      X      Y      Z        X      Y      Z        X      Y      Z
     1   8     0.00   0.57   0.00     0.23   0.00  -0.25     0.44  -0.00   0.31
     2   7     0.00  -0.53  -0.00     0.57  -0.00   0.32     0.27   0.00  -0.13
     3   7    -0.00  -0.39  -0.00     0.01   0.00   0.35    -0.57   0.00  -0.50
     4   8    -0.33   0.12   0.03    -0.37  -0.01  -0.17    -0.09  -0.00   0.12
     5   8     0.33   0.12  -0.03    -0.37   0.01  -0.17    -0.09   0.00   0.12
                      4                      5                      6
                      A                      A                      A
 Frequencies --    387.8874               731.6296               731.6672
 Red. masses --     15.0282                15.2076                14.9786
 Frc consts  --      1.3322                 4.7962                 4.7244
 IR Inten    --      0.8359                10.2655                12.0831
  Atom  AN      X      Y      Z        X      Y      Z        X      Y      Z
     1   8     0.00  -0.10  -0.00     0.00   0.02   0.00    -0.31   0.00  -0.14
     2   7     0.00   0.61   0.00    -0.00  -0.01  -0.00     0.18  -0.00   0.50
     3   7     0.00  -0.33   0.00     0.00   0.63   0.00    -0.47   0.00  -0.08
     4   8    -0.41  -0.07  -0.28    -0.38  -0.28   0.28     0.28  -0.31  -0.11
     5   8     0.41  -0.07   0.28     0.38  -0.28  -0.28     0.28   0.31  -0.11
                      7                      8                      9
                      A                      A                      A
 Frequencies --    858.3293              1169.4680              1773.1951
 Red. masses --     14.9976                15.0157                14.8478
 Frc consts  --      6.5100                12.0996                27.5059
 IR Inten    --     25.9993                37.2775               313.2044
  Atom  AN      X      Y      Z        X      Y      Z        X      Y      Z
     1   8    -0.27   0.00  -0.13    -0.07   0.00  -0.02     0.56  -0.00  -0.34
     2   7     0.18  -0.00   0.44     0.04  -0.00   0.09    -0.61  -0.00   0.45
     3   7     0.15  -0.00  -0.50     0.51  -0.00  -0.47    -0.04   0.00  -0.08
     4   8    -0.01   0.44   0.09    -0.21  -0.42   0.18     0.01  -0.00   0.01
     5   8    -0.01  -0.44   0.09    -0.21   0.42   0.18     0.01   0.00   0.01

 -------------------
 - Thermochemistry -
 -------------------
 Temperature   298.150 Kelvin.  Pressure   1.00000 Atm.
 Atom     1 has atomic number  8 and mass  15.99491
 Atom     2 has atomic number  7 and mass  14.00307
 Atom     3 has atomic number  7 and mass  14.00307
 Atom     4 has atomic number  8 and mass  15.99491
 Atom     5 has atomic number  8 and mass  15.99491
 Molecular mass:    75.99089 amu.
 Principal axes and moments of inertia in atomic units:
                           1         2         3
     Eigenvalues --    94.02667 489.50671 518.82019
           X            1.00000   0.00000  -0.00004
           Y           -0.00000   1.00000   0.00000
           Z            0.00004  -0.00000   1.00000
 This molecule is an asymmetric top.
 Rotational symmetry number  1.
 Rotational temperatures (Kelvin)      0.92116     0.17694     0.16694
 Rotational constants (GHZ):          19.19393     3.68686     3.47855
 Zero-point vibrational energy      37755.5 (Joules/Mol)
                                    9.02378 (Kcal/Mol)
 Warning -- explicit consideration of   4 degrees of freedom as
           vibrations may cause significant error
 Vibrational temperatures:     65.16   435.18   449.32   558.08  1052.65
          (Kelvin)           1052.70  1234.94  1682.60  2551.23
 
 Zero-point correction=                           0.014380 (Hartree/Particle)
 Thermal correction to Energy=                    0.019486
 Thermal correction to Enthalpy=                  0.020430
 Thermal correction to Gibbs Free Energy=        -0.014309
 Sum of electronic and zero-point Energies=           -334.772415
 Sum of electronic and thermal Energies=              -334.767310
 Sum of electronic and thermal Enthalpies=            -334.766365
 Sum of electronic and thermal Free Energies=         -334.801104
 
                     E (Thermal)             CV                S
                      KCal/Mol        Cal/Mol-Kelvin    Cal/Mol-Kelvin
 Total                   12.228             15.109             73.114
 Electronic               0.000              0.000              0.000
 Translational            0.889              2.981             38.900
 Rotational               0.889              2.981             24.683
 Vibrational             10.450              9.147              9.531
 Vibration     1          0.595              1.979              5.013
 Vibration     2          0.694              1.669              1.403
 Vibration     3          0.701              1.650              1.350
 Vibration     4          0.756              1.496              1.008
                       Q            Log10(Q)             Ln(Q)
 Total Bot       0.381562D+07          6.581565         15.154614
 Total V=0       0.157049D+14         13.196034         30.384992
 Vib (Bot)       0.264916D-05         -5.576892        -12.841269
 Vib (Bot)    1  0.456634D+01          0.659568          1.518711
 Vib (Bot)    2  0.627873D+00         -0.202128         -0.465418
 Vib (Bot)    3  0.604697D+00         -0.218462         -0.503028
 Vib (Bot)    4  0.463542D+00         -0.333911         -0.768858
 Vib (V=0)       0.109038D+02          1.037577          2.389110
 Vib (V=0)    1  0.509363D+01          0.707027          1.627991
 Vib (V=0)    2  0.130264D+01          0.114823          0.264390
 Vib (V=0)    3  0.128464D+01          0.108781          0.250478
 Vib (V=0)    4  0.118181D+01          0.072549          0.167051
 Electronic      0.100000D+01          0.000000          0.000000
 Translational   0.260374D+08          7.415598         17.075044
 Rotational      0.553171D+05          4.742860         10.920838
 
                                                         Nitrosodioxaziridine
                                                             IR Spectrum
 
     1                                           1                                                                                   
     7                                           1                     8       77                        3    33                     
     7                                           6                     5       33                        8    10                 4   
     3                                           9                     8       22                        8    22                 5   
 
     X                                           X                     X       XX                        X    XX                 X   
     X                                           X                     X                                      X                      
     X                                                                                                                               
     X                                                                                                                               
     X                                                                                                                               
     X                                                                                                                               
     X                                                                                                                               
     X                                                                                                                               
     X                                                                                                                               
     X                                                                                                                               
     X                                                                                                                               
     X                                                                                                                               
     X                                                                                                                               
     X                                                                                                                               
     X                                                                                                                               
     X                                                                                                                               
     X                                                                                                                               
     X                                                                                                                               
     X                                                                                                                               
     X                                                                                                                               
 
 Forces in standard orientation:
 -------------------------------------------------------------------
 Center     Atomic                   Forces (Hartrees/Bohr)
 Number     Number              X              Y              Z
 -------------------------------------------------------------------
      1        8           0.000000078   -0.000000091    0.000000408
      2        7          -0.000000279    0.000000129    0.000000856
      3        7           0.000000319   -0.000000179   -0.000000349
      4        8           0.000000005    0.000000110   -0.000000564
      5        8          -0.000000123    0.000000031   -0.000000351
 -------------------------------------------------------------------
 ***** Axes restored to original set *****
 Rotating derivatives, DoTrsp=F IDiff=-2 LEDeriv=    772 LFDPrp=       0 LDFDPr=       0.
 -------------------------------------------------------------------
 Center     Atomic                   Forces (Hartrees/Bohr)
 Number     Number              X              Y              Z
 -------------------------------------------------------------------
      1        8           0.000000021   -0.000000077    0.000000418
      2        7          -0.000000409   -0.000000411    0.000000700
      3        7           0.000000376    0.000000263   -0.000000212
      4        8           0.000000083    0.000000109   -0.000000558
      5        8          -0.000000071    0.000000115   -0.000000348
 -------------------------------------------------------------------
 Cartesian Forces:  Max     0.000000700 RMS     0.000000340
 Z-matrix is all fixed cartesians, so copy forces.
 Force constants in Cartesian coordinates: 
                1             2             3             4             5 
      1  0.810646D+00
      2  0.642010D-01  0.189032D-01
      3 -0.259341D+00 -0.498785D-01  0.154795D+00
      4 -0.724312D+00 -0.772916D-01  0.278825D+00  0.720156D+00
      5 -0.766837D-01 -0.306543D-01  0.694631D-01  0.926664D-01  0.674210D-01
      6  0.277371D+00  0.695425D-01 -0.208448D+00 -0.312116D+00 -0.105471D+00
      7 -0.539330D-01  0.372719D-02 -0.110177D-02  0.286833D-01 -0.755858D-03
      8  0.104067D-01  0.158234D-01 -0.251572D-01 -0.246991D-01 -0.374505D-01
      9 -0.170834D-01 -0.242842D-01  0.662134D-01  0.531886D-01  0.501740D-01
     10 -0.161875D-01  0.382678D-02 -0.948012D-02 -0.116439D-01  0.835201D-02
     11  0.219652D-02 -0.804795D-03  0.455089D-02 -0.249723D-03 -0.496920D-02
     12 -0.247740D-03 -0.191692D-02 -0.752473D-02 -0.109887D-01  0.924215D-02
     13 -0.162134D-01  0.553664D-02 -0.890206D-02 -0.128829D-01 -0.235789D-01
     14 -0.120517D-03 -0.326754D-02  0.102173D-02  0.957398D-02  0.565303D-02
     15 -0.698205D-03  0.653719D-02 -0.503620D-02 -0.890866D-02 -0.234080D-01
                6             7             8             9            10 
      6  0.321543D+00
      7 -0.409891D-02  0.307755D+00
      8  0.533029D-01  0.501515D-01  0.122974D+00
      9 -0.143521D+00 -0.145664D+00 -0.344206D-01  0.212719D+00
     10  0.258165D-01 -0.132680D+00  0.455508D-01  0.783502D-01  0.148169D+00
     11 -0.160067D-01  0.685731D-01 -0.203588D-01 -0.372659D-01 -0.571411D-01
     12  0.199042D-01  0.112380D+00 -0.357053D-01 -0.106593D+00 -0.797172D-01
     13  0.130282D-01 -0.149826D+00 -0.814099D-01  0.312082D-01  0.123425D-01
     14 -0.136748D-02 -0.121696D+00 -0.809884D-01  0.457968D-01 -0.588534D-03
     15  0.105213D-01  0.384845D-01  0.419801D-01 -0.288183D-01 -0.149693D-01
               11            12            13            14            15 
     11  0.242970D+00
     12  0.128401D+00  0.131629D+00
     13 -0.133789D-01 -0.214261D-01  0.166580D+00
     14 -0.216837D+00 -0.100021D+00  0.112831D+00  0.295440D+00
     15 -0.796788D-01 -0.374152D-01 -0.139083D-01  0.545695D-01  0.607484D-01
 Final forces over variables, Energy=-3.34786795D+02:
  2.05337554D-08-4.09204261D-07 3.76028579D-07 8.31676617D-08
 -7.05259668D-08-7.67875184D-08-4.10745346D-07 2.62956273D-07
  1.09174033D-07 1.15402587D-07 4.17629282D-07 7.00461478D-07
 -2.12244969D-07-5.57579485D-07-3.48266326D-07
 Leave Link  716 at Sun Oct 23 07:42:42 2022, MaxMem=   939524096 cpu:         0.1
 (Enter /Local/ce_dana/g09/l103.exe)

 GradGradGradGradGradGradGradGradGradGradGradGradGradGradGradGradGradGrad
 Berny optimization.
 Search for a local minimum.
 Step number   1 out of a maximum of    2
 All quantities printed in internal units (Hartrees-Bohrs-Radians)
 Second derivative matrix not updated -- analytic derivatives used.
 The second derivative matrix:
                          X1        Y1        Z1        X2        Y2
           X1           0.81065
           Y1           0.06420   0.01890
           Z1          -0.25934  -0.04988   0.15480
           X2          -0.72431  -0.07729   0.27883   0.72016
           Y2          -0.07668  -0.03065   0.06946   0.09267   0.06742
           Z2           0.27737   0.06954  -0.20845  -0.31212  -0.10547
           X3          -0.05393   0.00373  -0.00110   0.02868  -0.00076
           Y3           0.01041   0.01582  -0.02516  -0.02470  -0.03745
           Z3          -0.01708  -0.02428   0.06621   0.05319   0.05017
           X4          -0.01619   0.00383  -0.00948  -0.01164   0.00835
           Y4           0.00220  -0.00080   0.00455  -0.00025  -0.00497
           Z4          -0.00025  -0.00192  -0.00752  -0.01099   0.00924
           X5          -0.01621   0.00554  -0.00890  -0.01288  -0.02358
           Y5          -0.00012  -0.00327   0.00102   0.00957   0.00565
           Z5          -0.00070   0.00654  -0.00504  -0.00891  -0.02341
                          Z2        X3        Y3        Z3        X4
           Z2           0.32154
           X3          -0.00410   0.30776
           Y3           0.05330   0.05015   0.12297
           Z3          -0.14352  -0.14566  -0.03442   0.21272
           X4           0.02582  -0.13268   0.04555   0.07835   0.14817
           Y4          -0.01601   0.06857  -0.02036  -0.03727  -0.05714
           Z4           0.01990   0.11238  -0.03571  -0.10659  -0.07972
           X5           0.01303  -0.14983  -0.08141   0.03121   0.01234
           Y5          -0.00137  -0.12170  -0.08099   0.04580  -0.00059
           Z5           0.01052   0.03848   0.04198  -0.02882  -0.01497
                          Y4        Z4        X5        Y5        Z5
           Y4           0.24297
           Z4           0.12840   0.13163
           X5          -0.01338  -0.02143   0.16658
           Y5          -0.21684  -0.10002   0.11283   0.29544
           Z5          -0.07968  -0.03742  -0.01391   0.05457   0.06075
 ITU=  0
     Eigenvalues ---    0.00118   0.05162   0.05426   0.08580   0.30379
     Eigenvalues ---    0.30921   0.41878   0.78219   1.77366
 Angle between quadratic step and forces=  85.39 degrees.
 Linear search not attempted -- first point.
 TrRot=  0.000000  0.000001  0.000000  0.000000 -0.000000  0.000000
 Variable       Old X    -DE/DX   Delta X   Delta X   Delta X     New X
                                 (Linear)    (Quad)   (Total)
    X1        3.67686   0.00000   0.00000   0.00000   0.00000   3.67686
    Y1       -0.26660  -0.00000   0.00000   0.00004   0.00004  -0.26656
    Z1        0.24606   0.00000   0.00000   0.00001   0.00001   0.24608
    X2        1.65070  -0.00000   0.00000  -0.00000  -0.00000   1.65070
    Y2       -0.48413  -0.00000   0.00000  -0.00003  -0.00003  -0.48417
    Z2        1.03134   0.00000   0.00000  -0.00001  -0.00001   1.03132
    X3       -0.45327   0.00000   0.00000  -0.00000  -0.00000  -0.45327
    Y3        0.53020   0.00000   0.00000  -0.00002  -0.00002   0.53018
    Z3       -1.12066  -0.00000   0.00000  -0.00001  -0.00001  -1.12067
    X4       -2.36328   0.00000   0.00000   0.00002   0.00002  -2.36326
    Y4        1.46824   0.00000   0.00000   0.00001   0.00001   1.46825
    Z4        0.48968  -0.00000   0.00000   0.00000   0.00000   0.48969
    X5       -2.50304  -0.00000   0.00000  -0.00002  -0.00002  -2.50306
    Y5       -1.09065   0.00000   0.00000   0.00001   0.00001  -1.09064
    Z5       -0.57980  -0.00000   0.00000   0.00000   0.00000  -0.57980
         Item               Value     Threshold  Converged?
 Maximum Force            0.000001     0.000450     YES
 RMS     Force            0.000000     0.000300     YES
 Maximum Displacement     0.000040     0.001800     YES
 RMS     Displacement     0.000018     0.001200     YES
 Predicted change in Energy=-3.673189D-12
 Optimization completed.
    -- Stationary point found.
 GradGradGradGradGradGradGradGradGradGradGradGradGradGradGradGradGradGrad

 Leave Link  103 at Sun Oct 23 07:42:42 2022, MaxMem=   939524096 cpu:         0.0
 (Enter /Local/ce_dana/g09/l9999.exe)

 Test job not archived.
 1\1\GINC-TECH-WN090\Freq\RB2PLYPD3-FC\def2TZVP\N2O3\ALONGD\23-Oct-2022
 \0\\#P guess=read b2plypd3/def2tzvp freq IOp(7/33=1) scf=(tight, direc
 t) integral=(grid=ultrafine, Acc2E=12) IOp(2/9=2000) scf=xqc\\Nitrosod
 ioxaziridine\\0,1\O,1.945712,-0.141076,0.130211\N,0.873514,-0.256193,0
 .54576\N,-0.239859,0.280572,-0.59303\O,-1.250593,0.776958,0.259129\O,-
 1.324552,-0.577145,-0.306816\\Version=ES64L-G09RevD.01\State=1-A\HF=-3
 34.4078969\MP2=-334.7867955\RMSD=4.972e-09\RMSF=3.398e-07\ZeroPoint=0.
 0143803\Thermal=0.0194858\Dipole=0.3802384,-0.0522379,0.075296\DipoleD
 eriv=-1.2992531,0.1959663,-0.2978468,-0.1607185,0.0210329,-0.0065739,0
 .555571,-0.0531856,0.0641589,1.8047477,-0.2737759,0.4189656,-0.0234733
 ,0.0317629,-0.07724,-0.1799175,-0.0445306,0.1282557,0.0674137,0.011501
 7,0.001118,0.273225,0.2101459,0.1471044,-0.6250916,0.1813068,-0.065563
 4,-0.2718173,0.1125241,-0.0305525,0.1472005,-0.0745137,-0.0555683,0.19
 67972,-0.1653642,-0.135019,-0.3010911,-0.0462163,-0.0916842,-0.2362337
 ,-0.1884279,-0.0077221,0.0526409,0.0817737,0.0081677\Polar=45.5549339,
 -2.4836,23.3595756,3.0402934,0.2961788,22.2417638\PG=C01 [X(N2O3)]\NIm
 ag=0\\0.81064626,0.06420099,0.01890321,-0.25934118,-0.04987852,0.15479
 525,-0.72431242,-0.07729161,0.27882512,0.72015593,-0.07668367,-0.03065
 431,0.06946306,0.09266640,0.06742102,0.27737056,0.06954249,-0.20844770
 ,-0.31211637,-0.10547122,0.32154281,-0.05393296,0.00372719,-0.00110177
 ,0.02868329,-0.00075586,-0.00409891,0.30775529,0.01040667,0.01582343,-
 0.02515715,-0.02469906,-0.03745053,0.05330295,0.05015148,0.12297428,-0
 .01708344,-0.02428424,0.06621338,0.05318863,0.05017397,-0.14352062,-0.
 14566357,-0.03442062,0.21271877,-0.01618749,0.00382678,-0.00948012,-0.
 01164386,0.00835201,0.02581650,-0.13267977,0.04555079,0.07835017,0.148
 16865,0.00219652,-0.00080480,0.00455089,-0.00024972,-0.00496920,-0.016
 00674,0.06857312,-0.02035881,-0.03726595,-0.05714106,0.24297023,-0.000
 24774,-0.00191692,-0.00752473,-0.01098872,0.00924215,0.01990423,0.1123
 7976,-0.03570525,-0.10659326,-0.07971724,0.12840056,0.13162896,-0.0162
 1338,0.00553664,-0.00890206,-0.01288294,-0.02357889,0.01302821,-0.1498
 2585,-0.08140988,0.03120822,0.01234248,-0.01337886,-0.02142606,0.16657
 970,-0.00012052,-0.00326754,0.00102173,0.00957398,0.00565303,-0.001367
 48,-0.12169592,-0.08098837,0.04579684,-0.00058853,-0.21683742,-0.10002
 054,0.11283099,0.29544029,-0.00069820,0.00653719,-0.00503620,-0.008908
 66,-0.02340796,0.01052127,0.03848449,0.04198008,-0.02881827,-0.0149693
 1,-0.07967877,-0.03741520,-0.01390832,0.05456945,0.06074841\\-0.000000
 02,0.00000008,-0.00000042,0.00000041,0.00000041,-0.00000070,-0.0000003
 8,-0.00000026,0.00000021,-0.00000008,-0.00000011,0.00000056,0.00000007
 ,-0.00000012,0.00000035\\\@


 YOU SHOULDN'T LET PEOPLE DRIVE YOU CRAZY
 WHEN YOU KNOW IT'S WITHIN WALKING DISTANCE.
 Job cpu time:       0 days  0 hours 44 minutes 25.8 seconds.
 File lengths (MBytes):  RWF=   3306 Int=      0 D2E=      0 Chk=      3 Scr=      1
 Normal termination of Gaussian 09 at Sun Oct 23 07:42:43 2022.
