 Entering Gaussian System, Link 0=/Local/ce_dana/g09/g09
 Initial command:
 /Local/ce_dana/g09/l1.exe "/storage/ce_dana/alongd/scratch/g09/Gau-190144.inp" -scrdir="/storage/ce_dana/alongd/scratch/g09/"
 Entering Link 1 = /Local/ce_dana/g09/l1.exe PID=    190145.
  
 Copyright (c) 1988,1990,1992,1993,1995,1998,2003,2009,2013,
            Gaussian, Inc.  All Rights Reserved.
  
 This is part of the Gaussian(R) 09 program.  It is based on
 the Gaussian(R) 03 system (copyright 2003, Gaussian, Inc.),
 the Gaussian(R) 98 system (copyright 1998, Gaussian, Inc.),
 the Gaussian(R) 94 system (copyright 1995, Gaussian, Inc.),
 the Gaussian 92(TM) system (copyright 1992, Gaussian, Inc.),
 the Gaussian 90(TM) system (copyright 1990, Gaussian, Inc.),
 the Gaussian 88(TM) system (copyright 1988, Gaussian, Inc.),
 the Gaussian 86(TM) system (copyright 1986, Carnegie Mellon
 University), and the Gaussian 82(TM) system (copyright 1983,
 Carnegie Mellon University). Gaussian is a federally registered
 trademark of Gaussian, Inc.
  
 This software contains proprietary and confidential information,
 including trade secrets, belonging to Gaussian, Inc.
  
 This software is provided under written license and may be
 used, copied, transmitted, or stored only in accord with that
 written license.
  
 The following legend is applicable only to US Government
 contracts under FAR:
  
                    RESTRICTED RIGHTS LEGEND
  
 Use, reproduction and disclosure by the US Government is
 subject to restrictions as set forth in subparagraphs (a)
 and (c) of the Commercial Computer Software - Restricted
 Rights clause in FAR 52.227-19.
  
 Gaussian, Inc.
 340 Quinnipiac St., Bldg. 40, Wallingford CT 06492
  
  
 ---------------------------------------------------------------
 Warning -- This program may not be used in any manner that
 competes with the business of Gaussian, Inc. or will provide
 assistance to any competitor of Gaussian, Inc.  The licensee
 of this program is prohibited from giving any competitor of
 Gaussian, Inc. access to this program.  By using this program,
 the user acknowledges that Gaussian, Inc. is engaged in the
 business of creating and licensing software in the field of
 computational chemistry and represents and warrants to the
 licensee that it is not a competitor of Gaussian, Inc. and that
 it will not use this program in any manner prohibited above.
 ---------------------------------------------------------------
  

 Cite this work as:
 Gaussian 09, Revision D.01,
 M. J. Frisch, G. W. Trucks, H. B. Schlegel, G. E. Scuseria, 
 M. A. Robb, J. R. Cheeseman, G. Scalmani, V. Barone, B. Mennucci, 
 G. A. Petersson, H. Nakatsuji, M. Caricato, X. Li, H. P. Hratchian, 
 A. F. Izmaylov, J. Bloino, G. Zheng, J. L. Sonnenberg, M. Hada, 
 M. Ehara, K. Toyota, R. Fukuda, J. Hasegawa, M. Ishida, T. Nakajima, 
 Y. Honda, O. Kitao, H. Nakai, T. Vreven, J. A. Montgomery, Jr., 
 J. E. Peralta, F. Ogliaro, M. Bearpark, J. J. Heyd, E. Brothers, 
 K. N. Kudin, V. N. Staroverov, T. Keith, R. Kobayashi, J. Normand, 
 K. Raghavachari, A. Rendell, J. C. Burant, S. S. Iyengar, J. Tomasi, 
 M. Cossi, N. Rega, J. M. Millam, M. Klene, J. E. Knox, J. B. Cross, 
 V. Bakken, C. Adamo, J. Jaramillo, R. Gomperts, R. E. Stratmann, 
 O. Yazyev, A. J. Austin, R. Cammi, C. Pomelli, J. W. Ochterski, 
 R. L. Martin, K. Morokuma, V. G. Zakrzewski, G. A. Voth, 
 P. Salvador, J. J. Dannenberg, S. Dapprich, A. D. Daniels, 
 O. Farkas, J. B. Foresman, J. V. Ortiz, J. Cioslowski, 
 and D. J. Fox, Gaussian, Inc., Wallingford CT, 2013.
 
 ******************************************
 Gaussian 09:  ES64L-G09RevD.01 24-Apr-2013
                23-Oct-2022 
 ******************************************
 %chk=check.chk
 %mem=7168mb
 %NProcShared=10
 Will use up to   10 processors via shared memory.
 ----------------------------------------------------------------------
 #P opt=(modredundant, calcfc, noeigentest, maxStep=5) scf=(tight, dire
 ct) integral=(grid=ultrafine, Acc2E=12) guess=read b2plypd3/def2tzvp I
 Op(2/9=2000) scf=xqc
 ----------------------------------------------------------------------
 1/8=5,10=4,11=1,18=120,19=15,38=1/1,3;
 2/9=2000,12=2,17=6,18=5,40=1/2;
 3/5=44,7=101,11=9,16=1,25=1,30=1,71=2,74=-60,75=-5,116=-2,140=1/1,2,3;
 4/5=1/1;
 5/5=2,8=3,13=1,32=2,38=6,87=12/2,8;
 8/6=3,8=1,10=1,19=11,30=-1,87=12/1;
 9/15=3,16=-3,87=12/6;
 11/6=1,8=1,15=11,17=12,24=-1,27=1,28=-2,29=300,32=6,42=3,87=12/1,2,10;
 10/6=2,21=1,87=12/2;
 8/6=4,8=1,10=1,19=11,30=-1,87=12/11,4;
 10/5=1,20=4,87=12/2;
 11/12=2,14=11,16=1,17=2,28=-2,42=3,87=12/2,10,12;
 6/7=2,8=2,9=2,10=2/1;
 7/10=1,12=2,25=1,44=2,87=12/1,2,3,16;
 1/8=5,10=4,11=1,18=20,19=15/3(2);
 2/9=2000/2;
 99//99;
 2/9=2000/2;
 3/5=44,7=101,11=9,16=1,25=1,30=1,71=1,74=-60,75=-5/1,2,3;
 4/5=5,16=3,69=1/1;
 5/5=2,8=3,13=1,32=2,38=5,87=12/2,8;
 8/6=4,10=1,87=12/1;
 9/15=2,16=-3,87=12/6;
 10/5=1,87=12/2;
 7/12=2,87=12/1,2,3,16;
 1/8=5,11=1,18=20,19=15/3(-8);
 2/9=2000/2;
 6/7=2,8=2,9=2,10=2/1;
 99//99;
 Leave Link    1 at Sun Oct 23 07:35:35 2022, MaxMem=   939524096 cpu:         0.1
 (Enter /Local/ce_dana/g09/l101.exe)
 --------------------
 Nitrosodioxaziridine
 --------------------
 Symbolic Z-matrix:
 Charge =  0 Multiplicity = 1
 O                     1.94571  -0.14108   0.13021 
 N                     0.87351  -0.25619   0.54576 
 N                    -0.23986   0.28057  -0.59303 
 O                    -1.25059   0.77696   0.25913 
 O                    -1.32455  -0.57715  -0.30682 
 
 The following ModRedundant input section has been read:
 D       1       2       3       4 S  12 30.000                                
 
 Add atom      3 valence  3 ND=      2 dihedral       2      3      4      5
 NAtoms=      5 NQM=        5 NQMF=       0 NMMI=      0 NMMIF=      0
                NMic=       0 NMicF=      0.
                    Isotopes and Nuclear Properties:
 (Nuclear quadrupole moments (NQMom) in fm**2, nuclear magnetic moments (NMagM)
  in nuclear magnetons)

  Atom         1           2           3           4           5
 IAtWgt=          16          14          14          16          16
 AtmWgt=  15.9949146  14.0030740  14.0030740  15.9949146  15.9949146
 NucSpn=           0           2           2           0           0
 AtZEff=   0.0000000   0.0000000   0.0000000   0.0000000   0.0000000
 NQMom=    0.0000000   2.0440000   2.0440000   0.0000000   0.0000000
 NMagM=    0.0000000   0.4037610   0.4037610   0.0000000   0.0000000
 AtZNuc=   8.0000000   7.0000000   7.0000000   8.0000000   8.0000000
 Leave Link  101 at Sun Oct 23 07:35:36 2022, MaxMem=   939524096 cpu:         0.3
 (Enter /Local/ce_dana/g09/l103.exe)

 GradGradGradGradGradGradGradGradGradGradGradGradGradGradGradGradGradGrad
 Berny optimization.
 Initialization pass.
                           ----------------------------
                           !    Initial Parameters    !
                           ! (Angstroms and Degrees)  !
 --------------------------                            --------------------------
 ! Name  Definition              Value          Derivative Info.                !
 --------------------------------------------------------------------------------
 ! R1    R(1,2)                  1.1557         calculate D2E/DX2 analytically  !
 ! R2    R(2,3)                  1.6806         calculate D2E/DX2 analytically  !
 ! R3    R(3,4)                  1.4121         calculate D2E/DX2 analytically  !
 ! R4    R(3,5)                  1.4121         calculate D2E/DX2 analytically  !
 ! R5    R(4,5)                  1.4695         calculate D2E/DX2 analytically  !
 ! A1    A(1,2,3)              109.826          calculate D2E/DX2 analytically  !
 ! A2    A(2,3,4)              100.226          calculate D2E/DX2 analytically  !
 ! A3    A(2,3,5)              100.226          calculate D2E/DX2 analytically  !
 ! D1    D(1,2,3,4)           -148.0825         Scan                            !
 ! D2    D(1,2,3,5)            148.0826         calculate D2E/DX2 analytically  !
 ! D3    D(2,3,4,5)            -96.3101         calculate D2E/DX2 analytically  !
 --------------------------------------------------------------------------------
 Trust Radius=5.00D-02 FncErr=1.00D-07 GrdErr=1.00D-07
 Number of optimizations in scan=  13
 Number of steps in this run=     21 maximum allowed number of steps=    100.
 GradGradGradGradGradGradGradGradGradGradGradGradGradGradGradGradGradGrad

 Leave Link  103 at Sun Oct 23 07:35:36 2022, MaxMem=   939524096 cpu:         0.0
 (Enter /Local/ce_dana/g09/l202.exe)
                          Input orientation:                          
 ---------------------------------------------------------------------
 Center     Atomic      Atomic             Coordinates (Angstroms)
 Number     Number       Type             X           Y           Z
 ---------------------------------------------------------------------
      1          8           0        1.945712   -0.141076    0.130211
      2          7           0        0.873514   -0.256193    0.545760
      3          7           0       -0.239859    0.280572   -0.593030
      4          8           0       -1.250593    0.776958    0.259129
      5          8           0       -1.324552   -0.577145   -0.306816
 ---------------------------------------------------------------------
                    Distance matrix (angstroms):
                    1          2          3          4          5
     1  O    0.000000
     2  N    1.155656   0.000000
     3  N    2.340424   1.680642   0.000000
     4  O    3.328028   2.379367   1.412146   0.000000
     5  O    3.328029   2.379368   1.412146   1.469476   0.000000
 Stoichiometry    N2O3
 Framework group  C1[X(N2O3)]
 Deg. of freedom     9
 Full point group                 C1      NOp   1
 Largest Abelian subgroup         C1      NOp   1
 Largest concise Abelian subgroup C1      NOp   1
                         Standard orientation:                         
 ---------------------------------------------------------------------
 Center     Atomic      Atomic             Coordinates (Angstroms)
 Number     Number       Type             X           Y           Z
 ---------------------------------------------------------------------
      1          8           0       -1.967862    0.000000    0.121294
      2          7           0       -0.969963    0.000000   -0.461577
      3          7           0        0.319653   -0.000001    0.616128
      4          8           0        1.268441    0.734738   -0.128263
      5          8           0        1.268441   -0.734737   -0.128263
 ---------------------------------------------------------------------
 Rotational constants (GHZ):     19.1939297      3.6868569      3.4785485
 Leave Link  202 at Sun Oct 23 07:35:36 2022, MaxMem=   939524096 cpu:         0.0
 (Enter /Local/ce_dana/g09/l301.exe)
 Standard basis: def2TZVP (5D, 7F)
 Ernie: Thresh=  0.10000D-02 Tol=  0.10000D-05 Strict=F.
 There are   180 symmetry adapted cartesian basis functions of A   symmetry.
 There are   155 symmetry adapted basis functions of A   symmetry.
   155 basis functions,   255 primitive gaussians,   180 cartesian basis functions
    19 alpha electrons       19 beta electrons
       nuclear repulsion energy       164.0118730974 Hartrees.
 IExCor=  419 DFT=T Ex+Corr=B2PLYPD3 ExCW=0 ScaHFX=  0.530000
 ScaDFX=  0.470000  0.470000  0.730000  0.730000 ScalE2=  0.270000  0.270000
 IRadAn=      5 IRanWt=     -1 IRanGd=            0 ICorTp=0 IEmpDi=141
 NAtoms=    5 NActive=    5 NUniq=    5 SFac= 1.00D+00 NAtFMM=   60 NAOKFM=F Big=F
 Integral buffers will be    131072 words long.
 Regular integral format.
 Two-electron integral symmetry is turned on.
 R6Disp:  Grimme-D3(BJ) Dispersion energy=       -0.0018202720 Hartrees.
 Nuclear repulsion after empirical dispersion term =      164.0100528254 Hartrees.
 Leave Link  301 at Sun Oct 23 07:35:36 2022, MaxMem=   939524096 cpu:         0.1
 (Enter /Local/ce_dana/g09/l302.exe)
 NPDir=0 NMtPBC=     1 NCelOv=     1 NCel=       1 NClECP=     1 NCelD=      1
         NCelK=      1 NCelE2=     1 NClLst=     1 CellRange=     0.0.
 One-electron integrals computed using PRISM.
   1 Symmetry operations used in ECPInt.
 ECPInt:  NShTT=    1540 NPrTT=    5160 LenC2=    1511 LenP2D=    4144.
 LDataN:  DoStor=T MaxTD1= 6 Len=  172
 NBasis=   155 RedAO= T EigKep=  9.15D-04  NBF=   155
 NBsUse=   155 1.00D-06 EigRej= -1.00D+00 NBFU=   155
 Precomputing XC quadrature grid using
 IXCGrd= 4 IRadAn=           5 IRanWt=          -1 IRanGd=           0 AccXCQ= 0.00D+00.
 Generated NRdTot=       0 NPtTot=           0 NUsed=           0 NTot=          32
 NSgBfM=   179   179   179   179   179 MxSgAt=     5 MxSgA2=     5.
 Leave Link  302 at Sun Oct 23 07:35:36 2022, MaxMem=   939524096 cpu:         1.7
 (Enter /Local/ce_dana/g09/l303.exe)
 DipDrv:  MaxL=1.
 Leave Link  303 at Sun Oct 23 07:35:36 2022, MaxMem=   939524096 cpu:         0.1
 (Enter /Local/ce_dana/g09/l401.exe)
 Initial guess from the checkpoint file:  "check.chk"
 B after Tr=    -0.000000    0.000000    0.000000
         Rot=   -0.000000    0.000000   -0.000000    1.000000 Ang=-180.00 deg.
 Guess basis will be translated and rotated to current coordinates.
 JPrj=2 DoOrth=T DoCkMO=T.
 Leave Link  401 at Sun Oct 23 07:35:36 2022, MaxMem=   939524096 cpu:         0.5
 (Enter /Local/ce_dana/g09/l502.exe)
 Closed shell SCF:
 Using DIIS extrapolation, IDIIS=  1040.
 Integral symmetry usage will be decided dynamically.
 Keep R1 ints in memory in canonical form, NReq=76161117.
 IVT=      106242 IEndB=      106242 NGot=   939524096 MDV=   866327760
 LenX=   866327760 LenY=   866294919
 Requested convergence on RMS density matrix=1.00D-08 within  64 cycles.
 Requested convergence on MAX density matrix=1.00D-06.
 Requested convergence on             energy=1.00D-06.
 No special actions if energy rises.
 FoFCou: FMM=F IPFlag=           0 FMFlag=           0 FMFlg1=           0
         NFxFlg=           0 DoJE=F BraDBF=F KetDBF=F FulRan=T
         wScrn=  0.000000 ICntrl=     600 IOpCl=  0 I1Cent=           0 NGrid=           0
         NMat0=    1 NMatS0=  12090 NMatT0=    0 NMatD0=    1 NMtDS0=    0 NMtDT0=    0
 Symmetry not used in FoFCou.

 Cycle   1  Pass 1  IDiag  1:
 E= -334.407896877187    
 DIIS: error= 5.53D-08 at cycle   1 NSaved=   1.
 NSaved= 1 IEnMin= 1 EnMin= -334.407896877187     IErMin= 1 ErrMin= 5.53D-08
 ErrMax= 5.53D-08  0.00D+00 EMaxC= 1.00D-01 BMatC= 7.20D-13 BMatP= 7.20D-13
 IDIUse=1 WtCom= 1.00D+00 WtEn= 0.00D+00
 Coeff-Com:  0.100D+01
 Coeff:      0.100D+01
 Gap=     0.275 Goal=   None    Shift=    0.000
 RMSDP=4.97D-09 MaxDP=1.14D-07              OVMax= 2.10D-07

 SCF Done:  E(RB2PLYPD3) =  -334.407896877     A.U. after    1 cycles
            NFock=  1  Conv=0.50D-08     -V/T= 2.0033
 KE= 3.333019744467D+02 PE=-1.116247983094D+03 EE= 2.845280589448D+02
 Leave Link  502 at Sun Oct 23 07:35:38 2022, MaxMem=   939524096 cpu:        13.7
 (Enter /Local/ce_dana/g09/l508.exe)
 QCSCF skips out because SCF is already converged.
 Leave Link  508 at Sun Oct 23 07:35:39 2022, MaxMem=   939524096 cpu:         0.0
 (Enter /Local/ce_dana/g09/l801.exe)
 DoSCS=T DFT=T ScalE2(SS,OS)=  0.270000  0.270000
 ExpMin= 1.36D-01 ExpMax= 2.70D+04 ExpMxC= 9.22D+02 IAcc=3 IRadAn=         5 AccDes= 0.00D+00
 HarFok:  IExCor=  205 AccDes= 0.00D+00 IRadAn=         5 IDoV=-2 UseB2=F ITyADJ=14
 ICtDFT= 12500011 ScaDFX=  1.000000  1.000000  1.000000  1.000000
 Largest valence mixing into a core orbital is  1.07D-04
 Largest core mixing into a valence orbital is  2.38D-05
 Range of M.O.s used for correlation:     6   155
 NBasis=   155 NAE=    19 NBE=    19 NFC=     5 NFV=     0
 NROrb=    150 NOA=    14 NOB=    14 NVA=   136 NVB=   136

 **** Warning!!: The largest alpha MO coefficient is  0.11390015D+02

 Leave Link  801 at Sun Oct 23 07:35:39 2022, MaxMem=   939524096 cpu:         0.5
 (Enter /Local/ce_dana/g09/l906.exe)
 DoSCS=T DFT=T ScalE2(SS,OS)=  0.270000  0.270000
 Frozen-core derivative calculation, NFC=   5 NFV=   0.
 FulOut=F Deriv=T AODrv=T NAtomX=     5
   MMem=           0  MDisk=          14 MDiskD=          14
  W3Min=      530100 MinDsk=     1430510 NBas6D=         180
 NBas2D=       16710    NTT=       16290    LW2=     7400000
    MDV=   939236656 MDiskM=       26034 NBas2p=       16628
 Disk-based method using ON**2 memory for 14 occupieds at a time.
 Permanent disk used for amplitudes=     8246836 words.
 Estimated scratch disk usage=   149558276 words.
 IMap=   1   2   3   4   5   6   7   8   9  10  11  12  13  14  15  16  17  18  19
 Actual    scratch disk usage=   144845828 words.
 JobTyp=1 Pass  1:  I=   6 to  19 NPSUse= 10 ParTrn=T ParDer=T DoDerP=T.
 (rs|ai) integrals will be sorted in core.
 Spin components of T(2) and E(2):
     alpha-alpha T2 =       0.7258818595D-01 E2=     -0.5004681592D-01
     alpha-beta  T2 =       0.4119298748D+00 E2=     -0.2788049679D+00
     beta-beta   T2 =       0.7258818595D-01 E2=     -0.5004681592D-01
 The integrals were generated   1 times.
 E2(B2PLYPD3) =    -0.3788985997D+00 E(B2PLYPD3) =    -0.33478679547691D+03
 Leave Link  906 at Sun Oct 23 07:38:42 2022, MaxMem=   939524096 cpu:      1815.2
 (Enter /Local/ce_dana/g09/l1101.exe)
 Using compressed Sx but separate Hx and Fx, NAtomX=     5.
 Will process      6 centers per pass.
   1 Symmetry operations used in ECPInt.
 ECPInt:  NShTT=    1540 NPrTT=    5160 LenC2=    1511 LenP2D=    4144.
 LDataN:  DoStor=T MaxTD1= 7 Len=  274
 R6Disp: Adding Grimme-D3(BJ) dispersion energy 1st derivatives to the gradient.
 Leave Link 1101 at Sun Oct 23 07:38:43 2022, MaxMem=   939524096 cpu:         4.8
 (Enter /Local/ce_dana/g09/l1102.exe)
 Leave Link 1102 at Sun Oct 23 07:38:44 2022, MaxMem=   939524096 cpu:         0.0
 (Enter /Local/ce_dana/g09/l1110.exe)
 Forming Gx(P) for the SCF density, NAtomX=     5.
 Integral derivatives from FoFJK, PRISM(SPDF).
 Do as many integral derivatives as possible in FoFJK.
 G2DrvN: MDV=     939523952.
 G2DrvN: will do     6 centers at a time, making    1 passes.
 Calling FoFCou, ICntrl=  3107 FMM=F I1Cent=   0 AccDes= 1.00D-12.
 FoFJK:  IHMeth= 1 ICntrl=    3107 DoSepK=F KAlg= 0 I1Cent=   0 FoldK=F
 IRaf=         0 NMat=   1 IRICut=       1 DoRegI=T DoRafI=F ISym2E= 0.
 FoFCou: FMM=F IPFlag=           0 FMFlag=      100000 FMFlg1=           0
         NFxFlg=           0 DoJE=F BraDBF=F KetDBF=F FulRan=T
         wScrn=  0.000000 ICntrl=    3107 IOpCl=  0 I1Cent=           0 NGrid=           0
         NMat0=    1 NMatS0=      1 NMatT0=    0 NMatD0=    1 NMtDS0=    0 NMtDT0=    0
 Symmetry not used in FoFCou.
 End of G2Drv F.D. properties file   721 does not exist.
 End of G2Drv F.D. properties file   722 does not exist.
 End of G2Drv F.D. properties file   788 does not exist.
 Leave Link 1110 at Sun Oct 23 07:38:56 2022, MaxMem=   939524096 cpu:       125.8
 (Enter /Local/ce_dana/g09/l1002.exe)
 Minotr:  Closed shell wavefunction.
          IDoAtm=11111
          Frozen-core window.
          Direct CPHF calculation.
          Differentiating once with respect to electric field.
                with respect to dipole field.
          Differentiating once with respect to nuclear coordinates.
          Requested convergence is 1.0D-08 RMS, and 1.0D-07 maximum.
          Secondary convergence is 1.0D-12 RMS, and 1.0D-12 maximum.
          NewPWx=T KeepS1=T KeepF1=T KeepIn=T MapXYZ=F SortEE=F KeepMc=T.
          MDV=     939523892 using IRadAn=       1.
 Generate precomputed XC quadrature information.
 Keep R1 ints in memory in canonical form, NReq=76057649.
 FoFCou: FMM=F IPFlag=           0 FMFlag=           0 FMFlg1=           0
         NFxFlg=           0 DoJE=F BraDBF=F KetDBF=F FulRan=T
         wScrn=  0.000000 ICntrl=     600 IOpCl=  0 I1Cent=           0 NGrid=           0
         NMat0=    1 NMatS0=  12090 NMatT0=    0 NMatD0=    1 NMtDS0=    0 NMtDT0=    0
 Symmetry not used in FoFCou.
          Solving linear equations simultaneously, MaxMat=       0.
          There are    18 degrees of freedom in the 1st order CPHF.  IDoFFX=6 NUNeed=    18.
     15 vectors produced by pass  0 Test12= 1.44D-14 5.56D-09 XBig12= 2.58D+01 3.56D+00.
 AX will form    15 AO Fock derivatives at one time.
     15 vectors produced by pass  1 Test12= 1.44D-14 5.56D-09 XBig12= 5.39D+00 8.81D-01.
     15 vectors produced by pass  2 Test12= 1.44D-14 5.56D-09 XBig12= 5.89D-01 2.40D-01.
     15 vectors produced by pass  3 Test12= 1.44D-14 5.56D-09 XBig12= 1.97D-02 3.33D-02.
     15 vectors produced by pass  4 Test12= 1.44D-14 5.56D-09 XBig12= 6.09D-04 6.69D-03.
     15 vectors produced by pass  5 Test12= 1.44D-14 5.56D-09 XBig12= 1.24D-05 1.06D-03.
     15 vectors produced by pass  6 Test12= 1.44D-14 5.56D-09 XBig12= 1.04D-07 7.56D-05.
     10 vectors produced by pass  7 Test12= 1.44D-14 5.56D-09 XBig12= 5.79D-10 6.21D-06.
      3 vectors produced by pass  8 Test12= 1.44D-14 5.56D-09 XBig12= 2.80D-12 5.44D-07.
      1 vectors produced by pass  9 Test12= 1.44D-14 5.56D-09 XBig12= 1.74D-14 4.04D-08.
 InvSVY:  IOpt=1 It=  1 EMax= 2.44D-15
 Solved reduced A of dimension   119 with    15 vectors.
 FullF1:  Do perturbations    1 to    18.
 Saving first derivative matrices.
 End of Minotr F.D. properties file   721 does not exist.
 End of Minotr F.D. properties file   722 does not exist.
 End of Minotr F.D. properties file   788 does not exist.
 Leave Link 1002 at Sun Oct 23 07:39:16 2022, MaxMem=   939524096 cpu:       188.9
 (Enter /Local/ce_dana/g09/l811.exe)
 MDV=   939524096.
 DoSCS=T DFT=T ScalE2(SS,OS)=  0.270000  0.270000
 Form MO integral derivatives with frozen-active canonical formalism.
 MOERI=1 MOERIx=1 NAtoms=     5 NAtomX=     5.
 Discarding MO integrals.
 MO basis two electron integral derivatives will not be stored on disk.
 IAlg= 3 DoFC=T DoPWx=T Debug=F.
 Frozen-core window:  NFC=   5 NFV=   0.
 Reordered first order wavefunction length =     13354112
 In DefCFB: NBatch=  1 ICI= 19 ICA=136 LFMax= 46
            Large arrays: LIAPS=   288374400 LIARS=   117210240 words.
 In StABat: MaxSiz= 36 MinSiz= 36 NAtomB=  5
 DoIAMN: NPSUse= 10.
 Leave Link  811 at Sun Oct 23 07:40:42 2022, MaxMem=   939524096 cpu:       641.5
 (Enter /Local/ce_dana/g09/l804.exe)
 Frozen-core window:  NFC=   5 NFV=   0.
 Closed-shell transformation, MDV=   939524096 ITran=4 ISComp=1.
 Semi-Direct transformation.
 ModeAB=           2 MOrb=            19 LenV=     938623203
 LASXX=     32424526 LTotXX=    32424526 LenRXX=    32424526
 LTotAB=    33046700 MaxLAS=    47974050 LenRXY=    47974050
 NonZer=    64849052 LenScr=    98048000 LnRSAI=           0
 LnScr1=           0 LExtra=           0 Total=    178446576
 MaxDsk=          -1 SrtSym=           F ITran=            4
 DoSDTr:  NPSUse= 10
 JobTyp=0 Pass  1:  I=   1 to  19.
 (rs|ai) integrals will be sorted in core.
 Complete sort for first half transformation.
 First half transformation complete.
 Begin second half transformation for I=  10.
 Begin second half transformation for I=  10.
 Complete sort for second half transformation.
 Second half transformation complete.
 SymMOI:  orbitals are not symmetric.
 DoSCS=T DFT=T ScalE2(SS,OS)=  0.270000  0.270000
 Spin components of T(2) and E(2):
     alpha-alpha T2 =       0.7258818595D-01 E2=     -0.5004681592D-01
     alpha-beta  T2 =       0.4119298748D+00 E2=     -0.2788049679D+00
     beta-beta   T2 =       0.7258818595D-01 E2=     -0.5004681592D-01
 E2(B2PLYPD3) =    -0.3788985997D+00 E(B2PLYPD3) =    -0.33478679547691D+03
 Leave Link  804 at Sun Oct 23 07:41:02 2022, MaxMem=   939524096 cpu:       114.5
 (Enter /Local/ce_dana/g09/l1002.exe)
 Minotr:  Closed shell wavefunction.
          Computing MP2/KS-MP2 derivatives.
          Using Z-Vector for PSCF gradient.
          Skipping F1 and S1 gradient terms here.
          IDoAtm=11111
          Frozen-core window.
          Direct CPHF calculation.
          Differentiating once with respect to electric field.
                with respect to dipole field.
          Differentiating once with respect to nuclear coordinates.
          Requested convergence is 1.0D-10 RMS, and 1.0D-09 maximum.
          NewPWx=T KeepS1=F KeepF1=F KeepIn=T MapXYZ=F SortEE=F KeepMc=T.
          MDV=     939523892 using IRadAn=       5.
 Using stored XC quadrature information.
 Keep R1 ints in memory in canonical form, NReq=76056172.
 FoFCou: FMM=F IPFlag=           0 FMFlag=           0 FMFlg1=           0
         NFxFlg=           0 DoJE=F BraDBF=F KetDBF=F FulRan=T
         wScrn=  0.000000 ICntrl=     600 IOpCl=  0 I1Cent=           0 NGrid=           0
         NMat0=    1 NMatS0=  12090 NMatT0=    0 NMatD0=    1 NMtDS0=    0 NMtDT0=    0
 Symmetry not used in FoFCou.
          Solving linear equations separately, MaxMat=       0.
          There are     1 degrees of freedom in the 1st order CPHF.  IDoFFX=0 NUNeed=     1.
 LinEq1:  Iter=  0 NonCon=     1 RMS=3.44D-03 Max=7.75D-02 NDo=     1
 AX will form     1 AO Fock derivatives at one time.
 LinEq1:  Iter=  1 NonCon=     1 RMS=1.57D-03 Max=4.24D-02 NDo=     1
 LinEq1:  Iter=  2 NonCon=     1 RMS=8.52D-04 Max=2.34D-02 NDo=     1
 LinEq1:  Iter=  3 NonCon=     1 RMS=4.77D-04 Max=8.97D-03 NDo=     1
 LinEq1:  Iter=  4 NonCon=     1 RMS=1.84D-04 Max=3.05D-03 NDo=     1
 LinEq1:  Iter=  5 NonCon=     1 RMS=1.02D-04 Max=1.93D-03 NDo=     1
 LinEq1:  Iter=  6 NonCon=     1 RMS=6.09D-05 Max=1.07D-03 NDo=     1
 LinEq1:  Iter=  7 NonCon=     1 RMS=2.53D-05 Max=2.73D-04 NDo=     1
 LinEq1:  Iter=  8 NonCon=     1 RMS=6.39D-06 Max=1.33D-04 NDo=     1
 LinEq1:  Iter=  9 NonCon=     1 RMS=1.40D-06 Max=3.83D-05 NDo=     1
 LinEq1:  Iter= 10 NonCon=     1 RMS=3.90D-07 Max=9.89D-06 NDo=     1
 LinEq1:  Iter= 11 NonCon=     1 RMS=1.12D-07 Max=2.03D-06 NDo=     1
 LinEq1:  Iter= 12 NonCon=     1 RMS=2.30D-08 Max=4.24D-07 NDo=     1
 LinEq1:  Iter= 13 NonCon=     1 RMS=9.45D-09 Max=1.72D-07 NDo=     1
 LinEq1:  Iter= 14 NonCon=     1 RMS=7.45D-09 Max=1.09D-07 NDo=     1
 LinEq1:  Iter= 15 NonCon=     1 RMS=1.88D-09 Max=2.34D-08 NDo=     1
 LinEq1:  Iter= 16 NonCon=     1 RMS=4.19D-10 Max=7.90D-09 NDo=     1
 LinEq1:  Iter= 17 NonCon=     1 RMS=8.20D-11 Max=1.15D-09 NDo=     1
 LinEq1:  Iter= 18 NonCon=     0 RMS=1.73D-11 Max=2.44D-10 NDo=     1
 Linear equations converged to 1.000D-10 1.000D-09 after    18 iterations.
 End of Minotr F.D. properties file   721 does not exist.
 End of Minotr F.D. properties file   722 does not exist.
 End of Minotr F.D. properties file   788 does not exist.
 Leave Link 1002 at Sun Oct 23 07:41:21 2022, MaxMem=   939524096 cpu:       158.6
 (Enter /Local/ce_dana/g09/l1102.exe)
 Use density number 2.
 Symmetrizing basis deriv contribution to polar:
 IMax=3 JMax=2 DiffMx= 0.00D+00
 Leave Link 1102 at Sun Oct 23 07:41:21 2022, MaxMem=   939524096 cpu:         0.1
 (Enter /Local/ce_dana/g09/l1110.exe)
 Forming Gx(P) for generalized density number  2 NAtomX=     5.
 Integral derivatives from FoFJK, PRISM(SPDF).
 Do as many integral derivatives as possible in FoFJK.
 G2DrvN: MDV=     939523952.
 G2DrvN: will do     6 centers at a time, making    1 passes.
 Calling FoFCou, ICntrl=  3107 FMM=F I1Cent=   0 AccDes= 1.00D-12.
 FoFJK:  IHMeth= 1 ICntrl=    3107 DoSepK=F KAlg= 0 I1Cent=   0 FoldK=F
 IRaf=         0 NMat=   1 IRICut=       1 DoRegI=T DoRafI=F ISym2E= 0.
 FoFCou: FMM=F IPFlag=           0 FMFlag=      100000 FMFlg1=           0
         NFxFlg=           0 DoJE=F BraDBF=F KetDBF=F FulRan=T
         wScrn=  0.000000 ICntrl=    3107 IOpCl=  0 I1Cent=           0 NGrid=           0
         NMat0=    1 NMatS0=      1 NMatT0=    0 NMatD0=    1 NMtDS0=    0 NMtDT0=    0
 Symmetry not used in FoFCou.
 End of G2Drv F.D. properties file   721 does not exist.
 End of G2Drv F.D. properties file   722 does not exist.
 End of G2Drv F.D. properties file   788 does not exist.
 Leave Link 1110 at Sun Oct 23 07:41:34 2022, MaxMem=   939524096 cpu:       133.0
 (Enter /Local/ce_dana/g09/l1112.exe)
 MP22nd: MDV=     939524096
 DoSCS=T DFT=T ScalE2(SS,OS)=  0.270000  0.270000
 Using stored XC quadrature information.
 This link is doing NAtomX=     5 total of    18 degrees of freedom.
 Using ON3 I/O method in MakUI.
 Frozen-core window:  NFC=   5 NFV=   0.
 Using Ix for Sx.
 Use MO integrals over full window.
 Using OV2 memory method for fx*t*t/D, MaxI=    19 DoOO2=F NP=  10.
 R2 and R3 integrals will be kept in memory, NReq=   268345170.
 FoFCou: FMM=F IPFlag=           0 FMFlag=           0 FMFlg1=           0
         NFxFlg=           0 DoJE=F BraDBF=F KetDBF=F FulRan=T
         wScrn=  0.000000 ICntrl=     600 IOpCl=  0 I1Cent=           0 NGrid=           0
         NMat0=    1 NMatS0=      1 NMatT0=    0 NMatD0=    1 NMtDS0=    0 NMtDT0=    0
 Symmetry not used in FoFCou.
 DD1Dir will call FoFMem   1 times, MxPair=       552
 NAB=   190 NAA=   171 NBB=     0.
 Symmetry is being used.
 FoFJK:  IHMeth= 1 ICntrl=       0 DoSepK=F KAlg= 0 I1Cent=   0 FoldK=F
 IRaf=         0 NMat=  18 IRICut=      45 DoRegI=T DoRafI=T ISym2E= 2.
 R6Disp: Adding Grimme-D3(BJ) dispersion energy 1st derivatives to the gradient.
 Discarding MO integrals.
 Leave Link 1112 at Sun Oct 23 07:43:08 2022, MaxMem=   939524096 cpu:       728.3
 (Enter /Local/ce_dana/g09/l601.exe)
 Copying SCF densities to generalized density rwf, IOpCl= 0 IROHF=0.

 **********************************************************************

            Population analysis using the SCF density.

 **********************************************************************

 Orbital symmetries:
       Occupied  (A) (A) (A) (A) (A) (A) (A) (A) (A) (A) (A) (A)
                 (A) (A) (A) (A) (A) (A) (A)
       Virtual   (A) (A) (A) (A) (A) (A) (A) (A) (A) (A) (A) (A)
                 (A) (A) (A) (A) (A) (A) (A) (A) (A) (A) (A) (A)
                 (A) (A) (A) (A) (A) (A) (A) (A) (A) (A) (A) (A)
                 (A) (A) (A) (A) (A) (A) (A) (A) (A) (A) (A) (A)
                 (A) (A) (A) (A) (A) (A) (A) (A) (A) (A) (A) (A)
                 (A) (A) (A) (A) (A) (A) (A) (A) (A) (A) (A) (A)
                 (A) (A) (A) (A) (A) (A) (A) (A) (A) (A) (A) (A)
                 (A) (A) (A) (A) (A) (A) (A) (A) (A) (A) (A) (A)
                 (A) (A) (A) (A) (A) (A) (A) (A) (A) (A) (A) (A)
                 (A) (A) (A) (A) (A) (A) (A) (A) (A) (A) (A) (A)
                 (A) (A) (A) (A) (A) (A) (A) (A) (A) (A) (A) (A)
                 (A) (A) (A) (A)
 The electronic state is 1-A.
 Alpha  occ. eigenvalues --  -19.88158 -19.87778 -19.87763 -15.06028 -15.02664
 Alpha  occ. eigenvalues --   -1.43870  -1.41441  -1.04730  -0.93761  -0.80364
 Alpha  occ. eigenvalues --   -0.68014  -0.63429  -0.60838  -0.58958  -0.54599
 Alpha  occ. eigenvalues --   -0.53068  -0.48167  -0.41071  -0.33933
 Alpha virt. eigenvalues --   -0.06458   0.01683   0.05815   0.07807   0.15143
 Alpha virt. eigenvalues --    0.24485   0.30207   0.33908   0.34402   0.39823
 Alpha virt. eigenvalues --    0.42008   0.42488   0.43027   0.44258   0.45258
 Alpha virt. eigenvalues --    0.51440   0.53025   0.54722   0.56457   0.59199
 Alpha virt. eigenvalues --    0.64345   0.65233   0.67489   0.78919   0.81825
 Alpha virt. eigenvalues --    0.90291   0.91699   1.02818   1.12398   1.20298
 Alpha virt. eigenvalues --    1.29006   1.37174   1.38670   1.46911   1.51939
 Alpha virt. eigenvalues --    1.59515   1.62726   1.67924   1.68598   1.72354
 Alpha virt. eigenvalues --    1.79666   1.88124   1.89557   1.92687   1.95137
 Alpha virt. eigenvalues --    2.00319   2.06492   2.08032   2.08437   2.11237
 Alpha virt. eigenvalues --    2.11988   2.13030   2.19817   2.24630   2.30321
 Alpha virt. eigenvalues --    2.45622   2.47593   2.63900   2.68532   2.70923
 Alpha virt. eigenvalues --    2.77174   2.83698   2.91656   2.93728   3.00775
 Alpha virt. eigenvalues --    3.03094   3.29766   3.36568   3.65196   3.66057
 Alpha virt. eigenvalues --    3.74276   3.80676   3.87523   3.89583   3.91630
 Alpha virt. eigenvalues --    3.96053   4.08561   4.09463   4.17345   4.35902
 Alpha virt. eigenvalues --    4.36060   4.47279   4.63219   4.71177   4.72232
 Alpha virt. eigenvalues --    4.76578   4.82659   4.85436   4.86835   4.89112
 Alpha virt. eigenvalues --    4.99039   5.03564   5.15263   5.19798   5.20597
 Alpha virt. eigenvalues --    5.24362   5.25237   5.29484   5.31659   5.37135
 Alpha virt. eigenvalues --    5.42519   5.46455   5.66453   5.69215   5.84892
 Alpha virt. eigenvalues --    5.89023   5.92146   5.94072   6.01335   6.19635
 Alpha virt. eigenvalues --    6.35751   6.36375   6.37436   6.39614   6.49142
 Alpha virt. eigenvalues --    6.54238   6.61688   6.62761   6.68847   6.81545
 Alpha virt. eigenvalues --    6.87056   6.92226   7.02558   7.06108   7.14472
 Alpha virt. eigenvalues --    7.19324   7.24800   7.35423   7.57090   7.65982
 Alpha virt. eigenvalues --    8.10447  32.07409  32.43887  44.16614  44.24894
 Alpha virt. eigenvalues --   44.42054
          Condensed to atoms (all electrons):
               1          2          3          4          5
     1  O    7.854301   0.318044  -0.057923   0.003098   0.003098
     2  N    0.318044   6.466327   0.022311  -0.007094  -0.007094
     3  N   -0.057923   0.022311   6.747871   0.087087   0.087086
     4  O    0.003098  -0.007094   0.087087   7.978887   0.038249
     5  O    0.003098  -0.007094   0.087086   0.038249   7.978887
 Mulliken charges:
               1
     1  O   -0.120619
     2  N    0.207505
     3  N    0.113568
     4  O   -0.100227
     5  O   -0.100227
 Sum of Mulliken charges =   0.00000
 Mulliken charges with hydrogens summed into heavy atoms:
               1
     1  O   -0.120619
     2  N    0.207505
     3  N    0.113568
     4  O   -0.100227
     5  O   -0.100227
 APT charges:
               1
     1  O   -0.404687
     2  N    0.654922
     3  N    0.070665
     4  O   -0.160450
     5  O   -0.160450
 Sum of APT charges =  -0.00000
 APT charges with hydrogens summed into heavy atoms:
               1
     1  O   -0.404687
     2  N    0.654922
     3  N    0.070665
     4  O   -0.160450
     5  O   -0.160450
 Electronic spatial extent (au):  <R**2>=            336.0023
 Charge=              0.0000 electrons
 Dipole moment (field-independent basis, Debye):
    X=             -1.0143    Y=             -0.0000    Z=             -0.0826  Tot=              1.0177
 Quadrupole moment (field-independent basis, Debye-Ang):
   XX=            -27.9289   YY=            -25.1188   ZZ=            -28.1228
   XY=              0.0000   XZ=              0.0490   YZ=              0.0000
 Traceless Quadrupole moment (field-independent basis, Debye-Ang):
   XX=             -0.8720   YY=              1.9380   ZZ=             -1.0660
   XY=              0.0000   XZ=              0.0490   YZ=              0.0000
 Octapole moment (field-independent basis, Debye-Ang**2):
  XXX=              1.4904  YYY=             -0.0000  ZZZ=             -1.2590  XYY=             -1.6778
  XXY=              0.0000  XXZ=             -1.3198  XZZ=              0.4384  YZZ=              0.0000
  YYZ=              0.2970  XYZ=             -0.0000
 Hexadecapole moment (field-independent basis, Debye-Ang**3):
 XXXX=           -280.4666 YYYY=            -49.8019 ZZZZ=            -47.1591 XXXY=              0.0000
 XXXZ=             -3.4754 YYYX=             -0.0000 YYYZ=              0.0000 ZZZX=             -2.2624
 ZZZY=              0.0000 XXYY=            -53.4056 XXZZ=            -52.4856 YYZZ=            -16.0912
 XXYZ=             -0.0000 YYXZ=             -0.6178 ZZXY=              0.0000
 N-N= 1.640100528254D+02 E-N=-1.116247983574D+03  KE= 3.333019744467D+02
  Exact polarizability:  46.202   0.000  23.348   0.153  -0.000  21.607
 Approx polarizability:  54.298  -0.000  35.181  -1.798  -0.000  28.289
 No NMR shielding tensors so no spin-rotation constants.
 Leave Link  601 at Sun Oct 23 07:43:09 2022, MaxMem=   939524096 cpu:         1.6
 (Enter /Local/ce_dana/g09/l701.exe)
 Compute integral second derivatives.
 ... and contract with generalized density number  2.
 R6Disp: Adding Grimme-D3(BJ) dispersion energy 2nd derivatives to the Hessian.
   1 Symmetry operations used in ECPInt.
 ECPInt:  NShTT=    1540 NPrTT=    5160 LenC2=    1511 LenP2D=    4144.
 LDataN:  DoStor=T MaxTD1= 8 Len=  415
 Leave Link  701 at Sun Oct 23 07:43:10 2022, MaxMem=   939524096 cpu:         5.2
 (Enter /Local/ce_dana/g09/l702.exe)
 L702 exits ... SP integral derivatives will be done elsewhere.
 Leave Link  702 at Sun Oct 23 07:43:10 2022, MaxMem=   939524096 cpu:         0.1
 (Enter /Local/ce_dana/g09/l703.exe)
 Compute integral second derivatives, UseDBF=F ICtDFT=           0.
 Integral derivatives from FoFJK, PRISM(SPDF).
 Calling FoFJK, ICntrl=  10100127 FMM=F ISym2X=0 I1Cent= 0 IOpClX= 0 NMat=1 NMatS=1 NMatT=0.
 FoFJK:  IHMeth= 1 ICntrl=10100127 DoSepK=F KAlg= 0 I1Cent=   0 FoldK=F
 IRaf=         0 NMat=   1 IRICut=       1 DoRegI=T DoRafI=F ISym2E= 0.
 FoFCou: FMM=F IPFlag=           0 FMFlag=      100000 FMFlg1=         800
         NFxFlg=           0 DoJE=F BraDBF=F KetDBF=F FulRan=T
         wScrn=  0.000000 ICntrl=10100127 IOpCl=  0 I1Cent=           0 NGrid=           0
         NMat0=    1 NMatS0=      1 NMatT0=    0 NMatD0=    1 NMtDS0=    0 NMtDT0=    0
 Symmetry not used in FoFCou.
 Leave Link  703 at Sun Oct 23 07:43:59 2022, MaxMem=   939524096 cpu:       486.8
 (Enter /Local/ce_dana/g09/l716.exe)
 Dipole        =-3.89820243D-01-1.75034814D-07-3.19332739D-02
 Polarizability= 4.62017062D+01 2.89494851D-07 2.33477150D+01
                 1.53417908D-01-2.25100692D-06 2.16068521D+01
 ***** Axes restored to original set *****
 -------------------------------------------------------------------
 Center     Atomic                   Forces (Hartrees/Bohr)
 Number     Number              X              Y              Z
 -------------------------------------------------------------------
      1        8           0.000000021   -0.000000077    0.000000418
      2        7          -0.000000409   -0.000000411    0.000000700
      3        7           0.000000376    0.000000263   -0.000000212
      4        8           0.000000083    0.000000109   -0.000000558
      5        8          -0.000000071    0.000000115   -0.000000348
 -------------------------------------------------------------------
 Cartesian Forces:  Max     0.000000700 RMS     0.000000340
 Force constants in Cartesian coordinates: 
                1             2             3             4             5 
      1  0.810646D+00
      2  0.642010D-01  0.189032D-01
      3 -0.259341D+00 -0.498785D-01  0.154795D+00
      4 -0.724312D+00 -0.772916D-01  0.278825D+00  0.720156D+00
      5 -0.766837D-01 -0.306543D-01  0.694631D-01  0.926664D-01  0.674210D-01
      6  0.277371D+00  0.695425D-01 -0.208448D+00 -0.312116D+00 -0.105471D+00
      7 -0.539330D-01  0.372719D-02 -0.110177D-02  0.286833D-01 -0.755858D-03
      8  0.104067D-01  0.158234D-01 -0.251572D-01 -0.246991D-01 -0.374505D-01
      9 -0.170834D-01 -0.242842D-01  0.662134D-01  0.531886D-01  0.501740D-01
     10 -0.161875D-01  0.382678D-02 -0.948012D-02 -0.116439D-01  0.835201D-02
     11  0.219652D-02 -0.804795D-03  0.455089D-02 -0.249723D-03 -0.496920D-02
     12 -0.247740D-03 -0.191692D-02 -0.752473D-02 -0.109887D-01  0.924215D-02
     13 -0.162134D-01  0.553664D-02 -0.890206D-02 -0.128829D-01 -0.235789D-01
     14 -0.120517D-03 -0.326754D-02  0.102173D-02  0.957398D-02  0.565303D-02
     15 -0.698205D-03  0.653719D-02 -0.503620D-02 -0.890866D-02 -0.234080D-01
                6             7             8             9            10 
      6  0.321543D+00
      7 -0.409891D-02  0.307755D+00
      8  0.533029D-01  0.501515D-01  0.122974D+00
      9 -0.143521D+00 -0.145664D+00 -0.344206D-01  0.212719D+00
     10  0.258165D-01 -0.132680D+00  0.455508D-01  0.783502D-01  0.148169D+00
     11 -0.160067D-01  0.685731D-01 -0.203588D-01 -0.372659D-01 -0.571411D-01
     12  0.199042D-01  0.112380D+00 -0.357053D-01 -0.106593D+00 -0.797172D-01
     13  0.130282D-01 -0.149826D+00 -0.814099D-01  0.312082D-01  0.123425D-01
     14 -0.136748D-02 -0.121696D+00 -0.809884D-01  0.457968D-01 -0.588534D-03
     15  0.105213D-01  0.384845D-01  0.419801D-01 -0.288183D-01 -0.149693D-01
               11            12            13            14            15 
     11  0.242970D+00
     12  0.128401D+00  0.131629D+00
     13 -0.133789D-01 -0.214261D-01  0.166580D+00
     14 -0.216837D+00 -0.100021D+00  0.112831D+00  0.295440D+00
     15 -0.796788D-01 -0.374152D-01 -0.139083D-01  0.545695D-01  0.607484D-01
 FormGI is forming the generalized inverse of G from B-inverse, IUseBI=4.
 Force constants in internal coordinates: 
                1             2             3             4             5 
      1  0.906469D+00
      2  0.796126D-01  0.580593D-01
      3  0.118210D-01  0.105094D-01  0.230362D+00
      4  0.118210D-01  0.105094D-01  0.199458D-01  0.231523D+00
      5 -0.440596D-02 -0.945801D-02  0.183443D-01  0.172299D-01  0.208687D+00
      6  0.634747D-01 -0.275317D-02  0.242892D-01  0.242892D-01 -0.744230D-02
      7  0.117311D-01  0.152627D-01  0.406590D-01  0.603006D-02 -0.137295D-01
      8  0.799923D-02  0.103653D-01  0.126224D-01  0.266580D-01 -0.170731D-01
      9 -0.263890D-02 -0.313462D-02 -0.240469D-01 -0.219844D-01  0.411970D-01
     10  0.263893D-02  0.313463D-02  0.201610D-01  0.253082D-01 -0.406569D-01
     11 -0.228758D-02 -0.300188D-02  0.121173D-01 -0.209673D-01  0.209113D-02
                6             7             8             9            10 
      6  0.363985D+00
      7  0.917514D-01  0.187054D+00
      8  0.594989D-01  0.466852D-01  0.608059D-01
      9  0.115889D-02  0.129939D-01 -0.577546D-02  0.170473D-01
     10 -0.115884D-02  0.378693D-02 -0.102601D-02 -0.129891D-01  0.155525D-01
     11 -0.197701D-01  0.426047D-01 -0.434867D-01  0.946857D-02  0.656385D-02
               11 
     11  0.701379D-01
 Leave Link  716 at Sun Oct 23 07:43:59 2022, MaxMem=   939524096 cpu:         0.1
 (Enter /Local/ce_dana/g09/l103.exe)

 GradGradGradGradGradGradGradGradGradGradGradGradGradGradGradGradGradGrad
 Berny optimization.
 Red2BG is reusing G-inverse.
 Internal  Forces:  Max     0.000000559 RMS     0.000000196
 Search for a local minimum.
 Step number   1 out of a maximum of   21 on scan point     1 out of    13
 All quantities printed in internal units (Hartrees-Bohrs-Radians)
 RMS Force = .20395D-06 SwitMx=.10000D-02 MixMth= 2
 Mixed Optimization -- En-DIIS/RFO-DIIS
 Second derivative matrix not updated -- analytic derivatives used.
 The second derivative matrix:
                          R1        R2        R3        R4        R5
           R1           0.90647
           R2           0.07961   0.05806
           R3           0.01182   0.01051   0.23036
           R4           0.01182   0.01051   0.01995   0.23152
           R5          -0.00441  -0.00946   0.01834   0.01723   0.20869
           A1           0.06347  -0.00275   0.02429   0.02429  -0.00744
           A2           0.01173   0.01526   0.04066   0.00603  -0.01373
           A3           0.00800   0.01037   0.01262   0.02666  -0.01707
           D1          -0.00264  -0.00313  -0.02405  -0.02198   0.04120
           D2           0.00264   0.00313   0.02016   0.02531  -0.04066
           D3          -0.00229  -0.00300   0.01212  -0.02097   0.00209
                          A1        A2        A3        D1        D2
           A1           0.36399
           A2           0.09175   0.18705
           A3           0.05950   0.04669   0.06081
           D1           0.00116   0.01299  -0.00578   0.01705
           D2          -0.00116   0.00379  -0.00103  -0.01299   0.01555
           D3          -0.01977   0.04260  -0.04349   0.00947   0.00656
                          D3
           D3           0.07014
 ITU=  0
     Eigenvalues ---    0.04490   0.09056   0.14613   0.20614   0.22881
     Eigenvalues ---    0.25633   0.42392   0.923021000.000001000.00000
     Eigenvalues --- 1000.00000
 RFO step:  Lambda= 0.00000000D+00 EMin= 4.49026637D-02
 Linear search not attempted -- first point.
 Iteration  1 RMS(Cart)=  0.00000105 RMS(Int)=  0.00000000
 Iteration  2 RMS(Cart)=  0.00000000 RMS(Int)=  0.00000000
 Iteration  1 RMS(Cart)=  0.00000000 RMS(Int)=  0.00000000
 ITry= 1 IFail=0 DXMaxC= 1.52D-06 DCOld= 1.00D+10 DXMaxT= 5.00D-02 DXLimC= 3.00D+00 Rises=F
 Variable       Old X    -DE/DX   Delta X   Delta X   Delta X     New X
                                 (Linear)    (Quad)   (Total)
    R1        2.18387   0.00000   0.00000   0.00000   0.00000   2.18387
    R2        3.17595   0.00000   0.00000   0.00000   0.00000   3.17595
    R3        2.66857  -0.00000   0.00000  -0.00000  -0.00000   2.66857
    R4        2.66857   0.00000   0.00000   0.00000   0.00000   2.66857
    R5        2.77691  -0.00000   0.00000  -0.00000  -0.00000   2.77691
    A1        1.91683  -0.00000   0.00000  -0.00000  -0.00000   1.91682
    A2        1.74927   0.00000   0.00000   0.00000   0.00000   1.74927
    A3        1.74927  -0.00000   0.00000   0.00000   0.00000   1.74927
    D1       -2.58453   0.00000   0.00000   0.00000  -0.00000  -2.58453
    D2        2.58453   0.00000   0.00000   0.00000   0.00000   2.58453
    D3       -1.68093   0.00000   0.00000   0.00000   0.00000  -1.68093
         Item               Value     Threshold  Converged?
 Maximum Force            0.000001     0.000450     YES
 RMS     Force            0.000000     0.000300     YES
 Maximum Displacement     0.000002     0.001800     YES
 RMS     Displacement     0.000001     0.001200     YES
 Predicted change in Energy=-7.564725D-13
 Optimization completed.
    -- Stationary point found.
                           ----------------------------
                           !   Optimized Parameters   !
                           ! (Angstroms and Degrees)  !
 --------------------------                            --------------------------
 ! Name  Definition              Value          Derivative Info.                !
 --------------------------------------------------------------------------------
 ! R1    R(1,2)                  1.1557         -DE/DX =    0.0                 !
 ! R2    R(2,3)                  1.6806         -DE/DX =    0.0                 !
 ! R3    R(3,4)                  1.4121         -DE/DX =    0.0                 !
 ! R4    R(3,5)                  1.4121         -DE/DX =    0.0                 !
 ! R5    R(4,5)                  1.4695         -DE/DX =    0.0                 !
 ! A1    A(1,2,3)              109.826          -DE/DX =    0.0                 !
 ! A2    A(2,3,4)              100.226          -DE/DX =    0.0                 !
 ! A3    A(2,3,5)              100.226          -DE/DX =    0.0                 !
 ! D1    D(1,2,3,4)           -148.0825         -DE/DX =    0.0                 !
 ! D2    D(1,2,3,5)            148.0826         -DE/DX =    0.0                 !
 ! D3    D(2,3,4,5)            -96.3101         -DE/DX =    0.0                 !
 --------------------------------------------------------------------------------
 Lowest energy point so far.  Saving SCF results.
 Iteration  1 RMS(Cart)=  0.03958590 RMS(Int)=  0.12699412
 Iteration  2 RMS(Cart)=  0.02286946 RMS(Int)=  0.11360777
 Iteration  3 RMS(Cart)=  0.01321167 RMS(Int)=  0.10802149
 Iteration  4 RMS(Cart)=  0.00770174 RMS(Int)=  0.10563844
 Iteration  5 RMS(Cart)=  0.00451131 RMS(Int)=  0.10456725
 Iteration  6 RMS(Cart)=  0.00264994 RMS(Int)=  0.10405424
 Iteration  7 RMS(Cart)=  0.00155916 RMS(Int)=  0.10379335
 Iteration  8 RMS(Cart)=  0.00091828 RMS(Int)=  0.10365403
 Iteration  9 RMS(Cart)=  0.00054114 RMS(Int)=  0.10357693
 Iteration 10 RMS(Cart)=  0.00031901 RMS(Int)=  0.10353322
 Iteration 11 RMS(Cart)=  0.00018809 RMS(Int)=  0.10350805
 Iteration 12 RMS(Cart)=  0.00011092 RMS(Int)=  0.10349343
 Iteration 13 RMS(Cart)=  0.00006541 RMS(Int)=  0.10348487
 Iteration 14 RMS(Cart)=  0.00003858 RMS(Int)=  0.10347985
 Iteration 15 RMS(Cart)=  0.00002275 RMS(Int)=  0.10347690
 Iteration 16 RMS(Cart)=  0.00001342 RMS(Int)=  0.10347516
 Iteration 17 RMS(Cart)=  0.00000791 RMS(Int)=  0.10347414
 Iteration 18 RMS(Cart)=  0.00000467 RMS(Int)=  0.10347354
 Iteration 19 RMS(Cart)=  0.00000275 RMS(Int)=  0.10347318
 Iteration 20 RMS(Cart)=  0.00000162 RMS(Int)=  0.10347297
 Iteration 21 RMS(Cart)=  0.00000096 RMS(Int)=  0.10347285
 Iteration  1 RMS(Cart)=  0.03965063 RMS(Int)=  0.05015224
 Iteration  2 RMS(Cart)=  0.02666875 RMS(Int)=  0.05234481
 Iteration  3 RMS(Cart)=  0.01110022 RMS(Int)=  0.05824482
 Iteration  4 RMS(Cart)=  0.00458025 RMS(Int)=  0.06130038
 Iteration  5 RMS(Cart)=  0.00188378 RMS(Int)=  0.06264412
 Iteration  6 RMS(Cart)=  0.00077377 RMS(Int)=  0.06320961
 Iteration  7 RMS(Cart)=  0.00031767 RMS(Int)=  0.06344398
 Iteration  8 RMS(Cart)=  0.00013039 RMS(Int)=  0.06354054
 Iteration  9 RMS(Cart)=  0.00005351 RMS(Int)=  0.06358024
 Iteration 10 RMS(Cart)=  0.00002196 RMS(Int)=  0.06359654
 Iteration 11 RMS(Cart)=  0.00000901 RMS(Int)=  0.06360323
 Iteration 12 RMS(Cart)=  0.00000370 RMS(Int)=  0.06360598
 Iteration 13 RMS(Cart)=  0.00000152 RMS(Int)=  0.06360710
 Iteration 14 RMS(Cart)=  0.00000062 RMS(Int)=  0.06360757
 GradGradGradGradGradGradGradGradGradGradGradGradGradGradGradGradGradGrad

 Leave Link  103 at Sun Oct 23 07:43:59 2022, MaxMem=   939524096 cpu:         0.1
 (Enter /Local/ce_dana/g09/l202.exe)
                          Input orientation:                          
 ---------------------------------------------------------------------
 Center     Atomic      Atomic             Coordinates (Angstroms)
 Number     Number       Type             X           Y           Z
 ---------------------------------------------------------------------
      1          8           0        1.914510    0.024923    0.200898
      2          7           0        0.876560   -0.421449    0.463893
      3          7           0       -0.286095    0.199349   -0.579623
      4          8           0       -1.138535    0.864178    0.248384
      5          8           0       -1.362217   -0.583886   -0.298299
 ---------------------------------------------------------------------
                    Distance matrix (angstroms):
                    1          2          3          4          5
     1  O    0.000000
     2  N    1.160067   0.000000
     3  N    2.341431   1.681096   0.000000
     4  O    3.166653   2.399977   1.361708   0.000000
     5  O    3.369983   2.370536   1.360381   1.563901   0.000000
 Stoichiometry    N2O3
 Framework group  C1[X(N2O3)]
 Deg. of freedom     9
 Full point group                 C1      NOp   1
 RotChk:  IX=0 Diff= 2.00D-01
 Largest Abelian subgroup         C1      NOp   1
 Largest concise Abelian subgroup C1      NOp   1
                         Standard orientation:                         
 ---------------------------------------------------------------------
 Center     Atomic      Atomic             Coordinates (Angstroms)
 Number     Number       Type             X           Y           Z
 ---------------------------------------------------------------------
      1          8           0       -1.931144    0.123518    0.115535
      2          7           0       -0.976883   -0.281370   -0.405240
      3          7           0        0.363764    0.010723    0.566064
      4          8           0        1.139947    0.829981   -0.195909
      5          8           0        1.327676   -0.716683   -0.060347
 ---------------------------------------------------------------------
 Rotational constants (GHZ):     17.8829586      3.8426574      3.4990293
 Leave Link  202 at Sun Oct 23 07:43:59 2022, MaxMem=   939524096 cpu:         0.0
 (Enter /Local/ce_dana/g09/l301.exe)
 Standard basis: def2TZVP (5D, 7F)
 Ernie: Thresh=  0.10000D-02 Tol=  0.10000D-05 Strict=F.
 There are   180 symmetry adapted cartesian basis functions of A   symmetry.
 There are   155 symmetry adapted basis functions of A   symmetry.
   155 basis functions,   255 primitive gaussians,   180 cartesian basis functions
    19 alpha electrons       19 beta electrons
       nuclear repulsion energy       164.4203950892 Hartrees.
 IExCor=  419 DFT=T Ex+Corr=B2PLYPD3 ExCW=0 ScaHFX=  0.530000
 ScaDFX=  0.470000  0.470000  0.730000  0.730000 ScalE2=  0.270000  0.270000
 IRadAn=      5 IRanWt=     -1 IRanGd=            0 ICorTp=0 IEmpDi=141
 NAtoms=    5 NActive=    5 NUniq=    5 SFac= 1.00D+00 NAtFMM=   60 NAOKFM=F Big=F
 Integral buffers will be    131072 words long.
 Regular integral format.
 Two-electron integral symmetry is turned on.
 R6Disp:  Grimme-D3(BJ) Dispersion energy=       -0.0018386180 Hartrees.
 Nuclear repulsion after empirical dispersion term =      164.4185564712 Hartrees.
 Leave Link  301 at Sun Oct 23 07:43:59 2022, MaxMem=   939524096 cpu:         0.1
 (Enter /Local/ce_dana/g09/l302.exe)
 NPDir=0 NMtPBC=     1 NCelOv=     1 NCel=       1 NClECP=     1 NCelD=      1
         NCelK=      1 NCelE2=     1 NClLst=     1 CellRange=     0.0.
 One-electron integrals computed using PRISM.
   1 Symmetry operations used in ECPInt.
 ECPInt:  NShTT=    1540 NPrTT=    5160 LenC2=    1511 LenP2D=    4154.
 LDataN:  DoStor=T MaxTD1= 6 Len=  172
 NBasis=   155 RedAO= T EigKep=  8.51D-04  NBF=   155
 NBsUse=   155 1.00D-06 EigRej= -1.00D+00 NBFU=   155
 Precomputing XC quadrature grid using
 IXCGrd= 4 IRadAn=           5 IRanWt=          -1 IRanGd=           0 AccXCQ= 0.00D+00.
 Generated NRdTot=       0 NPtTot=           0 NUsed=           0 NTot=          32
 NSgBfM=   179   179   179   179   179 MxSgAt=     5 MxSgA2=     5.
 Leave Link  302 at Sun Oct 23 07:43:59 2022, MaxMem=   939524096 cpu:         1.8
 (Enter /Local/ce_dana/g09/l303.exe)
 DipDrv:  MaxL=1.
 Leave Link  303 at Sun Oct 23 07:43:59 2022, MaxMem=   939524096 cpu:         0.1
 (Enter /Local/ce_dana/g09/l401.exe)
 Initial guess from the checkpoint file:  "check.chk"
 B after Tr=     0.000000   -0.000000   -0.000000
         Rot=    0.997689    0.065923   -0.005358   -0.015572 Ang=   7.79 deg.
 Guess basis will be translated and rotated to current coordinates.
 JPrj=2 DoOrth=T DoCkMO=T.
 Generating alternative initial guess.
 ExpMin= 1.36D-01 ExpMax= 2.70D+04 ExpMxC= 9.22D+02 IAcc=2 IRadAn=         4 AccDes= 0.00D+00
 Harris functional with IExCor=  419 and IRadAn=       4 diagonalized for initial guess.
 HarFok:  IExCor=  419 AccDes= 0.00D+00 IRadAn=         4 IDoV= 1 UseB2=F ITyADJ=14
 ICtDFT=  3500011 ScaDFX=  1.000000  1.000000  1.000000  1.000000
 FoFCou: FMM=F IPFlag=           0 FMFlag=      100000 FMFlg1=           0
         NFxFlg=           0 DoJE=T BraDBF=F KetDBF=T FulRan=T
         wScrn=  0.000000 ICntrl=     500 IOpCl=  0 I1Cent=   200000004 NGrid=           0
         NMat0=    1 NMatS0=      1 NMatT0=    0 NMatD0=    1 NMtDS0=    0 NMtDT0=    0
 Petite list used in FoFCou.
 Harris En= -334.997957603982    
 Leave Link  401 at Sun Oct 23 07:44:00 2022, MaxMem=   939524096 cpu:         3.0
 (Enter /Local/ce_dana/g09/l502.exe)
 Closed shell SCF:
 Using DIIS extrapolation, IDIIS=  1040.
 Integral symmetry usage will be decided dynamically.
 Keep R1 ints in memory in canonical form, NReq=76161117.
 IVT=      106242 IEndB=      106242 NGot=   939524096 MDV=   866327760
 LenX=   866327760 LenY=   866294919
 Requested convergence on RMS density matrix=1.00D-08 within  64 cycles.
 Requested convergence on MAX density matrix=1.00D-06.
 Requested convergence on             energy=1.00D-06.
 No special actions if energy rises.
 FoFCou: FMM=F IPFlag=           0 FMFlag=           0 FMFlg1=           0
         NFxFlg=           0 DoJE=F BraDBF=F KetDBF=F FulRan=T
         wScrn=  0.000000 ICntrl=     600 IOpCl=  0 I1Cent=           0 NGrid=           0
         NMat0=    1 NMatS0=  12090 NMatT0=    0 NMatD0=    1 NMtDS0=    0 NMtDT0=    0
 Symmetry not used in FoFCou.
 Integral accuracy reduced to 1.0D-05 until final iterations.

 Cycle   1  Pass 0  IDiag  1:
 E= -334.270618532732    
 DIIS: error= 2.64D-02 at cycle   1 NSaved=   1.
 NSaved= 1 IEnMin= 1 EnMin= -334.270618532732     IErMin= 1 ErrMin= 2.64D-02
 ErrMax= 2.64D-02  0.00D+00 EMaxC= 1.00D-01 BMatC= 8.86D-02 BMatP= 8.86D-02
 IDIUse=3 WtCom= 7.36D-01 WtEn= 2.64D-01
 Coeff-Com:  0.100D+01
 Coeff-En:   0.100D+01
 Coeff:      0.100D+01
 Recover alternate guess density for next cycle.
 RMSDP=2.75D-03 MaxDP=5.24D-02              OVMax= 0.00D+00

 Cycle   2  Pass 0  IDiag  1:
 E= -334.324426294638     Delta-E=       -0.053807761906 Rises=F Damp=F
 DIIS: error= 2.59D-02 at cycle   2 NSaved=   2.
 NSaved= 2 IEnMin= 2 EnMin= -334.324426294638     IErMin= 2 ErrMin= 2.59D-02
 ErrMax= 2.59D-02  0.00D+00 EMaxC= 1.00D-01 BMatC= 1.49D-01 BMatP= 8.86D-02
 IDIUse=2 WtCom= 0.00D+00 WtEn= 1.00D+00
 Coeff-En:   0.000D+00 0.100D+01
 Coeff:      0.000D+00 0.100D+01
 Gap=     0.283 Goal=   None    Shift=    0.000
 RMSDP=2.17D-03 MaxDP=6.54D-02 DE=-5.38D-02 OVMax= 1.43D-01

 Cycle   3  Pass 0  IDiag  1:
 E= -334.284285115384     Delta-E=        0.040141179253 Rises=F Damp=F
 DIIS: error= 3.79D-02 at cycle   3 NSaved=   3.
 NSaved= 3 IEnMin= 2 EnMin= -334.324426294638     IErMin= 2 ErrMin= 2.59D-02
 ErrMax= 3.79D-02  0.00D+00 EMaxC= 1.00D-01 BMatC= 1.69D-01 BMatP= 8.86D-02
 IDIUse=2 WtCom= 0.00D+00 WtEn= 1.00D+00
 Coeff-En:   0.000D+00 0.611D+00 0.389D+00
 Coeff:      0.000D+00 0.611D+00 0.389D+00
 Gap=     0.270 Goal=   None    Shift=    0.000
 RMSDP=1.29D-03 MaxDP=3.63D-02 DE= 4.01D-02 OVMax= 1.05D-01

 Cycle   4  Pass 0  IDiag  1:
 E= -334.398751318837     Delta-E=       -0.114466203452 Rises=F Damp=F
 DIIS: error= 4.77D-03 at cycle   4 NSaved=   4.
 NSaved= 4 IEnMin= 4 EnMin= -334.398751318837     IErMin= 4 ErrMin= 4.77D-03
 ErrMax= 4.77D-03  0.00D+00 EMaxC= 1.00D-01 BMatC= 2.22D-03 BMatP= 8.86D-02
 IDIUse=3 WtCom= 9.52D-01 WtEn= 4.77D-02
 Coeff-Com:  0.113D-01 0.366D-01 0.927D-01 0.859D+00
 Coeff-En:   0.000D+00 0.000D+00 0.000D+00 0.100D+01
 Coeff:      0.108D-01 0.349D-01 0.883D-01 0.866D+00
 Gap=     0.263 Goal=   None    Shift=    0.000
 RMSDP=2.24D-04 MaxDP=5.99D-03 DE=-1.14D-01 OVMax= 1.23D-02

 Cycle   5  Pass 0  IDiag  1:
 E= -334.400272224246     Delta-E=       -0.001520905409 Rises=F Damp=F
 DIIS: error= 9.68D-04 at cycle   5 NSaved=   5.
 NSaved= 5 IEnMin= 5 EnMin= -334.400272224246     IErMin= 5 ErrMin= 9.68D-04
 ErrMax= 9.68D-04  0.00D+00 EMaxC= 1.00D-01 BMatC= 2.57D-04 BMatP= 2.22D-03
 IDIUse=3 WtCom= 9.90D-01 WtEn= 9.68D-03
 Coeff-Com: -0.681D-03-0.564D-02 0.686D-02 0.255D+00 0.745D+00
 Coeff-En:   0.000D+00 0.000D+00 0.000D+00 0.000D+00 0.100D+01
 Coeff:     -0.674D-03-0.558D-02 0.680D-02 0.252D+00 0.747D+00
 Gap=     0.265 Goal=   None    Shift=    0.000
 RMSDP=8.12D-05 MaxDP=2.58D-03 DE=-1.52D-03 OVMax= 3.81D-03

 Cycle   6  Pass 0  IDiag  1:
 E= -334.400404474177     Delta-E=       -0.000132249931 Rises=F Damp=F
 DIIS: error= 4.59D-04 at cycle   6 NSaved=   6.
 NSaved= 6 IEnMin= 6 EnMin= -334.400404474177     IErMin= 6 ErrMin= 4.59D-04
 ErrMax= 4.59D-04  0.00D+00 EMaxC= 1.00D-01 BMatC= 7.63D-05 BMatP= 2.57D-04
 IDIUse=3 WtCom= 9.95D-01 WtEn= 4.59D-03
 Coeff-Com: -0.948D-03-0.564D-02-0.316D-02 0.810D-01 0.396D+00 0.533D+00
 Coeff-En:   0.000D+00 0.000D+00 0.000D+00 0.000D+00 0.107D+00 0.893D+00
 Coeff:     -0.943D-03-0.562D-02-0.314D-02 0.806D-01 0.395D+00 0.534D+00
 Gap=     0.264 Goal=   None    Shift=    0.000
 RMSDP=3.74D-05 MaxDP=9.05D-04 DE=-1.32D-04 OVMax= 2.62D-03

 Cycle   7  Pass 0  IDiag  1:
 E= -334.400463746536     Delta-E=       -0.000059272359 Rises=F Damp=F
 DIIS: error= 1.44D-04 at cycle   7 NSaved=   7.
 NSaved= 7 IEnMin= 7 EnMin= -334.400463746536     IErMin= 7 ErrMin= 1.44D-04
 ErrMax= 1.44D-04  0.00D+00 EMaxC= 1.00D-01 BMatC= 8.80D-06 BMatP= 7.63D-05
 IDIUse=3 WtCom= 9.99D-01 WtEn= 1.44D-03
 Coeff-Com: -0.252D-03-0.156D-02-0.286D-02-0.565D-02 0.228D-01 0.241D+00
 Coeff-Com:  0.746D+00
 Coeff-En:   0.000D+00 0.000D+00 0.000D+00 0.000D+00 0.000D+00 0.000D+00
 Coeff-En:   0.100D+01
 Coeff:     -0.251D-03-0.155D-02-0.286D-02-0.564D-02 0.228D-01 0.241D+00
 Coeff:      0.746D+00
 Gap=     0.264 Goal=   None    Shift=    0.000
 RMSDP=1.64D-05 MaxDP=3.23D-04 DE=-5.93D-05 OVMax= 1.13D-03

 Cycle   8  Pass 0  IDiag  1:
 E= -334.400472393681     Delta-E=       -0.000008647145 Rises=F Damp=F
 DIIS: error= 9.21D-05 at cycle   8 NSaved=   8.
 NSaved= 8 IEnMin= 8 EnMin= -334.400472393681     IErMin= 8 ErrMin= 9.21D-05
 ErrMax= 9.21D-05  0.00D+00 EMaxC= 1.00D-01 BMatC= 2.52D-06 BMatP= 8.80D-06
 IDIUse=1 WtCom= 1.00D+00 WtEn= 0.00D+00
 Coeff-Com:  0.290D-04 0.155D-03-0.128D-02-0.194D-01-0.710D-01 0.478D-01
 Coeff-Com:  0.435D+00 0.609D+00
 Coeff:      0.290D-04 0.155D-03-0.128D-02-0.194D-01-0.710D-01 0.478D-01
 Coeff:      0.435D+00 0.609D+00
 Gap=     0.264 Goal=   None    Shift=    0.000
 RMSDP=9.03D-06 MaxDP=1.96D-04 DE=-8.65D-06 OVMax= 5.87D-04

 Initial convergence to 1.0D-05 achieved.  Increase integral accuracy.
 Cycle   9  Pass 1  IDiag  1:
 E= -334.400474114783     Delta-E=       -0.000001721103 Rises=F Damp=F
 DIIS: error= 3.27D-05 at cycle   1 NSaved=   1.
 NSaved= 1 IEnMin= 1 EnMin= -334.400474114783     IErMin= 1 ErrMin= 3.27D-05
 ErrMax= 3.27D-05  0.00D+00 EMaxC= 1.00D-01 BMatC= 3.60D-07 BMatP= 3.60D-07
 IDIUse=1 WtCom= 1.00D+00 WtEn= 0.00D+00
 Coeff-Com:  0.100D+01
 Coeff:      0.100D+01
 Gap=     0.264 Goal=   None    Shift=    0.000
 RMSDP=9.03D-06 MaxDP=1.96D-04 DE=-1.72D-06 OVMax= 6.31D-04

 Cycle  10  Pass 1  IDiag  1:
 E= -334.400474129201     Delta-E=       -0.000000014417 Rises=F Damp=F
 DIIS: error= 6.37D-05 at cycle   2 NSaved=   2.
 NSaved= 2 IEnMin= 2 EnMin= -334.400474129201     IErMin= 1 ErrMin= 3.27D-05
 ErrMax= 6.37D-05  0.00D+00 EMaxC= 1.00D-01 BMatC= 9.26D-07 BMatP= 3.60D-07
 IDIUse=1 WtCom= 1.00D+00 WtEn= 0.00D+00
 Coeff-Com:  0.629D+00 0.371D+00
 Coeff:      0.629D+00 0.371D+00
 Gap=     0.264 Goal=   None    Shift=    0.000
 RMSDP=3.00D-06 MaxDP=8.53D-05 DE=-1.44D-08 OVMax= 2.09D-04

 Cycle  11  Pass 1  IDiag  1:
 E= -334.400474823683     Delta-E=       -0.000000694483 Rises=F Damp=F
 DIIS: error= 1.37D-05 at cycle   3 NSaved=   3.
 NSaved= 3 IEnMin= 3 EnMin= -334.400474823683     IErMin= 3 ErrMin= 1.37D-05
 ErrMax= 1.37D-05  0.00D+00 EMaxC= 1.00D-01 BMatC= 2.72D-08 BMatP= 3.60D-07
 IDIUse=1 WtCom= 1.00D+00 WtEn= 0.00D+00
 Coeff-Com:  0.961D-02 0.552D-01 0.935D+00
 Coeff:      0.961D-02 0.552D-01 0.935D+00
 Gap=     0.264 Goal=   None    Shift=    0.000
 RMSDP=2.32D-06 MaxDP=3.70D-05 DE=-6.94D-07 OVMax= 3.03D-04

 Cycle  12  Pass 1  IDiag  1:
 E= -334.400474943978     Delta-E=       -0.000000120295 Rises=F Damp=F
 DIIS: error= 1.05D-05 at cycle   4 NSaved=   4.
 NSaved= 4 IEnMin= 4 EnMin= -334.400474943978     IErMin= 4 ErrMin= 1.05D-05
 ErrMax= 1.05D-05  0.00D+00 EMaxC= 1.00D-01 BMatC= 1.58D-08 BMatP= 2.72D-08
 IDIUse=1 WtCom= 1.00D+00 WtEn= 0.00D+00
 Coeff-Com: -0.264D+00-0.138D+00 0.531D+00 0.871D+00
 Coeff:     -0.264D+00-0.138D+00 0.531D+00 0.871D+00
 Gap=     0.264 Goal=   None    Shift=    0.000
 RMSDP=2.36D-06 MaxDP=3.92D-05 DE=-1.20D-07 OVMax= 3.26D-04

 Cycle  13  Pass 1  IDiag  1:
 E= -334.400475024221     Delta-E=       -0.000000080243 Rises=F Damp=F
 DIIS: error= 5.60D-06 at cycle   5 NSaved=   5.
 NSaved= 5 IEnMin= 5 EnMin= -334.400475024221     IErMin= 5 ErrMin= 5.60D-06
 ErrMax= 5.60D-06  0.00D+00 EMaxC= 1.00D-01 BMatC= 4.56D-09 BMatP= 1.58D-08
 IDIUse=1 WtCom= 1.00D+00 WtEn= 0.00D+00
 Coeff-Com: -0.151D+00-0.930D-01 0.254D-01 0.437D+00 0.782D+00
 Coeff:     -0.151D+00-0.930D-01 0.254D-01 0.437D+00 0.782D+00
 Gap=     0.264 Goal=   None    Shift=    0.000
 RMSDP=1.36D-06 MaxDP=1.97D-05 DE=-8.02D-08 OVMax= 1.93D-04

 Cycle  14  Pass 1  IDiag  1:
 E= -334.400475048513     Delta-E=       -0.000000024291 Rises=F Damp=F
 DIIS: error= 2.85D-06 at cycle   6 NSaved=   6.
 NSaved= 6 IEnMin= 6 EnMin= -334.400475048513     IErMin= 6 ErrMin= 2.85D-06
 ErrMax= 2.85D-06  0.00D+00 EMaxC= 1.00D-01 BMatC= 7.86D-10 BMatP= 4.56D-09
 IDIUse=1 WtCom= 1.00D+00 WtEn= 0.00D+00
 Coeff-Com:  0.137D+00 0.805D-01-0.156D+00-0.488D+00-0.195D+00 0.162D+01
 Coeff:      0.137D+00 0.805D-01-0.156D+00-0.488D+00-0.195D+00 0.162D+01
 Gap=     0.264 Goal=   None    Shift=    0.000
 RMSDP=1.13D-06 MaxDP=2.08D-05 DE=-2.43D-08 OVMax= 1.61D-04

 Cycle  15  Pass 1  IDiag  1:
 E= -334.400475056783     Delta-E=       -0.000000008270 Rises=F Damp=F
 DIIS: error= 7.74D-07 at cycle   7 NSaved=   7.
 NSaved= 7 IEnMin= 7 EnMin= -334.400475056783     IErMin= 7 ErrMin= 7.74D-07
 ErrMax= 7.74D-07  0.00D+00 EMaxC= 1.00D-01 BMatC= 1.09D-10 BMatP= 7.86D-10
 IDIUse=1 WtCom= 1.00D+00 WtEn= 0.00D+00
 Coeff-Com:  0.689D-01 0.419D-01-0.573D-01-0.244D+00-0.168D+00 0.568D+00
 Coeff-Com:  0.791D+00
 Coeff:      0.689D-01 0.419D-01-0.573D-01-0.244D+00-0.168D+00 0.568D+00
 Coeff:      0.791D+00
 Gap=     0.264 Goal=   None    Shift=    0.000
 RMSDP=2.48D-07 MaxDP=5.28D-06 DE=-8.27D-09 OVMax= 3.52D-05

 Cycle  16  Pass 1  IDiag  1:
 E= -334.400475057217     Delta-E=       -0.000000000434 Rises=F Damp=F
 DIIS: error= 3.73D-07 at cycle   8 NSaved=   8.
 NSaved= 8 IEnMin= 8 EnMin= -334.400475057217     IErMin= 8 ErrMin= 3.73D-07
 ErrMax= 3.73D-07  0.00D+00 EMaxC= 1.00D-01 BMatC= 3.81D-11 BMatP= 1.09D-10
 IDIUse=1 WtCom= 1.00D+00 WtEn= 0.00D+00
 Coeff-Com:  0.181D-01 0.114D-01-0.764D-02-0.604D-01-0.604D-01 0.547D-01
 Coeff-Com:  0.439D+00 0.605D+00
 Coeff:      0.181D-01 0.114D-01-0.764D-02-0.604D-01-0.604D-01 0.547D-01
 Coeff:      0.439D+00 0.605D+00
 Gap=     0.264 Goal=   None    Shift=    0.000
 RMSDP=5.23D-08 MaxDP=1.43D-06 DE=-4.34D-10 OVMax= 6.44D-06

 Cycle  17  Pass 1  IDiag  1:
 E= -334.400475057255     Delta-E=       -0.000000000039 Rises=F Damp=F
 DIIS: error= 1.73D-07 at cycle   9 NSaved=   9.
 NSaved= 9 IEnMin= 9 EnMin= -334.400475057255     IErMin= 9 ErrMin= 1.73D-07
 ErrMax= 1.73D-07  0.00D+00 EMaxC= 1.00D-01 BMatC= 3.32D-12 BMatP= 3.81D-11
 IDIUse=1 WtCom= 1.00D+00 WtEn= 0.00D+00
 Coeff-Com:  0.590D-03 0.535D-03 0.241D-02-0.243D-02-0.927D-02-0.332D-01
 Coeff-Com:  0.135D+00 0.275D+00 0.631D+00
 Coeff:      0.590D-03 0.535D-03 0.241D-02-0.243D-02-0.927D-02-0.332D-01
 Coeff:      0.135D+00 0.275D+00 0.631D+00
 Gap=     0.264 Goal=   None    Shift=    0.000
 RMSDP=1.34D-08 MaxDP=2.92D-07 DE=-3.85D-11 OVMax= 1.44D-06

 Cycle  18  Pass 1  IDiag  1:
 E= -334.400475057259     Delta-E=       -0.000000000004 Rises=F Damp=F
 DIIS: error= 4.54D-08 at cycle  10 NSaved=  10.
 NSaved=10 IEnMin=10 EnMin= -334.400475057259     IErMin=10 ErrMin= 4.54D-08
 ErrMax= 4.54D-08  0.00D+00 EMaxC= 1.00D-01 BMatC= 7.18D-13 BMatP= 3.32D-12
 IDIUse=1 WtCom= 1.00D+00 WtEn= 0.00D+00
 Coeff-Com: -0.443D-02-0.281D-02 0.325D-02 0.151D-01 0.125D-01-0.310D-01
 Coeff-Com: -0.607D-01-0.706D-01 0.253D+00 0.885D+00
 Coeff:     -0.443D-02-0.281D-02 0.325D-02 0.151D-01 0.125D-01-0.310D-01
 Coeff:     -0.607D-01-0.706D-01 0.253D+00 0.885D+00
 Gap=     0.264 Goal=   None    Shift=    0.000
 RMSDP=1.01D-08 MaxDP=1.78D-07 DE=-4.09D-12 OVMax= 1.05D-06

 Cycle  19  Pass 1  IDiag  1:
 E= -334.400475057258     Delta-E=        0.000000000001 Rises=F Damp=F
 DIIS: error= 2.35D-08 at cycle  11 NSaved=  11.
 NSaved=11 IEnMin=10 EnMin= -334.400475057259     IErMin=11 ErrMin= 2.35D-08
 ErrMax= 2.35D-08  0.00D+00 EMaxC= 1.00D-01 BMatC= 7.46D-14 BMatP= 7.18D-13
 IDIUse=1 WtCom= 1.00D+00 WtEn= 0.00D+00
 Coeff-Com:  0.121D-02 0.651D-03-0.122D-02-0.433D-02-0.233D-02 0.180D-01
 Coeff-Com: -0.887D-02-0.413D-01-0.194D+00-0.288D+00 0.152D+01
 Coeff:      0.121D-02 0.651D-03-0.122D-02-0.433D-02-0.233D-02 0.180D-01
 Coeff:     -0.887D-02-0.413D-01-0.194D+00-0.288D+00 0.152D+01
 Gap=     0.264 Goal=   None    Shift=    0.000
 RMSDP=7.73D-09 MaxDP=1.74D-07 DE= 1.02D-12 OVMax= 8.29D-07

 SCF Done:  E(RB2PLYPD3) =  -334.400475057     A.U. after   19 cycles
            NFock= 19  Conv=0.77D-08     -V/T= 2.0031
 KE= 3.333616256990D+02 PE=-1.117036097325D+03 EE= 2.848554400973D+02
 Leave Link  502 at Sun Oct 23 07:44:11 2022, MaxMem=   939524096 cpu:        79.7
 (Enter /Local/ce_dana/g09/l508.exe)
 QCSCF skips out because SCF is already converged.
 Leave Link  508 at Sun Oct 23 07:44:11 2022, MaxMem=   939524096 cpu:         0.0
 (Enter /Local/ce_dana/g09/l801.exe)
 DoSCS=T DFT=T ScalE2(SS,OS)=  0.270000  0.270000
 ExpMin= 1.36D-01 ExpMax= 2.70D+04 ExpMxC= 9.22D+02 IAcc=3 IRadAn=         5 AccDes= 0.00D+00
 HarFok:  IExCor=  205 AccDes= 0.00D+00 IRadAn=         5 IDoV=-2 UseB2=F ITyADJ=14
 ICtDFT= 12500011 ScaDFX=  1.000000  1.000000  1.000000  1.000000
 Largest valence mixing into a core orbital is  1.06D-04
 Largest core mixing into a valence orbital is  2.36D-05
 Range of M.O.s used for correlation:     6   155
 NBasis=   155 NAE=    19 NBE=    19 NFC=     5 NFV=     0
 NROrb=    150 NOA=    14 NOB=    14 NVA=   136 NVB=   136

 **** Warning!!: The largest alpha MO coefficient is  0.11839108D+02

 Leave Link  801 at Sun Oct 23 07:44:11 2022, MaxMem=   939524096 cpu:         0.4
 (Enter /Local/ce_dana/g09/l906.exe)
 DoSCS=T DFT=T ScalE2(SS,OS)=  0.270000  0.270000
 Frozen-core derivative calculation, NFC=   5 NFV=   0.
 FulOut=F Deriv=T AODrv=T NAtomX=     5
   MMem=         314  MDisk=          14 MDiskD=          14
  W3Min=      530100 MinDsk=      944510 NBas6D=         180
 NBas2D=       16710    NTT=       16290    LW2=     3500000
    MDV=   939238967 MDiskM=       26034 NBas2p=       16515
 Fully direct method using O(ONN) memory.
 IMap=   1   2   3   4   5   6   7   8   9  10  11  12  13  14  15  16  17  18  19
 JobTyp=1 Pass  1:  I=   6 to  19 NPSUse= 10 ParTrn=T ParDer=T DoDerP=T.
 Spin components of T(2) and E(2):
     alpha-alpha T2 =       0.7230780435D-01 E2=     -0.4991912974D-01
     alpha-beta  T2 =       0.4189082277D+00 E2=     -0.2792863013D+00
     beta-beta   T2 =       0.7230780435D-01 E2=     -0.4991912974D-01
 The integrals were generated   1 times.
 E2(B2PLYPD3) =    -0.3791245608D+00 E(B2PLYPD3) =    -0.33477959961809D+03
 Leave Link  906 at Sun Oct 23 07:44:26 2022, MaxMem=   939524096 cpu:       144.5
 (Enter /Local/ce_dana/g09/l1002.exe)
 Minotr:  Closed shell wavefunction.
          Computing MP2/KS-MP2 derivatives.
          Using Z-Vector for PSCF gradient.
          Skipping F1 and S1 gradient terms here.
          IDoAtm=11111
          Frozen-core window.
          Direct CPHF calculation.
          Differentiating once with respect to electric field.
                with respect to dipole field.
          Differentiating once with respect to nuclear coordinates.
          Requested convergence is 1.0D-10 RMS, and 1.0D-09 maximum.
          NewPWx=F KeepS1=T KeepF1=T KeepIn=T MapXYZ=F SortEE=F KeepMc=T.
          MDV=     939523892 using IRadAn=       5.
 Using stored XC quadrature information.
 Keep R1 ints in memory in canonical form, NReq=76056172.
 FoFCou: FMM=F IPFlag=           0 FMFlag=           0 FMFlg1=           0
         NFxFlg=           0 DoJE=F BraDBF=F KetDBF=F FulRan=T
         wScrn=  0.000000 ICntrl=     600 IOpCl=  0 I1Cent=           0 NGrid=           0
         NMat0=    1 NMatS0=  12090 NMatT0=    0 NMatD0=    1 NMtDS0=    0 NMtDT0=    0
 Symmetry not used in FoFCou.
          Solving linear equations separately, MaxMat=       0.
          There are     1 degrees of freedom in the 1st order CPHF.  IDoFFX=0 NUNeed=     1.
 LinEq1:  Iter=  0 NonCon=     1 RMS=3.39D-03 Max=7.56D-02 NDo=     1
 AX will form     1 AO Fock derivatives at one time.
 LinEq1:  Iter=  1 NonCon=     1 RMS=1.50D-03 Max=3.26D-02 NDo=     1
 LinEq1:  Iter=  2 NonCon=     1 RMS=8.03D-04 Max=1.62D-02 NDo=     1
 LinEq1:  Iter=  3 NonCon=     1 RMS=4.88D-04 Max=8.55D-03 NDo=     1
 LinEq1:  Iter=  4 NonCon=     1 RMS=2.41D-04 Max=3.20D-03 NDo=     1
 LinEq1:  Iter=  5 NonCon=     1 RMS=1.57D-04 Max=3.76D-03 NDo=     1
 LinEq1:  Iter=  6 NonCon=     1 RMS=1.34D-04 Max=2.72D-03 NDo=     1
 LinEq1:  Iter=  7 NonCon=     1 RMS=7.37D-05 Max=1.82D-03 NDo=     1
 LinEq1:  Iter=  8 NonCon=     1 RMS=5.93D-05 Max=1.16D-03 NDo=     1
 LinEq1:  Iter=  9 NonCon=     1 RMS=2.02D-05 Max=2.64D-04 NDo=     1
 LinEq1:  Iter= 10 NonCon=     1 RMS=4.54D-06 Max=4.79D-05 NDo=     1
 LinEq1:  Iter= 11 NonCon=     1 RMS=1.02D-06 Max=2.12D-05 NDo=     1
 LinEq1:  Iter= 12 NonCon=     1 RMS=4.05D-07 Max=1.36D-05 NDo=     1
 LinEq1:  Iter= 13 NonCon=     1 RMS=1.28D-07 Max=3.04D-06 NDo=     1
 LinEq1:  Iter= 14 NonCon=     1 RMS=2.65D-08 Max=2.47D-07 NDo=     1
 LinEq1:  Iter= 15 NonCon=     1 RMS=7.47D-09 Max=1.03D-07 NDo=     1
 LinEq1:  Iter= 16 NonCon=     1 RMS=1.80D-09 Max=4.82D-08 NDo=     1
 LinEq1:  Iter= 17 NonCon=     1 RMS=5.24D-10 Max=1.43D-08 NDo=     1
 LinEq1:  Iter= 18 NonCon=     1 RMS=1.23D-10 Max=1.96D-09 NDo=     1
 LinEq1:  Iter= 19 NonCon=     0 RMS=2.82D-11 Max=4.91D-10 NDo=     1
 Linear equations converged to 1.000D-10 1.000D-09 after    19 iterations.
 End of Minotr F.D. properties file   721 does not exist.
 End of Minotr F.D. properties file   722 does not exist.
 End of Minotr F.D. properties file   788 does not exist.
 Leave Link 1002 at Sun Oct 23 07:44:46 2022, MaxMem=   939524096 cpu:       164.8
 (Enter /Local/ce_dana/g09/l701.exe)
 Compute integral first derivatives.
 ... and contract with generalized density number  2.
 R6Disp: Adding Grimme-D3(BJ) dispersion energy 1st derivatives to the gradient.
   1 Symmetry operations used in ECPInt.
 ECPInt:  NShTT=    1540 NPrTT=    5160 LenC2=    1511 LenP2D=    4154.
 LDataN:  DoStor=T MaxTD1= 7 Len=  274
 Leave Link  701 at Sun Oct 23 07:44:47 2022, MaxMem=   939524096 cpu:         5.2
 (Enter /Local/ce_dana/g09/l702.exe)
 L702 exits ... SP integral derivatives will be done elsewhere.
 Leave Link  702 at Sun Oct 23 07:44:47 2022, MaxMem=   939524096 cpu:         0.0
 (Enter /Local/ce_dana/g09/l703.exe)
 Compute integral first derivatives, UseDBF=F ICtDFT=           0.
 Integral derivatives from FoFJK, PRISM(SPDF).
 Calling FoFJK, ICntrl=  10002127 FMM=F ISym2X=0 I1Cent= 0 IOpClX= 0 NMat=1 NMatS=1 NMatT=0.
 FoFJK:  IHMeth= 1 ICntrl=10002127 DoSepK=F KAlg= 0 I1Cent=   0 FoldK=F
 IRaf=         0 NMat=   1 IRICut=       1 DoRegI=T DoRafI=F ISym2E= 0.
 FoFCou: FMM=F IPFlag=           0 FMFlag=      100000 FMFlg1=         800
         NFxFlg=           0 DoJE=F BraDBF=F KetDBF=F FulRan=T
         wScrn=  0.000000 ICntrl=10002127 IOpCl=  0 I1Cent=           0 NGrid=           0
         NMat0=    1 NMatS0=      1 NMatT0=    0 NMatD0=    1 NMtDS0=    0 NMtDT0=    0
 Symmetry not used in FoFCou.
 Leave Link  703 at Sun Oct 23 07:44:51 2022, MaxMem=   939524096 cpu:        41.5
 (Enter /Local/ce_dana/g09/l716.exe)
 Dipole        =-3.05067214D-01-3.47703291D-02-1.92368766D-02
 ***** Axes restored to original set *****
 -------------------------------------------------------------------
 Center     Atomic                   Forces (Hartrees/Bohr)
 Number     Number              X              Y              Z
 -------------------------------------------------------------------
      1        8          -0.003308844   -0.001983125    0.000026667
      2        7           0.004783953    0.004387097    0.003623404
      3        7           0.043477957   -0.000485065   -0.031471114
      4        8          -0.023662273   -0.019000796    0.011150892
      5        8          -0.021290792    0.017081889    0.016670151
 -------------------------------------------------------------------
 Cartesian Forces:  Max     0.043477957 RMS     0.018292806
 Leave Link  716 at Sun Oct 23 07:44:51 2022, MaxMem=   939524096 cpu:         0.1
 (Enter /Local/ce_dana/g09/l103.exe)

 GradGradGradGradGradGradGradGradGradGradGradGradGradGradGradGradGradGrad
 Berny optimization.
 FormGI is forming the generalized inverse of G from B-inverse, IUseBI=4.
 Internal  Forces:  Max     0.029312252 RMS     0.016706328
 Search for a local minimum.
 Step number   1 out of a maximum of   21 on scan point     2 out of    13
 All quantities printed in internal units (Hartrees-Bohrs-Radians)
 RMS Force = .16209D-01 SwitMx=.10000D-02 MixMth= 1
 Mixed Optimization -- RFO/linear search
 Second derivative matrix not updated -- first step.
 The second derivative matrix:
                          R1        R2        R3        R4        R5
           R1           0.90647
           R2           0.07961   0.05806
           R3           0.01182   0.01051   0.23036
           R4           0.01182   0.01051   0.01995   0.23152
           R5          -0.00441  -0.00946   0.01834   0.01723   0.20869
           A1           0.06347  -0.00275   0.02429   0.02429  -0.00744
           A2           0.01173   0.01526   0.04066   0.00603  -0.01373
           A3           0.00800   0.01037   0.01262   0.02666  -0.01707
           D1          -0.00264  -0.00313  -0.02405  -0.02198   0.04120
           D2           0.00264   0.00313   0.02016   0.02531  -0.04066
           D3          -0.00229  -0.00300   0.01212  -0.02097   0.00209
                          A1        A2        A3        D1        D2
           A1           0.36399
           A2           0.09175   0.18705
           A3           0.05950   0.04669   0.06081
           D1           0.00116   0.01299  -0.00578   0.01705
           D2          -0.00116   0.00379  -0.00103  -0.01299   0.01555
           D3          -0.01977   0.04260  -0.04349   0.00947   0.00656
                          D3
           D3           0.07014
 ITU=  0
     Eigenvalues ---    0.04490   0.09003   0.14334   0.20367   0.22846
     Eigenvalues ---    0.25570   0.42356   0.923021000.000001000.00000
     Eigenvalues --- 1000.00000
 RFO step:  Lambda=-1.29181910D-02 EMin= 4.49022366D-02
 Linear search not attempted -- first point.
 Maximum step size (   0.050) exceeded in Quadratic search.
    -- Step size scaled by   0.227
 Iteration  1 RMS(Cart)=  0.01643124 RMS(Int)=  0.00027092
 Iteration  2 RMS(Cart)=  0.00018819 RMS(Int)=  0.00015364
 Iteration  3 RMS(Cart)=  0.00000001 RMS(Int)=  0.00015364
 Iteration  1 RMS(Cart)=  0.00002407 RMS(Int)=  0.00002347
 Iteration  2 RMS(Cart)=  0.00000997 RMS(Int)=  0.00002616
 Iteration  3 RMS(Cart)=  0.00000413 RMS(Int)=  0.00002860
 Iteration  4 RMS(Cart)=  0.00000171 RMS(Int)=  0.00002978
 Iteration  5 RMS(Cart)=  0.00000071 RMS(Int)=  0.00003029
 ITry= 1 IFail=0 DXMaxC= 2.58D-02 DCOld= 1.00D+10 DXMaxT= 5.00D-02 DXLimC= 3.00D+00 Rises=F
 Variable       Old X    -DE/DX   Delta X   Delta X   Delta X     New X
                                 (Linear)    (Quad)   (Total)
    R1        2.19221  -0.00373   0.00000  -0.00154  -0.00154   2.19067
    R2        3.17681   0.00240   0.00000  -0.00054  -0.00054   3.17627
    R3        2.57325   0.02917   0.00000   0.02845   0.02852   2.60178
    R4        2.57075   0.02728   0.00000   0.02178   0.02185   2.59260
    R5        2.95534  -0.02931   0.00000  -0.02965  -0.02978   2.92557
    A1        1.91345  -0.00067   0.00000  -0.00065  -0.00065   1.91279
    A2        1.80884  -0.00822   0.00000  -0.01739  -0.01731   1.79152
    A3        1.77840   0.00677   0.00000   0.00463   0.00427   1.78267
    D1       -2.06093  -0.01616   0.00000   0.00000   0.00000  -2.06093
    D2        2.96274   0.01422   0.00000   0.03051   0.03030   2.99303
    D3       -1.70907  -0.00433   0.00000  -0.00535  -0.00564  -1.71471
         Item               Value     Threshold  Converged?
 Maximum Force            0.026041     0.000450     NO 
 RMS     Force            0.016209     0.000300     NO 
 Maximum Displacement     0.025771     0.001800     NO 
 RMS     Displacement     0.016400     0.001200     NO 
 Predicted change in Energy=-2.621640D-03
 Lowest energy point so far.  Saving SCF results.
 GradGradGradGradGradGradGradGradGradGradGradGradGradGradGradGradGradGrad

 Leave Link  103 at Sun Oct 23 07:44:51 2022, MaxMem=   939524096 cpu:         0.0
 (Enter /Local/ce_dana/g09/l202.exe)
                          Input orientation:                          
 ---------------------------------------------------------------------
 Center     Atomic      Atomic             Coordinates (Angstroms)
 Number     Number       Type             X           Y           Z
 ---------------------------------------------------------------------
      1          8           0        1.915699    0.030637    0.206790
      2          7           0        0.878816   -0.420822    0.461600
[...]
 Calling FoFJK, ICntrl=  10002127 FMM=F ISym2X=0 I1Cent= 0 IOpClX= 0 NMat=1 NMatS=1 NMatT=0.
 FoFJK:  IHMeth= 1 ICntrl=10002127 DoSepK=F KAlg= 0 I1Cent=   0 FoldK=F
 IRaf=         0 NMat=   1 IRICut=       1 DoRegI=T DoRafI=F ISym2E= 0.
 FoFCou: FMM=F IPFlag=           0 FMFlag=      100000 FMFlg1=         800
         NFxFlg=           0 DoJE=F BraDBF=F KetDBF=F FulRan=T
         wScrn=  0.000000 ICntrl=10002127 IOpCl=  0 I1Cent=           0 NGrid=           0
         NMat0=    1 NMatS0=      1 NMatT0=    0 NMatD0=    1 NMtDS0=    0 NMtDT0=    0
 Symmetry not used in FoFCou.
 Leave Link  703 at Sun Oct 23 08:31:51 2022, MaxMem=   939524096 cpu:        43.9
 (Enter /Local/ce_dana/g09/l716.exe)
 Dipole        =-3.89926446D-01-7.29239345D-05-3.20734223D-02
 ***** Axes restored to original set *****
 -------------------------------------------------------------------
 Center     Atomic                   Forces (Hartrees/Bohr)
 Number     Number              X              Y              Z
 -------------------------------------------------------------------
      1        8          -0.000051140    0.000132275    0.000085502
      2        7           0.000068263   -0.000205419   -0.000153571
      3        7           0.000062530    0.000106652    0.000026015
      4        8           0.000007812   -0.000065098    0.000023172
      5        8          -0.000087466    0.000031591    0.000018881
 -------------------------------------------------------------------
 Cartesian Forces:  Max     0.000205419 RMS     0.000092255
 Leave Link  716 at Sun Oct 23 08:31:51 2022, MaxMem=   939524096 cpu:         0.1
 (Enter /Local/ce_dana/g09/l103.exe)

 GradGradGradGradGradGradGradGradGradGradGradGradGradGradGradGradGradGrad
 Berny optimization.
 Using GEDIIS/GDIIS optimizer.
 FormGI is forming the generalized inverse of G from B-inverse, IUseBI=4.
 Internal  Forces:  Max     0.000198957 RMS     0.000084589
 Search for a local minimum.
 Step number   5 out of a maximum of   21 on scan point    13 out of    13
 All quantities printed in internal units (Hartrees-Bohrs-Radians)
 RMS Force = .88678D-04 SwitMx=.10000D-02 MixMth= 2
 Mixed Optimization -- En-DIIS/RFO-DIIS
 Swapping is turned off.
 Update second derivatives using D2CorX and points    1    2    3    4    5
 DE= -1.82D-06 DEPred=-2.01D-06 R= 9.06D-01
 TightC=F SS=  1.41D+00  RLast= 6.02D-03 DXNew= 1.5546D+00 1.8049D-02
 Trust test= 9.06D-01 RLast= 6.02D-03 DXMaxT set to 9.24D-01
 The second derivative matrix:
                          R1        R2        R3        R4        R5
           R1           0.96663
           R2           0.07194   0.06103
           R3           0.00524   0.00701   0.22349
           R4          -0.01322   0.00914   0.00969   0.24495
           R5           0.00535  -0.00754   0.01970   0.01152   0.20092
           A1           0.04820   0.00257   0.04774   0.03442  -0.01409
           A2          -0.01340   0.00909   0.03502   0.01253  -0.01693
           A3           0.00240   0.01575   0.01154   0.03004  -0.01729
           D1          -0.01474  -0.00019  -0.02266  -0.01783   0.04012
           D2          -0.01698   0.00700   0.01328   0.02774  -0.03545
           D3          -0.00441  -0.00473   0.00641  -0.02017  -0.00334
                          A1        A2        A3        D1        D2
           A1           0.40159
           A2           0.10518   0.18751
           A3           0.05642   0.03978   0.06474
           D1          -0.01233   0.00930  -0.00620   0.01579
           D2          -0.00371  -0.00669   0.00180  -0.01136   0.01383
           D3          -0.00457   0.04343  -0.04550   0.00695  -0.00080
                          D3
           D3           0.06501
 ITU=  1  1  1  1  0
     Eigenvalues ---    0.04933   0.09474   0.15065   0.18865   0.22887
     Eigenvalues ---    0.25032   0.47567   0.976861000.000001000.00000
     Eigenvalues --- 1000.00000
 En-DIIS/RFO-DIIS IScMMF=        0 using points:     5    4    3
 RFO step:  Lambda=-1.22797609D-07.
 NNeg= 0 NP= 3 Switch=  2.50D-03 Rises=F DC=  1.17D-05 SmlDif=  1.00D-05
 RMS Error=  0.1393003998D-03 NUsed= 3 EDIIS=F
 DidBck=F Rises=F RFO-DIIS coefs:    0.90109    0.12073   -0.02182
 Iteration  1 RMS(Cart)=  0.00027278 RMS(Int)=  0.00000013
 Iteration  2 RMS(Cart)=  0.00000006 RMS(Int)=  0.00000012
 Iteration  1 RMS(Cart)=  0.00000026 RMS(Int)=  0.00000025
 ITry= 1 IFail=0 DXMaxC= 4.60D-04 DCOld= 1.00D+10 DXMaxT= 9.24D-01 DXLimC= 3.00D+00 Rises=F
 Variable       Old X    -DE/DX   Delta X   Delta X   Delta X     New X
                                 (Linear)    (Quad)   (Total)
    R1        2.18401  -0.00014   0.00004  -0.00015  -0.00011   2.18391
    R2        3.17657  -0.00004  -0.00030  -0.00038  -0.00068   3.17589
    R3        2.66885  -0.00005   0.00016  -0.00046  -0.00030   2.66855
    R4        2.66817   0.00010   0.00008   0.00024   0.00031   2.66849
    R5        2.77702  -0.00003   0.00009  -0.00018  -0.00009   2.77693
    A1        1.91632   0.00020   0.00004   0.00043   0.00047   1.91679
    A2        1.74923   0.00004  -0.00011   0.00010  -0.00001   1.74922
    A3        1.74910   0.00005   0.00028  -0.00004   0.00024   1.74934
    D1       -2.58453  -0.00001  -0.00000   0.00000   0.00000  -2.58453
    D2        2.58447   0.00001  -0.00000   0.00002   0.00002   2.58449
    D3       -1.68076  -0.00004  -0.00037   0.00010  -0.00027  -1.68104
         Item               Value     Threshold  Converged?
 Maximum Force            0.000199     0.000450     YES
 RMS     Force            0.000089     0.000300     YES
 Maximum Displacement     0.000460     0.001800     YES
 RMS     Displacement     0.000273     0.001200     YES
 Predicted change in Energy=-1.066564D-07
 Optimization completed.
    -- Stationary point found.
                           ----------------------------
                           !   Optimized Parameters   !
                           ! (Angstroms and Degrees)  !
 --------------------------                            --------------------------
 ! Name  Definition              Value          Derivative Info.                !
 --------------------------------------------------------------------------------
 ! R1    R(1,2)                  1.1557         -DE/DX =   -0.0001              !
 ! R2    R(2,3)                  1.681          -DE/DX =    0.0                 !
 ! R3    R(3,4)                  1.4123         -DE/DX =   -0.0001              !
 ! R4    R(3,5)                  1.4119         -DE/DX =    0.0001              !
 ! R5    R(4,5)                  1.4695         -DE/DX =    0.0                 !
 ! A1    A(1,2,3)              109.7969         -DE/DX =    0.0002              !
 ! A2    A(2,3,4)              100.2233         -DE/DX =    0.0                 !
 ! A3    A(2,3,5)              100.2161         -DE/DX =    0.0001              !
 ! D1    D(1,2,3,4)           -148.0826         -DE/DX =    0.0                 !
 ! D2    D(1,2,3,5)            148.0795         -DE/DX =    0.0                 !
 ! D3    D(2,3,4,5)            -96.3007         -DE/DX =    0.0                 !
 --------------------------------------------------------------------------------
 Lowest energy point so far.  Saving SCF results.
 GradGradGradGradGradGradGradGradGradGradGradGradGradGradGradGradGradGrad

 Summary of Optimized Potential Surface Scan
                           1         2         3         4         5
     Eigenvalues --  -334.78680-334.78637-334.78452-334.78424-334.78599
           R1           1.15566   1.15570   1.15607   1.15737   1.15034
           R2           1.68064   1.68100   1.68167   1.66818   1.73462
           R3           1.41215   1.42123   1.41906   1.40626   1.39242
           R4           1.41215   1.40264   1.40027   1.41271   1.42777
           R5           1.46948   1.47297   1.48101   1.48415   1.48235
           A1         109.82604 109.25426 108.56992 109.98378 110.29484
           A2         100.22598  98.09423 100.50246 105.04418 104.15866
           A3         100.22601 102.51175 103.92009 102.58550  98.64382
           D1        -148.08249-118.08255 -88.08256 -58.08244 -28.08242
           D2         148.08259 178.02954-153.01717-123.70162 -92.70019
           D3         -96.31008 -99.96276-100.41362 -96.79082 -92.69629
                           6         7         8         9        10
     Eigenvalues --  -334.78689-334.78717-334.78690-334.78603-334.78434
           R1           1.14356   1.14205   1.14373   1.15032   1.15764
           R2           1.82435   1.85255   1.82450   1.73676   1.66557
           R3           1.38675   1.40621   1.42804   1.42612   1.41194
           R4           1.42881   1.40658   1.38673   1.39097   1.40426
           R5           1.47963   1.47833   1.48116   1.48493   1.48699
           A1         108.79725 107.76902 108.69495 110.20377 110.09072
           A2         102.28524 100.40321  98.48778  98.91976 102.76879
           A3          98.32193 100.35238 102.29270 104.26540 105.40969
           D1           1.91757  31.91758  61.91745  91.91761 121.91752
           D2         -62.51920 -32.67713  -2.64427  27.02905  56.00216
           D3         -93.24269 -96.45523 -99.56155-101.57019-101.07010
                          11        12        13
     Eigenvalues --  -334.78446-334.78637-334.78680
           R1           1.15597   1.15563   1.15573
           R2           1.68218   1.68141   1.68097
           R3           1.40202   1.40355   1.41230
           R4           1.42122   1.42254   1.41194
           R5           1.47749   1.47111   1.46954
           A1         108.55931 109.21360 109.79692
           A2         103.80585 102.43308 100.22332
           A3         100.28939  97.83815 100.21606
           D1         151.91746-178.08246-148.08257
           D2          87.30716 118.22603 148.07950
           D3         -94.68120 -92.49189 -96.30067
 Largest change from initial coordinates is atom    2       0.000 Angstoms.
 Leave Link  103 at Sun Oct 23 08:31:51 2022, MaxMem=   939524096 cpu:         0.1
 (Enter /Local/ce_dana/g09/l202.exe)
                          Input orientation:                          
 ---------------------------------------------------------------------
 Center     Atomic      Atomic             Coordinates (Angstroms)
 Number     Number       Type             X           Y           Z
 ---------------------------------------------------------------------
      1          8           0        1.831507   -0.629746    0.237608
      2          7           0        0.957757    0.093339    0.459910
      3          7           0       -0.389495   -0.346809   -0.443881
      4          8           0       -0.974587    0.921070   -0.655371
      5          8           0       -1.420959    0.045262    0.436988
 ---------------------------------------------------------------------
                    Distance matrix (angstroms):
                    1          2          3          4          5
     1  O    0.000000
     2  N    1.155729   0.000000
     3  N    2.340370   1.680969   0.000000
     4  O    3.328154   2.379694   1.412295   0.000000
     5  O    3.327751   2.379312   1.411937   1.469536   0.000000
 Stoichiometry    N2O3
 Framework group  C1[X(N2O3)]
 Deg. of freedom     9
 Full point group                 C1      NOp   1
 RotChk:  IX=3 Diff= 8.13D-15
 Largest Abelian subgroup         C1      NOp   1
 Largest concise Abelian subgroup C1      NOp   1
                         Standard orientation:                         
 ---------------------------------------------------------------------
 Center     Atomic      Atomic             Coordinates (Angstroms)
 Number     Number       Type             X           Y           Z
 ---------------------------------------------------------------------
      1          8           0       -1.967781    0.000078    0.121484
      2          7           0       -0.970072    0.000105   -0.461856
      3          7           0        0.319713   -0.000133    0.616157
      4          8           0        1.268659    0.734741   -0.128181
      5          8           0        1.268186   -0.734794   -0.128315
 ---------------------------------------------------------------------
 Rotational constants (GHZ):     19.1894711      3.6868124      3.4785880
 Leave Link  202 at Sun Oct 23 08:31:51 2022, MaxMem=   939524096 cpu:         0.0
 (Enter /Local/ce_dana/g09/l601.exe)
 Copying SCF densities to generalized density rwf, IOpCl= 0 IROHF=0.

 **********************************************************************

            Population analysis using the SCF density.

 **********************************************************************

 Orbital symmetries:
       Occupied  (A) (A) (A) (A) (A) (A) (A) (A) (A) (A) (A) (A)
                 (A) (A) (A) (A) (A) (A) (A)
       Virtual   (A) (A) (A) (A) (A) (A) (A) (A) (A) (A) (A) (A)
                 (A) (A) (A) (A) (A) (A) (A) (A) (A) (A) (A) (A)
                 (A) (A) (A) (A) (A) (A) (A) (A) (A) (A) (A) (A)
                 (A) (A) (A) (A) (A) (A) (A) (A) (A) (A) (A) (A)
                 (A) (A) (A) (A) (A) (A) (A) (A) (A) (A) (A) (A)
                 (A) (A) (A) (A) (A) (A) (A) (A) (A) (A) (A) (A)
                 (A) (A) (A) (A) (A) (A) (A) (A) (A) (A) (A) (A)
                 (A) (A) (A) (A) (A) (A) (A) (A) (A) (A) (A) (A)
                 (A) (A) (A) (A) (A) (A) (A) (A) (A) (A) (A) (A)
                 (A) (A) (A) (A) (A) (A) (A) (A) (A) (A) (A) (A)
                 (A) (A) (A) (A) (A) (A) (A) (A) (A) (A) (A) (A)
                 (A) (A) (A) (A)
 The electronic state is 1-A.
 Alpha  occ. eigenvalues --  -19.88159 -19.87777 -19.87761 -15.06031 -15.02663
 Alpha  occ. eigenvalues --   -1.43866  -1.41437  -1.04731  -0.93751  -0.80366
 Alpha  occ. eigenvalues --   -0.68010  -0.63426  -0.60834  -0.58957  -0.54598
 Alpha  occ. eigenvalues --   -0.53069  -0.48167  -0.41071  -0.33932
 Alpha virt. eigenvalues --   -0.06459   0.01680   0.05798   0.07807   0.15148
 Alpha virt. eigenvalues --    0.24486   0.30205   0.33905   0.34403   0.39824
 Alpha virt. eigenvalues --    0.42008   0.42488   0.43027   0.44258   0.45259
 Alpha virt. eigenvalues --    0.51440   0.53025   0.54722   0.56451   0.59197
 Alpha virt. eigenvalues --    0.64348   0.65232   0.67488   0.78915   0.81825
 Alpha virt. eigenvalues --    0.90282   0.91697   1.02815   1.12392   1.20301
 Alpha virt. eigenvalues --    1.29010   1.37163   1.38667   1.46913   1.51944
 Alpha virt. eigenvalues --    1.59494   1.62723   1.67914   1.68593   1.72358
 Alpha virt. eigenvalues --    1.79663   1.88121   1.89558   1.92687   1.95133
 Alpha virt. eigenvalues --    2.00312   2.06496   2.08030   2.08434   2.11236
 Alpha virt. eigenvalues --    2.11987   2.13017   2.19814   2.24628   2.30304
 Alpha virt. eigenvalues --    2.45620   2.47591   2.63900   2.68529   2.70923
 Alpha virt. eigenvalues --    2.77172   2.83691   2.91636   2.93726   3.00773
 Alpha virt. eigenvalues --    3.03082   3.29742   3.36573   3.65202   3.66067
 Alpha virt. eigenvalues --    3.74265   3.80687   3.87525   3.89581   3.91626
 Alpha virt. eigenvalues --    3.96038   4.08559   4.09445   4.17331   4.35878
 Alpha virt. eigenvalues --    4.36021   4.47262   4.63213   4.71158   4.72229
 Alpha virt. eigenvalues --    4.76566   4.82662   4.85428   4.86831   4.89117
 Alpha virt. eigenvalues --    4.99036   5.03552   5.15263   5.19793   5.20600
 Alpha virt. eigenvalues --    5.24355   5.25245   5.29487   5.31645   5.37119
 Alpha virt. eigenvalues --    5.42515   5.46447   5.66444   5.69200   5.84859
 Alpha virt. eigenvalues --    5.89018   5.92138   5.94065   6.01351   6.19591
 Alpha virt. eigenvalues --    6.35740   6.36373   6.37434   6.39614   6.49141
 Alpha virt. eigenvalues --    6.54220   6.61695   6.62737   6.68847   6.81552
 Alpha virt. eigenvalues --    6.87052   6.92223   7.02549   7.06099   7.14460
 Alpha virt. eigenvalues --    7.19312   7.24796   7.35405   7.57092   7.65984
 Alpha virt. eigenvalues --    8.10429  32.07384  32.43847  44.16616  44.24874
 Alpha virt. eigenvalues --   44.42051
          Condensed to atoms (all electrons):
               1          2          3          4          5
     1  O    7.854291   0.318102  -0.058010   0.003103   0.003107
     2  N    0.318102   6.466071   0.022506  -0.007105  -0.007142
     3  N   -0.058010   0.022506   6.747902   0.087081   0.087013
     4  O    0.003103  -0.007105   0.087081   7.978937   0.038270
     5  O    0.003107  -0.007142   0.087013   0.038270   7.978949
 Mulliken charges:
               1
     1  O   -0.120593
     2  N    0.207568
     3  N    0.113508
     4  O   -0.100286
     5  O   -0.100197
 Sum of Mulliken charges =  -0.00000
 Mulliken charges with hydrogens summed into heavy atoms:
               1
     1  O   -0.120593
     2  N    0.207568
     3  N    0.113508
     4  O   -0.100286
     5  O   -0.100197
 Electronic spatial extent (au):  <R**2>=            336.0078
 Charge=             -0.0000 electrons
 Dipole moment (field-independent basis, Debye):
    X=             -1.0146    Y=             -0.0002    Z=             -0.0831  Tot=              1.0180
 Quadrupole moment (field-independent basis, Debye-Ang):
   XX=            -27.9295   YY=            -25.1191   ZZ=            -28.1219
   XY=              0.0000   XZ=              0.0499   YZ=              0.0000
 Traceless Quadrupole moment (field-independent basis, Debye-Ang):
   XX=             -0.8727   YY=              1.9377   ZZ=             -1.0651
   XY=              0.0000   XZ=              0.0499   YZ=              0.0000
 Octapole moment (field-independent basis, Debye-Ang**2):
  XXX=              1.4889  YYY=              0.0003  ZZZ=             -1.2581  XYY=             -1.6776
  XXY=              0.0001  XXZ=             -1.3195  XZZ=              0.4382  YZZ=             -0.0001
  YYZ=              0.2971  XYZ=             -0.0002
 Hexadecapole moment (field-independent basis, Debye-Ang**3):
 XXXX=           -280.4706 YYYY=            -49.8049 ZZZZ=            -47.1686 XXXY=             -0.0001
 XXXZ=             -3.4756 YYYX=              0.0018 YYYZ=              0.0005 ZZZX=             -2.2631
 ZZZY=              0.0008 XXYY=            -53.4065 XXZZ=            -52.4856 YYZZ=            -16.0930
 XXYZ=             -0.0002 YYXZ=             -0.6179 ZZXY=             -0.0004
 N-N= 1.640047267537D+02 E-N=-1.116237440644D+03  KE= 3.333015208408D+02
 No NMR shielding tensors so no spin-rotation constants.
 Leave Link  601 at Sun Oct 23 08:31:51 2022, MaxMem=   939524096 cpu:         1.5
 (Enter /Local/ce_dana/g09/l9999.exe)

 Test job not archived.
 1\1\GINC-TECH-WN202\Scan\RB2PLYPD3-FC\def2TZVP\N2O3\ALONGD\23-Oct-2022
 \0\\#P opt=(modredundant, calcfc, noeigentest, maxStep=5) scf=(tight, 
 direct) integral=(grid=ultrafine, Acc2E=12) guess=read b2plypd3/def2tz
 vp IOp(2/9=2000) scf=xqc\\Nitrosodioxaziridine\\0,1\O,1.8315072892,-0.
 6297456755,0.2376079305\N,0.9577567119,0.0933394122,0.4599098974\N,-0.
 3894954958,-0.346809172,-0.4438806826\O,-0.9745874525,0.9210696969,-0.
 6553709609\O,-1.4209590528,0.0452617384,0.4369878157\\Version=ES64L-G0
 9RevD.01\State=1-A\HF=-334.4078969,-334.4073006,-334.405735,-334.40569
 37,-334.4039563,-334.4014345,-334.4007917,-334.4013952,-334.4039327,-3
 34.405821,-334.4056487,-334.4072533,-334.4078765\MP2=-334.7867955,-334
 .7863718,-334.7845202,-334.7842433,-334.7859876,-334.7868915,-334.7871
 718,-334.786903,-334.7860335,-334.7843354,-334.7844598,-334.786374,-33
 4.7867954\RMSD=4.972e-09,4.297e-09,7.807e-09,9.928e-09,2.823e-09,7.996
 e-09,4.158e-09,4.214e-09,5.140e-09,6.341e-09,5.170e-09,8.907e-09,5.566
 e-09\PG=C01 [X(N2O3)]\\@


 THE ONLY DIFFERENCE BETWEEN ECCENTRICS AND JOGGERS
 IS THAT JOGGERS WEAR SWEATBANDS WHEN THEY RUN IN THE RAIN.
 Job cpu time:       0 days  7 hours 59 minutes 32.2 seconds.
 File lengths (MBytes):  RWF=   3306 Int=      0 D2E=      0 Chk=      4 Scr=      1
 Normal termination of Gaussian 09 at Sun Oct 23 08:31:52 2022.
