
 Working directory              : /var/lib/condor/execute/dir_265382/molpro.hqdOrLiAY0/
 Global scratch directory       : /var/lib/condor/execute/dir_265382/molpro.hqdOrLiAY0/
 Wavefunction directory         : /srv01/technion/alongd/wfu/
 Main file repository           : /var/lib/condor/execute/dir_265382/molpro.hqdOrLiAY0/

 id        : dana

 Nodes     nprocs
 tech-wn178    9
 Distribution of processes:   nprocs(total)=   10   nprocs(compute)=    9   nprocs(helper)=    1
 GA implementation: MPI file
 GA implementation (serial work in mppx): MPI file

 Using customized tuning parameters: mindgm=1; mindgv=20; mindgc=4; mindgr=1; noblas=0; minvec=7
 default implementation of scratch files=sf  


 Variables initialized (1009), CPU time= 0.01 sec
 ***,Nitrosodioxaziridine
 memory,448,m;
 file,1,file1.int                                                                !allocate permanent integral file
 file,2,file2.wfu                                                                !allocate permanent wave-function (dump) file
 
 geometry={angstrom;
 O       1.94571200   -0.14107600    0.13021100
 N       0.87351400   -0.25619300    0.54576000
 N      -0.23985900    0.28057200   -0.59303000
 O      -1.25059300    0.77695800    0.25912900
 O      -1.32455200   -0.57714500   -0.30681600}
 
 basis=cc-pvtz-f12
 
 
 
 int;
 {hf;
 maxit,1000;
 wf,spin=0,charge=0;}
 
 ccsd(t)-f12;
 
 
 
 Commands initialized (810), CPU time= 0.02 sec, 661 directives.
 Default parameters read. Elapsed time= 0.42 sec

 Checking input...
 Passed
1


                                         ***  PROGRAM SYSTEM MOLPRO  ***
                                       Copyright, TTI GmbH Stuttgart, 2015
                                    Version 2021.2 linked Jul 16 2021 12:17:16


 **********************************************************************************************************************************
 LABEL *   Nitrosodioxaziridine                                                          
  64 bit mpp version                                                                     DATE: 23-Oct-22          TIME: 07:41:38  
 **********************************************************************************************************************************

 SHA1:             dade016a989826d9d859d6207854b99675d53db3
 **********************************************************************************************************************************

 Memory per process:       448 MW
 Total memory per node:   4032 MW

 GA preallocation disabled
 GA check disabled

 Variable memory set to 448.0 MW



 Permanent file  1  file1.int        assigned.  Implementation=df  
 Permanent file  2  file2.wfu        assigned.  Implementation=df    Size=  0.10 GB


 PROGRAM * RESTART 


 Reading variables from file 2

 _FNUC           =      0.00000000
 _BASIS          =    CC-PVTZ-F12
 _NELEC          =     42.00000000
 _PROGRAM        =    CCSD(T)-F12
 _DMX_SCF        =      0.00000035
 _DMY_SCF        =      0.00000098
 _DMZ_SCF        =     -0.00000015
 _HOMO           =     21.10000000
 _EHOMO          =     -0.68559973
 _LUMO           =     22.10000000
 _ELUMO          =      0.06156135
 _EMP2           =   -437.07337748
 _EMP2_SING      =     -0.73858603
 _EMP2_TRIP      =     -0.48177929
 _EMP2_SINGLES   =      0.00000000
 _EMP2_SCS       =   -437.03908918
 _ECSING(1:2)    =     -0.87367230    -0.85814588
 _ECTRIP(1:2)    =     -0.44583407    -0.44435131
 _ECTRIPAB(1:2)  =     -0.04604182    -0.04589467
 _ECTRIPAA(1:2)  =     -0.05241435    -0.05224119
 _ECTRIPBB(1:2)  =     -0.04194683    -0.04182579
 _ECSINGLES      =     -0.00459279
 _EF12           =     -0.12151045
 _EF12_SING      =     -0.10741967
 _EF12_TRIP      =     -0.01409078
 _ECSING_F12(1:2)=     -0.03162856    -0.02563115
 _ECTRIP_F12(1:2)=     -0.00354597    -0.00310462
 _ECTRIPAB_F12(1:2)   =     -0.00118323    -0.00103609
 _ECTRIPAA_F12(1:2)   =     -0.00142865    -0.00125550
 _ECTRIPBB_F12(1:2)   =     -0.00093408    -0.00081304
 _EF12_RHFRELAX  =     -0.00384441
 _EF12_CONVSUPPRS=     -0.00043897
 _EF12_CONVSUPPRT=     -0.00013803
 _EF12_SINGLES   =     -0.00384441
 _EF12_SCS       =     -0.13767120
 _EF12_STRONG    =     -0.12151045
 _EF12_CLOSE     =      0.00000000
 _EF12_WEAK      =      0.00000000
 _EF12_DIST      =      0.00000000
 _EF12S          =     -0.12050563
 _EF12S_SING     =     -0.10716034
 _EF12S_TRIP     =     -0.01334529
 _EF12S_SCS      =     -0.13689615
 _EF12S_STRONG   =     -0.12050563
 _EF12S_CLOSE    =      0.00000000
 _EF12S_WEAK     =      0.00000000
 _EF12S_DIST     =      0.00000000
 _EF12D          =     -0.13442301
 _EF12D_SING     =     -0.11876594
 _EF12D_TRIP     =     -0.01565707
 _EF12D_SCS      =     -0.15226131
 _EF12D_STRONG   =     -0.13442301
 _EF12D_CLOSE    =      0.00000000
 _EF12D_WEAK     =      0.00000000
 _EF12D_DIST     =      0.00000000
 _EF12F          =     -0.03703261
 _EF12F_SING     =     -0.03336182
 _EF12F_TRIP     =     -0.00367078
 _EF12F_SCS      =     -0.04231889
 _ENERGC(1:2)    =   -437.17251840  -437.15550921
 _ENERG_CC(1:2)  =      0.00000000     0.00000000
 _ENERG_CV(1:2)  =      0.00000000     0.00000000
 _ENERG_VV(1:2)  =     -1.31950623    -1.30249705
 _ENERGR         =   -435.85301216
 _ENERGT(1:3)    =   -437.19600779  -437.19810215  -437.19506115
 _ENERGY(1:2)    =   -437.21301698  -437.19600779
 _ENERGY_METHOD  =    CCSD(T)-F12
 _ENERGY_BASIS   =    cc-pVTZ-F12
 _ENUC           =    205.49340635
 _IPROC_MPP      =      0.00000000
 _IPROC_MPPX     =      0.00000000
 _ORBITAL        =   2127.20000000
 _ECDIAG(1:2)    =     -0.12712822    -0.12513324
 _EPDIAG(1:2)    =     -0.12712822    -0.12513324
 _STATUS         =      1.00000000
 _T1DIAG         =      0.01100037
 _D1DIAG         =      0.02981509
 _D2DIAG         =      0.12530694
 !DFBASIS_MP2    =    CC-PVTZ-F12-MP2FIT
 !DFBASIS_F12K   =    VTZ-F12-JKFIT
 !RIBASIS_MP2    =    CC-PVTZ-F12_OPT
 !RIBASIS_EXCH   =     
 _DATE           =    17-Oct-21
 _METHODC        =    CCSD-F12a
 _METHODC        =    CCSD-F12b
 _METHODT        =    CCSD(T)-F12b
 _METHODT        =    CCSD[T]-F12b
 _METHODT        =    CCSD-T-F12b
 _OUTPUT         =    /storage/ce_dana/alongd/runs/ARC/debug2/calcs/Species/HNO/sp_a3414/input.out
 _PGROUP         =    C1  
 _TIME           =    16:28:08
 _ANSATZ         =    F12/3C(FIX)
 _SVDDEL         =      0.00000000
 _SYM_CATION     =      1.00000000

 Geometry written to block  1 of record 711


 **********************************************************************************************************************************
 DATASETS  * FILE   NREC   LENGTH (MB)   RECORD NAMES
              1       2       11.48       500      711   
                                          VAR     GEOM   

              2      80      104.29       500      610      700     1000      520     2100     7360     7350      701     1001   
                                          VAR    BASINP    GEOM     BASIS   MCVARS     RHF    F12ABS    EF12     GEOM     BASIS   
                                         2101      702     1002     2102      703     1003     2103     1004     2104     1005   
                                          RHF     GEOM     BASIS     RHF     GEOM     BASIS     RHF     BASIS     RHF     BASIS   
                                         2105      702(1)  1006     2106     1007     2107      704     1008     2108      705   
                                          RHF     GEOM     BASIS     RHF     BASIS     RHF     GEOM     BASIS     RHF     GEOM   
                                         1009     2109      706     1010     2110      707     1011     2111      708     1012   
                                         BASIS     RHF     GEOM     BASIS     RHF     GEOM     BASIS     RHF     GEOM     BASIS   
                                         2112      709     1013     2113      710     1014     2114      711     1015     2115   
                                          RHF     GEOM     BASIS     RHF     GEOM     BASIS     RHF     GEOM     BASIS     RHF  
                                          712     1016     2116      713     1017     2117      714     1018     2118     1019   
                                         GEOM     BASIS     RHF     GEOM     BASIS     RHF     GEOM     BASIS     RHF     BASIS   
                                         2119     1020     2120     1021     2121     1022     2122     1023     2123      714(1)
                                          RHF     BASIS     RHF     BASIS     RHF     BASIS     RHF     BASIS     RHF     GEOM   
                                         1024     2124      715     1025     2125      710(1)  1026     2126     1027     2127   
                                         BASIS     RHF     GEOM     BASIS     RHF     GEOM     BASIS     RHF     BASIS     RHF  

 PROGRAMS   *        TOTAL   RESTART
 CPU TIMES  *         6.31      6.05
 REAL TIME  *         7.17 SEC
 DISK USED  *       115.77 MB (local),        1.02 GB (total)
 **********************************************************************************************************************************

 Geometry recognized as XYZ

 SETTING BASIS          =    CC-PVTZ-F12


 Using spherical harmonics

 Library entry O      S cc-pVTZ-F12          selected for orbital group  1
 Library entry O      P cc-pVTZ-F12          selected for orbital group  1
 Library entry O      D cc-pVTZ-F12          selected for orbital group  1
 Library entry O      F cc-pVTZ-F12          selected for orbital group  1
 Library entry N      S cc-pVTZ-F12          selected for orbital group  2
 Library entry N      P cc-pVTZ-F12          selected for orbital group  2
 Library entry N      D cc-pVTZ-F12          selected for orbital group  2
 Library entry N      F cc-pVTZ-F12          selected for orbital group  2


 PROGRAM * SEWARD (Integral evaluation for generally contracted gaussian basis sets)     Author: Roland Lindh, 1990

 Geometry written to block  1 of record 712


 Point group  C1  



 ATOMIC COORDINATES

 NR  ATOM    CHARGE       X              Y              Z

   1  O       8.00    3.676862797   -0.266595003    0.246063128
   2  N       7.00    1.650702226   -0.484134605    1.031336930
   3  N       7.00   -0.453267819    0.530204238   -1.120664284
   4  O       8.00   -2.363278263    1.468237830    0.489682841
   5  O       8.00   -2.503040518   -1.090645984   -0.579798211

 Bond lengths in Bohr (Angstrom)

 1-2  2.183873871  2-3  3.175953787  3-4  2.668569801  3-5  2.668568843  4-5  2.776906477
     ( 1.155656284)     ( 1.680642367)     ( 1.412146324)     ( 1.412145818)     ( 1.469475625)

 Bond angles

  1-2-3  109.82604045   2-3-4  100.22597578   2-3-5  100.22601293   3-4-5   58.64769104

  3-5-4   58.64772478   4-3-5   62.70458417

 NUCLEAR CHARGE:                   38
 NUMBER OF PRIMITIVE AOS:         360
 NUMBER OF SYMMETRY AOS:          315
 NUMBER OF CONTRACTIONS:          265   (  265A   )
 NUMBER OF INNER CORE ORBITALS:     0   (    0A   )
 NUMBER OF OUTER CORE ORBITALS:     5   (    5A   )
 NUMBER OF VALENCE ORBITALS:       20   (   20A   )

 MOLECULE CHANGED: INITIALIZING OCCUPATION AND DUMP RECORDS


 NUCLEAR REPULSION ENERGY  164.01187381


 Eigenvalues of metric

         1 0.185E-03 0.280E-03 0.425E-03 0.439E-03 0.463E-03 0.512E-03 0.529E-03 0.545E-03


 Contracted 2-electron integrals neglected if value below      1.0D-11
 AO integral compression algorithm  1   Integral accuracy      1.0D-11

     2589.721 MB (compressed) written to integral file ( 44.2%)

     Node minimum: 277.086 MB, node maximum: 297.533 MB


 NUMBER OF SORTED TWO-ELECTRON INTEGRALS:   69025374.     BUFFER LENGTH:  32768
 NUMBER OF SEGMENTS:   5  SEGMENT LENGTH:   15998004      RECORD LENGTH: 524288

 Memory used in sort:      16.56 MW

 SORT1 READ   731769500. AND WROTE    62872107. INTEGRALS IN    182 RECORDS. CPU TIME:    48.09 SEC, REAL TIME:    55.23 SEC
 SORT2 READ   563662426. AND WROTE   621122635. INTEGRALS IN  10215 RECORDS. CPU TIME:     1.89 SEC, REAL TIME:    23.45 SEC

 Node minimum:    68997962.  Node maximum:    69029291. integrals

 OPERATOR DM      FOR CENTER  0  COORDINATES:    0.000000    0.000000    0.000000


 **********************************************************************************************************************************
 DATASETS  * FILE   NREC   LENGTH (MB)   RECORD NAMES
              1      19       31.37       500      711      610      712      900      950      970     1028      129      960   
                                          VAR     GEOM    BASINP    GEOM    SYMINP    ZMAT    AOBASIS   BASIS     P2S    ABASIS    
                                         1100     1400     1410     1200     1210     1080     1600     1650     1700   
                                           S        T        V       H0       H01     AOSYM     SMH    MOLCAS    OPER   

              2      81      105.14       500      610      700     1000      520     2100     7360     7350      701     1001   
                                          VAR    BASINP    GEOM     BASIS   MCVARS     RHF    F12ABS    EF12     GEOM     BASIS   
                                         2101      702     1002     2102      703     1003     2103     1004     2104     1005   
                                          RHF     GEOM     BASIS     RHF     GEOM     BASIS     RHF     BASIS     RHF     BASIS   
                                         2105      702(1)  1006     2106     1007     2107      704     1008     2108      705   
                                          RHF     GEOM     BASIS     RHF     BASIS     RHF     GEOM     BASIS     RHF     GEOM   
                                         1009     2109      706     1010     2110      707     1011     2111      708     1012   
                                         BASIS     RHF     GEOM     BASIS     RHF     GEOM     BASIS     RHF     GEOM     BASIS   
                                         2112      709     1013     2113      710     1014     2114      711     1015     2115   
                                          RHF     GEOM     BASIS     RHF     GEOM     BASIS     RHF     GEOM     BASIS     RHF  
                                          712     1016     2116      713     1017     2117      714     1018     2118     1019   
                                         GEOM     BASIS     RHF     GEOM     BASIS     RHF     GEOM     BASIS     RHF     BASIS   
                                         2119     1020     2120     1021     2121     1022     2122     1023     2123      714(1)
                                          RHF     BASIS     RHF     BASIS     RHF     BASIS     RHF     BASIS     RHF     GEOM   
                                         1024     2124      715     1025     2125      710(1)  1026     2126     1027     2127   
                                         BASIS     RHF     GEOM     BASIS     RHF     GEOM     BASIS     RHF     BASIS     RHF  
                                         1028   
                                         BASIS   

 PROGRAMS   *        TOTAL       INT   RESTART
 CPU TIMES  *        61.24     54.82      6.05
 REAL TIME  *       109.44 SEC
 DISK USED  *       136.59 MB (local),        9.83 GB (total)
 GA USED    *         0.00 MB       (max)       0.00 MB       (current)
 **********************************************************************************************************************************


 Program * Restricted Hartree-Fock

 Orbital guess generated from atomic densities. Full valence occupancy:   25

 Initial occupancy:  19

 NELEC=   38   SYM=1   MS2= 0   THRE=1.0D-08   THRD=3.2D-06   THRG=3.2D-06  HFMA2=F  DIIS_START=2   DIIS_MAX=10   DIIS_INCORE=F

 Level shifts:    0.00 (CLOSED)    0.00 (OPEN)    0.30 (GAP_MIN)

 ITER           ETOT              DE          GRAD        DDIFF     DIIS  NEXP   TIME(IT)  TIME(TOT)  DIAG
   1     -333.11206022    -333.11206022     0.00D+00     0.43D-01     0     0       0.82      1.64    start
   2     -333.19226065      -0.08020043     0.64D-02     0.60D-02     1     0       0.91      2.55    diag
   3     -333.25311556      -0.06085491     0.44D-02     0.31D-02     2     0       0.96      3.51    diag
   4     -333.25703602      -0.00392046     0.11D-02     0.71D-03     3     0       1.03      4.54    diag
   5     -333.25766028      -0.00062426     0.24D-03     0.30D-03     4     0       0.89      5.43    diag
   6     -333.25777091      -0.00011063     0.87D-04     0.14D-03     5     0       0.95      6.38    diag
   7     -333.25780337      -0.00003246     0.59D-04     0.77D-04     6     0       0.85      7.23    diag
   8     -333.25780936      -0.00000599     0.19D-04     0.39D-04     7     0       0.88      8.11    diag
   9     -333.25781013      -0.00000077     0.91D-05     0.13D-04     8     0       0.87      8.98    diag
  10     -333.25781024      -0.00000011     0.33D-05     0.53D-05     9     0       0.86      9.84    diag/orth
  11     -333.25781025      -0.00000001     0.80D-06     0.14D-05     9     0       0.91     10.75    diag
  12     -333.25781025      -0.00000000     0.22D-06     0.25D-06     0     0       0.99     11.74    diag

 Final occupancy:  19

 !RHF STATE 1.1 Energy               -333.257810248657
  RHF One-electron energy            -782.408283824826
  RHF Two-electron energy             285.138599761865
  RHF Kinetic energy                  332.564233131836
  RHF Nuclear energy                  164.011873814304
  RHF Virial quotient                  -1.002085543326

 !RHF STATE 1.1 Dipole moment           0.41765408    -0.05658173     0.08079874
 Dipole moment /Debye                   1.06157080    -0.14381642     0.20536991

 Orbital energies:

           1.1          2.1          3.1          4.1          5.1          6.1          7.1          8.1          9.1         10.1
    -20.721928   -20.717272   -20.716987   -15.810336   -15.772136    -1.652273    -1.624350    -1.229710    -1.101818    -0.953724

          11.1         12.1         13.1         14.1         15.1         16.1         17.1         18.1         19.1         20.1
     -0.804635    -0.761025    -0.698627    -0.695124    -0.652126    -0.616582    -0.579067    -0.531860    -0.425953     0.043130

          21.1
      0.071121


 HOMO     19.1    -0.425953 =     -11.5908eV
 LUMO     20.1     0.043130 =       1.1736eV
 LUMO-HOMO         0.469083 =      12.7644eV

 Orbitals saved in record  2128.2


 **********************************************************************************************************************************
 DATASETS  * FILE   NREC   LENGTH (MB)   RECORD NAMES
              1      19       31.37       500      711      610      712      900      950      970     1028      129      960   
                                          VAR     GEOM    BASINP    GEOM    SYMINP    ZMAT    AOBASIS   BASIS     P2S    ABASIS    
                                         1100     1400     1410     1200     1210     1080     1600     1650     1700   
                                           S        T        V       H0       H01     AOSYM     SMH    MOLCAS    OPER   

              2      82      108.59       500      610      700     1000      520     2100     7360     7350      701     1001   
                                          VAR    BASINP    GEOM     BASIS   MCVARS     RHF    F12ABS    EF12     GEOM     BASIS   
                                         2101      702     1002     2102      703     1003     2103     1004     2104     1005   
                                          RHF     GEOM     BASIS     RHF     GEOM     BASIS     RHF     BASIS     RHF     BASIS   
                                         2105      702(1)  1006     2106     1007     2107      704     1008     2108      705   
                                          RHF     GEOM     BASIS     RHF     BASIS     RHF     GEOM     BASIS     RHF     GEOM   
                                         1009     2109      706     1010     2110      707     1011     2111      708     1012   
                                         BASIS     RHF     GEOM     BASIS     RHF     GEOM     BASIS     RHF     GEOM     BASIS   
                                         2112      709     1013     2113      710     1014     2114      711     1015     2115   
                                          RHF     GEOM     BASIS     RHF     GEOM     BASIS     RHF     GEOM     BASIS     RHF  
                                          712     1016     2116      713     1017     2117      714     1018     2118     1019   
                                         GEOM     BASIS     RHF     GEOM     BASIS     RHF     GEOM     BASIS     RHF     BASIS   
                                         2119     1020     2120     1021     2121     1022     2122     1023     2123      714(1)
                                          RHF     BASIS     RHF     BASIS     RHF     BASIS     RHF     BASIS     RHF     GEOM   
                                         1024     2124      715     1025     2125      710(1)  1026     2126     1027     2127   
                                         BASIS     RHF     GEOM     BASIS     RHF     GEOM     BASIS     RHF     BASIS     RHF  
                                         1028     2128   
                                         BASIS     RHF  

 PROGRAMS   *        TOTAL    HF-SCF       INT   RESTART
 CPU TIMES  *        73.10     11.81     54.82      6.05
 REAL TIME  *       122.35 SEC
 DISK USED  *       144.88 MB (local),        9.90 GB (total)
 GA USED    *         0.00 MB       (max)       0.00 MB       (current)
 **********************************************************************************************************************************


 PROGRAM * CCSD (Closed-shell coupled cluster)     Authors: C. Hampel, H.-J. Werner, 1991, M. Deegan, P.J. Knowles, 1992

                                  CCSD-F12 implementation by  H.-J. Werner, 2007

                   Density fitting integral evaluation by F.R. Manby, 2003,2007, G. Knizia, 2010


 Basis set VTZ-F12/JKFIT generated.      Number of basis functions:   520 
 Basis set CC-PVTZ-F12/OPTRI generated.  Number of basis functions:   375 
 Basis set CC-PVTZ-F12/MP2FIT generated. Number of basis functions:   530 

 Convergence thresholds:  THRVAR = 1.00D-08  THRDEN = 1.00D-06

 CCSD(T)     terms to be evaluated (factor= 1.000)


 Number of core orbitals:           5 (   5 )
 Number of closed-shell orbitals:  14 (  14 )
 Number of external orbitals:     246 ( 246 )

 Molecular orbitals read from record     2128.2  Type=RHF/CANONICAL  

 MP2-F12 correlation treatment (H.-J. Werner, 2006)
 ==================================================

 Using MP2-F12 with ansatz 3C(FIX)

 Using projected zeroth-order Hamiltonian (+Z)

 FOCKRIB=T FOCKRIC=T FOCKRIP=T CABSP=T CABSA=T CABSK=T CABSF=T GBC=F EBC=F DMAT=T NOFIK=T NOPAO=1 SOLVE=-1  USEPAO=0
 EXCH_A= T EXCH_B= F EXCH_C= F EXCH_P= F

 Geminal basis:    OPTFULL  GEM_TYPE=SLATER  BETA=1.0  NGEM=6

 Optimizing Gaussian exponents for each gem_beta

 Geminal optimization for beta= 1.0000
 Weight function:   m=0, omega= 1.4646

 Augmented Hessian optimization of geminal fit. Trust ratio= 0.40000
 Convergence reached after   2 iterations. Final gradient= 8.66D-16, Step= 4.23D-06, Delta= 1.28D-09

 Alpha:                 0.19532     0.81920     2.85917     9.50073    35.69989   197.79328
 Coeff:                 0.27070     0.30552     0.18297     0.10986     0.06810     0.04224


 All pairs explicitly correlated. Number of r12-pairs:          105

 Excluding core orbitals from MO domains

 AO(A)-basis ORBITAL           loaded. Number of functions:     265
 RI(R)-basis CC-PVTZ-F12/OPTRI loaded. Number of functions:     375
 DF-basis VTZ-F12/JKFIT        loaded. Number of functions:     520

 Screening thresholds:   THRAO=  1.00D-10  THRMO=  1.00D-09  THRPROD=  1.00D-09
                         THRSW=  1.00D-05  THROV=  1.00D-12  THRAOF12= 1.00D-08

 CPU time for Fock operators                      0.69 sec

 Construction of ABS:
 Smallest eigenvalue of S          4.04E-04  (threshold= 1.00E-08)
 Ratio eigmin/eigmax               5.93E-05  (threshold= 1.00E-09)
 Smallest eigenvalue of S kept     4.04E-04  (threshold= 4.04E-04, 0 functions deleted, 375 kept)

 Construction of CABS:
 Smallest eigenvalue of S          1.68E-06  (threshold= 1.00E-08)
 Ratio eigmin/eigmax               1.68E-06  (threshold= 1.00E-09)
 Smallest eigenvalue of S kept     1.68E-06  (threshold= 1.68E-06, 0 functions deleted, 375 kept)

 CPU time for CABS singles                        0.11 sec

 CABS-singles contribution of  -0.00299335 patched into reference energy.
 New reference energy        -333.26080360

 AO(A)-basis ORBITAL           loaded. Number of functions:     265
 RI(R)-basis CC-PVTZ-F12/OPTRI loaded. Number of functions:     375
 DF-basis CC-PVTZ-F12/MP2FIT   loaded. Number of functions:     530

 Screening thresholds:   THRAO=  1.00D-10  THRMO=  1.00D-09  THRPROD=  1.00D-09
                         THRSW=  1.00D-05  THROV=  1.00D-12  THRAOF12= 1.00D-08

 CPU time for 3-index integral evaluation         1.81 sec
 CPU time for first  half transformation          0.14 sec (10624.4 MFLOP/sec)
 CPU time for second half transformation          0.06 sec (  991.6 MFLOP/sec)
 CPU time for sorting                             0.09 sec
 CPU time for fitting                             0.03 sec (25037.6 MFLOP/sec)
 CPU time for tilde quantities                    0.17 sec ( 4117.7 MFLOP/sec)
 CPU time for assembly                            0.72 sec (16480.2 MFLOP/sec)
 CPU time for tranop_f12                          1.05 sec (15260.0 MFLOP/sec)
 CPU time for f12 integrals (total)               5.56 sec, Elapsed time:     36.35 sec
 F12-matrices built in  9 passes.
 F12-matrices built in  9 passes.
 F12-matrices built in  9 passes.
 F12-matrices built in  9 passes.
 FC-matrix built in  9 passes.
 CPU time for f12 matrices (total)                0.56 sec, Elapsed time:      0.61 sec

 Diagonal F12 approximation with fixed coefficients:  TSING= 0.500,  TTRIP= 0.250 (scaled by -1/beta)

 DF-MP2-F12 energy corrections:
 ==============================
 Approx.                                    Singlet             Triplet             Total
 DF-MP2-F12/3*C(DX,FIX)                -0.091001769521     -0.012546100971     -0.103547870492
 DF-MP2-F12/3*C(FIX)                   -0.084246525757     -0.011608512861     -0.095855038619
 DF-MP2-F12/3C(FIX)                    -0.084266374275     -0.012206134926     -0.096472509201

 DF-MP2-F12 correlation energies:
 ================================
 Approx.                                    Singlet             Triplet             Ecorr            Total Energy
 DF-MP2                                -0.719797577064     -0.459814025722     -1.179611602786   -334.440415204482
 DF-MP2-F12/3*C(DX,FIX)                -0.810799346585     -0.472360126693     -1.283159473279   -334.543963074974
 DF-MP2-F12/3*C(FIX)                   -0.804044102822     -0.471422538583     -1.275466641405   -334.536270243100
 DF-MP2-F12/3C(FIX)                    -0.804063951339     -0.472020160648     -1.276084111987   -334.536887713683

 SCS-DF-MP2 energies (F_SING= 1.20000  F_TRIP= 0.62222  F_PARALLEL= 0.33333):
 ============================================================================
 SCS-DF-MP2                            -1.149863597371   -334.410667199066
 SCS-DF-MP2-F12/3*C(DX,FIX)            -1.266872183623   -334.527675785318
 SCS-DF-MP2-F12/3*C(FIX)               -1.258182502949   -334.518986104644
 SCS-DF-MP2-F12/3C(FIX)                -1.258578174899   -334.519381776595
 Symmetry transformation completed.

 Number of N-1 electron functions:              14
 Number of N-2 electron functions:             105
 Number of singly external CSFs:              3444
 Number of doubly external CSFs:           5932290
 Total number of CSFs:                     5935735

 Pair and operator lists are different

 Length of J-op  integral file:             755.74 MB
 Length of K-op  integral file:             935.87 MB
 Length of 3-ext integral record:             0.00 MB

 Memory could be reduced to 260.71 Mwords without degradation in triples

 Integral transformation finished. Total CPU:  27.72 sec, npass=  1  Memory used: 153.78 MW

 Reference energy:                   -333.26080360

 Adding F12 terms to K(Cij), methodcc=6,  factor= 1.0

 ITER.      SQ.NORM     CORR.ENERGY   TOTAL ENERGY   ENERGY CHANGE        DEN1      VAR(S)    VAR(P)  DIIS     TIME  TIME/IT
   1      1.29781279    -1.15045624  -334.41125984     0.02923948     0.08158452  0.12D-01  0.11D-01  1  1    45.01    11.11
   2      1.32750385    -1.14457214  -334.40537574     0.00588411    -0.03818340  0.27D-03  0.14D-02  2  2    54.78    11.57
   3      1.33991465    -1.14528969  -334.40609329    -0.00071755    -0.00399205  0.34D-03  0.16D-03  3  3    64.40    11.46
   4      1.34855349    -1.14515421  -334.40595781     0.00013549    -0.00361910  0.30D-04  0.30D-04  4  4    74.10    11.37
   5      1.35239336    -1.14525231  -334.40605591    -0.00009810    -0.00113217  0.14D-04  0.33D-05  5  5    83.66    11.35
   6      1.35368562    -1.14523259  -334.40603619     0.00001973    -0.00012278  0.23D-05  0.92D-06  6  6    94.36    11.62
   7      1.35410697    -1.14521491  -334.40601851     0.00001768    -0.00000835  0.11D-05  0.22D-06  6  1   103.51    11.49
   8      1.35433264    -1.14520934  -334.40601294     0.00000557    -0.00003591  0.24D-06  0.77D-07  6  2   112.93    11.40
   9      1.35440707    -1.14520353  -334.40600714     0.00000581     0.00001623  0.66D-07  0.14D-07  6  3   122.53    11.45
  10      1.35446658    -1.14520007  -334.40600367     0.00000346    -0.00001741  0.20D-07  0.35D-08  6  4   133.02    11.52
  11      1.35447575    -1.14520121  -334.40600481    -0.00000114     0.00000271  0.39D-08  0.13D-08  6  6   142.61    11.47
  12      1.35447610    -1.14520159  -334.40600519    -0.00000037     0.00000218  0.63D-09  0.18D-09  6  2   151.96    11.40
  13      1.35447776    -1.14520187  -334.40600547    -0.00000029    -0.00000000  0.17D-09  0.46D-10  6  5   161.65    11.38

 Norm of t1 vector:      0.14665623      S-energy:    -0.00000058      T1 diagnostic:  0.01959776
                                                                       D1 diagnostic:  0.06465519
                                                                       D2 diagnostic:  0.19812597 (internal)

 Doubles amplitudes (print threshold =  0.500E-01):

         I         J         SYM. A    SYM. B    A         B      T(IJ, AB)

         9         9         1         1         1         1     -0.08676852
        14        14         1         1        12        12     -0.06152789

 Adding energy correction from Wij-K(Fij), methodcc=6  factor= 1.0

  CCSD correlation energy              -1.145201870887
  MP2-F12 correction (uncoupled)       -0.090261856708
  C*T doubles correction               -0.004314271549
  f12b correction                       0.016049881572


 Total CPU time for triples:    156.37 sec


 RESULTS
 =======

  Reference energy                   -333.257810248657
  F12 singles correction               -0.002993353038

 F12 singles corrections added to reference energy

  New reference energy               -333.260803601695

  F12a singlet correction              -0.083032609510
  F12a triplet correction              -0.011543518747
  F12a total correction                -0.094576128257

 F12a corrections for ansatz F12/3C(FIX) added to CCSD energy

  CCSD-F12a singlet pair energy        -0.842606330810
  CCSD-F12a triplet pair energy        -0.397171092945
  CCSD-F12a correlation energy         -1.239777999144

  Triples (T) contribution             -0.065659984924
  Total correlation energy             -1.305437984067

  CCSD-F12a total energy             -334.500581600839
  CCSD[T]-F12a energy                -334.570203324460
  CCSD-T-F12a energy                 -334.564761308296
 !CCSD(T)-F12a total energy          -334.566241585763

 F12b corrections for ansatz F12/3C(FIX) added to CCSD(T)-F12a energy

  CCSD-F12b singlet pair energy        -0.827790240018
  CCSD-F12b triplet pair energy        -0.395937302165
  CCSD-F12b correlation energy         -1.223728117571

  Triples (T) contribution             -0.065659984924
  Total correlation energy             -1.289388102495

  CCSD-F12b total energy             -334.484531719267
  CCSD[T]-F12b energy                -334.554153442888
  CCSD-T-F12b energy                 -334.548711426724
 !CCSD(T)-F12b total energy          -334.550191704191

 Timing summary (sec):

 STEP                 CPU(USER)    SYS     CPU(TOT)    WALL
 Transformation         27.86      4.06     31.92     96.49
 CCSD iterations       126.46     10.10    136.56    149.21
 Triples               156.37      3.65    160.02    160.10
 MP2-F12                 7.86      1.88      9.74     39.23
 F12b energy             6.33      0.15      6.48      6.50

 Program statistics:

 Available memory in ccsd:               447997872
 Min. memory needed in ccsd:              14889313
 Max. memory used in ccsd:                20263787
 Max. memory used in cckext:              15407362 (14 integral passes)



 **********************************************************************************************************************************
 DATASETS  * FILE   NREC   LENGTH (MB)   RECORD NAMES
              1      20      915.22       500      711      610      712      900      950      970     1028      129      960   
                                          VAR     GEOM    BASINP    GEOM    SYMINP    ZMAT    AOBASIS   BASIS     P2S    ABASIS    
                                         1100     1400     1410     1200     1210     1080     1600     1650     1700     1380   
                                           S        T        V       H0       H01     AOSYM     SMH    MOLCAS    OPER     JKOP   

              2      82      108.59       500      610      700     1000      520     2100     7360     7350      701     1001   
                                          VAR    BASINP    GEOM     BASIS   MCVARS     RHF    F12ABS    EF12     GEOM     BASIS   
                                         2101      702     1002     2102      703     1003     2103     1004     2104     1005   
                                          RHF     GEOM     BASIS     RHF     GEOM     BASIS     RHF     BASIS     RHF     BASIS   
                                         2105      702(1)  1006     2106     1007     2107      704     1008     2108      705   
                                          RHF     GEOM     BASIS     RHF     BASIS     RHF     GEOM     BASIS     RHF     GEOM   
                                         1009     2109      706     1010     2110      707     1011     2111      708     1012   
                                         BASIS     RHF     GEOM     BASIS     RHF     GEOM     BASIS     RHF     GEOM     BASIS   
                                         2112      709     1013     2113      710     1014     2114      711     1015     2115   
                                          RHF     GEOM     BASIS     RHF     GEOM     BASIS     RHF     GEOM     BASIS     RHF  
                                          712     1016     2116      713     1017     2117      714     1018     2118     1019   
                                         GEOM     BASIS     RHF     GEOM     BASIS     RHF     GEOM     BASIS     RHF     BASIS   
                                         2119     1020     2120     1021     2121     1022     2122     1023     2123      714(1)
                                          RHF     BASIS     RHF     BASIS     RHF     BASIS     RHF     BASIS     RHF     GEOM   
                                         1024     2124      715     1025     2125      710(1)  1026     2126     1027     2127   
                                         BASIS     RHF     GEOM     BASIS     RHF     GEOM     BASIS     RHF     BASIS     RHF  
                                         1028     2128   
                                         BASIS     RHF  

 PROGRAMS   *        TOTAL   CCSD(T)    HF-SCF       INT   RESTART
 CPU TIMES  *       398.07    324.94     11.81     54.82      6.05
 REAL TIME  *       574.96 SEC
 DISK USED  *         1.57 GB (local),       18.20 GB (total)
 SF USED    *         2.97 GB
 GA USED    *         3.05 MB       (max)       0.00 MB       (current)
 **********************************************************************************************************************************

 CCSD(T)-F12/cc-pVTZ-F12 energy=   -334.550191704191

     CCSD(T)-F12          HF-SCF
   -334.55019170   -333.25781025
 **********************************************************************************************************************************
 Molpro calculation terminated
