 Entering Gaussian System, Link 0=/Local/ce_dana/g09/g09
 Initial command:
 /Local/ce_dana/g09/l1.exe "/storage/ce_dana/alongd/scratch/g09/Gau-28839.inp" -scrdir="/storage/ce_dana/alongd/scratch/g09/"
 Entering Link 1 = /Local/ce_dana/g09/l1.exe PID=     28840.
  
 Copyright (c) 1988,1990,1992,1993,1995,1998,2003,2009,2013,
            Gaussian, Inc.  All Rights Reserved.
  
 This is part of the Gaussian(R) 09 program.  It is based on
 the Gaussian(R) 03 system (copyright 2003, Gaussian, Inc.),
 the Gaussian(R) 98 system (copyright 1998, Gaussian, Inc.),
 the Gaussian(R) 94 system (copyright 1995, Gaussian, Inc.),
 the Gaussian 92(TM) system (copyright 1992, Gaussian, Inc.),
 the Gaussian 90(TM) system (copyright 1990, Gaussian, Inc.),
 the Gaussian 88(TM) system (copyright 1988, Gaussian, Inc.),
 the Gaussian 86(TM) system (copyright 1986, Carnegie Mellon
 University), and the Gaussian 82(TM) system (copyright 1983,
 Carnegie Mellon University). Gaussian is a federally registered
 trademark of Gaussian, Inc.
  
 This software contains proprietary and confidential information,
 including trade secrets, belonging to Gaussian, Inc.
  
 This software is provided under written license and may be
 used, copied, transmitted, or stored only in accord with that
 written license.
  
 The following legend is applicable only to US Government
 contracts under FAR:
  
                    RESTRICTED RIGHTS LEGEND
  
 Use, reproduction and disclosure by the US Government is
 subject to restrictions as set forth in subparagraphs (a)
 and (c) of the Commercial Computer Software - Restricted
 Rights clause in FAR 52.227-19.
  
 Gaussian, Inc.
 340 Quinnipiac St., Bldg. 40, Wallingford CT 06492
  
  
 ---------------------------------------------------------------
 Warning -- This program may not be used in any manner that
 competes with the business of Gaussian, Inc. or will provide
 assistance to any competitor of Gaussian, Inc.  The licensee
 of this program is prohibited from giving any competitor of
 Gaussian, Inc. access to this program.  By using this program,
 the user acknowledges that Gaussian, Inc. is engaged in the
 business of creating and licensing software in the field of
 computational chemistry and represents and warrants to the
 licensee that it is not a competitor of Gaussian, Inc. and that
 it will not use this program in any manner prohibited above.
 ---------------------------------------------------------------
  

 Cite this work as:
 Gaussian 09, Revision D.01,
 M. J. Frisch, G. W. Trucks, H. B. Schlegel, G. E. Scuseria, 
 M. A. Robb, J. R. Cheeseman, G. Scalmani, V. Barone, B. Mennucci, 
 G. A. Petersson, H. Nakatsuji, M. Caricato, X. Li, H. P. Hratchian, 
 A. F. Izmaylov, J. Bloino, G. Zheng, J. L. Sonnenberg, M. Hada, 
 M. Ehara, K. Toyota, R. Fukuda, J. Hasegawa, M. Ishida, T. Nakajima, 
 Y. Honda, O. Kitao, H. Nakai, T. Vreven, J. A. Montgomery, Jr., 
 J. E. Peralta, F. Ogliaro, M. Bearpark, J. J. Heyd, E. Brothers, 
 K. N. Kudin, V. N. Staroverov, T. Keith, R. Kobayashi, J. Normand, 
 K. Raghavachari, A. Rendell, J. C. Burant, S. S. Iyengar, J. Tomasi, 
 M. Cossi, N. Rega, J. M. Millam, M. Klene, J. E. Knox, J. B. Cross, 
 V. Bakken, C. Adamo, J. Jaramillo, R. Gomperts, R. E. Stratmann, 
 O. Yazyev, A. J. Austin, R. Cammi, C. Pomelli, J. W. Ochterski, 
 R. L. Martin, K. Morokuma, V. G. Zakrzewski, G. A. Voth, 
 P. Salvador, J. J. Dannenberg, S. Dapprich, A. D. Daniels, 
 O. Farkas, J. B. Foresman, J. V. Ortiz, J. Cioslowski, 
 and D. J. Fox, Gaussian, Inc., Wallingford CT, 2013.
 
 ******************************************
 Gaussian 09:  ES64L-G09RevD.01 24-Apr-2013
                12-Nov-2022 
 ******************************************
 %chk=check.chk
 %mem=7168mb
 %NProcShared=10
 Will use up to   10 processors via shared memory.
 ----------------------------------------------------------------------
 #P opt=(modredundant, calcfc, noeigentest, maxStep=5) scf=(tight, dire
 ct) integral=(grid=ultrafine, Acc2E=12) guess=read b2plypd3/def2tzvp I
 Op(2/9=2000) scf=xqc
 ----------------------------------------------------------------------
 1/8=5,10=4,11=1,18=120,19=15,38=1/1,3;
 2/9=2000,12=2,17=6,18=5,40=1/2;
 3/5=44,7=101,11=9,16=1,25=1,30=1,71=2,74=-60,75=-5,116=-2,140=1/1,2,3;
 4/5=1/1;
 5/5=2,8=3,13=1,32=2,38=6,87=12/2,8;
 8/6=3,8=1,10=1,19=11,30=-1,87=12/1;
 9/15=3,16=-3,87=12/6;
 11/6=1,8=1,15=11,17=12,24=-1,27=1,28=-2,29=300,32=6,42=3,87=12/1,2,10;
 10/6=2,21=1,87=12/2;
 8/6=4,8=1,10=1,19=11,30=-1,87=12/11,4;
 10/5=1,20=4,87=12/2;
 11/12=2,14=11,16=1,17=2,28=-2,42=3,87=12/2,10,12;
 6/7=2,8=2,9=2,10=2/1;
 7/10=1,12=2,25=1,44=2,87=12/1,2,3,16;
 1/8=5,10=4,11=1,18=20,19=15/3(2);
 2/9=2000/2;
 99//99;
 2/9=2000/2;
 3/5=44,7=101,11=9,16=1,25=1,30=1,71=1,74=-60,75=-5/1,2,3;
 4/5=5,16=3,69=1/1;
 5/5=2,8=3,13=1,32=2,38=5,87=12/2,8;
 8/6=4,10=1,87=12/1;
 9/15=2,16=-3,87=12/6;
 10/5=1,87=12/2;
 7/12=2,87=12/1,2,3,16;
 1/8=5,11=1,18=20,19=15/3(-8);
 2/9=2000/2;
 6/7=2,8=2,9=2,10=2/1;
 99//99;
 Leave Link    1 at Sat Nov 12 22:07:39 2022, MaxMem=   939524096 cpu:         0.1
 (Enter /Local/ce_dana/g09/l101.exe)
 ----
 C2H6
 ----
 Symbolic Z-matrix:
 Charge =  0 Multiplicity = 1
 C                     0.76212   0.02504   0.0051 
 C                    -0.76212  -0.02504  -0.0051 
 H                     1.19153  -0.9227   -0.32131 
 H                     1.13708   0.80341  -0.66025 
 H                     1.14467   0.23341   1.00479 
 H                    -1.14467  -0.23341  -1.00479 
 H                    -1.19153   0.9227    0.32131 
 H                    -1.13708  -0.80341   0.66025 
 
 The following ModRedundant input section has been read:
 D       3       1       2       6 S  45 8.0000                                
 
 NAtoms=      8 NQM=        8 NQMF=       0 NMMI=      0 NMMIF=      0
                NMic=       0 NMicF=      0.
                    Isotopes and Nuclear Properties:
 (Nuclear quadrupole moments (NQMom) in fm**2, nuclear magnetic moments (NMagM)
  in nuclear magnetons)

  Atom         1           2           3           4           5           6           7           8
 IAtWgt=          12          12           1           1           1           1           1           1
 AtmWgt=  12.0000000  12.0000000   1.0078250   1.0078250   1.0078250   1.0078250   1.0078250   1.0078250
 NucSpn=           0           0           1           1           1           1           1           1
 AtZEff=   0.0000000   0.0000000   0.0000000   0.0000000   0.0000000   0.0000000   0.0000000   0.0000000
 NQMom=    0.0000000   0.0000000   0.0000000   0.0000000   0.0000000   0.0000000   0.0000000   0.0000000
 NMagM=    0.0000000   0.0000000   2.7928460   2.7928460   2.7928460   2.7928460   2.7928460   2.7928460
 AtZNuc=   6.0000000   6.0000000   1.0000000   1.0000000   1.0000000   1.0000000   1.0000000   1.0000000
 Leave Link  101 at Sat Nov 12 22:07:40 2022, MaxMem=   939524096 cpu:         0.4
 (Enter /Local/ce_dana/g09/l103.exe)

 GradGradGradGradGradGradGradGradGradGradGradGradGradGradGradGradGradGrad
 Berny optimization.
 Initialization pass.
                           ----------------------------
                           !    Initial Parameters    !
                           ! (Angstroms and Degrees)  !
 --------------------------                            --------------------------
 ! Name  Definition              Value          Derivative Info.                !
 --------------------------------------------------------------------------------
 ! R1    R(1,2)                  1.5251         calculate D2E/DX2 analytically  !
 ! R2    R(1,3)                  1.0905         calculate D2E/DX2 analytically  !
 ! R3    R(1,4)                  1.0905         calculate D2E/DX2 analytically  !
 ! R4    R(1,5)                  1.0905         calculate D2E/DX2 analytically  !
 ! R5    R(2,6)                  1.0905         calculate D2E/DX2 analytically  !
 ! R6    R(2,7)                  1.0905         calculate D2E/DX2 analytically  !
 ! R7    R(2,8)                  1.0905         calculate D2E/DX2 analytically  !
 ! A1    A(2,1,3)              111.2855         calculate D2E/DX2 analytically  !
 ! A2    A(2,1,4)              111.2853         calculate D2E/DX2 analytically  !
 ! A3    A(2,1,5)              111.2854         calculate D2E/DX2 analytically  !
 ! A4    A(3,1,4)              107.5977         calculate D2E/DX2 analytically  !
 ! A5    A(3,1,5)              107.5976         calculate D2E/DX2 analytically  !
 ! A6    A(4,1,5)              107.5977         calculate D2E/DX2 analytically  !
 ! A7    A(1,2,6)              111.2854         calculate D2E/DX2 analytically  !
 ! A8    A(1,2,7)              111.2854         calculate D2E/DX2 analytically  !
 ! A9    A(1,2,8)              111.2853         calculate D2E/DX2 analytically  !
 ! A10   A(6,2,7)              107.5977         calculate D2E/DX2 analytically  !
 ! A11   A(6,2,8)              107.5977         calculate D2E/DX2 analytically  !
 ! A12   A(7,2,8)              107.5977         calculate D2E/DX2 analytically  !
 ! D1    D(3,1,2,6)            -60.0            Scan                            !
 ! D2    D(3,1,2,7)            180.0            calculate D2E/DX2 analytically  !
 ! D3    D(3,1,2,8)             60.0            calculate D2E/DX2 analytically  !
 ! D4    D(4,1,2,6)             60.0            calculate D2E/DX2 analytically  !
 ! D5    D(4,1,2,7)            -60.0            calculate D2E/DX2 analytically  !
 ! D6    D(4,1,2,8)            180.0            calculate D2E/DX2 analytically  !
 ! D7    D(5,1,2,6)           -179.9999         calculate D2E/DX2 analytically  !
 ! D8    D(5,1,2,7)             60.0            calculate D2E/DX2 analytically  !
 ! D9    D(5,1,2,8)            -60.0            calculate D2E/DX2 analytically  !
 --------------------------------------------------------------------------------
 Trust Radius=5.00D-02 FncErr=1.00D-07 GrdErr=1.00D-07
 Number of optimizations in scan=  46
 Number of steps in this run=     38 maximum allowed number of steps=    100.
 GradGradGradGradGradGradGradGradGradGradGradGradGradGradGradGradGradGrad

 Leave Link  103 at Sat Nov 12 22:07:40 2022, MaxMem=   939524096 cpu:         0.0
 (Enter /Local/ce_dana/g09/l202.exe)
                          Input orientation:                          
 ---------------------------------------------------------------------
 Center     Atomic      Atomic             Coordinates (Angstroms)
 Number     Number       Type             X           Y           Z
 ---------------------------------------------------------------------
      1          6           0        0.762121    0.025040    0.005096
      2          6           0       -0.762122   -0.025040   -0.005096
      3          1           0        1.191525   -0.922702   -0.321312
      4          1           0        1.137076    0.803413   -0.660251
      5          1           0        1.144672    0.233405    1.004787
      6          1           0       -1.144672   -0.233406   -1.004787
      7          1           0       -1.191525    0.922701    0.321312
      8          1           0       -1.137076   -0.803414    0.660251
 ---------------------------------------------------------------------
                    Distance matrix (angstroms):
                    1          2          3          4          5
     1  C    0.000000
     2  C    1.525100   0.000000
     3  H    1.090479   2.173137   0.000000
     4  H    1.090478   2.173135   1.759920   0.000000
     5  H    1.090478   2.173136   1.759920   1.759920   0.000000
     6  H    2.173135   1.090478   2.529839   2.529836   3.081785
     7  H    2.173136   1.090478   3.081786   2.529838   2.529839
     8  H    2.173134   1.090478   2.529838   3.081783   2.529836
                    6          7          8
     6  H    0.000000
     7  H    1.759920   0.000000
     8  H    1.759920   1.759920   0.000000
 This structure is nearly, but not quite of a higher symmetry.
 Consider Symm=Loose if the higher symmetry is desired.
 Stoichiometry    C2H6
 Framework group  CI[X(C2H6)]
 Deg. of freedom     9
 Full point group                 CI      NOp   2
 Largest Abelian subgroup         CI      NOp   2
 Largest concise Abelian subgroup CI      NOp   2
                         Standard orientation:                         
 ---------------------------------------------------------------------
 Center     Atomic      Atomic             Coordinates (Angstroms)
 Number     Number       Type             X           Y           Z
 ---------------------------------------------------------------------
      1          6           0        0.762121    0.025040    0.005096
      2          6           0       -0.762121   -0.025040   -0.005096
      3          1           0        1.191525   -0.922702   -0.321312
      4          1           0        1.137076    0.803413   -0.660251
      5          1           0        1.144672    0.233405    1.004787
      6          1           0       -1.144672   -0.233405   -1.004787
      7          1           0       -1.191525    0.922702    0.321312
      8          1           0       -1.137076   -0.803413    0.660251
 ---------------------------------------------------------------------
 Rotational constants (GHZ):     80.9498996     20.0614215     20.0614203
 Leave Link  202 at Sat Nov 12 22:07:40 2022, MaxMem=   939524096 cpu:         0.0
 (Enter /Local/ce_dana/g09/l301.exe)
 Standard basis: def2TZVP (5D, 7F)
 Ernie: Thresh=  0.10000D-02 Tol=  0.10000D-05 Strict=F.
 There are    54 symmetry adapted cartesian basis functions of AG  symmetry.
 There are    54 symmetry adapted cartesian basis functions of AU  symmetry.
 There are    49 symmetry adapted basis functions of AG  symmetry.
 There are    49 symmetry adapted basis functions of AU  symmetry.
    98 basis functions,   150 primitive gaussians,   108 cartesian basis functions
     9 alpha electrons        9 beta electrons
       nuclear repulsion energy        42.3015651272 Hartrees.
 IExCor=  419 DFT=T Ex+Corr=B2PLYPD3 ExCW=0 ScaHFX=  0.530000
 ScaDFX=  0.470000  0.470000  0.730000  0.730000 ScalE2=  0.270000  0.270000
 IRadAn=      5 IRanWt=     -1 IRanGd=            0 ICorTp=0 IEmpDi=141
 NAtoms=    8 NActive=    8 NUniq=    4 SFac= 4.00D+00 NAtFMM=   60 NAOKFM=F Big=F
 Integral buffers will be    131072 words long.
 Regular integral format.
 Two-electron integral symmetry is turned on.
 R6Disp:  Grimme-D3(BJ) Dispersion energy=       -0.0023097702 Hartrees.
 Nuclear repulsion after empirical dispersion term =       42.2992553569 Hartrees.
 Leave Link  301 at Sat Nov 12 22:07:40 2022, MaxMem=   939524096 cpu:         0.1
 (Enter /Local/ce_dana/g09/l302.exe)
 NPDir=0 NMtPBC=     1 NCelOv=     1 NCel=       1 NClECP=     1 NCelD=      1
         NCelK=      1 NCelE2=     1 NClLst=     1 CellRange=     0.0.
 One-electron integrals computed using PRISM.
 One-electron integral symmetry used in STVInt
   2 Symmetry operations used in ECPInt.
 ECPInt:  NShTT=    1081 NPrTT=    2988 LenC2=    1081 LenP2D=    2753.
 LDataN:  DoStor=T MaxTD1= 6 Len=  172
 NBasis=    98 RedAO= T EigKep=  3.98D-04  NBF=    49    49
 NBsUse=    98 1.00D-06 EigRej= -1.00D+00 NBFU=    49    49
 Precomputing XC quadrature grid using
 IXCGrd= 4 IRadAn=           5 IRanWt=          -1 IRanGd=           0 AccXCQ= 0.00D+00.
 Generated NRdTot=       0 NPtTot=           0 NUsed=           0 NTot=          32
 NSgBfM=   108   108   108   108   108 MxSgAt=     8 MxSgA2=     8.
 Leave Link  302 at Sat Nov 12 22:07:40 2022, MaxMem=   939524096 cpu:         1.4
 (Enter /Local/ce_dana/g09/l303.exe)
 DipDrv:  MaxL=1.
 Leave Link  303 at Sat Nov 12 22:07:40 2022, MaxMem=   939524096 cpu:         0.1
 (Enter /Local/ce_dana/g09/l401.exe)
 Initial guess from the checkpoint file:  "check.chk"
 B after Tr=    -0.000000   -0.000000   -0.000000
         Rot=    0.883455    0.468217    0.010642   -0.012944 Ang=  55.88 deg.
 Guess basis will be translated and rotated to current coordinates.
 JPrj=2 DoOrth=T DoCkMO=T.
 Initial guess orbital symmetries:
       Occupied  (AG) (AU) (AG) (AU) (AU) (AU) (AG) (AG) (AG)
       Virtual   (AG) (AU) (AU) (AU) (AG) (AG) (AU) (AG) (AG) (AG)
                 (AU) (AU) (AG) (AU) (AU) (AU) (AU) (AG) (AG) (AG)
                 (AU) (AU) (AU) (AG) (AG) (AG) (AG) (AG) (AU) (AU)
                 (AU) (AG) (AG) (AG) (AU) (AU) (AG) (AU) (AU) (AU)
                 (AG) (AU) (AU) (AG) (AG) (AG) (AU) (AG) (AG) (AG)
                 (AU) (AU) (AU) (AU) (AG) (AG) (AU) (AU) (AG) (AG)
                 (AG) (AU) (AU) (AU) (AU) (AG) (AG) (AG) (AU) (AU)
                 (AG) (AG) (AG) (AU) (AU) (AU) (AU) (AG) (AG) (AG)
                 (AU) (AU) (AU) (AG) (AG) (AG) (AU) (AG) (AU)
 The electronic state of the initial guess is 1-AG.
 Leave Link  401 at Sat Nov 12 22:07:40 2022, MaxMem=   939524096 cpu:         0.3
 (Enter /Local/ce_dana/g09/l502.exe)
 Closed shell SCF:
 Using DIIS extrapolation, IDIIS=  1040.
 Integral symmetry usage will be decided dynamically.
 Keep R1 ints in memory in symmetry-blocked form, NReq=17708058.
 IVT=       42970 IEndB=       42970 NGot=   939524096 MDV=   933584663
 LenX=   933584663 LenY=   933572558
 Requested convergence on RMS density matrix=1.00D-08 within  64 cycles.
 Requested convergence on MAX density matrix=1.00D-06.
 Requested convergence on             energy=1.00D-06.
 No special actions if energy rises.
 FoFCou: FMM=F IPFlag=           0 FMFlag=           0 FMFlg1=           0
         NFxFlg=           0 DoJE=F BraDBF=F KetDBF=F FulRan=T
         wScrn=  0.000000 ICntrl=     600 IOpCl=  0 I1Cent=           0 NGrid=           0
         NMat0=    1 NMatS0=   4851 NMatT0=    0 NMatD0=    1 NMtDS0=    0 NMtDT0=    0
 Petite list used in FoFCou.

 Cycle   1  Pass 1  IDiag  1:
 E= -79.6540484151559    
 DIIS: error= 6.63D-08 at cycle   1 NSaved=   1.
 NSaved= 1 IEnMin= 1 EnMin= -79.6540484151559     IErMin= 1 ErrMin= 6.63D-08
 ErrMax= 6.63D-08  0.00D+00 EMaxC= 1.00D-01 BMatC= 3.36D-13 BMatP= 3.36D-13
 IDIUse=1 WtCom= 1.00D+00 WtEn= 0.00D+00
 Coeff-Com:  0.100D+01
 Coeff:      0.100D+01
 Gap=     0.485 Goal=   None    Shift=    0.000
 RMSDP=1.16D-08 MaxDP=1.88D-07              OVMax= 2.20D-07

 Cycle   2  Pass 1  IDiag  1:
 E= -79.6540484151564     Delta-E=       -0.000000000001 Rises=F Damp=F
 DIIS: error= 1.31D-08 at cycle   2 NSaved=   2.
 NSaved= 2 IEnMin= 2 EnMin= -79.6540484151564     IErMin= 2 ErrMin= 1.31D-08
 ErrMax= 1.31D-08  0.00D+00 EMaxC= 1.00D-01 BMatC= 1.01D-14 BMatP= 3.36D-13
 IDIUse=1 WtCom= 1.00D+00 WtEn= 0.00D+00
 Coeff-Com: -0.216D-01 0.102D+01
 Coeff:     -0.216D-01 0.102D+01
 Gap=     0.485 Goal=   None    Shift=    0.000
 RMSDP=1.74D-09 MaxDP=2.36D-08 DE=-5.40D-13 OVMax= 5.03D-08

 SCF Done:  E(RB2PLYPD3) =  -79.6540484152     A.U. after    2 cycles
            NFock=  2  Conv=0.17D-08     -V/T= 2.0039
 KE= 7.934148268884D+01 PE=-2.687056156997D+02 EE= 6.741082923884D+01
 Leave Link  502 at Sat Nov 12 22:07:41 2022, MaxMem=   939524096 cpu:         5.7
 (Enter /Local/ce_dana/g09/l508.exe)
 QCSCF skips out because SCF is already converged.
 Leave Link  508 at Sat Nov 12 22:07:41 2022, MaxMem=   939524096 cpu:         0.0
 (Enter /Local/ce_dana/g09/l801.exe)
 DoSCS=T DFT=T ScalE2(SS,OS)=  0.270000  0.270000
 ExpMin= 9.52D-02 ExpMax= 1.36D+04 ExpMxC= 4.63D+02 IAcc=3 IRadAn=         5 AccDes= 0.00D+00
 HarFok:  IExCor=  205 AccDes= 0.00D+00 IRadAn=         5 IDoV=-2 UseB2=F ITyADJ=14
 ICtDFT= 12500011 ScaDFX=  1.000000  1.000000  1.000000  1.000000
 Largest valence mixing into a core orbital is  9.70D-05
 Largest core mixing into a valence orbital is  1.70D-05
 Range of M.O.s used for correlation:     3    98
 NBasis=    98 NAE=     9 NBE=     9 NFC=     2 NFV=     0
 NROrb=     96 NOA=     7 NOB=     7 NVA=    89 NVB=    89

 **** Warning!!: The largest alpha MO coefficient is  0.18932308D+02

 Leave Link  801 at Sat Nov 12 22:07:42 2022, MaxMem=   939524096 cpu:         0.8
 (Enter /Local/ce_dana/g09/l906.exe)
 DoSCS=T DFT=T ScalE2(SS,OS)=  0.270000  0.270000
 Frozen-core derivative calculation, NFC=   2 NFV=   0.
 FulOut=F Deriv=T AODrv=T NAtomX=     8
   MMem=           0  MDisk=           7 MDiskD=           7
  W3Min=       95256 MinDsk=      535082 NBas6D=         108
 NBas2D=        6072    NTT=        5886    LW2=     7400000
    MDV=   939377835 MDiskM=       43397 NBas2p=        3155
 Disk-based method using ON**2 memory for  7 occupieds at a time.
 Permanent disk used for amplitudes=      782577 words.
 Estimated scratch disk usage=     8752754 words.
 IMap=   1   2   3   4   5   6   7   8   9
 Actual    scratch disk usage=     8752754 words.
 JobTyp=1 Pass  1:  I=   3 to   9 NPSUse= 10 ParTrn=T ParDer=T DoDerP=T.
 (rs|ai) integrals will be sorted in core.
 Spin components of T(2) and E(2):
     alpha-alpha T2 =       0.1865447931D-01 E2=     -0.1205692405D-01
     alpha-beta  T2 =       0.1293850524D+00 E2=     -0.9076480057D-01
     beta-beta   T2 =       0.1865447931D-01 E2=     -0.1205692405D-01
 The integrals were generated   1 times.
 E2(B2PLYPD3) =    -0.1148786487D+00 E(B2PLYPD3) =    -0.79768927063820D+02
 Leave Link  906 at Sat Nov 12 22:07:46 2022, MaxMem=   939524096 cpu:        37.1
 (Enter /Local/ce_dana/g09/l1101.exe)
 Using compressed Sx but separate Hx and Fx, NAtomX=     8.
 Will process      9 centers per pass.
   2 Symmetry operations used in ECPInt.
 ECPInt:  NShTT=    1081 NPrTT=    2988 LenC2=    1081 LenP2D=    2753.
 LDataN:  DoStor=T MaxTD1= 7 Len=  274
 R6Disp: Adding Grimme-D3(BJ) dispersion energy 1st derivatives to the gradient.
 Leave Link 1101 at Sat Nov 12 22:07:46 2022, MaxMem=   939524096 cpu:         5.5
 (Enter /Local/ce_dana/g09/l1102.exe)
 Leave Link 1102 at Sat Nov 12 22:07:46 2022, MaxMem=   939524096 cpu:         0.1
 (Enter /Local/ce_dana/g09/l1110.exe)
 Forming Gx(P) for the SCF density, NAtomX=     8.
 Integral derivatives from FoFJK, PRISM(SPDF).
 Do as many integral derivatives as possible in FoFJK.
 G2DrvN: MDV=     939523928.
 G2DrvN: will do     9 centers at a time, making    1 passes.
 Calling FoFCou, ICntrl=  3107 FMM=F I1Cent=   0 AccDes= 1.00D-12.
 FoFJK:  IHMeth= 1 ICntrl=    3107 DoSepK=F KAlg= 0 I1Cent=   0 FoldK=F
 IRaf=         0 NMat=   1 IRICut=       1 DoRegI=T DoRafI=F ISym2E= 1.
 FoFCou: FMM=F IPFlag=           0 FMFlag=      100000 FMFlg1=           0
         NFxFlg=           0 DoJE=F BraDBF=F KetDBF=F FulRan=T
         wScrn=  0.000000 ICntrl=    3107 IOpCl=  0 I1Cent=           0 NGrid=           0
         NMat0=    1 NMatS0=      1 NMatT0=    0 NMatD0=    1 NMtDS0=    0 NMtDT0=    0
 Petite list used in FoFCou.
 End of G2Drv F.D. properties file   721 does not exist.
 End of G2Drv F.D. properties file   722 does not exist.
 End of G2Drv F.D. properties file   788 does not exist.
 Leave Link 1110 at Sat Nov 12 22:07:50 2022, MaxMem=   939524096 cpu:        35.6
 (Enter /Local/ce_dana/g09/l1002.exe)
 Minotr:  Closed shell wavefunction.
          IDoAtm=11111111
          Frozen-core window.
          Direct CPHF calculation.
          Differentiating once with respect to electric field.
                with respect to dipole field.
          Differentiating once with respect to nuclear coordinates.
          Requested convergence is 1.0D-08 RMS, and 1.0D-07 maximum.
          Secondary convergence is 1.0D-12 RMS, and 1.0D-12 maximum.
          NewPWx=T KeepS1=T KeepF1=T KeepIn=T MapXYZ=F SortEE=F KeepMc=T.
          MDV=     939523916 using IRadAn=       1.
 Generate precomputed XC quadrature information.
 Keep R1 ints in memory in symmetry-blocked form, NReq=17668740.
 FoFCou: FMM=F IPFlag=           0 FMFlag=           0 FMFlg1=           0
         NFxFlg=           0 DoJE=F BraDBF=F KetDBF=F FulRan=T
         wScrn=  0.000000 ICntrl=     600 IOpCl=  0 I1Cent=           0 NGrid=           0
         NMat0=    1 NMatS0=   4851 NMatT0=    0 NMatD0=    1 NMtDS0=    0 NMtDT0=    0
 Petite list used in FoFCou.
          Solving linear equations simultaneously, MaxMat=       0.
          There are    27 degrees of freedom in the 1st order CPHF.  IDoFFX=6 NUNeed=    27.
     24 vectors produced by pass  0 Test12= 2.97D-15 3.70D-09 XBig12= 9.99D+00 1.52D+00.
 AX will form    24 AO Fock derivatives at one time.
     24 vectors produced by pass  1 Test12= 2.97D-15 3.70D-09 XBig12= 2.54D-01 1.14D-01.
     24 vectors produced by pass  2 Test12= 2.97D-15 3.70D-09 XBig12= 2.33D-03 1.56D-02.
     24 vectors produced by pass  3 Test12= 2.97D-15 3.70D-09 XBig12= 4.83D-06 5.44D-04.
     24 vectors produced by pass  4 Test12= 2.97D-15 3.70D-09 XBig12= 1.05D-08 2.82D-05.
     24 vectors produced by pass  5 Test12= 2.97D-15 3.70D-09 XBig12= 1.55D-11 1.26D-06.
      5 vectors produced by pass  6 Test12= 2.97D-15 3.70D-09 XBig12= 2.69D-14 4.44D-08.
 InvSVY:  IOpt=1 It=  1 EMax= 2.66D-15
 Solved reduced A of dimension   149 with    27 vectors.
 FullF1:  Do perturbations    1 to    27.
 Saving first derivative matrices.
 End of Minotr F.D. properties file   721 does not exist.
 End of Minotr F.D. properties file   722 does not exist.
 End of Minotr F.D. properties file   788 does not exist.
 Leave Link 1002 at Sat Nov 12 22:08:02 2022, MaxMem=   939524096 cpu:        81.0
 (Enter /Local/ce_dana/g09/l811.exe)
 MDV=   939524096.
 DoSCS=T DFT=T ScalE2(SS,OS)=  0.270000  0.270000
 Form MO integral derivatives with frozen-active canonical formalism.
 MOERI=1 MOERIx=1 NAtoms=     8 NAtomX=     8.
 Discarding MO integrals.
 MO basis two electron integral derivatives will not be stored on disk.
 IAlg= 3 DoFC=T DoPWx=T Debug=F.
 Frozen-core window:  NFC=   2 NFV=   0.
 Reordered first order wavefunction length =      1283202
 In DefCFB: NBatch=  1 ICI=  9 ICA= 89 LFMax= 45
            Large arrays: LIAPS=    33911136 LIARS=    21800016 words.
 In StABat: MaxSiz= 36 MinSiz= 36 NAtomB=  3
 DoIAMN: NPSUse= 10.
 Leave Link  811 at Sat Nov 12 22:08:19 2022, MaxMem=   939524096 cpu:        35.2
 (Enter /Local/ce_dana/g09/l804.exe)
 Frozen-core window:  NFC=   2 NFV=   0.
 Closed-shell transformation, MDV=   939524096 ITran=4 ISComp=1.
 Semi-Direct transformation.
 ModeAB=           4 MOrb=             9 LenV=     938948591
 LASXX=      3948795 LTotXX=     3948795 LenRXX=     8016696
 LTotAB=     4067901 MaxLAS=     2782710 LenRXY=           0
 NonZer=    11965491 LenScr=    18726912 LnRSAI=     2782710
 LnScr1=     4867072 LExtra=           0 Total=     34393390
 MaxDsk=          -1 SrtSym=           T ITran=            4
 DoSDTr:  NPSUse= 10
 JobTyp=0 Pass  1:  I=   1 to   9.
 (rs|ai) integrals will be sorted in core.
 Complete sort for first half transformation.
 First half transformation complete.
 Complete sort for second half transformation.
 Second half transformation complete.
 DoSCS=T DFT=T ScalE2(SS,OS)=  0.270000  0.270000
 Spin components of T(2) and E(2):
     alpha-alpha T2 =       0.1865447931D-01 E2=     -0.1205692405D-01
     alpha-beta  T2 =       0.1293850524D+00 E2=     -0.9076480057D-01
     beta-beta   T2 =       0.1865447931D-01 E2=     -0.1205692405D-01
 E2(B2PLYPD3) =    -0.1148786487D+00 E(B2PLYPD3) =    -0.79768927063820D+02
 Leave Link  804 at Sat Nov 12 22:08:22 2022, MaxMem=   939524096 cpu:         4.2
 (Enter /Local/ce_dana/g09/l1002.exe)
 Minotr:  Closed shell wavefunction.
          Computing MP2/KS-MP2 derivatives.
          Using Z-Vector for PSCF gradient.
          Skipping F1 and S1 gradient terms here.
          IDoAtm=11111111
          Frozen-core window.
          Direct CPHF calculation.
          Differentiating once with respect to electric field.
                with respect to dipole field.
          Differentiating once with respect to nuclear coordinates.
          Using symmetry in CPHF.
          Requested convergence is 1.0D-10 RMS, and 1.0D-09 maximum.
          NewPWx=T KeepS1=F KeepF1=F KeepIn=T MapXYZ=F SortEE=F KeepMc=T.
          MDV=     939523916 using IRadAn=       5.
 Using stored XC quadrature information.
 Keep R1 ints in memory in symmetry-blocked form, NReq=17666369.
 FoFCou: FMM=F IPFlag=           0 FMFlag=           0 FMFlg1=           0
         NFxFlg=           0 DoJE=F BraDBF=F KetDBF=F FulRan=T
         wScrn=  0.000000 ICntrl=     600 IOpCl=  0 I1Cent=           0 NGrid=           0
         NMat0=    1 NMatS0=   4851 NMatT0=    0 NMatD0=    1 NMtDS0=    0 NMtDT0=    0
 Petite list used in FoFCou.
          Solving linear equations separately, MaxMat=       0.
          There are     1 degrees of freedom in the 1st order CPHF.  IDoFFX=0 NUNeed=     1.
 LinEq1:  Iter=  0 NonCon=     1 RMS=1.39D-03 Max=1.11D-02 NDo=     1
 AX will form     1 AO Fock derivatives at one time.
 LinEq1:  Iter=  1 NonCon=     1 RMS=6.71D-04 Max=9.99D-03 NDo=     1
 LinEq1:  Iter=  2 NonCon=     1 RMS=1.18D-04 Max=1.09D-03 NDo=     1
 LinEq1:  Iter=  3 NonCon=     1 RMS=1.69D-05 Max=1.72D-04 NDo=     1
 LinEq1:  Iter=  4 NonCon=     1 RMS=2.43D-06 Max=2.76D-05 NDo=     1
 LinEq1:  Iter=  5 NonCon=     1 RMS=1.37D-07 Max=1.04D-06 NDo=     1
 LinEq1:  Iter=  6 NonCon=     1 RMS=1.28D-08 Max=1.85D-07 NDo=     1
 LinEq1:  Iter=  7 NonCon=     1 RMS=9.71D-10 Max=1.52D-08 NDo=     1
 LinEq1:  Iter=  8 NonCon=     0 RMS=6.33D-11 Max=5.52D-10 NDo=     1
 Linear equations converged to 1.000D-10 1.000D-09 after     8 iterations.
 End of Minotr F.D. properties file   721 does not exist.
 End of Minotr F.D. properties file   722 does not exist.
 End of Minotr F.D. properties file   788 does not exist.
 Leave Link 1002 at Sat Nov 12 22:08:25 2022, MaxMem=   939524096 cpu:        27.6
 (Enter /Local/ce_dana/g09/l1102.exe)
 Use density number 2.
 Symmetrizing basis deriv contribution to polar:
 IMax=3 JMax=2 DiffMx= 0.00D+00
 Leave Link 1102 at Sat Nov 12 22:08:26 2022, MaxMem=   939524096 cpu:         0.2
 (Enter /Local/ce_dana/g09/l1110.exe)
 Forming Gx(P) for generalized density number  2 NAtomX=     8.
 Integral derivatives from FoFJK, PRISM(SPDF).
 Do as many integral derivatives as possible in FoFJK.
 G2DrvN: MDV=     939523928.
 G2DrvN: will do     9 centers at a time, making    1 passes.
 Calling FoFCou, ICntrl=  3107 FMM=F I1Cent=   0 AccDes= 1.00D-12.
 FoFJK:  IHMeth= 1 ICntrl=    3107 DoSepK=F KAlg= 0 I1Cent=   0 FoldK=F
 IRaf=         0 NMat=   1 IRICut=       1 DoRegI=T DoRafI=F ISym2E= 1.
 FoFCou: FMM=F IPFlag=           0 FMFlag=      100000 FMFlg1=           0
         NFxFlg=           0 DoJE=F BraDBF=F KetDBF=F FulRan=T
         wScrn=  0.000000 ICntrl=    3107 IOpCl=  0 I1Cent=           0 NGrid=           0
         NMat0=    1 NMatS0=      1 NMatT0=    0 NMatD0=    1 NMtDS0=    0 NMtDT0=    0
 Petite list used in FoFCou.
 End of G2Drv F.D. properties file   721 does not exist.
 End of G2Drv F.D. properties file   722 does not exist.
 End of G2Drv F.D. properties file   788 does not exist.
 Leave Link 1110 at Sat Nov 12 22:08:29 2022, MaxMem=   939524096 cpu:        33.1
 (Enter /Local/ce_dana/g09/l1112.exe)
 MP22nd: MDV=     939524096
 DoSCS=T DFT=T ScalE2(SS,OS)=  0.270000  0.270000
 Using stored XC quadrature information.
 This link is doing NAtomX=     8 total of    27 degrees of freedom.
 Using ON3 I/O method in MakUI.
 Frozen-core window:  NFC=   2 NFV=   0.
 Using Ix for Sx.
 Use MO integrals over full window.
 Using OV2 memory method for fx*t*t/D, MaxI=     9 DoOO2=F NP=  10.
 R2 and R3 integrals will be kept in memory, NReq=    36590882.
 FoFCou: FMM=F IPFlag=           0 FMFlag=           0 FMFlg1=           0
         NFxFlg=           0 DoJE=F BraDBF=F KetDBF=F FulRan=T
         wScrn=  0.000000 ICntrl=     600 IOpCl=  0 I1Cent=           0 NGrid=           0
         NMat0=    1 NMatS0=      1 NMatT0=    0 NMatD0=    1 NMtDS0=    0 NMtDT0=    0
 Symmetry not used in FoFCou.
 DD1Dir will call FoFMem   1 times, MxPair=       126
 NAB=    45 NAA=    36 NBB=     0.
 Symmetry is being used.
 FoFJK:  IHMeth= 1 ICntrl=       0 DoSepK=F KAlg= 0 I1Cent=   0 FoldK=F
 IRaf=         0 NMat=  27 IRICut=      67 DoRegI=T DoRafI=T ISym2E= 2.
 R6Disp: Adding Grimme-D3(BJ) dispersion energy 1st derivatives to the gradient.
 Discarding MO integrals.
 Leave Link 1112 at Sat Nov 12 22:09:20 2022, MaxMem=   939524096 cpu:       200.0
 (Enter /Local/ce_dana/g09/l601.exe)
 Copying SCF densities to generalized density rwf, IOpCl= 0 IROHF=0.

 **********************************************************************

            Population analysis using the SCF density.

 **********************************************************************

 Orbital symmetries:
       Occupied  (AG) (AU) (AG) (AU) (AU) (AU) (AG) (AG) (AG)
       Virtual   (AG) (AU) (AU) (AU) (AG) (AG) (AU) (AG) (AG) (AG)
                 (AU) (AU) (AG) (AU) (AU) (AU) (AU) (AG) (AG) (AG)
                 (AU) (AU) (AU) (AG) (AG) (AG) (AG) (AG) (AU) (AU)
                 (AU) (AG) (AG) (AG) (AU) (AU) (AG) (AU) (AU) (AU)
                 (AG) (AU) (AU) (AG) (AG) (AG) (AU) (AG) (AG) (AG)
                 (AU) (AU) (AU) (AU) (AG) (AG) (AU) (AU) (AG) (AG)
                 (AG) (AU) (AU) (AU) (AU) (AG) (AG) (AG) (AU) (AU)
                 (AG) (AG) (AG) (AU) (AU) (AU) (AU) (AG) (AG) (AG)
                 (AU) (AU) (AU) (AG) (AG) (AG) (AU) (AG) (AU)
 The electronic state is 1-AG.
 Alpha  occ. eigenvalues --  -10.59793 -10.59754  -0.86430  -0.71081  -0.50385
 Alpha  occ. eigenvalues --   -0.50385  -0.42870  -0.40411  -0.40411
 Alpha virt. eigenvalues --    0.08138   0.12007   0.15526   0.15526   0.16872
 Alpha virt. eigenvalues --    0.16872   0.24259   0.24282   0.28249   0.28249
 Alpha virt. eigenvalues --    0.29452   0.29452   0.45017   0.47464   0.50196
 Alpha virt. eigenvalues --    0.51143   0.51143   0.57902   0.57903   0.63477
 Alpha virt. eigenvalues --    0.65025   0.72529   0.72529   0.91170   0.91170
 Alpha virt. eigenvalues --    1.00550   1.11987   1.11987   1.12436   1.12436
 Alpha virt. eigenvalues --    1.19345   1.57995   1.59354   1.59354   1.61950
 Alpha virt. eigenvalues --    1.65257   1.66130   1.68614   1.68614   1.84977
 Alpha virt. eigenvalues --    1.86407   1.90663   1.90663   2.03542   2.03542
 Alpha virt. eigenvalues --    2.09729   2.24569   2.39620   2.44934   2.44934
 Alpha virt. eigenvalues --    2.47393   2.47393   2.51389   2.51389   2.65904
 Alpha virt. eigenvalues --    2.65904   2.69856   2.69856   2.75764   2.75764
 Alpha virt. eigenvalues --    2.82913   2.98725   3.07906   3.13047   3.13047
 Alpha virt. eigenvalues --    3.22991   3.22991   3.29801   3.31579   3.39229
 Alpha virt. eigenvalues --    3.48405   3.48405   3.61443   3.63264   3.63265
 Alpha virt. eigenvalues --    3.88626   3.88627   4.04600   4.04600   4.05253
 Alpha virt. eigenvalues --    4.35150   4.48653   4.48654   4.57437   4.57437
 Alpha virt. eigenvalues --    4.71394   4.88407  22.70646  22.75836
          Condensed to atoms (all electrons):
               1          2          3          4          5          6
     1  C    4.863600   0.310490   0.412788   0.412788   0.412788  -0.037787
     2  C    0.310490   4.863600  -0.037787  -0.037788  -0.037787   0.412788
     3  H    0.412788  -0.037787   0.587008  -0.029607  -0.029607  -0.005102
     4  H    0.412788  -0.037788  -0.029607   0.587008  -0.029607  -0.005102
     5  H    0.412788  -0.037787  -0.029607  -0.029607   0.587008   0.007711
     6  H   -0.037787   0.412788  -0.005102  -0.005102   0.007711   0.587008
     7  H   -0.037787   0.412788   0.007711  -0.005102  -0.005102  -0.029607
     8  H   -0.037788   0.412788  -0.005102   0.007711  -0.005102  -0.029607
               7          8
     1  C   -0.037787  -0.037788
     2  C    0.412788   0.412788
     3  H    0.007711  -0.005102
     4  H   -0.005102   0.007711
     5  H   -0.005102  -0.005102
     6  H   -0.029607  -0.029607
     7  H    0.587008  -0.029607
     8  H   -0.029607   0.587008
 Mulliken charges:
               1
     1  C   -0.299092
     2  C   -0.299092
     3  H    0.099697
     4  H    0.099697
     5  H    0.099697
     6  H    0.099697
     7  H    0.099697
     8  H    0.099697
 Sum of Mulliken charges =  -0.00000
 Mulliken charges with hydrogens summed into heavy atoms:
               1
     1  C   -0.000000
     2  C   -0.000000
 APT charges:
               1
     1  C    0.084176
     2  C    0.084176
     3  H   -0.028059
     4  H   -0.028057
     5  H   -0.028059
     6  H   -0.028059
     7  H   -0.028059
     8  H   -0.028057
 Sum of APT charges =  -0.00000
 APT charges with hydrogens summed into heavy atoms:
               1
     1  C   -0.000000
     2  C    0.000000
 Electronic spatial extent (au):  <R**2>=            109.7585
 Charge=              0.0000 electrons
 Dipole moment (field-independent basis, Debye):
    X=             -0.0000    Y=             -0.0000    Z=             -0.0000  Tot=              0.0000
 Quadrupole moment (field-independent basis, Debye-Ang):
   XX=            -15.7456   YY=            -14.9707   ZZ=            -14.9699
   XY=             -0.0255   XZ=             -0.0052   YZ=             -0.0002
 Traceless Quadrupole moment (field-independent basis, Debye-Ang):
   XX=             -0.5168   YY=              0.2580   ZZ=              0.2588
   XY=             -0.0255   XZ=             -0.0052   YZ=             -0.0002
 Octapole moment (field-independent basis, Debye-Ang**2):
  XXX=             -0.0000  YYY=             -0.0000  ZZZ=             -0.0000  XYY=              0.0000
  XXY=              0.0000  XXZ=              0.0000  XZZ=             -0.0000  YZZ=              0.0000
  YYZ=              0.0000  XYZ=             -0.0000
 Hexadecapole moment (field-independent basis, Debye-Ang**3):
 XXXX=            -96.5971 YYYY=            -30.4331 ZZZZ=            -30.2425 XXXY=             -1.1995
 XXXZ=             -0.2459 YYYX=             -1.7276 YYYZ=             -0.1238 ZZZX=              0.9387
 ZZZY=              0.0459 XXYY=            -20.0222 XXZZ=            -20.1339 YYZZ=            -10.0674
 XXYZ=              0.0612 YYXZ=             -1.2031 ZZXY=              0.4198
 N-N= 4.229925535691D+01 E-N=-2.687056166404D+02  KE= 7.934148268884D+01
 Symmetry AG   KE= 4.119838365358D+01
 Symmetry AU   KE= 3.814309903525D+01
  Exact polarizability:  28.713   0.097  25.749   0.020   0.001  25.746
 Approx polarizability:  27.739  -0.013  28.134  -0.003  -0.000  28.134
 No NMR shielding tensors so no spin-rotation constants.
 Leave Link  601 at Sat Nov 12 22:09:21 2022, MaxMem=   939524096 cpu:         1.5
 (Enter /Local/ce_dana/g09/l701.exe)
 Compute integral second derivatives.
 ... and contract with generalized density number  2.
 R6Disp: Adding Grimme-D3(BJ) dispersion energy 2nd derivatives to the Hessian.
   2 Symmetry operations used in ECPInt.
 ECPInt:  NShTT=    1081 NPrTT=    2988 LenC2=    1081 LenP2D=    2753.
 LDataN:  DoStor=T MaxTD1= 8 Len=  415
 Leave Link  701 at Sat Nov 12 22:09:21 2022, MaxMem=   939524096 cpu:         5.3
 (Enter /Local/ce_dana/g09/l702.exe)
 L702 exits ... SP integral derivatives will be done elsewhere.
 Leave Link  702 at Sat Nov 12 22:09:21 2022, MaxMem=   939524096 cpu:         0.1
 (Enter /Local/ce_dana/g09/l703.exe)
 Compute integral second derivatives, UseDBF=F ICtDFT=           0.
 Integral derivatives from FoFJK, PRISM(SPDF).
 Calling FoFJK, ICntrl=  10100127 FMM=F ISym2X=1 I1Cent= 0 IOpClX= 0 NMat=1 NMatS=1 NMatT=0.
 FoFJK:  IHMeth= 1 ICntrl=10100127 DoSepK=F KAlg= 0 I1Cent=   0 FoldK=F
 IRaf=         0 NMat=   1 IRICut=       1 DoRegI=T DoRafI=F ISym2E= 1.
 FoFCou: FMM=F IPFlag=           0 FMFlag=      100000 FMFlg1=         800
         NFxFlg=           0 DoJE=F BraDBF=F KetDBF=F FulRan=T
         wScrn=  0.000000 ICntrl=10100127 IOpCl=  0 I1Cent=           0 NGrid=           0
         NMat0=    1 NMatS0=      1 NMatT0=    0 NMatD0=    1 NMtDS0=    0 NMtDT0=    0
 Petite list used in FoFCou.
 Leave Link  703 at Sat Nov 12 22:09:29 2022, MaxMem=   939524096 cpu:        80.9
 (Enter /Local/ce_dana/g09/l716.exe)
 Dipole        = 5.37471543D-15-3.57298826D-16 1.02728156D-16
 Polarizability= 2.87133329D+01 9.74629753D-02 2.57490747D+01
                 1.98620643D-02 7.27777140D-04 2.57459927D+01
 ***** Axes restored to original set *****
 -------------------------------------------------------------------
 Center     Atomic                   Forces (Hartrees/Bohr)
 Number     Number              X              Y              Z
 -------------------------------------------------------------------
      1        6           0.000000493   -0.000000436   -0.000000080
      2        6          -0.000000493    0.000000436    0.000000080
      3        1          -0.000000318    0.000000338    0.000000193
      4        1           0.000000092    0.000000138   -0.000000091
      5        1          -0.000000265    0.000000231   -0.000000176
      6        1           0.000000265   -0.000000231    0.000000176
      7        1           0.000000318   -0.000000338   -0.000000193
      8        1          -0.000000092   -0.000000138    0.000000091
 -------------------------------------------------------------------
 Cartesian Forces:  Max     0.000000493 RMS     0.000000271
 Force constants in Cartesian coordinates: 
                1             2             3             4             5 
      1  0.477842D+00
      2 -0.313701D-02  0.573154D+00
      3 -0.634566D-03 -0.231012D-04  0.573247D+00
      4 -0.201346D+00 -0.396875D-02 -0.807675D-03  0.477842D+00
      5 -0.396875D-02 -0.806607D-01 -0.264105D-04 -0.313701D-02  0.573154D+00
      6 -0.807675D-03 -0.264105D-04 -0.805349D-01 -0.634566D-03 -0.231012D-04
      7 -0.850013D-01  0.868413D-01  0.298904D-01 -0.140806D-01  0.311457D-01
      8  0.882005D-01 -0.251413D+00 -0.696643D-01 -0.157626D-02  0.306524D-02
      9  0.303559D-01 -0.696580D-01 -0.730802D-01 -0.477426D-03  0.105248D-02
     10 -0.756225D-01 -0.615927D-01  0.527591D-01 -0.123477D-01 -0.256678D-01
     11 -0.626753D-01 -0.185155D+00  0.116405D+00  0.392993D-03  0.346308D-03
     12  0.537025D-01  0.116444D+00 -0.148711D+00 -0.764231D-03 -0.157811D-02
     13 -0.768530D-01 -0.167648D-01 -0.809262D-01 -0.125909D-01 -0.685590D-02
     14 -0.170412D-01 -0.587975D-01 -0.466822D-01 -0.194982D-03 -0.538760D-03
     15 -0.823356D-01 -0.467270D-01 -0.273837D+00  0.961079D-03  0.516570D-03
     16 -0.125909D-01 -0.685590D-02 -0.329617D-01 -0.768530D-01 -0.167648D-01
     17 -0.194982D-03 -0.538760D-03 -0.553431D-03 -0.170412D-01 -0.587975D-01
     18  0.961079D-03  0.516570D-03  0.205259D-02 -0.823356D-01 -0.467270D-01
     19 -0.140806D-01  0.311457D-01  0.107245D-01 -0.850013D-01  0.868413D-01
     20 -0.157626D-02  0.306524D-02  0.120143D-02  0.882005D-01 -0.251413D+00
     21 -0.477426D-03  0.105248D-02 -0.612882D-04  0.303559D-01 -0.696580D-01
     22 -0.123477D-01 -0.256678D-01  0.219561D-01 -0.756225D-01 -0.615927D-01
     23  0.392993D-03  0.346308D-03 -0.657459D-03 -0.626753D-01 -0.185155D+00
     24 -0.764231D-03 -0.157811D-02  0.925154D-03  0.537025D-01  0.116444D+00
                6             7             8             9            10 
      6  0.573247D+00
      7  0.107245D-01  0.954536D-01
      8  0.120143D-02 -0.967212D-01  0.271117D+00
      9 -0.612882D-04 -0.333283D-01  0.770203D-01  0.739438D-01
     10  0.219561D-01  0.377489D-02  0.856075D-02 -0.878742D-02  0.850597D-01
     11 -0.657459D-03 -0.956697D-02 -0.202680D-01  0.185108D-01  0.691518D-01
     12  0.925154D-03 -0.439344D-02 -0.793346D-02  0.670112D-02 -0.589571D-01
     13 -0.329617D-01  0.387917D-02  0.139416D-02  0.121655D-01  0.320131D-02
     14 -0.553431D-03 -0.104528D-01 -0.504156D-02 -0.274799D-01  0.892386D-02
     15  0.205259D-02 -0.248954D-02 -0.117242D-02 -0.862998D-02 -0.624996D-02
     16 -0.809262D-01  0.157574D-02  0.558476D-03  0.102638D-03  0.160737D-02
     17 -0.466822D-01  0.000000D+00  0.186753D-03  0.587550D-03 -0.995039D-04
     18 -0.273837D+00 -0.528290D-03  0.351967D-03  0.297105D-03 -0.489195D-03
     19  0.298904D-01 -0.718094D-02 -0.922455D-03 -0.278725D-03  0.157946D-02
     20 -0.696643D-01 -0.922455D-03  0.167008D-02  0.251805D-03  0.505982D-03
     21 -0.730802D-01 -0.278725D-03  0.251805D-03  0.103440D-02  0.247829D-03
     22  0.527591D-01  0.157946D-02  0.505982D-03  0.247829D-03 -0.725264D-02
     23  0.116405D+00 -0.323420D-03  0.683519D-03 -0.285032D-03  0.217652D-03
     24 -0.148711D+00  0.403474D-03 -0.553487D-04 -0.204972D-03 -0.479440D-03
               11            12            13            14            15 
     11  0.197884D+00
     12 -0.128730D+00  0.157567D+00
     13  0.317843D-02  0.101697D-01  0.864232D-01
     14  0.520947D-02  0.226882D-01  0.190081D-01  0.581648D-01
     15 -0.459946D-02 -0.182036D-01  0.905459D-01  0.516501D-01  0.295921D+00
     16 -0.375135D-03  0.318493D-03 -0.724294D-02 -0.143322D-03  0.585555D-03
     17 -0.161584D-03 -0.394022D-03 -0.143322D-03  0.978421D-03  0.183651D-03
     18 -0.203415D-03  0.612266D-03  0.585555D-03  0.183651D-03  0.178804D-02
     19 -0.323420D-03  0.403474D-03  0.157574D-02  0.000000D+00 -0.528290D-03
     20  0.683519D-03 -0.553487D-04  0.558476D-03  0.186753D-03  0.351967D-03
     21 -0.285032D-03 -0.204972D-03  0.102638D-03  0.587550D-03  0.297105D-03
     22  0.217652D-03 -0.479440D-03  0.160737D-02 -0.995039D-04 -0.489195D-03
     23  0.146166D-02 -0.441079D-03 -0.375135D-03 -0.161584D-03 -0.203415D-03
     24 -0.441079D-03  0.131449D-02  0.318493D-03 -0.394022D-03  0.612266D-03
               16            17            18            19            20 
     16  0.864232D-01
     17  0.190081D-01  0.581648D-01
     18  0.905459D-01  0.516501D-01  0.295921D+00
     19  0.387917D-02 -0.104528D-01 -0.248954D-02  0.954536D-01
     20  0.139416D-02 -0.504156D-02 -0.117242D-02 -0.967212D-01  0.271117D+00
     21  0.121655D-01 -0.274799D-01 -0.862998D-02 -0.333283D-01  0.770203D-01
     22  0.320131D-02  0.892386D-02 -0.624996D-02  0.377489D-02  0.856075D-02
     23  0.317843D-02  0.520947D-02 -0.459946D-02 -0.956697D-02 -0.202680D-01
     24  0.101697D-01  0.226882D-01 -0.182036D-01 -0.439344D-02 -0.793346D-02
               21            22            23            24 
     21  0.739438D-01
     22 -0.878742D-02  0.850597D-01
     23  0.185108D-01  0.691518D-01  0.197884D+00
     24  0.670112D-02 -0.589571D-01 -0.128730D+00  0.157567D+00
 FormGI is forming the generalized inverse of G from B-inverse, IUseBI=4.
 Force constants in internal coordinates: 
                1             2             3             4             5 
      1  0.291786D+00
      2  0.553289D-02  0.340345D+00
      3  0.553339D-02  0.285907D-02  0.340345D+00
      4  0.553288D-02  0.285894D-02  0.285907D-02  0.340342D+00
      5  0.553288D-02  0.580300D-03  0.580425D-03 -0.106816D-02  0.340342D+00
      6  0.553289D-02 -0.106830D-02  0.580477D-03  0.580300D-03  0.285894D-02
      7  0.553339D-02  0.580477D-03 -0.106849D-02  0.580425D-03  0.285907D-02
      8  0.156230D-01  0.641236D-03 -0.579321D-02 -0.579381D-02 -0.110179D-02
      9  0.156240D-01 -0.579380D-02  0.640454D-03 -0.579418D-02 -0.110101D-02
     10  0.156235D-01 -0.579362D-02 -0.579396D-02  0.643088D-03  0.406450D-02
     11 -0.166324D-01  0.564731D-02  0.564758D-02  0.358885D-03  0.333644D-03
     12 -0.166319D-01  0.564687D-02  0.358782D-03  0.564595D-02 -0.115758D-02
     13 -0.166327D-01  0.358806D-03  0.564719D-02  0.564679D-02 -0.115797D-02
     14  0.156235D-01 -0.110173D-02 -0.110111D-02  0.406450D-02  0.643088D-03
     15  0.156230D-01  0.406484D-02 -0.110142D-02 -0.110179D-02 -0.579381D-02
     16  0.156240D-01 -0.110097D-02  0.406475D-02 -0.110101D-02 -0.579418D-02
     17 -0.166319D-01 -0.115777D-02  0.333422D-03 -0.115758D-02  0.564595D-02
     18 -0.166327D-01  0.333473D-03 -0.115794D-02 -0.115797D-02  0.564679D-02
     19 -0.166324D-01 -0.115808D-02 -0.115794D-02  0.333644D-03  0.358885D-03
     20  0.000000D+00  0.531627D-03 -0.421393D-02  0.368221D-02  0.531348D-03
     21  0.000000D+00  0.000000D+00 -0.315037D-02  0.315049D-02 -0.315049D-02
     22  0.000000D+00 -0.531983D-03 -0.368205D-02  0.421395D-02  0.421400D-02
     23  0.000000D+00  0.421394D-02 -0.531391D-03 -0.368229D-02 -0.532109D-03
     24  0.000000D+00  0.368220D-02  0.532171D-03 -0.421400D-02 -0.421395D-02
     25  0.000000D+00  0.315033D-02  0.000000D+00 -0.315054D-02  0.315054D-02
     26  0.000000D+00 -0.315027D-02  0.315015D-02  0.000000D+00  0.000000D+00
     27  0.000000D+00 -0.368201D-02  0.421372D-02 -0.531348D-03 -0.368221D-02
     28  0.000000D+00 -0.421388D-02  0.368204D-02  0.532109D-03  0.368229D-02
                6             7             8             9            10 
      6  0.340345D+00
      7  0.285907D-02  0.340345D+00
      8  0.406484D-02 -0.110142D-02  0.103294D+00
      9 -0.110097D-02  0.406475D-02 -0.203698D-01  0.103291D+00
     10 -0.110173D-02 -0.110111D-02 -0.203709D-01 -0.203707D-01  0.103294D+00
     11 -0.115808D-02 -0.115794D-02 -0.403121D-01 -0.403119D-01  0.140337D-01
     12 -0.115777D-02  0.333422D-03 -0.403133D-01  0.140335D-01 -0.403126D-01
     13  0.333473D-03 -0.115794D-02  0.140330D-01 -0.403115D-01 -0.403121D-01
     14 -0.579362D-02 -0.579396D-02 -0.730629D-02 -0.730525D-02  0.175570D-01
     15  0.641236D-03 -0.579321D-02  0.175566D-01 -0.730568D-02 -0.730629D-02
     16 -0.579380D-02  0.640454D-03 -0.730568D-02  0.175578D-01 -0.730525D-02
     17  0.564687D-02  0.358782D-03 -0.386672D-02  0.459861D-02 -0.386712D-02
     18  0.358806D-03  0.564719D-02  0.459949D-02 -0.386795D-02 -0.386781D-02
     19  0.564731D-02  0.564758D-02 -0.386754D-02 -0.386781D-02  0.459924D-02
     20  0.368201D-02 -0.421372D-02  0.201375D-02 -0.686518D-02  0.485080D-02
     21  0.000000D+00  0.315037D-02 -0.114531D-05 -0.283562D-02  0.283612D-02
     22 -0.368220D-02 -0.532171D-03 -0.201539D-02 -0.485034D-02  0.686528D-02
     23  0.421388D-02 -0.368204D-02  0.686553D-02 -0.201479D-02 -0.485040D-02
     24  0.531983D-03  0.368205D-02  0.485063D-02  0.201476D-02 -0.686508D-02
     25 -0.315033D-02  0.000000D+00  0.283639D-02  0.000000D+00 -0.283592D-02
     26  0.315027D-02 -0.315015D-02 -0.283591D-02  0.283556D-02  0.000000D+00
     27 -0.531627D-03  0.421393D-02 -0.485080D-02  0.686512D-02 -0.201416D-02
     28 -0.421394D-02  0.531391D-03 -0.686504D-02  0.485040D-02  0.201500D-02
               11            12            13            14            15 
     11  0.521302D-01
     12  0.938002D-02  0.521320D-01
     13  0.937990D-02  0.938025D-02  0.521302D-01
     14  0.459924D-02 -0.386712D-02 -0.386781D-02  0.103294D+00
     15 -0.386754D-02 -0.386672D-02  0.459949D-02 -0.203709D-01  0.103294D+00
     16 -0.386781D-02  0.459861D-02 -0.386795D-02 -0.203707D-01 -0.203698D-01
     17  0.200342D-03  0.293692D-02  0.200401D-03 -0.403126D-01 -0.403133D-01
     18  0.200464D-03  0.200401D-03  0.293793D-02 -0.403121D-01  0.140330D-01
     19  0.293781D-02  0.200342D-03  0.200464D-03  0.140337D-01 -0.403121D-01
     20 -0.584114D-02  0.509410D-02  0.747716D-03  0.201416D-02  0.485080D-02
     21 -0.658887D-02  0.658962D-02  0.000000D+00 -0.283612D-02  0.114531D-05
     22 -0.509346D-02  0.584176D-02 -0.747823D-03  0.686508D-02 -0.485063D-02
     23  0.584123D-02 -0.747948D-03 -0.509364D-02 -0.201500D-02  0.686504D-02
     24  0.509351D-02  0.747573D-03 -0.584142D-02 -0.686528D-02  0.201539D-02
     25  0.658892D-02  0.000000D+00 -0.658918D-02  0.283592D-02 -0.283639D-02
     26  0.000000D+00 -0.658926D-02  0.658906D-02  0.000000D+00  0.283591D-02
     27 -0.747707D-03 -0.509373D-02  0.584128D-02 -0.485080D-02 -0.201375D-02
     28  0.747704D-03 -0.584159D-02  0.509352D-02  0.485040D-02 -0.686553D-02
               16            17            18            19            20 
     16  0.103291D+00
     17  0.140335D-01  0.521320D-01
     18 -0.403115D-01  0.938025D-02  0.521302D-01
     19 -0.403119D-01  0.938002D-02  0.937990D-02  0.521302D-01
     20 -0.686512D-02  0.509373D-02 -0.584128D-02  0.747707D-03  0.147663D-01
     21  0.283562D-02 -0.658962D-02  0.000000D+00  0.658887D-02  0.367639D-02
     22 -0.201476D-02 -0.747573D-03  0.584142D-02 -0.509351D-02  0.408776D-02
     23 -0.485040D-02  0.584159D-02 -0.509352D-02 -0.747704D-03  0.408760D-02
     24  0.485034D-02 -0.584176D-02  0.747823D-03  0.509346D-02 -0.700226D-02
     25  0.000000D+00  0.000000D+00  0.658918D-02 -0.658892D-02 -0.659090D-02
     26 -0.283556D-02  0.658926D-02 -0.658906D-02  0.000000D+00  0.367621D-02
     27  0.686518D-02 -0.509410D-02 -0.747716D-03  0.584114D-02 -0.741365D-02
     28  0.201479D-02  0.747948D-03  0.509364D-02 -0.584123D-02 -0.700229D-02
               21            22            23            24            25 
     21  0.139432D-01
     22  0.367614D-02  0.147660D-01
     23 -0.659069D-02 -0.700227D-02  0.147659D-01
     24  0.367614D-02 -0.741388D-02  0.408759D-02  0.147660D-01
     25 -0.659094D-02  0.367597D-02  0.367602D-02  0.367597D-02  0.139429D-01
     26 -0.659044D-02 -0.659065D-02  0.367600D-02 -0.659065D-02 -0.659086D-02
     27  0.367639D-02 -0.700226D-02 -0.700229D-02  0.408776D-02 -0.659090D-02
     28 -0.659069D-02  0.408759D-02 -0.741387D-02 -0.700227D-02  0.367602D-02
               26            27            28 
     26  0.139429D-01
     27  0.367621D-02  0.147663D-01
     28  0.367600D-02  0.408760D-02  0.147659D-01
 Leave Link  716 at Sat Nov 12 22:09:30 2022, MaxMem=   939524096 cpu:         0.1
 (Enter /Local/ce_dana/g09/l103.exe)

 GradGradGradGradGradGradGradGradGradGradGradGradGradGradGradGradGradGrad
 Berny optimization.
 Red2BG is reusing G-inverse.
 Internal  Forces:  Max     0.000000455 RMS     0.000000184
 Search for a local minimum.
 Step number   1 out of a maximum of   38 on scan point     1 out of    46
 All quantities printed in internal units (Hartrees-Bohrs-Radians)
 RMS Force = .18720D-06 SwitMx=.10000D-02 MixMth= 2
 Mixed Optimization -- En-DIIS/RFO-DIIS
 Second derivative matrix not updated -- analytic derivatives used.
 ITU=  0
     Eigenvalues ---    0.01439   0.04523   0.04576   0.04729   0.12014
     Eigenvalues ---    0.12390   0.12391   0.12557   0.17793   0.17864
     Eigenvalues ---    0.30819   0.33666   0.33719   0.33954   0.33961
     Eigenvalues ---    0.34756   0.349351000.000001000.000001000.00000
     Eigenvalues --- 1000.000001000.000001000.000001000.000001000.00000
     Eigenvalues --- 1000.000001000.000001000.00000
 RFO step:  Lambda= 0.00000000D+00 EMin= 1.43921850D-02
 Linear search not attempted -- first point.
 Iteration  1 RMS(Cart)=  0.00000116 RMS(Int)=  0.00000000
 Iteration  2 RMS(Cart)=  0.00000000 RMS(Int)=  0.00000000
 Iteration  1 RMS(Cart)=  0.00000009 RMS(Int)=  0.00000016
 ITry= 1 IFail=0 DXMaxC= 2.86D-06 DCOld= 1.00D+10 DXMaxT= 5.00D-02 DXLimC= 3.00D+00 Rises=F
 ClnCor:  largest displacement from symmetrization is 1.09D-06 for atom     8.
 Variable       Old X    -DE/DX   Delta X   Delta X   Delta X     New X
                                 (Linear)    (Quad)   (Total)
    R1        2.88202   0.00000   0.00000   0.00000   0.00000   2.88202
    R2        2.06071  -0.00000   0.00000  -0.00000  -0.00000   2.06071
    R3        2.06070   0.00000   0.00000   0.00000   0.00000   2.06071
    R4        2.06071  -0.00000   0.00000  -0.00000  -0.00000   2.06071
    R5        2.06071  -0.00000   0.00000  -0.00000  -0.00000   2.06071
    R6        2.06071  -0.00000   0.00000  -0.00000  -0.00000   2.06071
    R7        2.06070   0.00000   0.00000   0.00000   0.00000   2.06071
    A1        1.94230  -0.00000   0.00000  -0.00000  -0.00000   1.94230
    A2        1.94230   0.00000   0.00000   0.00000   0.00000   1.94230
    A3        1.94230  -0.00000   0.00000  -0.00000  -0.00000   1.94230
    A4        1.87793   0.00000   0.00000   0.00000   0.00000   1.87793
    A5        1.87793   0.00000   0.00000   0.00000   0.00000   1.87794
    A6        1.87793  -0.00000   0.00000  -0.00000  -0.00000   1.87793
    A7        1.94230  -0.00000   0.00000  -0.00000  -0.00000   1.94230
    A8        1.94230  -0.00000   0.00000  -0.00000  -0.00000   1.94230
    A9        1.94230   0.00000   0.00000   0.00000   0.00000   1.94230
   A10        1.87793   0.00000   0.00000   0.00000   0.00000   1.87794
   A11        1.87793  -0.00000   0.00000  -0.00000  -0.00000   1.87793
   A12        1.87793   0.00000   0.00000   0.00000   0.00000   1.87793
    D1       -1.04720   0.00000   0.00000   0.00000   0.00000  -1.04720
    D2        3.14159   0.00000   0.00000  -0.00000   0.00000   3.14159
    D3        1.04720  -0.00000   0.00000  -0.00000  -0.00000   1.04720
    D4        1.04720   0.00000   0.00000   0.00000   0.00000   1.04720
    D5       -1.04720   0.00000   0.00000   0.00000   0.00000  -1.04720
    D6        3.14159  -0.00000   0.00000  -0.00000   0.00000   3.14159
    D7        3.14159   0.00000   0.00000  -0.00000   0.00000   3.14159
    D8        1.04720  -0.00000   0.00000  -0.00000  -0.00000   1.04720
    D9       -1.04720  -0.00000   0.00000  -0.00000  -0.00000  -1.04720
         Item               Value     Threshold  Converged?
 Maximum Force            0.000000     0.000450     YES
 RMS     Force            0.000000     0.000300     YES
 Maximum Displacement     0.000003     0.001800     YES
 RMS     Displacement     0.000001     0.001200     YES
 Predicted change in Energy=-2.283442D-12
 Optimization completed.
    -- Stationary point found.
                           ----------------------------
                           !   Optimized Parameters   !
                           ! (Angstroms and Degrees)  !
 --------------------------                            --------------------------
 ! Name  Definition              Value          Derivative Info.                !
 --------------------------------------------------------------------------------
 ! R1    R(1,2)                  1.5251         -DE/DX =    0.0                 !
 ! R2    R(1,3)                  1.0905         -DE/DX =    0.0                 !
 ! R3    R(1,4)                  1.0905         -DE/DX =    0.0                 !
 ! R4    R(1,5)                  1.0905         -DE/DX =    0.0                 !
 ! R5    R(2,6)                  1.0905         -DE/DX =    0.0                 !
 ! R6    R(2,7)                  1.0905         -DE/DX =    0.0                 !
 ! R7    R(2,8)                  1.0905         -DE/DX =    0.0                 !
 ! A1    A(2,1,3)              111.2855         -DE/DX =    0.0                 !
 ! A2    A(2,1,4)              111.2854         -DE/DX =    0.0                 !
 ! A3    A(2,1,5)              111.2854         -DE/DX =    0.0                 !
 ! A4    A(3,1,4)              107.5977         -DE/DX =    0.0                 !
 ! A5    A(3,1,5)              107.5976         -DE/DX =    0.0                 !
 ! A6    A(4,1,5)              107.5977         -DE/DX =    0.0                 !
 ! A7    A(1,2,6)              111.2854         -DE/DX =    0.0                 !
 ! A8    A(1,2,7)              111.2855         -DE/DX =    0.0                 !
 ! A9    A(1,2,8)              111.2854         -DE/DX =    0.0                 !
 ! A10   A(6,2,7)              107.5976         -DE/DX =    0.0                 !
 ! A11   A(6,2,8)              107.5977         -DE/DX =    0.0                 !
 ! A12   A(7,2,8)              107.5977         -DE/DX =    0.0                 !
 ! D1    D(3,1,2,6)            -60.0            -DE/DX =    0.0                 !
 ! D2    D(3,1,2,7)            180.0            -DE/DX =    0.0                 !
 ! D3    D(3,1,2,8)             60.0            -DE/DX =    0.0                 !
 ! D4    D(4,1,2,6)             60.0            -DE/DX =    0.0                 !
 ! D5    D(4,1,2,7)            -60.0            -DE/DX =    0.0                 !
 ! D6    D(4,1,2,8)            180.0            -DE/DX =    0.0                 !
 ! D7    D(5,1,2,6)            180.0            -DE/DX =    0.0                 !
 ! D8    D(5,1,2,7)             60.0            -DE/DX =    0.0                 !
 ! D9    D(5,1,2,8)            -60.0            -DE/DX =    0.0                 !
 --------------------------------------------------------------------------------
 Lowest energy point so far.  Saving SCF results.
 Iteration  1 RMS(Cart)=  0.01161474 RMS(Int)=  0.02026208
 Iteration  2 RMS(Cart)=  0.00037047 RMS(Int)=  0.02025994
 Iteration  3 RMS(Cart)=  0.00000620 RMS(Int)=  0.02025993
 Iteration  4 RMS(Cart)=  0.00000016 RMS(Int)=  0.02025993
 Iteration  1 RMS(Cart)=  0.00680201 RMS(Int)=  0.01194058
 Iteration  2 RMS(Cart)=  0.00399665 RMS(Int)=  0.01330481
 Iteration  3 RMS(Cart)=  0.00235081 RMS(Int)=  0.01515421
 Iteration  4 RMS(Cart)=  0.00138347 RMS(Int)=  0.01648910
 Iteration  5 RMS(Cart)=  0.00081441 RMS(Int)=  0.01733988
 Iteration  6 RMS(Cart)=  0.00047950 RMS(Int)=  0.01785989
 Iteration  7 RMS(Cart)=  0.00028234 RMS(Int)=  0.01817211
 Iteration  8 RMS(Cart)=  0.00016625 RMS(Int)=  0.01835793
 Iteration  9 RMS(Cart)=  0.00009790 RMS(Int)=  0.01846801
 Iteration 10 RMS(Cart)=  0.00005765 RMS(Int)=  0.01853307
 Iteration 11 RMS(Cart)=  0.00003395 RMS(Int)=  0.01857145
 Iteration 12 RMS(Cart)=  0.00001999 RMS(Int)=  0.01859408
 Iteration 13 RMS(Cart)=  0.00001177 RMS(Int)=  0.01860742
 Iteration 14 RMS(Cart)=  0.00000693 RMS(Int)=  0.01861527
 Iteration 15 RMS(Cart)=  0.00000408 RMS(Int)=  0.01861990
 Iteration 16 RMS(Cart)=  0.00000240 RMS(Int)=  0.01862263
 Iteration 17 RMS(Cart)=  0.00000142 RMS(Int)=  0.01862423
 Iteration 18 RMS(Cart)=  0.00000083 RMS(Int)=  0.01862518
 GradGradGradGradGradGradGradGradGradGradGradGradGradGradGradGradGradGrad

 Leave Link  103 at Sat Nov 12 22:09:30 2022, MaxMem=   939524096 cpu:         0.1
 (Enter /Local/ce_dana/g09/l202.exe)
                          Input orientation:                          
 ---------------------------------------------------------------------
 Center     Atomic      Atomic             Coordinates (Angstroms)
 Number     Number       Type             X           Y           Z
 ---------------------------------------------------------------------
      1          6           0        0.761998    0.019604    0.024606
      2          6           0       -0.762592   -0.004977   -0.007828
      3          1           0        1.182095   -0.909538   -0.362338
      4          1           0        1.134193    0.794660   -0.646145
      5          1           0        1.158650    0.226595    1.019083
      6          1           0       -1.134071   -0.275493   -0.996937
      7          1           0       -1.205819    0.937299    0.315946
      8          1           0       -1.134457   -0.788150    0.653613
 ---------------------------------------------------------------------
                    Distance matrix (angstroms):
                    1          2          3          4          5
     1  C    0.000000
     2  C    1.525133   0.000000
     3  H    1.090647   2.173871   0.000000
     4  H    1.090480   2.155147   1.728332   0.000000
     5  H    1.090487   2.190740   1.788763   1.759625   0.000000
     6  H    2.173870   1.090647   2.483818   2.532450   3.094026
     7  H    2.190741   1.090488   3.094028   2.534091   2.567141
     8  H    2.155147   1.090480   2.532450   3.056375   2.534091
                    6          7          8
     6  H    0.000000
     7  H    1.788763   0.000000
     8  H    1.728332   1.759626   0.000000
 Stoichiometry    C2H6
 Framework group  C1[X(C2H6)]
 Deg. of freedom    18
 Full point group                 C1      NOp   1
 Omega: Change in point group or standard orientation.

 Old FWG=CI   [X(C2H6)]
 New FWG=C01  [X(C2H6)]
 RotChk:  IX=3 Diff= 1.17D+00
 Largest Abelian subgroup         C1      NOp   1
 Largest concise Abelian subgroup C1      NOp   1
                         Standard orientation:                         
 ---------------------------------------------------------------------
 Center     Atomic      Atomic             Coordinates (Angstroms)
 Number     Number       Type             X           Y           Z
 ---------------------------------------------------------------------
      1          6           0        0.762532    0.004948    0.007311
      2          6           0       -0.762532    0.004948   -0.007311
      3          1           0        1.154986   -0.908161    0.456446
      4          1           0        1.142638   -0.001225   -1.014759
      5          1           0        1.178745    0.879699    0.508051
      6          1           0       -1.154985   -0.908158   -0.456454
      7          1           0       -1.178746    0.879703   -0.508043
      8          1           0       -1.142638   -0.001235    1.014759
 ---------------------------------------------------------------------
 Rotational constants (GHZ):     80.9953417     20.1401116     19.9762045
 Leave Link  202 at Sat Nov 12 22:09:30 2022, MaxMem=   939524096 cpu:         0.0
 (Enter /Local/ce_dana/g09/l301.exe)
 Standard basis: def2TZVP (5D, 7F)
 Ernie: Thresh=  0.10000D-02 Tol=  0.10000D-05 Strict=F.
 There are   108 symmetry adapted cartesian basis functions of A   symmetry.
 There are    98 symmetry adapted basis functions of A   symmetry.
    98 basis functions,   150 primitive gaussians,   108 cartesian basis functions
     9 alpha electrons        9 beta electrons
       nuclear repulsion energy        42.3014163332 Hartrees.
 IExCor=  419 DFT=T Ex+Corr=B2PLYPD3 ExCW=0 ScaHFX=  0.530000
 ScaDFX=  0.470000  0.470000  0.730000  0.730000 ScalE2=  0.270000  0.270000
 IRadAn=      5 IRanWt=     -1 IRanGd=            0 ICorTp=0 IEmpDi=141
 NAtoms=    8 NActive=    8 NUniq=    8 SFac= 1.00D+00 NAtFMM=   60 NAOKFM=F Big=F
 Integral buffers will be    131072 words long.
 Regular integral format.
 Two-electron integral symmetry is turned on.
 R6Disp:  Grimme-D3(BJ) Dispersion energy=       -0.0023096179 Hartrees.
 Nuclear repulsion after empirical dispersion term =       42.2991067154 Hartrees.
 Leave Link  301 at Sat Nov 12 22:09:30 2022, MaxMem=   939524096 cpu:         0.1
 (Enter /Local/ce_dana/g09/l302.exe)
 NPDir=0 NMtPBC=     1 NCelOv=     1 NCel=       1 NClECP=     1 NCelD=      1
         NCelK=      1 NCelE2=     1 NClLst=     1 CellRange=     0.0.
 One-electron integrals computed using PRISM.
   1 Symmetry operations used in ECPInt.
 ECPInt:  NShTT=    1081 NPrTT=    2988 LenC2=    1081 LenP2D=    2753.
 LDataN:  DoStor=T MaxTD1= 6 Len=  172
 NBasis=    98 RedAO= T EigKep=  5.63D-04  NBF=    98
 NBsUse=    98 1.00D-06 EigRej= -1.00D+00 NBFU=    98
 Precomputing XC quadrature grid using
 IXCGrd= 4 IRadAn=           5 IRanWt=          -1 IRanGd=           0 AccXCQ= 0.00D+00.
 Generated NRdTot=       0 NPtTot=           0 NUsed=           0 NTot=          32
 NSgBfM=   108   108   108   108   108 MxSgAt=     8 MxSgA2=     8.
 Leave Link  302 at Sat Nov 12 22:09:30 2022, MaxMem=   939524096 cpu:         1.7
 (Enter /Local/ce_dana/g09/l303.exe)
 DipDrv:  MaxL=1.
 Leave Link  303 at Sat Nov 12 22:09:30 2022, MaxMem=   939524096 cpu:         0.1
 (Enter /Local/ce_dana/g09/l401.exe)
 Initial guess from the checkpoint file:  "check.chk"
 B after Tr=     0.000000    0.000000   -0.000000
         Rot=    0.910195    0.413899    0.001268    0.015200 Ang=  48.94 deg.
 Guess basis will be translated and rotated to current coordinates.
 JPrj=2 DoOrth=T DoCkMO=T.
 Generating alternative initial guess.
 ExpMin= 9.52D-02 ExpMax= 1.36D+04 ExpMxC= 4.63D+02 IAcc=2 IRadAn=         4 AccDes= 0.00D+00
 Harris functional with IExCor=  419 and IRadAn=       4 diagonalized for initial guess.
 HarFok:  IExCor=  419 AccDes= 0.00D+00 IRadAn=         4 IDoV= 1 UseB2=F ITyADJ=14
 ICtDFT=  3500011 ScaDFX=  1.000000  1.000000  1.000000  1.000000
 FoFCou: FMM=F IPFlag=           0 FMFlag=      100000 FMFlg1=           0
         NFxFlg=           0 DoJE=T BraDBF=F KetDBF=T FulRan=T
         wScrn=  0.000000 ICntrl=     500 IOpCl=  0 I1Cent=   200000004 NGrid=           0
         NMat0=    1 NMatS0=      1 NMatT0=    0 NMatD0=    1 NMtDS0=    0 NMtDT0=    0
 Petite list used in FoFCou.
 Harris En= -79.9244699993072    
 Leave Link  401 at Sat Nov 12 22:09:30 2022, MaxMem=   939524096 cpu:         2.6
 (Enter /Local/ce_dana/g09/l502.exe)
 Closed shell SCF:
 Using DIIS extrapolation, IDIIS=  1040.
 Integral symmetry usage will be decided dynamically.
 Keep R1 ints in memory in canonical form, NReq=13809261.
 IVT=       42822 IEndB=       42822 NGot=   939524096 MDV=   927712749
 LenX=   927712749 LenY=   927700644
 Requested convergence on RMS density matrix=1.00D-08 within  64 cycles.
 Requested convergence on MAX density matrix=1.00D-06.
 Requested convergence on             energy=1.00D-06.
 No special actions if energy rises.
 FoFCou: FMM=F IPFlag=           0 FMFlag=           0 FMFlg1=           0
         NFxFlg=           0 DoJE=F BraDBF=F KetDBF=F FulRan=T
         wScrn=  0.000000 ICntrl=     600 IOpCl=  0 I1Cent=           0 NGrid=           0
         NMat0=    1 NMatS0=   4851 NMatT0=    0 NMatD0=    1 NMtDS0=    0 NMtDT0=    0
 Symmetry not used in FoFCou.
 Integral accuracy reduced to 1.0D-05 until final iterations.

 Cycle   1  Pass 0  IDiag  1:
 E= -79.6526692531034    
 DIIS: error= 1.90D-03 at cycle   1 NSaved=   1.
 NSaved= 1 IEnMin= 1 EnMin= -79.6526692531034     IErMin= 1 ErrMin= 1.90D-03
 ErrMax= 1.90D-03  0.00D+00 EMaxC= 1.00D-01 BMatC= 4.04D-04 BMatP= 4.04D-04
 IDIUse=3 WtCom= 9.81D-01 WtEn= 1.90D-02
 Coeff-Com:  0.100D+01
 Coeff-En:   0.100D+01
 Coeff:      0.100D+01
 Gap=     0.820 Goal=   None    Shift=    0.000
 GapD=    0.820 DampG=2.000 DampE=1.000 DampFc=2.0000 IDamp=-1.
 RMSDP=2.00D-04 MaxDP=2.31D-03              OVMax= 6.25D-03

 Cycle   2  Pass 0  IDiag  1:
 E= -79.6531322738324     Delta-E=       -0.000463020729 Rises=F Damp=F
 DIIS: error= 3.74D-04 at cycle   2 NSaved=   2.
 NSaved= 2 IEnMin= 2 EnMin= -79.6531322738324     IErMin= 2 ErrMin= 3.74D-04
 ErrMax= 3.74D-04  0.00D+00 EMaxC= 1.00D-01 BMatC= 7.59D-06 BMatP= 4.04D-04
 IDIUse=3 WtCom= 9.96D-01 WtEn= 3.74D-03
 Coeff-Com: -0.115D+00 0.112D+01
 Coeff-En:   0.000D+00 0.100D+01
 Coeff:     -0.115D+00 0.111D+01
 Gap=     0.480 Goal=   None    Shift=    0.000
 RMSDP=3.69D-05 MaxDP=5.35D-04 DE=-4.63D-04 OVMax= 1.53D-03

 Cycle   3  Pass 0  IDiag  1:
 E= -79.6531482517571     Delta-E=       -0.000015977925 Rises=F Damp=F
 DIIS: error= 9.04D-05 at cycle   3 NSaved=   3.
 NSaved= 3 IEnMin= 3 EnMin= -79.6531482517571     IErMin= 3 ErrMin= 9.04D-05
 ErrMax= 9.04D-05  0.00D+00 EMaxC= 1.00D-01 BMatC= 2.36D-07 BMatP= 7.59D-06
 IDIUse=1 WtCom= 1.00D+00 WtEn= 0.00D+00
 Coeff-Com: -0.905D-02-0.304D-02 0.101D+01
 Coeff:     -0.905D-02-0.304D-02 0.101D+01
 Gap=     0.479 Goal=   None    Shift=    0.000
 RMSDP=6.95D-06 MaxDP=6.54D-05 DE=-1.60D-05 OVMax= 3.51D-04

 Initial convergence to 1.0D-05 achieved.  Increase integral accuracy.
 Cycle   4  Pass 1  IDiag  1:
 E= -79.6531509247736     Delta-E=       -0.000002673017 Rises=F Damp=F
 DIIS: error= 3.50D-05 at cycle   1 NSaved=   1.
 NSaved= 1 IEnMin= 1 EnMin= -79.6531509247736     IErMin= 1 ErrMin= 3.50D-05
 ErrMax= 3.50D-05  0.00D+00 EMaxC= 1.00D-01 BMatC= 4.02D-08 BMatP= 4.02D-08
 IDIUse=1 WtCom= 1.00D+00 WtEn= 0.00D+00
 Coeff-Com:  0.100D+01
 Coeff:      0.100D+01
 Gap=     0.479 Goal=   None    Shift=    0.000
 RMSDP=6.95D-06 MaxDP=6.54D-05 DE=-2.67D-06 OVMax= 1.05D-04

 Cycle   5  Pass 1  IDiag  1:
 E= -79.6531509563369     Delta-E=       -0.000000031563 Rises=F Damp=F
 DIIS: error= 1.58D-05 at cycle   2 NSaved=   2.
 NSaved= 2 IEnMin= 2 EnMin= -79.6531509563369     IErMin= 2 ErrMin= 1.58D-05
 ErrMax= 1.58D-05  0.00D+00 EMaxC= 1.00D-01 BMatC= 1.93D-08 BMatP= 4.02D-08
 IDIUse=1 WtCom= 1.00D+00 WtEn= 0.00D+00
 Coeff-Com:  0.403D+00 0.597D+00
 Coeff:      0.403D+00 0.597D+00
 Gap=     0.479 Goal=   None    Shift=    0.000
 RMSDP=8.97D-07 MaxDP=1.41D-05 DE=-3.16D-08 OVMax= 3.59D-05

 Cycle   6  Pass 1  IDiag  1:
 E= -79.6531509758041     Delta-E=       -0.000000019467 Rises=F Damp=F
 DIIS: error= 2.59D-06 at cycle   3 NSaved=   3.
 NSaved= 3 IEnMin= 3 EnMin= -79.6531509758041     IErMin= 3 ErrMin= 2.59D-06
 ErrMax= 2.59D-06  0.00D+00 EMaxC= 1.00D-01 BMatC= 3.44D-10 BMatP= 1.93D-08
 IDIUse=1 WtCom= 1.00D+00 WtEn= 0.00D+00
 Coeff-Com:  0.113D-01 0.843D-01 0.904D+00
 Coeff:      0.113D-01 0.843D-01 0.904D+00
 Gap=     0.479 Goal=   None    Shift=    0.000
 RMSDP=2.37D-07 MaxDP=2.42D-06 DE=-1.95D-08 OVMax= 1.16D-05

 Cycle   7  Pass 1  IDiag  1:
 E= -79.6531509763150     Delta-E=       -0.000000000511 Rises=F Damp=F
 DIIS: error= 1.37D-06 at cycle   4 NSaved=   4.
 NSaved= 4 IEnMin= 4 EnMin= -79.6531509763150     IErMin= 4 ErrMin= 1.37D-06
 ErrMax= 1.37D-06  0.00D+00 EMaxC= 1.00D-01 BMatC= 3.25D-11 BMatP= 3.44D-10
 IDIUse=1 WtCom= 1.00D+00 WtEn= 0.00D+00
 Coeff-Com: -0.483D-01-0.600D-01 0.160D+00 0.949D+00
 Coeff:     -0.483D-01-0.600D-01 0.160D+00 0.949D+00
 Gap=     0.479 Goal=   None    Shift=    0.000
 RMSDP=9.21D-08 MaxDP=8.20D-07 DE=-5.11D-10 OVMax= 3.49D-06

 Cycle   8  Pass 1  IDiag  1:
 E= -79.6531509763690     Delta-E=       -0.000000000054 Rises=F Damp=F
 DIIS: error= 2.54D-08 at cycle   5 NSaved=   5.
 NSaved= 5 IEnMin= 5 EnMin= -79.6531509763690     IErMin= 5 ErrMin= 2.54D-08
 ErrMax= 2.54D-08  0.00D+00 EMaxC= 1.00D-01 BMatC= 2.18D-14 BMatP= 3.25D-11
 IDIUse=1 WtCom= 1.00D+00 WtEn= 0.00D+00
 Coeff-Com:  0.743D-03 0.108D-02-0.399D-02-0.182D-01 0.102D+01
 Coeff:      0.743D-03 0.108D-02-0.399D-02-0.182D-01 0.102D+01
 Gap=     0.479 Goal=   None    Shift=    0.000
 RMSDP=4.15D-09 MaxDP=5.59D-08 DE=-5.40D-11 OVMax= 9.53D-08

 SCF Done:  E(RB2PLYPD3) =  -79.6531509764     A.U. after    8 cycles
            NFock=  8  Conv=0.41D-08     -V/T= 2.0039
 KE= 7.934086962570D+01 PE=-2.687032909324D+02 EE= 6.741016361496D+01
 Leave Link  502 at Sat Nov 12 22:09:33 2022, MaxMem=   939524096 cpu:        21.1
 (Enter /Local/ce_dana/g09/l508.exe)
 QCSCF skips out because SCF is already converged.
 Leave Link  508 at Sat Nov 12 22:09:33 2022, MaxMem=   939524096 cpu:         0.0
 (Enter /Local/ce_dana/g09/l801.exe)
 DoSCS=T DFT=T ScalE2(SS,OS)=  0.270000  0.270000
 ExpMin= 9.52D-02 ExpMax= 1.36D+04 ExpMxC= 4.63D+02 IAcc=3 IRadAn=         5 AccDes= 0.00D+00
 HarFok:  IExCor=  205 AccDes= 0.00D+00 IRadAn=         5 IDoV=-2 UseB2=F ITyADJ=14
 ICtDFT= 12500011 ScaDFX=  1.000000  1.000000  1.000000  1.000000
 Largest valence mixing into a core orbital is  9.70D-05
 Largest core mixing into a valence orbital is  1.70D-05
 Range of M.O.s used for correlation:     3    98
 NBasis=    98 NAE=     9 NBE=     9 NFC=     2 NFV=     0
 NROrb=     96 NOA=     7 NOB=     7 NVA=    89 NVB=    89

 **** Warning!!: The largest alpha MO coefficient is  0.18940277D+02

 Leave Link  801 at Sat Nov 12 22:09:33 2022, MaxMem=   939524096 cpu:         0.8
 (Enter /Local/ce_dana/g09/l906.exe)
 DoSCS=T DFT=T ScalE2(SS,OS)=  0.270000  0.270000
 Frozen-core derivative calculation, NFC=   2 NFV=   0.
 FulOut=F Deriv=T AODrv=T NAtomX=     8
   MMem=        1431  MDisk=           7 MDiskD=           7
  W3Min=       95256 MinDsk=      255146 NBas6D=         108
 NBas2D=        6072    NTT=        5886    LW2=     3500000
    MDV=   939386407 MDiskM=       43397 NBas2p=        6071
 Fully direct method using O(ONN) memory.
 IMap=   1   2   3   4   5   6   7   8   9
 JobTyp=1 Pass  1:  I=   3 to   9 NPSUse= 10 ParTrn=T ParDer=T DoDerP=T.
 Spin components of T(2) and E(2):
     alpha-alpha T2 =       0.1867102012D-01 E2=     -0.1206437508D-01
     alpha-beta  T2 =       0.1294781910D+00 E2=     -0.9079162429D-01
     beta-beta   T2 =       0.1867102012D-01 E2=     -0.1206437508D-01
 The integrals were generated   1 times.
 E2(B2PLYPD3) =    -0.1149203745D+00 E(B2PLYPD3) =    -0.79768071350823D+02
 Leave Link  906 at Sat Nov 12 22:09:34 2022, MaxMem=   939524096 cpu:         6.7
 (Enter /Local/ce_dana/g09/l1002.exe)
 Minotr:  Closed shell wavefunction.
          Computing MP2/KS-MP2 derivatives.
          Using Z-Vector for PSCF gradient.
          Skipping F1 and S1 gradient terms here.
          IDoAtm=11111111
          Frozen-core window.
          Direct CPHF calculation.
          Differentiating once with respect to electric field.
                with respect to dipole field.
          Differentiating once with respect to nuclear coordinates.
          Requested convergence is 1.0D-10 RMS, and 1.0D-09 maximum.
          NewPWx=F KeepS1=T KeepF1=T KeepIn=T MapXYZ=F SortEE=F KeepMc=T.
          MDV=     939523916 using IRadAn=       5.
 Using stored XC quadrature information.
 Keep R1 ints in memory in canonical form, NReq=13785854.
 FoFCou: FMM=F IPFlag=           0 FMFlag=           0 FMFlg1=           0
         NFxFlg=           0 DoJE=F BraDBF=F KetDBF=F FulRan=T
         wScrn=  0.000000 ICntrl=     600 IOpCl=  0 I1Cent=           0 NGrid=           0
         NMat0=    1 NMatS0=   4851 NMatT0=    0 NMatD0=    1 NMtDS0=    0 NMtDT0=    0
 Symmetry not used in FoFCou.
          Solving linear equations separately, MaxMat=       0.
          There are     1 degrees of freedom in the 1st order CPHF.  IDoFFX=0 NUNeed=     1.
 LinEq1:  Iter=  0 NonCon=     1 RMS=1.39D-03 Max=1.14D-02 NDo=     1
 AX will form     1 AO Fock derivatives at one time.
 LinEq1:  Iter=  1 NonCon=     1 RMS=6.71D-04 Max=9.97D-03 NDo=     1
 LinEq1:  Iter=  2 NonCon=     1 RMS=1.18D-04 Max=1.11D-03 NDo=     1
 LinEq1:  Iter=  3 NonCon=     1 RMS=1.70D-05 Max=1.71D-04 NDo=     1
 LinEq1:  Iter=  4 NonCon=     1 RMS=2.44D-06 Max=2.75D-05 NDo=     1
 LinEq1:  Iter=  5 NonCon=     1 RMS=1.48D-07 Max=1.18D-06 NDo=     1
 LinEq1:  Iter=  6 NonCon=     1 RMS=2.31D-08 Max=2.18D-07 NDo=     1
 LinEq1:  Iter=  7 NonCon=     1 RMS=5.94D-09 Max=7.02D-08 NDo=     1
 LinEq1:  Iter=  8 NonCon=     1 RMS=8.49D-10 Max=8.57D-09 NDo=     1
 LinEq1:  Iter=  9 NonCon=     1 RMS=1.38D-10 Max=1.23D-09 NDo=     1
 LinEq1:  Iter= 10 NonCon=     0 RMS=9.38D-12 Max=6.05D-11 NDo=     1
 Linear equations converged to 1.000D-10 1.000D-09 after    10 iterations.
 End of Minotr F.D. properties file   721 does not exist.
 End of Minotr F.D. properties file   722 does not exist.
 End of Minotr F.D. properties file   788 does not exist.
 Leave Link 1002 at Sat Nov 12 22:09:40 2022, MaxMem=   939524096 cpu:        56.6
 (Enter /Local/ce_dana/g09/l701.exe)
 Compute integral first derivatives.
 ... and contract with generalized density number  2.
 R6Disp: Adding Grimme-D3(BJ) dispersion energy 1st derivatives to the gradient.
   1 Symmetry operations used in ECPInt.
 ECPInt:  NShTT=    1081 NPrTT=    2988 LenC2=    1081 LenP2D=    2753.
 LDataN:  DoStor=T MaxTD1= 7 Len=  274
 Leave Link  701 at Sat Nov 12 22:09:41 2022, MaxMem=   939524096 cpu:         5.8
 (Enter /Local/ce_dana/g09/l702.exe)
 L702 exits ... SP integral derivatives will be done elsewhere.
 Leave Link  702 at Sat Nov 12 22:09:41 2022, MaxMem=   939524096 cpu:         0.0
 (Enter /Local/ce_dana/g09/l703.exe)
 Compute integral first derivatives, UseDBF=F ICtDFT=           0.
 Integral derivatives from FoFJK, PRISM(SPDF).
 Calling FoFJK, ICntrl=  10002127 FMM=F ISym2X=0 I1Cent= 0 IOpClX= 0 NMat=1 NMatS=1 NMatT=0.
 FoFJK:  IHMeth= 1 ICntrl=10002127 DoSepK=F KAlg= 0 I1Cent=   0 FoldK=F
 IRaf=         0 NMat=   1 IRICut=       1 DoRegI=T DoRafI=F ISym2E= 0.
 FoFCou: FMM=F IPFlag=           0 FMFlag=      100000 FMFlg1=         800
         NFxFlg=           0 DoJE=F BraDBF=F KetDBF=F FulRan=T
         wScrn=  0.000000 ICntrl=10002127 IOpCl=  0 I1Cent=           0 NGrid=           0
         NMat0=    1 NMatS0=      1 NMatT0=    0 NMatD0=    1 NMtDS0=    0 NMtDT0=    0
 Symmetry not used in FoFCou.
 Leave Link  703 at Sat Nov 12 22:09:42 2022, MaxMem=   939524096 cpu:        15.5
 (Enter /Local/ce_dana/g09/l716.exe)
 Dipole        =-3.22001226D-09-9.34609028D-03-5.00112669D-08
 ***** Axes restored to original set *****
 -------------------------------------------------------------------
 Center     Atomic                   Forces (Hartrees/Bohr)
 Number     Number              X              Y              Z
 -------------------------------------------------------------------
      1        6           0.000083478    0.005860305   -0.009266514
      2        6           0.000083428   -0.009978977    0.004542238
[...]
           A7         111.63168 111.54487 111.46489 111.35395 111.30846
           A8         111.07917 110.88637 110.85579 110.86017 111.05930
           A9         112.09669 112.10660 111.94224 111.84037 111.53794
           A10        106.21760 106.21739 106.38345 106.76210 107.15062
           A11        108.30013 108.48837 108.50897 108.29472 108.00715
           A12        107.23275 107.32761 107.44042 107.50864 107.57805
           D1         140.00038 148.00034 156.00026 164.00025 172.00021
           D2          21.65086  29.83369  37.69699  45.29114  52.70117
           D3         -98.29344 -90.10520 -82.25372 -74.68079 -67.29111
           D4         -98.29520 -90.10334 -82.26047 -74.67181 -67.29273
           D5         143.35528 151.73002 159.43625 166.61908 173.40823
           D6          23.41098  31.79113  39.48554  46.64715  53.41595
           D7          21.65144  29.83172  37.69856  45.28313  52.70280
           D8         -96.69809 -88.33492 -80.60472 -73.42598 -66.59625
           D9         143.35761 151.72619 159.44457 166.60208 173.41147
                          31        32        33        34        35
     Eigenvalues --   -79.76893 -79.76875 -79.76825 -79.76749 -79.76659
           R1           1.52508   1.52556   1.52694   1.52912   1.53189
           R2           1.09048   1.09041   1.09030   1.09004   1.08986
           R3           1.09047   1.09073   1.09084   1.09089   1.09067
           R4           1.09048   1.09018   1.08984   1.08953   1.08927
           R5           1.09047   1.09043   1.09027   1.09012   1.08983
           R6           1.09048   1.09017   1.08986   1.08951   1.08927
           R7           1.09047   1.09072   1.09086   1.09084   1.09069
           A1         111.28906 111.28599 111.39814 111.39066 111.56291
           A2         111.27914 111.07330 110.87739 110.89118 110.88974
           A3         111.28223 111.54847 111.77568 111.99595 112.09316
           A4         107.59787 107.15309 106.73172 106.39459 106.21874
           A5         107.59824 108.00630 108.31660 108.50595 108.48540
           A6         107.60311 107.57429 107.52114 107.41634 107.32106
           A7         111.27265 111.32014 111.32267 111.51446 111.52704
           A8         111.28933 111.52954 111.80594 111.93937 112.10779
           A9         111.28859 111.05791 110.92357 110.82565 110.91102
           A10        107.59874 108.00548 108.31832 108.50309 108.48698
           A11        107.59839 107.15173 106.73546 106.38470 106.22118
           A12        107.60193 107.57667 107.51493 107.42684 107.31719
           D1        -179.99965-171.99967-163.99971-155.99999-147.99999
           D2          60.00497  67.29150  74.69723  82.22806  90.11940
           D3         -60.00522 -52.69244 -45.30283 -37.68286 -29.82401
           D4         -60.00118 -52.70307 -45.28875 -37.70756 -29.81782
           D5        -179.99656-173.41189-166.59181-159.47951-151.69843
           D6          59.99325  66.60416  73.40813  80.60957  88.35816
           D7          59.99933  67.30102  74.66737  82.27293  90.10599
           D8         -59.99605 -53.40780 -46.63569 -39.49902 -31.77463
           D9         179.99376-173.39175-166.63575-159.40994-151.71803
                          36        37        38        39        40
     Eigenvalues --   -79.76569 -79.76495 -79.76454 -79.76454 -79.76495
           R1           1.53472   1.53721   1.53867   1.53870   1.53729
           R2           1.08960   1.08942   1.08935   1.08939   1.08954
           R3           1.09039   1.08998   1.08955   1.08918   1.08897
           R4           1.08908   1.08906   1.08920   1.08951   1.08992
           R5           1.08960   1.08942   1.08935   1.08939   1.08954
           R6           1.08908   1.08906   1.08919   1.08950   1.08992
           R7           1.09039   1.08998   1.08955   1.08919   1.08897
           A1         111.63525 111.68958 111.71888 111.71851 111.70390
           A2         111.07801 111.32712 111.59608 111.82202 111.96212
           A3         112.10913 112.02865 111.85657 111.62882 111.37914
           A4         106.22447 106.45535 106.87190 107.39127 107.89714
           A5         108.29237 107.90380 107.38702 106.84573 106.40496
           A6         107.21763 107.14806 107.12254 107.14700 107.20641
           A7         111.63562 111.69177 111.72370 111.72747 111.71689
           A8         112.10917 112.02722 111.85210 111.62024 111.36693
           A9         111.07741 111.32653 111.59616 111.82226 111.96129
           A10        108.29100 107.90316 107.38613 106.84509 106.40537
           A11        106.22593 106.45588 106.87222 107.39052 107.89544
           A12        107.21778 107.14802 107.12267 107.14770 107.20762
           D1        -139.99986-131.99961-123.99974-115.99972-107.99962
           D2          98.29401 106.81411 115.58027 124.42963 133.16664
           D3         -21.63845 -13.14572  -4.41354   4.40772  13.14783
           D4         -21.64013 -13.14744  -4.41727   4.40227  13.14135
           D5        -143.34626-134.33372-124.83726-115.16838-105.69239
           D6          96.72128 105.70644 115.16893 124.80971 134.28880
           D7          98.29253 106.81383 115.57939 124.42905 133.16763
           D8         -23.41361 -14.37244  -4.84060   4.85840  14.33389
           D9        -143.34606-134.33228-124.83441-115.16351-105.68493
                          41        42        43        44        45
     Eigenvalues --   -79.76568 -79.76658 -79.76749 -79.76825 -79.76875
           R1           1.53483   1.53192   1.52916   1.52697   1.52557
           R2           1.08975   1.08998   1.09020   1.09037   1.09046
           R3           1.08894   1.08909   1.08937   1.08973   1.09012
           R4           1.09036   1.09070   1.09088   1.09089   1.09074
           R5           1.08975   1.08999   1.09021   1.09037   1.09047
           R6           1.09035   1.09069   1.09087   1.09088   1.09074
           R7           1.08894   1.08909   1.08937   1.08972   1.09011
           A1         111.66647 111.60599 111.52354 111.42830 111.33831
           A2         112.01183 111.96411 111.83284 111.65652 111.46748
           A3         111.14455 110.97416 110.91568 110.96279 111.09652
           A4         108.27906 108.48172 108.49433 108.32596 108.01133
           A5         106.16993 106.16799 106.36131 106.70585 107.14099
           A6         107.28739 107.38069 107.47042 107.54393 107.58783
           A7         111.67713 111.61035 111.52640 111.43228 111.35102
           A8         111.13506 110.97057 110.91356 110.95966 111.08765
           A9         112.01014 111.96307 111.83198 111.65565 111.46366
           A10        106.17123 106.16861 106.36142 106.70578 107.14084
           A11        108.27734 108.48110 108.49405 108.32559 108.01006
           A12        107.28828 107.38097 107.47068 107.54436 107.58918
           D1         -99.99967 -91.99972 -83.99959 -75.99969 -67.99957
           D2         141.64263 149.79751 157.64731 165.24567 172.66675
           D3          21.64776  29.82967  37.69276  45.28465  52.69108
           D4          21.64352  29.82810  37.69168  45.28294  52.68657
           D5         -96.71418 -88.37467 -80.66142 -73.47169 -66.64712
           D6         143.29094 151.65750 159.38403 166.56729 173.37722
           D7         141.64497 149.79875 157.64791 165.24612 172.66908
           D8          23.28727  31.59599  39.29481  46.49148  53.33539
           D9         -96.70760 -88.37185 -80.65974 -73.46954 -66.64027
                          46
     Eigenvalues --   -79.76893
           R1           1.52508
           R2           1.09046
           R3           1.09050
           R4           1.09048
           R5           1.09050
           R6           1.09046
           R7           1.09048
           A1         111.25253
           A2         111.29572
           A3         111.30207
           A4         107.59914
           A5         107.60269
           A6         107.59750
           A7         111.30957
           A8         111.26012
           A9         111.28158
           A10        107.60155
           A11        107.59312
           A12        107.60364
           D1         -59.99963
           D2        -180.00377
           D3          60.00831
           D4          59.98700
           D5         -60.01714
           D6        -180.00506
           D7        -179.99503
           D8          60.00083
           D9         -59.98708
 Largest change from initial coordinates is atom    7       2.622 Angstoms.
 Leave Link  103 at Sat Nov 12 22:40:11 2022, MaxMem=   939524096 cpu:         0.1
 (Enter /Local/ce_dana/g09/l202.exe)
                          Input orientation:                          
 ---------------------------------------------------------------------
 Center     Atomic      Atomic             Coordinates (Angstroms)
 Number     Number       Type             X           Y           Z
 ---------------------------------------------------------------------
      1          6           0        0.762247    0.018221    0.010830
      2          6           0       -0.762242   -0.018286   -0.010811
      3          1           0        1.129673    0.988785    0.345641
      4          1           0        1.166994   -0.737830    0.684452
      5          1           0        1.177072   -0.167378   -0.980441
      6          1           0       -1.177209    0.167391    0.980411
      7          1           0       -1.129806   -0.988788   -0.345673
      8          1           0       -1.166731    0.737884   -0.684409
 ---------------------------------------------------------------------
                    Distance matrix (angstroms):
                    1          2          3          4          5
     1  C    0.000000
     2  C    1.525080   0.000000
     3  H    1.090457   2.172693   0.000000
     4  H    1.090504   2.173266   1.759939   0.000000
     5  H    1.090479   2.173326   1.759959   1.759938   0.000000
     6  H    2.173437   1.090502   2.529689   2.530277   3.082150
     7  H    2.172792   1.090463   3.081227   2.529708   2.529689
     8  H    2.173069   1.090476   2.529313   3.081847   2.529930
                    6          7          8
     6  H    0.000000
     7  H    1.759970   0.000000
     8  H    1.759885   1.759972   0.000000
 Stoichiometry    C2H6
 Framework group  C1[X(C2H6)]
 Deg. of freedom    18
 Full point group                 C1      NOp   1
 RotChk:  IX=0 Diff= 6.89D-11
 Largest Abelian subgroup         C1      NOp   1
 Largest concise Abelian subgroup C1      NOp   1
                         Standard orientation:                         
 ---------------------------------------------------------------------
 Center     Atomic      Atomic             Coordinates (Angstroms)
 Number     Number       Type             X           Y           Z
 ---------------------------------------------------------------------
      1          6           0       -0.762541    0.000017   -0.000010
      2          6           0        0.762539   -0.000040   -0.000009
      3          1           0       -1.157771    1.013148    0.080338
      4          1           0       -1.158607   -0.436619   -0.917440
      5          1           0       -1.158717   -0.575860    0.836981
      6          1           0        1.158857    0.575893   -0.836925
      7          1           0        1.157906   -1.013130   -0.080287
      8          1           0        1.158345    0.436707    0.917448
 ---------------------------------------------------------------------
 Rotational constants (GHZ):     80.9476892     20.0621912     20.0620082
 Leave Link  202 at Sat Nov 12 22:40:11 2022, MaxMem=   939524096 cpu:         0.0
 (Enter /Local/ce_dana/g09/l601.exe)
 Copying SCF densities to generalized density rwf, IOpCl= 0 IROHF=0.

 **********************************************************************

            Population analysis using the SCF density.

 **********************************************************************

 Orbital symmetries:
       Occupied  (A) (A) (A) (A) (A) (A) (A) (A) (A)
       Virtual   (A) (A) (A) (A) (A) (A) (A) (A) (A) (A) (A) (A)
                 (A) (A) (A) (A) (A) (A) (A) (A) (A) (A) (A) (A)
                 (A) (A) (A) (A) (A) (A) (A) (A) (A) (A) (A) (A)
                 (A) (A) (A) (A) (A) (A) (A) (A) (A) (A) (A) (A)
                 (A) (A) (A) (A) (A) (A) (A) (A) (A) (A) (A) (A)
                 (A) (A) (A) (A) (A) (A) (A) (A) (A) (A) (A) (A)
                 (A) (A) (A) (A) (A) (A) (A) (A) (A) (A) (A) (A)
                 (A) (A) (A) (A) (A)
 The electronic state is 1-A.
 Alpha  occ. eigenvalues --  -10.59793 -10.59754  -0.86430  -0.71080  -0.50387
 Alpha  occ. eigenvalues --   -0.50384  -0.42869  -0.40412  -0.40410
 Alpha virt. eigenvalues --    0.08137   0.12008   0.15525   0.15527   0.16870
 Alpha virt. eigenvalues --    0.16873   0.24259   0.24282   0.28246   0.28253
 Alpha virt. eigenvalues --    0.29450   0.29456   0.45016   0.47464   0.50197
 Alpha virt. eigenvalues --    0.51140   0.51146   0.57901   0.57904   0.63477
 Alpha virt. eigenvalues --    0.65024   0.72522   0.72535   0.91160   0.91183
 Alpha virt. eigenvalues --    1.00551   1.11985   1.11990   1.12435   1.12436
 Alpha virt. eigenvalues --    1.19346   1.57996   1.59353   1.59356   1.61949
 Alpha virt. eigenvalues --    1.65255   1.66128   1.68613   1.68616   1.84976
 Alpha virt. eigenvalues --    1.86406   1.90655   1.90676   2.03526   2.03557
 Alpha virt. eigenvalues --    2.09727   2.24570   2.39623   2.44930   2.44937
 Alpha virt. eigenvalues --    2.47388   2.47396   2.51370   2.51408   2.65894
 Alpha virt. eigenvalues --    2.65911   2.69853   2.69861   2.75744   2.75790
 Alpha virt. eigenvalues --    2.82912   2.98722   3.07905   3.13042   3.13054
 Alpha virt. eigenvalues --    3.22979   3.23004   3.29804   3.31582   3.39233
 Alpha virt. eigenvalues --    3.48376   3.48425   3.61447   3.63242   3.63297
 Alpha virt. eigenvalues --    3.88612   3.88642   4.04591   4.04608   4.05258
 Alpha virt. eigenvalues --    4.35156   4.48619   4.48677   4.57418   4.57463
 Alpha virt. eigenvalues --    4.71399   4.88406  22.70646  22.75839
          Condensed to atoms (all electrons):
               1          2          3          4          5          6
     1  C    4.863602   0.310486   0.412785   0.412785   0.412794  -0.037740
     2  C    0.310486   4.863607  -0.037855  -0.037774  -0.037747   0.412791
     3  H    0.412785  -0.037855   0.587082  -0.029600  -0.029600  -0.005102
     4  H    0.412785  -0.037774  -0.029600   0.586997  -0.029615  -0.005101
     5  H    0.412794  -0.037747  -0.029600  -0.029615   0.586959   0.007702
     6  H   -0.037740   0.412791  -0.005102  -0.005101   0.007702   0.586958
     7  H   -0.037848   0.412780   0.007725  -0.005101  -0.005102  -0.029600
     8  H   -0.037787   0.412793  -0.005105   0.007710  -0.005104  -0.029620
               7          8
     1  C   -0.037848  -0.037787
     2  C    0.412780   0.412793
     3  H    0.007725  -0.005105
     4  H   -0.005101   0.007710
     5  H   -0.005102  -0.005104
     6  H   -0.029600  -0.029620
     7  H    0.587068  -0.029594
     8  H   -0.029594   0.587013
 Mulliken charges:
               1
     1  C   -0.299078
     2  C   -0.299081
     3  H    0.099670
     4  H    0.099698
     5  H    0.099712
     6  H    0.099712
     7  H    0.099673
     8  H    0.099695
 Sum of Mulliken charges =  -0.00000
 Mulliken charges with hydrogens summed into heavy atoms:
               1
     1  C    0.000001
     2  C   -0.000001
 Electronic spatial extent (au):  <R**2>=            109.7565
 Charge=             -0.0000 electrons
 Dipole moment (field-independent basis, Debye):
    X=              0.0000    Y=              0.0001    Z=              0.0001  Tot=              0.0001
 Quadrupole moment (field-independent basis, Debye-Ang):
   XX=            -15.7469   YY=            -14.9697   ZZ=            -14.9699
   XY=              0.0019   XZ=             -0.0005   YZ=             -0.0001
 Traceless Quadrupole moment (field-independent basis, Debye-Ang):
   XX=             -0.5181   YY=              0.2591   ZZ=              0.2589
   XY=              0.0019   XZ=             -0.0005   YZ=             -0.0001
 Octapole moment (field-independent basis, Debye-Ang**2):
  XXX=              0.0000  YYY=              0.0002  ZZZ=              0.0003  XYY=              0.0002
  XXY=             -0.0002  XXZ=             -0.0006  XZZ=             -0.0002  YZZ=              0.0001
  YYZ=              0.0001  XYZ=             -0.0000
 Hexadecapole moment (field-independent basis, Debye-Ang**3):
 XXXX=            -96.6772 YYYY=            -30.2693 ZZZZ=            -30.2702 XXXY=              0.0084
 XXXZ=             -0.0022 YYYX=             -1.3240 YYYZ=              0.0000 ZZZX=              0.3205
 ZZZY=              0.0001 XXYY=            -20.0816 XXZZ=            -20.0776 YYZZ=            -10.0908
 XXYZ=             -0.0012 YYXZ=             -0.3213 ZZXY=              1.3268
 N-N= 4.229956537612D+01 E-N=-2.687062679658D+02  KE= 7.934151518135D+01
 No NMR shielding tensors so no spin-rotation constants.
 Leave Link  601 at Sat Nov 12 22:40:12 2022, MaxMem=   939524096 cpu:         1.6
 (Enter /Local/ce_dana/g09/l9999.exe)

 Test job not archived.
 1\1\GINC-TECH-WN164\Scan\RB2PLYPD3-FC\def2TZVP\C2H6\ALONGD\12-Nov-2022
 \0\\#P opt=(modredundant, calcfc, noeigentest, maxStep=5) scf=(tight, 
 direct) integral=(grid=ultrafine, Acc2E=12) guess=read b2plypd3/def2tz
 vp IOp(2/9=2000) scf=xqc\\C2H6\\0,1\C,0.7622470473,0.0182209059,0.0108
 30191\C,-0.7622419675,-0.0182859584,-0.0108114886\H,1.1296730152,0.988
 7853784,0.3456413984\H,1.1669936821,-0.7378295245,0.6844516066\H,1.177
 0716539,-0.167378339,-0.980440685\H,-1.1772093762,0.1673905874,0.98041
 07475\H,-1.1298058214,-0.9887882937,-0.3456728951\H,-1.1667308942,0.73
 78838581,-0.6844089296\\Version=ES64L-G09RevD.01\State=1-A\HF=-79.6540
 484,-79.6538699,-79.6533555,-79.6525803,-79.6516602,-79.6507464,-79.65
 00061,-79.6495899,-79.6495899,-79.650006,-79.6507462,-79.6516601,-79.6
 525802,-79.6533554,-79.653869,-79.6540482,-79.6538684,-79.653355,-79.6
 525788,-79.6516576,-79.6507434,-79.6500043,-79.6495897,-79.6495898,-79
 .6500051,-79.6507456,-79.6516612,-79.6525827,-79.6533569,-79.6538697,-
 79.6540485,-79.6538697,-79.6533574,-79.6525822,-79.651661,-79.6507456,
 -79.650005,-79.6495898,-79.6495898,-79.6500044,-79.6507435,-79.6516577
 ,-79.6525789,-79.653355,-79.653869,-79.6540483\MP2=-79.7689271,-79.768
 7515,-79.7682491,-79.7674898,-79.7665865,-79.7656867,-79.7649553,-79.7
 64543,-79.764543,-79.7649553,-79.7656867,-79.7665865,-79.7674898,-79.7
 682492,-79.7687516,-79.7689268,-79.7687512,-79.7682486,-79.767488,-79.
 7665833,-79.7656831,-79.7649532,-79.7645428,-79.7645428,-79.7649539,-7
 9.7656853,-79.766587,-79.7674917,-79.7682509,-79.7687523,-79.768927,-7
 9.7687523,-79.768251,-79.7674916,-79.7665869,-79.7656853,-79.7649539,-
 79.7645428,-79.7645427,-79.7649532,-79.7656831,-79.7665834,-79.7674881
 ,-79.7682486,-79.7687516,-79.7689269\RMSD=1.740e-09,1.469e-09,9.931e-0
 9,1.985e-09,2.354e-09,2.681e-09,7.483e-09,1.563e-09,1.701e-09,3.716e-0
 9,3.255e-09,4.237e-09,1.700e-09,9.282e-09,9.354e-09,1.821e-09,2.328e-0
 9,2.483e-09,3.034e-09,3.991e-09,4.512e-09,1.779e-09,9.446e-10,1.237e-0
 9,4.712e-09,4.238e-09,2.868e-09,2.497e-09,7.964e-09,4.792e-09,1.939e-0
 9,7.166e-09,2.956e-09,3.441e-09,5.158e-09,2.202e-09,2.631e-09,1.884e-0
 9,1.925e-09,3.361e-09,2.228e-09,1.613e-09,1.416e-09,8.233e-09,5.055e-0
 9,1.418e-09\PG=C01 [X(C2H6)]\\@


 HONESTY IN A LAWYER IS LIKE A HEN'S HIND LEGS.
  -- MAGNUS OLESON, LAKE WOBEGON PATRIARCH, C.1875
 Job cpu time:       0 days  4 hours  6 minutes 56.0 seconds.
 File lengths (MBytes):  RWF=    472 Int=      0 D2E=      0 Chk=      4 Scr=      1
 Normal termination of Gaussian 09 at Sat Nov 12 22:40:12 2022.
