
 Working directory              : /var/lib/condor/execute/dir_207116/molpro.HxLU3fhzGt/
 Global scratch directory       : /var/lib/condor/execute/dir_207116/molpro.HxLU3fhzGt/
 Wavefunction directory         : /srv01/technion/alongd/wfu/
 Main file repository           : /var/lib/condor/execute/dir_207116/molpro.HxLU3fhzGt/

 id        : dana

 Nodes     nprocs
 tech-wn198    9
 Distribution of processes:   nprocs(total)=   10   nprocs(compute)=    9   nprocs(helper)=    1
 GA implementation: MPI file
 GA implementation (serial work in mppx): MPI file

 Using customized tuning parameters: mindgm=1; mindgv=20; mindgc=4; mindgr=1; noblas=0; minvec=7
 default implementation of scratch files=sf  


 Variables initialized (1009), CPU time= 0.01 sec
 ***,C2H6
 memory,90,m;
 file,1,file1.int                                                                !allocate permanent integral file
 file,2,file2.wfu                                                                !allocate permanent wave-function (dump) file
 
 geometry={angstrom;
 C       0.76212100    0.02504000    0.00509600
 C      -0.76212200   -0.02504000   -0.00509600
 H       1.19152500   -0.92270200   -0.32131200
 H       1.13707600    0.80341300   -0.66025100
 H       1.14467200    0.23340500    1.00478700
 H      -1.14467200   -0.23340600   -1.00478700
 H      -1.19152500    0.92270100    0.32131200
 H      -1.13707600   -0.80341400    0.66025100}
 
 basis=cc-pvtz-f12
 
 
 
 int;
 {hf;
 maxit,1000;
 wf,spin=0,charge=0;}
 
 ccsd(t)-f12;
 
 
 
 Commands initialized (810), CPU time= 0.02 sec, 661 directives.
 Default parameters read. Elapsed time= 0.41 sec

 Checking input...
 Passed
1


                                         ***  PROGRAM SYSTEM MOLPRO  ***
                                       Copyright, TTI GmbH Stuttgart, 2015
                                    Version 2021.2 linked Jul 16 2021 12:17:16


 **********************************************************************************************************************************
 LABEL *   C2H6                                                                          
  64 bit mpp version                                                                     DATE: 12-Nov-22          TIME: 22:07:40  
 **********************************************************************************************************************************

 SHA1:             dade016a989826d9d859d6207854b99675d53db3
 **********************************************************************************************************************************

 Memory per process:        90 MW
 Total memory per node:    810 MW

 GA preallocation disabled
 GA check disabled

 Variable memory set to 90.0 MW



 Permanent file  1  file1.int        assigned.  Implementation=df  
 Permanent file  2  file2.wfu        assigned.  Implementation=df    Size= 26.78 MB


 PROGRAM * RESTART 


 Reading variables from file 2

 _FNUC           =      0.00000000
 _BASIS          =    CC-PVTZ-F12
 _NELEC          =     23.00000000
 _PROGRAM        =    UCCSD(T)-F12
 _DMX_SCF        =     -0.18726881
 _DMY_SCF        =     -0.03330868
 _DMZ_SCF        =      0.14918982
 _HOMO           =     12.10000000
 _EHOMO          =     -0.42459511
 _LUMO           =     13.10000000
 _ELUMO          =      0.05774179
 _EMP2           =   -168.87426980
 _EMP2_SING      =     -0.37679338
 _EMP2_TRIP      =     -0.22733740
 _EMP2_SINGLES   =     -0.00289537
 _EMP2_SCS       =   -168.86403614
 _ECSING(1:2)    =     -0.45051168    -0.44227948
 _ECTRIP(1:2)    =     -0.20672291    -0.20608128
 _ECTRIPAB(1:2)  =     -0.06967028    -0.06945639
 _ECTRIPAA(1:2)  =     -0.07416794    -0.07394117
 _ECTRIPBB(1:2)  =     -0.06288469    -0.06268373
 _ECSINGLES      =     -0.00416776
 _EF12           =     -0.05078624
 _EF12_SING      =     -0.04513251
 _EF12_TRIP      =     -0.00565372
 _ECSING_F12(1:2)=     -0.04461845    -0.03638625
 _ECTRIP_F12(1:2)=     -0.00542126    -0.00477963
 _ECTRIPAB_F12(1:2)   =     -0.00180839    -0.00159449
 _ECTRIPAA_F12(1:2)   =     -0.00198828    -0.00176151
 _ECTRIPBB_F12(1:2)   =     -0.00162459    -0.00142363
 _EF12_RHFRELAX  =     -0.00151050
 _EF12_CONVSUPPRS=     -0.00049061
 _EF12_CONVSUPPRT=     -0.00022555
 _EF12_SINGLES   =     -0.00151539
 _EF12_SCS       =     -0.05767734
 _EF12S          =     -0.05056793
 _EF12S_SING     =     -0.04512159
 _EF12S_TRIP     =     -0.00544633
 _EF12S_SCS      =     -0.05753533
 _EF12D          =     -0.05073898
 _EF12D_SING     =     -0.04526972
 _EF12D_TRIP     =     -0.00546925
 _EF12D_SCS      =     -0.05772730
 _EF12F          =     -0.05359399
 _EF12F_SING     =     -0.04780458
 _EF12F_TRIP     =     -0.00578941
 _EF12F_SCS      =     -0.06096817
 _ENERGC(1:2)    =   -168.92864621  -168.91977238
 _ENERG_CC(1:2)  =      0.00000000     0.00000000
 _ENERG_CV(1:2)  =      0.00000000     0.00000000
 _ENERG_VV(1:2)  =     -0.66140235    -0.65252853
 _ENERGR         =   -168.26724385
 _ENERGT(1:6)    =   -168.95842997  -168.96051522  -168.95791134  -168.94955614  -168.95164140  -168.94903751
 _ENERGY(1:2)    =   -168.95842997  -168.94955614
 _ENERGY_METHOD  =    UCCSD(T)-F12
 _ENERGY_BASIS   =    cc-pVTZ-F12
 _ENUC           =     63.37181514
 _IPROC_MPP      =      0.00000000
 _IPROC_MPPX     =      0.00000000
 _ORBITAL        =   2103.20000000
 _ECDIAG(1:2)    =     -0.12763462    -0.12536254
 _EPDIAG(1:2)    =     -0.12763462    -0.12536254
 _STATUS         =      1.00000000
 _T1DIAG         =      0.03137318
 _D1DIAG         =      0.09998198
 _D2DIAG         =      0.18722006
 !DFBASIS_MP2    =    CC-PVTZ-F12-MP2FIT
 !DFBASIS_F12K   =    VTZ-F12-JKFIT
 !RIBASIS_MP2    =    CC-PVTZ-F12_OPT
 !RIBASIS_EXCH   =     
 _METHODC        =    UCCSD-F12a
 _METHODC        =    UCCSD-F12b
 _METHODT        =    UCCSD(T)-F12a
 _METHODT        =    UCCSD[T]-F12a
 _METHODT        =    UCCSD-T-F12a
 _METHODT        =    UCCSD(T)-F12b
 _METHODT        =    UCCSD[T]-F12b
 _METHODT        =    UCCSD-T-F12b
 _OUTPUT         =    /storage/ce_dana/alongd/runs/ARC/arkane_examples/thermo3/calcs/Species/Ethynol/sp_a48600/input.out
 _PGROUP         =    C1  
 _TIME           =    20:17:33
 _ANSATZ         =    F12/3C(FIX)
 _SVDDEL         =      0.00000000
 _SYM_CATION     =      1.00000000

 Geometry written to block  1 of record 702


 **********************************************************************************************************************************
 DATASETS  * FILE   NREC   LENGTH (MB)   RECORD NAMES
              1       2       11.48       500      702   
                                          VAR     GEOM   

              2      17       26.78       500      610      700     1000      520     2100     7360     7350      701     1001   
                                          VAR    BASINP    GEOM     BASIS   MCVARS     RHF    F12ABS    EF12     GEOM     BASIS   
                                         2101      701(1)  1002     2102      702     1003     2103   
                                          RHF     GEOM     BASIS     RHF     GEOM     BASIS     RHF  

 PROGRAMS   *        TOTAL   RESTART
 CPU TIMES  *         0.67      0.38
 REAL TIME  *         1.23 SEC
 DISK USED  *        38.26 MB (local),      344.35 MB (total)
 **********************************************************************************************************************************

 Geometry recognized as XYZ

 SETTING BASIS          =    CC-PVTZ-F12


 Using spherical harmonics

 Library entry C      S cc-pVTZ-F12          selected for orbital group  1
 Library entry C      P cc-pVTZ-F12          selected for orbital group  1
 Library entry C      D cc-pVTZ-F12          selected for orbital group  1
 Library entry C      F cc-pVTZ-F12          selected for orbital group  1
 Library entry H      S cc-pVTZ-F12          selected for orbital group  2
 Library entry H      P cc-pVTZ-F12          selected for orbital group  2
 Library entry H      D cc-pVTZ-F12          selected for orbital group  2


 PROGRAM * SEWARD (Integral evaluation for generally contracted gaussian basis sets)     Author: Roland Lindh, 1990

 Geometry written to block  1 of record 703


 Point group  C1  



 ATOMIC COORDINATES

 NR  ATOM    CHARGE       X              Y              Z

   1  C       6.00    1.440199964    0.047318742    0.009630044
   2  C       6.00   -1.440201854   -0.047318742   -0.009630044
   3  H       1.00    2.251655921   -1.743654075   -0.607191681
   4  H       1.00    2.148762223    1.518230535   -1.247693564
   5  H       1.00    2.163116583    0.441071526    1.898772244
   6  H       1.00   -2.163116583   -0.441073416   -1.898772244
   7  H       1.00   -2.251655921    1.743652185    0.607191681
   8  H       1.00   -2.148762223   -1.518232425    1.247693564

 Bond lengths in Bohr (Angstrom)

 1-2  2.882020443  1-3  2.060707024  1-4  2.060704887  1-5  2.060705690  2-6  2.060705388
     ( 1.525099540)     ( 1.090479196)     ( 1.090478065)     ( 1.090478490)     ( 1.090478330)

 2-7  2.060704638  2-8  2.060705586
     ( 1.090477933)     ( 1.090478435)

 Bond angles

  1-2-6  111.28536576   1-2-7  111.28544479   1-2-8  111.28528166   2-1-3  111.28547344

  2-1-4  111.28534374   2-1-5  111.28541699   3-1-4  107.59766417   3-1-5  107.59762922

  4-1-5  107.59774084   6-2-7  107.59773135   6-2-8  107.59772575   7-2-8  107.59772827

 NUCLEAR CHARGE:                   18
 NUMBER OF PRIMITIVE AOS:         270
 NUMBER OF SYMMETRY AOS:          246
 NUMBER OF CONTRACTIONS:          214   (  214A   )
 NUMBER OF INNER CORE ORBITALS:     0   (    0A   )
 NUMBER OF OUTER CORE ORBITALS:     2   (    2A   )
 NUMBER OF VALENCE ORBITALS:       14   (   14A   )

 MOLECULE CHANGED: INITIALIZING OCCUPATION AND DUMP RECORDS


 NUCLEAR REPULSION ENERGY   42.30156643


 Eigenvalues of metric

         1 0.596E-04 0.871E-04 0.219E-03 0.258E-03 0.265E-03 0.265E-03 0.281E-03 0.281E-03


 Contracted 2-electron integrals neglected if value below      1.0D-11
 AO integral compression algorithm  1   Integral accuracy      1.0D-11

     1262.748 MB (compressed) written to integral file ( 52.5%)

     Node minimum: 130.810 MB, node maximum: 150.209 MB


 NUMBER OF SORTED TWO-ELECTRON INTEGRALS:   29410614.     BUFFER LENGTH:  32768
 NUMBER OF SEGMENTS:   2  SEGMENT LENGTH:   15997995      RECORD LENGTH: 524288

 Memory used in sort:      16.56 MW

 SORT1 READ   300718558. AND WROTE    29115580. INTEGRALS IN     85 RECORDS. CPU TIME:     7.83 SEC, REAL TIME:     8.77 SEC
 SORT2 READ   261970315. AND WROTE   264626515. INTEGRALS IN   5157 RECORDS. CPU TIME:     0.50 SEC, REAL TIME:     2.24 SEC

 Node minimum:    29392722.  Node maximum:    29413171. integrals

 OPERATOR DM      FOR CENTER  0  COORDINATES:    0.000000    0.000000    0.000000


 **********************************************************************************************************************************
 DATASETS  * FILE   NREC   LENGTH (MB)   RECORD NAMES
              1      19       30.55       500      702      610      703      900      950      970     1004      129      960   
                                          VAR     GEOM    BASINP    GEOM    SYMINP    ZMAT    AOBASIS   BASIS     P2S    ABASIS    
                                         1100     1400     1410     1200     1210     1080     1600     1650     1700   
                                           S        T        V       H0       H01     AOSYM     SMH    MOLCAS    OPER   

              2      19       27.39       500      610      700     1000      520     2100     7360     7350      701     1001   
                                          VAR    BASINP    GEOM     BASIS   MCVARS     RHF    F12ABS    EF12     GEOM     BASIS   
                                         2101      701(1)  1002     2102      702     1003     2103      703     1004   
                                          RHF     GEOM     BASIS     RHF     GEOM     BASIS     RHF     GEOM     BASIS   

 PROGRAMS   *        TOTAL       INT   RESTART
 CPU TIMES  *        10.76     10.07      0.38
 REAL TIME  *        16.35 SEC
 DISK USED  *        58.01 MB (local),        4.61 GB (total)
 GA USED    *         0.00 MB       (max)       0.00 MB       (current)
 **********************************************************************************************************************************


 Program * Restricted Hartree-Fock

 Orbital guess generated from atomic densities. Full valence occupancy:   16

 Initial occupancy:   9

 NELEC=   18   SYM=1   MS2= 0   THRE=1.0D-08   THRD=3.2D-06   THRG=3.2D-06  HFMA2=F  DIIS_START=2   DIIS_MAX=10   DIIS_INCORE=F

 Level shifts:    0.00 (CLOSED)    0.00 (OPEN)    0.30 (GAP_MIN)

 ITER           ETOT              DE          GRAD        DDIFF     DIIS  NEXP   TIME(IT)  TIME(TOT)  DIAG
   1      -79.23305527     -79.23305527     0.00D+00     0.41D-01     0     0       0.36      0.63    start
   2      -79.26023477      -0.02717950     0.33D-02     0.37D-02     1     0       0.35      0.98    diag
   3      -79.26395228      -0.00371750     0.13D-02     0.10D-02     2     0       0.33      1.31    diag
   4      -79.26452838      -0.00057611     0.39D-03     0.44D-03     3     0       0.35      1.66    diag
   5      -79.26454136      -0.00001298     0.50D-04     0.87D-04     4     0       0.30      1.96    diag
   6      -79.26454157      -0.00000021     0.64D-05     0.18D-04     5     0       0.32      2.28    diag
   7      -79.26454157      -0.00000000     0.77D-06     0.26D-05     6     0       0.35      2.63    diag
   8      -79.26454157      -0.00000000     0.12D-06     0.27D-06     0     0       0.30      2.93    diag

 Final occupancy:   9

 !RHF STATE 1.1 Energy                -79.264541572068
  RHF One-electron energy            -189.220033141994
  RHF Two-electron energy              67.653925137965
  RHF Kinetic energy                   79.199785209932
  RHF Nuclear energy                   42.301566431961
  RHF Virial quotient                  -1.000817633052

 !RHF STATE 1.1 Dipole moment          -0.00000019     0.00000032    -0.00000000
 Dipole moment /Debye                  -0.00000048     0.00000081    -0.00000000

 Orbital energies:

           1.1          2.1          3.1          4.1          5.1          6.1          7.1          8.1          9.1         10.1
    -11.210143   -11.209531    -1.017839    -0.841598    -0.596663    -0.596663    -0.510357    -0.486647    -0.486647     0.052802

          11.1
      0.059388


 HOMO      9.1    -0.486647 =     -13.2423eV
 LUMO     10.1     0.052802 =       1.4368eV
 LUMO-HOMO         0.539449 =      14.6792eV

 Orbitals saved in record  2104.2


 **********************************************************************************************************************************
 DATASETS  * FILE   NREC   LENGTH (MB)   RECORD NAMES
              1      19       30.55       500      702      610      703      900      950      970     1004      129      960   
                                          VAR     GEOM    BASINP    GEOM    SYMINP    ZMAT    AOBASIS   BASIS     P2S    ABASIS    
                                         1100     1400     1410     1200     1210     1080     1600     1650     1700   
                                           S        T        V       H0       H01     AOSYM     SMH    MOLCAS    OPER   

              2      20       30.47       500      610      700     1000      520     2100     7360     7350      701     1001   
                                          VAR    BASINP    GEOM     BASIS   MCVARS     RHF    F12ABS    EF12     GEOM     BASIS   
                                         2101      701(1)  1002     2102      702     1003     2103      703     1004     2104   
                                          RHF     GEOM     BASIS     RHF     GEOM     BASIS     RHF     GEOM     BASIS     RHF  

 PROGRAMS   *        TOTAL    HF-SCF       INT   RESTART
 CPU TIMES  *        13.78      2.98     10.07      0.38
 REAL TIME  *        19.82 SEC
 DISK USED  *        63.72 MB (local),        4.66 GB (total)
 GA USED    *         0.00 MB       (max)       0.00 MB       (current)
 **********************************************************************************************************************************


 PROGRAM * CCSD (Closed-shell coupled cluster)     Authors: C. Hampel, H.-J. Werner, 1991, M. Deegan, P.J. Knowles, 1992

                                  CCSD-F12 implementation by  H.-J. Werner, 2007

                   Density fitting integral evaluation by F.R. Manby, 2003,2007, G. Knizia, 2010


 Basis set VTZ-F12/JKFIT generated.      Number of basis functions:   484 
 Basis set CC-PVTZ-F12/OPTRI generated.  Number of basis functions:   396 
 Basis set CC-PVTZ-F12/MP2FIT generated. Number of basis functions:   488 

 Convergence thresholds:  THRVAR = 1.00D-08  THRDEN = 1.00D-06

 CCSD(T)     terms to be evaluated (factor= 1.000)


 Number of core orbitals:           2 (   2 )
 Number of closed-shell orbitals:   7 (   7 )
 Number of external orbitals:     205 ( 205 )

 Molecular orbitals read from record     2104.2  Type=RHF/CANONICAL  

 MP2-F12 correlation treatment (H.-J. Werner, 2006)
 ==================================================

 Using MP2-F12 with ansatz 3C(FIX)

 Using projected zeroth-order Hamiltonian (+Z)

 FOCKRIB=T FOCKRIC=T FOCKRIP=T CABSP=T CABSA=T CABSK=T CABSF=T GBC=F EBC=F DMAT=T NOFIK=T NOPAO=1 SOLVE=-1  USEPAO=0
 EXCH_A= T EXCH_B= F EXCH_C= F EXCH_P= F

 Geminal basis:    OPTFULL  GEM_TYPE=SLATER  BETA=1.0  NGEM=6

 Optimizing Gaussian exponents for each gem_beta

 Geminal optimization for beta= 1.0000
 Weight function:   m=0, omega= 1.4646

 Augmented Hessian optimization of geminal fit. Trust ratio= 0.40000
 Convergence reached after   2 iterations. Final gradient= 8.66D-16, Step= 4.23D-06, Delta= 1.28D-09

 Alpha:                 0.19532     0.81920     2.85917     9.50073    35.69989   197.79328
 Coeff:                 0.27070     0.30552     0.18297     0.10986     0.06810     0.04224


 All pairs explicitly correlated. Number of r12-pairs:           28

 Excluding core orbitals from MO domains

 AO(A)-basis ORBITAL           loaded. Number of functions:     214
 RI(R)-basis CC-PVTZ-F12/OPTRI loaded. Number of functions:     396
 DF-basis VTZ-F12/JKFIT        loaded. Number of functions:     484

 Screening thresholds:   THRAO=  1.00D-10  THRMO=  1.00D-09  THRPROD=  1.00D-09
                         THRSW=  1.00D-05  THROV=  1.00D-12  THRAOF12= 1.00D-08

 CPU time for Fock operators                      0.49 sec

 Construction of ABS:
 Smallest eigenvalue of S          2.11E-04  (threshold= 1.00E-08)
 Ratio eigmin/eigmax               2.40E-05  (threshold= 1.00E-09)
 Smallest eigenvalue of S kept     2.11E-04  (threshold= 2.11E-04, 0 functions deleted, 396 kept)

 Construction of CABS:
 Smallest eigenvalue of S          7.65E-07  (threshold= 1.00E-08)
 Ratio eigmin/eigmax               7.65E-07  (threshold= 1.00E-09)
 Smallest eigenvalue of S kept     7.65E-07  (threshold= 7.65E-07, 0 functions deleted, 396 kept)

 CPU time for CABS singles                        0.09 sec

 CABS-singles contribution of  -0.00100440 patched into reference energy.
 New reference energy         -79.26554597

 AO(A)-basis ORBITAL           loaded. Number of functions:     214
 RI(R)-basis CC-PVTZ-F12/OPTRI loaded. Number of functions:     396
 DF-basis CC-PVTZ-F12/MP2FIT   loaded. Number of functions:     488

 Screening thresholds:   THRAO=  1.00D-10  THRMO=  1.00D-09  THRPROD=  1.00D-09
                         THRSW=  1.00D-05  THROV=  1.00D-12  THRAOF12= 1.00D-08

 CPU time for 3-index integral evaluation         1.26 sec
 CPU time for first  half transformation          0.05 sec ( 9104.7 MFLOP/sec)
 CPU time for second half transformation          0.02 sec (  480.0 MFLOP/sec)
 CPU time for sorting                             0.03 sec
 CPU time for fitting                             0.03 sec ( 6715.7 MFLOP/sec)
 CPU time for tilde quantities                    0.04 sec ( 7477.7 MFLOP/sec)
 CPU time for assembly                            0.13 sec (20724.9 MFLOP/sec)
 CPU time for tranop_f12                          0.13 sec (26226.8 MFLOP/sec)
 CPU time for f12 integrals (total)               2.08 sec, Elapsed time:      2.67 sec
 F12-matrices built in  7 passes.
 F12-matrices built in  7 passes.
 F12-matrices built in  7 passes.
 F12-matrices built in  7 passes.
 FC-matrix built in  7 passes.
 CPU time for f12 matrices (total)                0.10 sec, Elapsed time:      0.10 sec

 Diagonal F12 approximation with fixed coefficients:  TSING= 0.500,  TTRIP= 0.250 (scaled by -1/beta)

 DF-MP2-F12 energy corrections:
 ==============================
 Approx.                                    Singlet             Triplet             Total
 DF-MP2-F12/3*C(DX,FIX)                -0.029310104220     -0.002305620591     -0.031615724811
 DF-MP2-F12/3*C(FIX)                   -0.028668076271     -0.002342542367     -0.031010618639
 DF-MP2-F12/3C(FIX)                    -0.028648615819     -0.002383205667     -0.031031821485

 DF-MP2-F12 correlation energies:
 ================================
 Approx.                                    Singlet             Triplet             Ecorr            Total Energy
 DF-MP2                                -0.263784626535     -0.114073158661     -0.377857785196    -79.643403757918
 DF-MP2-F12/3*C(DX,FIX)                -0.293094730755     -0.116378779253     -0.409473510007    -79.675019482729
 DF-MP2-F12/3*C(FIX)                   -0.292452702806     -0.116415701028     -0.408868403835    -79.674414376556
 DF-MP2-F12/3C(FIX)                    -0.292433242353     -0.116456364328     -0.408889606681    -79.674435579403

 SCS-DF-MP2 energies (F_SING= 1.20000  F_TRIP= 0.62222  F_PARALLEL= 0.33333):
 ============================================================================
 SCS-DF-MP2                            -0.387520406120    -79.653066378842
 SCS-DF-MP2-F12/3*C(DX,FIX)            -0.424127139552    -79.689673112273
 SCS-DF-MP2-F12/3*C(FIX)               -0.423379679563    -79.688925652285
 SCS-DF-MP2-F12/3C(FIX)                -0.423381628628    -79.688927601350
 Symmetry transformation completed.

 Number of N-1 electron functions:               7
 Number of N-2 electron functions:              28
 Number of singly external CSFs:              1435
 Number of doubly external CSFs:           1030330
 Total number of CSFs:                     1031766

 Pair and operator lists are different

 Length of J-op  integral file:             158.32 MB
 Length of K-op  integral file:             206.97 MB
 Length of 3-ext integral record:             0.00 MB

 Integral transformation finished. Total CPU:   5.48 sec, npass=  1  Memory used:  42.53 MW

 Reference energy:                    -79.26554597

 Adding F12 terms to K(Cij), methodcc=6,  factor= 1.0

 ITER.      SQ.NORM     CORR.ENERGY   TOTAL ENERGY   ENERGY CHANGE        DEN1      VAR(S)    VAR(P)  DIIS     TIME  TIME/IT
   1      1.12823928    -0.40008956   -79.66563553    -0.02216753    -0.01233117  0.12D-02  0.17D-02  1  1     9.78     1.27
   2      1.13675263    -0.40149833   -79.66704431    -0.00140878    -0.00896480  0.25D-04  0.19D-03  2  2    11.14     1.40
   3      1.13968852    -0.40168104   -79.66722701    -0.00018270    -0.00205367  0.39D-05  0.12D-04  3  3    12.55     1.44
   4      1.14043403    -0.40170790   -79.66725387    -0.00002686    -0.00040921  0.39D-06  0.71D-06  4  4    13.99     1.48
   5      1.14054196    -0.40170893   -79.66725491    -0.00000104    -0.00002102  0.35D-07  0.43D-07  5  5    15.39     1.49
   6      1.14055457    -0.40170708   -79.66725306     0.00000185    -0.00000319  0.49D-08  0.38D-08  6  6    16.81     1.50
   7      1.14055726    -0.40170654   -79.66725252     0.00000054    -0.00000173  0.54D-09  0.33D-09  6  1    18.18     1.50
   8      1.14055734    -0.40170669   -79.66725266    -0.00000015     0.00000030  0.61D-10  0.23D-10  6  3    19.55     1.50

 Norm of t1 vector:      0.04495608      S-energy:    -0.00000014      T1 diagnostic:  0.00849590
                                                                       D1 diagnostic:  0.01460198
                                                                       D2 diagnostic:  0.13919970 (internal)

 Adding energy correction from Wij-K(Fij), methodcc=6  factor= 1.0

  CCSD correlation energy              -0.401706691856
  MP2-F12 correction (uncoupled)       -0.030253307653
  C*T doubles correction               -0.000646851075
  f12b correction                       0.006342602310


 Total CPU time for triples:     11.74 sec


 RESULTS
 =======

  Reference energy                    -79.264541572068
  F12 singles correction               -0.001004400654

 F12 singles corrections added to reference energy

  New reference energy                -79.265545972722

  F12a singlet correction              -0.028562254810
  F12a triplet correction              -0.002337903917
  F12a total correction                -0.030900158727

 F12a corrections for ansatz F12/3C(FIX) added to CCSD energy

  CCSD-F12a singlet pair energy        -0.321961966269
  CCSD-F12a triplet pair energy        -0.110644745022
  CCSD-F12a correlation energy         -0.432606850583

  Triples (T) contribution             -0.014036269000
  Total correlation energy             -0.446643119584

  CCSD-F12a total energy              -79.698152823305
  CCSD[T]-F12a energy                 -79.712591378144
  CCSD-T-F12a energy                  -79.712051257112
 !CCSD(T)-F12a total energy           -79.712189092305

 F12b corrections for ansatz F12/3C(FIX) added to CCSD(T)-F12a energy

  CCSD-F12b singlet pair energy        -0.315931005423
  CCSD-F12b triplet pair energy        -0.110333103558
  CCSD-F12b correlation energy         -0.426264248274

  Triples (T) contribution             -0.014036269000
  Total correlation energy             -0.440300517274

  CCSD-F12b total energy              -79.691810220995
  CCSD[T]-F12b energy                 -79.706248775834
  CCSD-T-F12b energy                  -79.705708654802
 !CCSD(T)-F12b total energy           -79.705846489996

 Timing summary (sec):

 STEP                 CPU(USER)    SYS     CPU(TOT)    WALL
 Transformation          5.49      0.93      6.42      8.74
 CCSD iterations        11.08      1.06     12.14     12.19
 Triples                11.74      0.36     12.10     12.10
 MP2-F12                 3.05      0.51      3.56      4.09
 F12b energy             1.03      0.04      1.07      1.08

 Program statistics:

 Available memory in ccsd:                89998855
 Min. memory needed in ccsd:               3255457
 Max. memory used in ccsd:                 4113020
 Max. memory used in cckext:               2923270 ( 9 integral passes)



 **********************************************************************************************************************************
 DATASETS  * FILE   NREC   LENGTH (MB)   RECORD NAMES
              1      20      277.12       500      702      610      703      900      950      970     1004      129      960   
                                          VAR     GEOM    BASINP    GEOM    SYMINP    ZMAT    AOBASIS   BASIS     P2S    ABASIS    
                                         1100     1400     1410     1200     1210     1080     1600     1650     1700     1380   
                                           S        T        V       H0       H01     AOSYM     SMH    MOLCAS    OPER     JKOP   

              2      20       30.47       500      610      700     1000      520     2100     7360     7350      701     1001   
                                          VAR    BASINP    GEOM     BASIS   MCVARS     RHF    F12ABS    EF12     GEOM     BASIS   
                                         2101      701(1)  1002     2102      702     1003     2103      703     1004     2104   
                                          RHF     GEOM     BASIS     RHF     GEOM     BASIS     RHF     GEOM     BASIS     RHF  

 PROGRAMS   *        TOTAL   CCSD(T)    HF-SCF       INT   RESTART
 CPU TIMES  *        46.25     32.46      2.98     10.07      0.38
 REAL TIME  *        58.29 SEC
 DISK USED  *       415.52 MB (local),        6.91 GB (total)
 SF USED    *       730.55 MB
 GA USED    *         3.05 MB       (max)       0.00 MB       (current)
 **********************************************************************************************************************************

 CCSD(T)-F12/cc-pVTZ-F12 energy=    -79.705846489996

     CCSD(T)-F12          HF-SCF
    -79.70584649    -79.26454157
 **********************************************************************************************************************************
 Molpro calculation terminated
