
Running Job 1 of 2 c5h11o-5.in
qchem c5h11o-5.in_13634.0 /tmp/qchem13634/ 2
/opt/qchem/bin/mpi/mpirun_qchem -machinefile /tmp/306521.1.normal1/hostfile -np 2 /opt/qchem/exe/qcprog.exe c5h11o-5.in_13634.0 /tmp/qchem13634/

Process 0 of 2 is on node06.cluster - thread support 0
Process 1 of 2 is on node06.cluster - thread support 0
initial socket setup ...start
initial socket setup ...done 
now start server 0 ... 
                  Welcome to Q-Chem
     A Quantum Leap Into The Future Of Chemistry

 Y. Shao, L. Fusti-Molnar, Y. Jung, J. Kussmann, C. Ochsenfeld, S. T. Brown, 
 A. T. B. Gilbert, L. V. Slipchenko, S. V. Levchenko, D. P. O'Neill, 
 R. A. DiStasio Jr., R. C. Lochan, T. Wang, G. J. O. Beran, N. A. Besley, 
 J. M. Herbert, C. Y. Lin, T. Van Voorhis, S. H. Chien, A. Sodt, R. P. Steele, 
 V. A. Rassolov, P. E. Maslen, P. P. Korambath, R. D. Adamson, B. Austin, 
 J. Baker, E. F. C. Byrd, H. Dachsel, R. J. Doerksen, A. Dreuw, B. D. Dunietz, 
 A. D. Dutoi, T. R. Furlani, S. R. Gwaltney, A. Heyden, S. Hirata, C.-P. Hsu, 
 G. Kedziora, R. Z. Khaliullin, P. Klunzinger, A. M. Lee, M. S. Lee, W. Liang, 
 I. Lotan, N. Nair, B. Peters, E. I. Proynov, P. A. Pieniazek, Y. M. Rhee, 
 J. Ritchie, E. Rosta, C. D. Sherrill, A. C. Simmonett, J. E. Subotnik, 
 H. L. Woodcock III, W. Zhang, A. T. Bell, A. K. Chakraborty, D. M. Chipman, 
 F. J. Keil, A. Warshel, W. J. Hehre, H. F. Schaefer III, J. Kong, 
 A. I. Krylov, P. M. W. Gill, M. Head-Gordon

 Additional authors for Version 3.1: 
 Z. Gan, Y. Zhao, N. E. SchultzD. Truhlar, E. Epifanovsky, M. Oana

 Additional authors for Version 3.2: 
 R. Baer, B. R. Brooks, D. Casanova, J.-D. Chai, C.-L. Cheng, C. Cramer, 
 D. Crittenden, A. Ghysels, G. Hawkins, E. G. Hohenstein, C. Kelley, 
 W. Kurlancheek, D. Liotard, E. Livshits, P. Manohar, A. Marenich, 
 D. Neuhauser, R. Olson, M. A. Rohrdanz, K. S. Thanthiriwatte, A. J. W. Thom, 
 V. Vanovschi, C. F. Williams, Q. Wu, Z.-Q. You

 Additional authors for Version 4.0: 
 A. Aspuru-Guzik, Y. Bernard, C. Chang, J. Deng, A. Dreuw, M. Diedenhofen, 
 R. G. Edgar, D. Ghosh, W. A. Goddard III, M. Goldey, L. D. Jacobson, 
 M. Gordon, B. Kaduk, I. Kaliman, K. Khistyaev, R. King, A. Klamt, 
 D. Kosenkov, T. Kus, D. Lambrecht, A. Landau, A. W. Lange, K. Lawler, F. Liu, 
 J. Liu, R. Olivares-Amaya, S. P. Mao, J. Parkhill, N. Russ, M. Schmidt, 
 N. Shenvi, D. Small, Y. C. Su, E. Sundstrom, L. Vogt, O. Vydrov, M. Watson, 
 M. Wormit, X. Xu, S. Yeganeh, I. Y. Zhang, D. Zuev

 Additional authors for Version 4.1: 
 X. Feng, M. W. D. Hanson-Heine, P. Horn, H. Ji, A. Laurent, R. Peverati, 
 N. Mardirossian, N. Sergueev, S. Sharada, P. Zimmerman


 Q-Chem, Version 4.1, Q-Chem, Inc., Pittsburgh, PA (2013).

 Intel X86 Linux Version 4.1.0.1 

 Q-chem begins on Tue May 13 09:12:56 2014  

Host: 
0

     Scratch files written to /tmp/qchem13634.0//
 Oct1213 14483_epif 4150   
 Parallel job on  2  processors
Processing $rem in /opt/qchem/config/preferences.
 MEM_TOTAL  2000 
Warning: disabling incdft.
 Q-Chem warning in module /home/scratch/svnadmin/14483_epif/qchem/forms1/BasisType.C, line 1125:

 Setting pure/cartesian flag to 2111 for general basis


Finally everything over in PARseQInput

--------------------------------------------------------------
User input:
--------------------------------------------------------------
$rem
XC_GRID 000075000434
JOBTYPE opt
EXCHANGE M08SO
BASIS gen
GUI=2
UNRESTRICTED TRUE
CORRELATION NONE
$end

$comment
c5h11o-2
$end

$molecule
READ c5h11o-5MG3S.out
$end

$basis
H  0
S  3 1.00
3.386500000000E+01 2.549380000000E-02
5.094790000000E+00 1.903730000000E-01
1.158790000000E+00 8.521610000000E-01
S  1 1.00
3.258400000000E-01 1.000000000000E+00
S  1 1.00
1.027410000000E-01 1.000000000000E+00
S  1 1.00
3.600000000000E-02 1.000000000000E+00
P  1 1.00
1.500000000000E+00 1.000000000000E+00
P  1 1.00
3.750000000000E-01 1.000000000000E+00
****
C 0
S  6 1.00
4.563240000000E+03 1.966650000000E-03
6.820240000000E+02 1.523060000000E-02
1.549730000000E+02 7.612690000000E-02
4.445530000000E+01 2.608010000000E-01
1.302900000000E+01 6.164620000000E-01
1.827730000000E+00 2.210060000000E-01
S  3 1.00
2.096420000000E+01 1.146600000000E-01
4.803310000000E+00 9.199990000000E-01
1.459330000000E+00 -3.030680000000E-03
S  1 1.00
4.834560000000E-01 1.000000000000E+00
S  1 1.00
1.455850000000E-01 1.000000000000E+00
S  1 1.00
4.380000000000E-02 1.000000000000E+00
P  3 1.00
2.096420000000E+01 4.024870000000E-02
4.803310000000E+00 2.375940000000E-01
1.459330000000E+00 8.158540000000E-01
P  1 1.00
4.834560000000E-01 1.000000000000E+00
P  1 1.00
1.455850000000E-01 1.000000000000E+00
P  1 1.00
4.380000000000E-02 1.000000000000E+00
D  1 1.00
1.252000000000E+00 1.000000000000E+00
D  1 1.00
3.130000000000E-01 1.000000000000E+00
F  1 1.00
8.000000000000E-01 1.000000000000E+00
****
O  0
S  6 1.00
8.588500000000E+03 1.895150000000E-03
1.297230000000E+03 1.438590000000E-02
2.992960000000E+02 7.073200000000E-02
8.737710000000E+01 2.400010000000E-01
2.567890000000E+01 5.947970000000E-01
3.740040000000E+00 2.808020000000E-01
S  3 1.00
4.211750000000E+01 1.138890000000E-01
9.628370000000E+00 9.208110000000E-01
2.853320000000E+00 -3.274470000000E-03
S  1 1.00
9.056610000000E-01 1.000000000000E+00
S  1 1.00
2.556110000000E-01 1.000000000000E+00
S  1 1.00
8.450000000000E-02 1.000000000000E+00
P  3 1.00
4.211750000000E+01 3.651140000000E-02
9.628370000000E+00 2.371530000000E-01
2.853320000000E+00 8.197020000000E-01
P  1 1.00
9.056610000000E-01 1.000000000000E+00
P  1 1.00
2.556110000000E-01 1.000000000000E+00
P  1 1.00
8.450000000000E-02 1.000000000000E+00
D  1 1.00
2.584000000000E+00 1.000000000000E+00
D  1 1.00
6.460000000000E-01 1.000000000000E+00
F  1 1.00
1.400000000000E+00 1.000000000000E+00
****
$end

--------------------------------------------------------------
 ----------------------------------------------------
       Standard Nuclear Orientation (Angstroms)
    I     Atom         X            Y            Z
 ----------------------------------------------------
    1      C      -1.083676     0.061121    -0.345218
    2      H      -1.005930     0.025472    -1.443148
    3      C      -2.135320     1.058696     0.021622
    4      H      -2.184855     2.016876    -0.483370
    5      H      -2.656216     0.965105     0.969878
    6      C      -1.457261    -1.335704     0.164265
    7      H      -0.745771    -2.099580    -0.164315
    8      H      -2.449407    -1.625487    -0.196647
    9      H      -1.481146    -1.347137     1.261144
   10      C       0.290808     0.520169     0.190635
   11      H       0.484358     1.547504    -0.139300
   12      H       0.254205     0.537901     1.290443
   13      C       1.459149    -0.344601    -0.274069
   14      H       1.461047    -0.411783    -1.367091
   15      H       1.378533    -1.365299     0.123214
   16      O       2.714428     0.218909     0.071226
   17      H       2.787562     0.247079     1.035975
 ----------------------------------------------------
 Molecular Point Group                 C1    NOp =  1
 Largest Abelian Subgroup              C1    NOp =  1
 Nuclear Repulsion Energy =   244.2160962168 hartrees
 There are       25 alpha and       24 beta electrons
 Requested basis set is non-standard
 There are 138 shells and 314 basis functions

Total QAlloc Memory Limit   2000 MB
Mega-Array Size        61 MB
MEM_STATIC part        62 MB
 A cutoff of  1.0D-11 yielded   8977 shell pairs
 There are     45873 function pairs (     54934 Cartesian)
 Smallest overlap matrix eigenvalue = 1.50E-05

  Scale SEOQF with 1.000000e-01/1.000000e-01/1.000000e-01

 Standard Electronic Orientation quadrupole field applied
 Nucleus-field energy     =     0.0000000070 hartrees
 Guess MOs from core Hamiltonian diagonalization
 An unrestricted hybrid HF-DFT SCF calculation will be
 performed using Pulay DIIS extrapolation
 Exchange:     0.5679 Hartree-Fock + 1.0000 M08SO
 SCF converges when DIIS error is below 1.0E-08
 ---------------------------------------
  Cycle       Energy         DIIS Error
 ---------------------------------------
    1    -194.1779056452      9.18E-02
    2    -169.9022295523      4.56E-02
    3    -167.0892151076      6.79E-02
    4    -232.1753394478      3.93E-02
    5    -266.4136939152      2.05E-02
    6    -266.7396686511      1.43E-02
    7    -271.2119593638      7.12E-03
    8    -272.0552454944      2.86E-03
    9    -272.1832561849      9.43E-04
   10    -272.1983589139      3.36E-04
   11    -272.2004453250      1.81E-04
   12    -272.2009762721      4.33E-05
   13    -272.2010533849      1.48E-05
   14    -272.2010618277      6.80E-06
   15    -272.2010640750      2.47E-06
   16    -272.2010645370      6.18E-07
   17    -272.2010645703      1.68E-07
   18    -272.2010645723      5.96E-08
   19    -272.2010645726      2.49E-08
   20    -272.2010645730      6.96E-09 Convergence criterion met
 ---------------------------------------
 <S^2> = 0.7553
 SCF time:  CPU 2818.34 s  wall 2819.82 s
 SCF   energy in the final basis set = -272.2010645730
 Total energy in the final basis set = -272.2010645730
 Analysis of SCF Wavefunction
 
 --------------------------------------------------------------
                    Orbital Energies (a.u.)
 --------------------------------------------------------------
 
 Alpha MOs
 -- Occupied --
-19.565 -10.543 -10.511 -10.507 -10.497 -10.489  -1.136  -0.922
 -0.824  -0.776  -0.718  -0.652  -0.593  -0.558  -0.530  -0.517
 -0.497  -0.473  -0.457  -0.428  -0.414  -0.411  -0.395  -0.361
 -0.274
 -- Virtual --
 -0.027  -0.016  -0.009  -0.008   0.013   0.017   0.018   0.021
  0.027   0.047   0.050   0.063   0.077   0.082   0.084   0.088
  0.103   0.109   0.118   0.125   0.126   0.131   0.133   0.143
  0.144   0.147   0.158   0.162   0.165   0.183   0.189   0.192
  0.203   0.214   0.219   0.233   0.246   0.249   0.254   0.259
  0.276   0.289   0.300   0.303   0.314   0.324   0.339   0.342
  0.354   0.373   0.395   0.429   0.437   0.453   0.464   0.479
  0.502   0.524   0.534   0.544   0.549   0.558   0.564   0.569
  0.577   0.587   0.594   0.601   0.610   0.615   0.629   0.635
  0.637   0.656   0.677   0.682   0.683   0.698   0.715   0.726
  0.746   0.764   0.774   0.792   0.826   0.848   0.870   0.887
  0.899   0.916   0.935   0.966   0.995   1.000   1.027   1.034
  1.059   1.077   1.084   1.106   1.127   1.140   1.152   1.173
  1.179   1.183   1.192   1.213   1.226   1.247   1.250   1.262
  1.275   1.292   1.301   1.326   1.334   1.343   1.353   1.368
  1.382   1.399   1.426   1.434   1.448   1.454   1.462   1.473
  1.480   1.503   1.511   1.526   1.544   1.569   1.578   1.583
  1.623   1.643   1.648   1.678   1.714   1.739   1.776   1.794
  1.936   2.064   2.109   2.286   2.291   2.402   2.463   2.467
  2.496   2.570   2.583   2.592   2.630   2.651   2.675   2.697
  2.737   2.753   2.775   2.788   2.810   2.834   2.877   2.882
  2.908   2.917   2.932   2.936   2.965   2.975   2.986   3.015
  3.076   3.083   3.120   3.130   3.166   3.177   3.193   3.217
  3.228   3.239   3.264   3.284   3.299   3.331   3.350   3.376
  3.389   3.403   3.415   3.423   3.443   3.484   3.511   3.523
  3.560   3.579   3.600   3.618   3.626   3.685   3.694   3.697
  3.720   3.747   3.770   3.778   3.806   3.819   3.835   3.847
  3.867   3.914   3.928   3.958   3.975   3.995   4.003   4.008
  4.037   4.048   4.094   4.103   4.117   4.134   4.156   4.164
  4.179   4.201   4.207   4.229   4.248   4.287   4.319   4.323
  4.356   4.362   4.396   4.402   4.457   4.484   4.492   4.509
  4.538   4.562   4.583   4.645   4.651   4.703   4.755   4.868
  4.878   5.048   5.154   5.181   5.205   5.263   5.366   5.381
  5.406   5.440   5.447   5.483   5.515   5.576   5.576   5.639
  5.661   5.680   5.778   5.880   6.480   6.955   7.100   7.171
  7.208   7.461   7.589  24.002  24.135  24.158  24.254  24.281
 49.793
 
 Beta MOs
 -- Occupied --
-19.565 -10.542 -10.512 -10.496 -10.490 -10.489  -1.136  -0.917
 -0.820  -0.765  -0.710  -0.646  -0.593  -0.555  -0.525  -0.512
 -0.497  -0.472  -0.454  -0.428  -0.411  -0.405  -0.395  -0.357
 -- Virtual --
 -0.037  -0.030  -0.017  -0.013  -0.009   0.010   0.015   0.016
  0.019   0.026   0.043   0.048   0.060   0.073   0.078   0.081
  0.081   0.099   0.106   0.116   0.122   0.123   0.127   0.129
  0.140   0.142   0.145   0.156   0.160   0.163   0.180   0.185
  0.193   0.202   0.213   0.221   0.232   0.247   0.248   0.257
  0.259   0.276   0.288   0.304   0.308   0.315   0.322   0.342
  0.344   0.354   0.379   0.394   0.431   0.437   0.454   0.463
  0.480   0.501   0.529   0.538   0.546   0.555   0.562   0.566
  0.573   0.582   0.591   0.606   0.616   0.619   0.634   0.637
  0.644   0.653   0.659   0.680   0.687   0.691   0.699   0.721
  0.736   0.748   0.770   0.775   0.800   0.828   0.850   0.871
  0.891   0.900   0.920   0.938   0.969   0.996   1.001   1.037
  1.040   1.065   1.080   1.091   1.109   1.131   1.141   1.154
  1.174   1.180   1.186   1.195   1.215   1.231   1.249   1.253
  1.269   1.291   1.294   1.305   1.336   1.344   1.348   1.366
  1.372   1.385   1.404   1.428   1.440   1.449   1.456   1.465
  1.479   1.486   1.510   1.515   1.540   1.554   1.571   1.581
  1.587   1.626   1.650   1.652   1.688   1.724   1.743   1.780
  1.803   1.937   2.066   2.110   2.287   2.292   2.412   2.472
  2.480   2.527   2.579   2.593   2.619   2.659   2.662   2.693
  2.710   2.748   2.774   2.791   2.808   2.852   2.881   2.905
  2.914   2.936   2.942   2.962   2.976   2.995   3.022   3.054
  3.066   3.088   3.101   3.130   3.152   3.171   3.191   3.210
  3.250   3.257   3.272   3.285   3.310   3.317   3.357   3.362
  3.390   3.412   3.423   3.435   3.458   3.483   3.498   3.529
  3.533   3.587   3.597   3.604   3.630   3.654   3.693   3.698
  3.701   3.725   3.759   3.780   3.788   3.817   3.839   3.844
  3.856   3.866   3.915   3.931   3.963   3.977   4.000   4.012
  4.017   4.048   4.069   4.102   4.113   4.127   4.150   4.167
  4.184   4.203   4.215   4.219   4.255   4.266   4.296   4.328
  4.334   4.376   4.388   4.403   4.426   4.461   4.495   4.498
  4.541   4.557   4.580   4.602   4.654   4.666   4.712   4.760
  4.947   4.960   5.120   5.162   5.184   5.211   5.278   5.362
  5.381   5.443   5.467   5.490   5.515   5.533   5.576   5.614
  5.645   5.672   5.692   5.778   5.880   6.479   6.955   7.100
  7.171   7.208   7.461   7.589  24.010  24.135  24.166  24.257
 24.289  49.793
 --------------------------------------------------------------
 
          Ground-State Mulliken Net Atomic Charges

     Atom                 Charge (a.u.)    Spin (a.u.)
  --------------------------------------------------------
      1 C                    -0.022378      -0.064942
      2 H                     0.244616       0.022707
      3 C                    -0.400772       1.107188
      4 H                     0.190524      -0.045233
      5 H                     0.149674      -0.053404
      6 C                    -0.773162       0.011655
      7 H                     0.194740       0.002369
      8 H                     0.213976      -0.001097
      9 H                     0.222044       0.003527
     10 C                    -0.435273      -0.002621
     11 H                     0.253513       0.000359
     12 H                     0.241884       0.008444
     13 C                    -0.463818       0.009122
     14 H                     0.226134       0.001585
     15 H                     0.217510      -0.000742
     16 O                    -0.339396       0.001257
     17 H                     0.280185      -0.000173
  --------------------------------------------------------
  Sum of atomic charges =     0.000000
  Sum of spin   charges =     1.000000

 -----------------------------------------------------------------
                    Cartesian Multipole Moments
 -----------------------------------------------------------------
    Charge (ESU x 10^10)
                 0.0000
    Dipole Moment (Debye)
         X      -1.0360      Y      -0.5246      Z       1.0479
       Tot       1.5641
    Quadrupole Moments (Debye-Ang)
        XX     -47.7147     XY      -1.1327     YY     -40.3147
        XZ       3.1867     YZ       0.0786     ZZ     -37.3801
    Octapole Moments (Debye-Ang^2)
       XXX      -1.5553    XXY      -3.1987    XYY       3.1063
       YYY       0.9185    XXZ      14.5165    XYZ       1.2210
       YYZ      -1.6012    XZZ      10.4560    YZZ       0.4489
       ZZZ       2.5373
    Hexadecapole Moments (Debye-Ang^3)
      XXXX    -865.7823   XXXY       4.5457   XXYY    -170.4450
      XYYY      -2.7582   YYYY    -239.1903   XXXZ      31.3645
      XXYZ       6.3479   XYYZ       4.1604   YYYZ      -3.6408
      XXZZ    -125.5466   XYZZ       2.0537   YYZZ     -57.4087
      XZZZ       5.9673   YZZZ       0.3437   ZZZZ     -88.4773
 -----------------------------------------------------------------
 Calculating analytic gradient of the SCF energy
 Gradient of Coulomb and Exchange Energy
            1           2           3           4           5           6
    1   3.8942607  -0.0460892   4.4489146   0.6224319   2.4924078   2.3547934
    2  -0.6495187   0.0812203  -2.3397064  -3.8935405  -0.0644258   3.0221430
    3   0.3410851   4.8895362   0.1334725   1.7578130  -3.5145705  -0.2366369
            7           8           9          10          11          12
    1  -2.0020350   3.6728470   0.4204839  -1.4346252  -0.7958783   0.0770158
    2   3.2892420   1.5362173   0.8629808   1.8004148  -4.5015498  -0.6069845
    3   0.8966539   0.9753204  -3.7568945   0.9325914   1.0191253  -4.4938645
           13          14          15          16          17
    1  -1.4629442  -0.2572429  -0.1600460 -10.3925958  -1.4316985
    2  -0.5582101   0.6761525   4.1027940  -2.4333585  -0.3238704
    3   0.1181095   4.4267035  -1.2736141   2.1995483  -4.4143786
 Gradient of SCF Energy
            1           2           3           4           5           6
    1   0.0015579  -0.0004415  -0.0037529   0.0008734   0.0024508  -0.0000345
    2   0.0002781   0.0001769   0.0003862  -0.0019331   0.0009102   0.0004264
    3   0.0008434   0.0017431  -0.0016949   0.0020222  -0.0014731   0.0003594
            7           8           9          10          11          12
    1  -0.0012751   0.0012080   0.0000483  -0.0002534  -0.0004096  -0.0000686
    2   0.0007814   0.0002913  -0.0003820  -0.0005570  -0.0019438   0.0000836
    3   0.0006209   0.0002674  -0.0018288  -0.0000474   0.0003889  -0.0017637
           13          14          15          16          17
    1  -0.0010465   0.0011242   0.0007346  -0.0000524  -0.0006630
    2  -0.0007771   0.0007702   0.0022225  -0.0001410  -0.0005927
    3   0.0006294   0.0022785  -0.0003682  -0.0070922   0.0051152
 Max gradient component =       7.092E-03
 RMS gradient           =       1.708E-03
 Gradient time:  CPU 206.53 s  wall 206.61 s
 Geometry Optimization Parameters
   NAtoms,    NIC,     NZ,  NCons,   NDum,   NFix, NCnnct, MaxDiis
       17     114      17       0       0       0       0       0


** GEOMETRY OPTIMIZATION IN DELOCALIZED INTERNAL COORDINATES **
   Searching for a Minimum

   Optimization Cycle:   1

                       Coordinates (Angstroms)
     ATOM              X           Y           Z
      1  C        -1.083676    0.061121   -0.345218
      2  H        -1.005930    0.025472   -1.443148
      3  C        -2.135320    1.058696    0.021622
      4  H        -2.184855    2.016876   -0.483370
      5  H        -2.656216    0.965105    0.969878
      6  C        -1.457261   -1.335704    0.164265
      7  H        -0.745771   -2.099580   -0.164315
      8  H        -2.449407   -1.625487   -0.196647
      9  H        -1.481146   -1.347137    1.261144
     10  C         0.290808    0.520169    0.190635
     11  H         0.484358    1.547504   -0.139300
     12  H         0.254205    0.537901    1.290443
     13  C         1.459149   -0.344601   -0.274069
     14  H         1.461047   -0.411783   -1.367091
     15  H         1.378533   -1.365299    0.123214
     16  O         2.714428    0.218909    0.071226
     17  H         2.787562    0.247079    1.035975
   Point Group: c1    Number of degrees of freedom:    45


   Energy is   -272.201064573


 Attempting to Generate Delocalized Internal Coordinates
 GETINT wrote B to file, NVib is           45
 calling HSSCONV
 HCONV 3*NATOMS:           51
 wrote HINT to file
  writing hessian 

 45 Hessian modes will be used to form the next step
  Hessian Eigenvalues:
     0.003224    0.004806    0.005734    0.009811    0.012242    0.013182
     0.034901    0.040113    0.048153    0.048787    0.048954    0.054930
     0.056874    0.058526    0.059709    0.085834    0.117163    0.123750
     0.139651    0.160000    0.160000    0.160000    0.160000    0.160000
     0.160000    0.168991    0.180496    0.219543    0.220317    0.280793
     0.291431    0.297922    0.328840    0.335436    0.336203    0.338762
     0.339938    0.341017    0.342314    0.342639    0.343102    0.352852
     0.354866    0.426681    0.538027

 Minimum Search - Taking Simple RFO Step
 Searching for Lamda that Minimizes Along All modes
 Value Taken    Lamda =  -0.00067630
 Step Taken.  Stepsize is  0.177822

                             Maximum     Tolerance    Cnvgd?
         Gradient           0.004916      0.000300      NO
         Displacement       0.065887      0.001200      NO
         Energy change     *********      0.000001      NO


 New Cartesian Coordinates Obtained by Inverse Iteration

 Displacement from previous Coordinates is:  0.220582
 ----------------------------------------------------
       Standard Nuclear Orientation (Angstroms)
    I     Atom         X            Y            Z
 ----------------------------------------------------
    1      C      -1.079164     0.076156    -0.344785
    2      H      -1.004998     0.046858    -1.445950
    3      C      -2.132389     1.066639     0.038971
    4      H      -2.227520     2.014923    -0.486356
    5      H      -2.702560     0.933108     0.958012
    6      C      -1.439597    -1.327645     0.161606
    7      H      -0.720852    -2.083943    -0.176605
    8      H      -2.434310    -1.624927    -0.191941
    9      H      -1.453914    -1.340421     1.261481
   10      C       0.299153     0.534421     0.188082
   11      H       0.504873     1.560078    -0.149984
   12      H       0.264031     0.558601     1.290577
   13      C       1.452507    -0.356186    -0.270597
   14      H       1.446263    -0.435890    -1.366352
   15      H       1.346669    -1.375264     0.134548
   16      O       2.717477     0.187734     0.077917
   17      H       2.794838     0.234996     1.036621
 ----------------------------------------------------
 Molecular Point Group                 C1    NOp =  1
 Largest Abelian Subgroup              C1    NOp =  1
 Nuclear Repulsion Energy =   244.1317832712 hartrees
 There are       25 alpha and       24 beta electrons
 Applying Cartesian multipole field
    Component          Value
    ---------          -----
     (2,0,0)        1.00000E-11
     (0,2,0)        2.00000E-11
     (0,0,2)       -3.00000E-11
 Nucleus-field energy     =     0.0000000070 hartrees
 Requested basis set is non-standard
 There are 138 shells and 314 basis functions
 A cutoff of  1.0D-11 yielded   8977 shell pairs
 There are     45933 function pairs (     55044 Cartesian)
 Smallest overlap matrix eigenvalue = 1.50E-05
 Guess MOs from SCF MO coefficient file
Reading MOs from coefficient file
Reading MOs from coefficient file
 An unrestricted hybrid HF-DFT SCF calculation will be
 performed using Pulay DIIS extrapolation
 Exchange:     0.5679 Hartree-Fock + 1.0000 M08SO
 SCF converges when DIIS error is below 1.0E-08
Geometry optimization detected.  Setting ReadMinima to 0
Setting SaveMinima to 0
 Inaccurate integrated density:
   Number of electrons =    49
   Numerical integral  =    48.988837182788
   Relative error      =    -0.0227812596 %
 ---------------------------------------
  Cycle       Energy         DIIS Error
 ---------------------------------------
    1    -272.2007929964      3.41E-04
    2    -272.2013320847      4.44E-05
    3    -272.2014120703      2.18E-05
    4    -272.2014254950      1.12E-05
    5    -272.2014303676      3.31E-06
    6    -272.2014310870      1.70E-06
    7    -272.2014312103      6.56E-07
    8    -272.2014312270      2.27E-07
    9    -272.2014312283      5.79E-08
   10    -272.2014312282      1.66E-08
   11    -272.2014312288      5.47E-09 Convergence criterion met
 ---------------------------------------
 <S^2> = 0.7555
 SCF time:  CPU 1497.79 s  wall 1498.79 s
 SCF   energy in the final basis set = -272.2014312288
 Total energy in the final basis set = -272.2014312288
 Analysis of SCF Wavefunction
 
 --------------------------------------------------------------
                    Orbital Energies (a.u.)
 --------------------------------------------------------------
 
 Alpha MOs
 -- Occupied --
-19.564 -10.544 -10.512 -10.508 -10.498 -10.490  -1.136  -0.921
 -0.824  -0.775  -0.718  -0.651  -0.593  -0.558  -0.528  -0.517
 -0.497  -0.473  -0.456  -0.429  -0.415  -0.410  -0.395  -0.360
 -0.272
 -- Virtual --
 -0.027  -0.016  -0.009  -0.008   0.013   0.016   0.018   0.021
  0.027   0.047   0.049   0.063   0.077   0.082   0.084   0.088
  0.103   0.109   0.118   0.125   0.126   0.131   0.133   0.143
  0.144   0.147   0.158   0.163   0.166   0.182   0.188   0.192
  0.202   0.212   0.218   0.233   0.243   0.249   0.254   0.259
  0.279   0.289   0.301   0.305   0.317   0.324   0.339   0.342
  0.356   0.372   0.395   0.429   0.437   0.453   0.462   0.479
  0.501   0.526   0.533   0.544   0.548   0.556   0.563   0.568
  0.576   0.588   0.592   0.600   0.612   0.616   0.629   0.634
  0.638   0.658   0.675   0.679   0.682   0.698   0.710   0.725
  0.749   0.764   0.775   0.794   0.823   0.846   0.869   0.888
  0.899   0.913   0.934   0.962   0.993   0.999   1.024   1.037
  1.058   1.076   1.085   1.112   1.128   1.138   1.153   1.172
  1.177   1.184   1.193   1.210   1.223   1.243   1.249   1.265
  1.275   1.291   1.302   1.322   1.337   1.349   1.350   1.369
  1.382   1.402   1.427   1.434   1.449   1.450   1.463   1.467
  1.479   1.502   1.508   1.525   1.540   1.568   1.576   1.586
  1.622   1.644   1.649   1.679   1.709   1.742   1.775   1.798
  1.936   2.064   2.110   2.285   2.292   2.406   2.460   2.470
  2.492   2.574   2.590   2.598   2.624   2.653   2.675   2.700
  2.738   2.744   2.774   2.787   2.807   2.838   2.869   2.883
  2.900   2.914   2.934   2.939   2.967   2.970   2.987   3.018
  3.074   3.081   3.115   3.131   3.165   3.175   3.192   3.214
  3.219   3.227   3.267   3.283   3.299   3.335   3.353   3.376
  3.389   3.399   3.415   3.418   3.444   3.482   3.510   3.524
  3.565   3.585   3.590   3.618   3.627   3.688   3.692   3.695
  3.715   3.746   3.764   3.778   3.802   3.815   3.829   3.844
  3.865   3.908   3.923   3.951   3.971   3.991   3.999   4.003
  4.031   4.045   4.089   4.102   4.115   4.132   4.150   4.159
  4.177   4.196   4.209   4.223   4.248   4.287   4.308   4.325
  4.356   4.363   4.394   4.401   4.451   4.478   4.488   4.503
  4.530   4.562   4.573   4.636   4.648   4.695   4.752   4.875
  4.887   5.046   5.150   5.180   5.200   5.256   5.360   5.377
  5.391   5.432   5.439   5.474   5.524   5.566   5.568   5.629
  5.652   5.669   5.773   5.884   6.473   6.956   7.125   7.167
  7.207   7.468   7.586  23.995  24.125  24.145  24.242  24.269
 49.796
 
 Beta MOs
 -- Occupied --
-19.564 -10.543 -10.513 -10.496 -10.491 -10.490  -1.135  -0.917
 -0.820  -0.764  -0.710  -0.645  -0.592  -0.554  -0.524  -0.512
 -0.496  -0.471  -0.453  -0.428  -0.410  -0.405  -0.394  -0.356
 -- Virtual --
 -0.036  -0.030  -0.017  -0.013  -0.009   0.010   0.015   0.016
  0.019   0.026   0.044   0.048   0.061   0.073   0.079   0.081
  0.082   0.099   0.107   0.115   0.121   0.124   0.128   0.129
  0.140   0.143   0.144   0.156   0.160   0.163   0.180   0.184
  0.193   0.201   0.212   0.220   0.232   0.245   0.247   0.256
  0.259   0.278   0.288   0.306   0.309   0.317   0.322   0.342
  0.344   0.355   0.378   0.395   0.430   0.438   0.454   0.462
  0.479   0.500   0.530   0.537   0.545   0.554   0.561   0.567
  0.573   0.581   0.592   0.603   0.615   0.623   0.635   0.637
  0.646   0.654   0.660   0.679   0.685   0.690   0.698   0.715
  0.734   0.751   0.769   0.777   0.802   0.826   0.848   0.870
  0.891   0.902   0.917   0.937   0.965   0.995   1.000   1.033
  1.043   1.062   1.080   1.091   1.115   1.133   1.140   1.155
  1.173   1.177   1.187   1.197   1.213   1.227   1.249   1.251
  1.271   1.289   1.294   1.306   1.332   1.346   1.353   1.362
  1.372   1.384   1.408   1.430   1.441   1.450   1.454   1.466
  1.473   1.484   1.509   1.513   1.539   1.547   1.570   1.579
  1.590   1.626   1.651   1.653   1.688   1.719   1.746   1.779
  1.807   1.937   2.066   2.111   2.286   2.293   2.415   2.466
  2.486   2.524   2.581   2.599   2.628   2.657   2.663   2.689
  2.715   2.747   2.771   2.790   2.804   2.854   2.878   2.899
  2.912   2.933   2.942   2.954   2.983   2.996   3.020   3.051
  3.072   3.087   3.099   3.134   3.153   3.171   3.189   3.208
  3.248   3.252   3.255   3.288   3.305   3.319   3.360   3.367
  3.391   3.415   3.418   3.436   3.457   3.487   3.503   3.524
  3.532   3.582   3.594   3.603   3.633   3.658   3.693   3.697
  3.700   3.718   3.758   3.776   3.785   3.815   3.836   3.840
  3.849   3.866   3.909   3.927   3.954   3.972   3.996   4.008
  4.014   4.041   4.068   4.100   4.110   4.123   4.146   4.166
  4.180   4.200   4.211   4.214   4.251   4.262   4.299   4.319
  4.340   4.375   4.387   4.403   4.421   4.457   4.490   4.498
  4.534   4.549   4.578   4.592   4.644   4.664   4.704   4.758
  4.950   4.974   5.121   5.158   5.183   5.206   5.273   5.355
  5.378   5.438   5.459   5.479   5.511   5.524   5.566   5.602
  5.636   5.663   5.683   5.773   5.884   6.472   6.956   7.125
  7.167   7.207   7.468   7.586  24.004  24.126  24.154  24.245
 24.277  49.796
 --------------------------------------------------------------
 
          Ground-State Mulliken Net Atomic Charges

     Atom                 Charge (a.u.)    Spin (a.u.)
  --------------------------------------------------------
      1 C                    -0.000306      -0.069138
      2 H                     0.245315       0.024238
      3 C                    -0.429164       1.110038
      4 H                     0.192843      -0.047185
      5 H                     0.156972      -0.053785
      6 C                    -0.782270       0.013019
      7 H                     0.196530       0.002476
      8 H                     0.214907      -0.001173
      9 H                     0.222253       0.003532
     10 C                    -0.440155      -0.002252
     11 H                     0.253958       0.000808
     12 H                     0.242819       0.008409
     13 C                    -0.456319       0.009183
     14 H                     0.228091       0.001658
     15 H                     0.217735      -0.000863
     16 O                    -0.342917       0.001185
     17 H                     0.279707      -0.000148
  --------------------------------------------------------
  Sum of atomic charges =     0.000000
  Sum of spin   charges =     1.000000

 -----------------------------------------------------------------
                    Cartesian Multipole Moments
 -----------------------------------------------------------------
    Charge (ESU x 10^10)
                 0.0000
    Dipole Moment (Debye)
         X      -1.1119      Y      -0.5044      Z       1.0055
       Tot       1.5817
    Quadrupole Moments (Debye-Ang)
        XX     -47.4727     XY      -0.9728     YY     -40.3842
        XZ       3.2669     YZ      -0.0023     ZZ     -37.4225
    Octapole Moments (Debye-Ang^2)
       XXX      -3.3710    XXY      -2.3889    XYY       3.1285
       YYY       0.7858    XXZ      14.3908    XYZ       1.4597
       YYZ      -1.9068    XZZ      10.3655    YZZ       0.3518
       ZZZ       2.1347
    Hexadecapole Moments (Debye-Ang^3)
      XXXX    -859.8799   XXXY       7.9540   XXYY    -169.8027
      XYYY       0.5762   YYYY    -240.0466   XXXZ      31.6343
      XXYZ       5.7575   XYYZ       4.5215   YYYZ      -4.2512
      XXZZ    -125.1514   XYZZ       3.0426   YYZZ     -57.5548
      XZZZ       6.2692   YZZZ      -0.0751   ZZZZ     -88.6201
 -----------------------------------------------------------------
 Calculating analytic gradient of the SCF energy
 Gradient of Coulomb and Exchange Energy
            1           2           3           4           5           6
    1   4.1305694  -0.0414870   4.0692278   0.7711958   2.6794750   2.3304630
    2  -0.5581234   0.0656915  -2.5821618  -3.8765160   0.1471170   3.0297414
    3   0.2828576   4.8860677  -0.1858647   1.8747012  -3.4005306  -0.1719731
            7           8           9          10          11          12
    1  -2.0528874   3.6814786   0.3823725  -1.5504583  -0.8602097   0.0754796
    2   3.2462037   1.5567154   0.8627872   1.5883170  -4.5110923  -0.6306712
    3   0.9257528   0.9510987  -3.7636121   1.0276254   1.0620921  -4.4951523
           13          14          15          16          17
    1  -1.4816363  -0.1849640  -0.0449687 -10.4046062  -1.4990442
    2  -0.5498533   0.7478608   4.1013522  -2.2154599  -0.4219083
    3   0.1771818   4.4206770  -1.2789268   2.0989885  -4.4109833
 Gradient of SCF Energy
            1           2           3           4           5           6
    1   0.0008533   0.0000026  -0.0005627   0.0000443   0.0001729  -0.0000136
    2  -0.0004525  -0.0000254  -0.0004552   0.0004612   0.0003064   0.0003934
    3   0.0000629   0.0000318  -0.0004554  -0.0000876   0.0006842  -0.0000629
            7           8           9          10          11          12
    1   0.0002381   0.0000287  -0.0000459  -0.0003812   0.0000970   0.0000472
    2  -0.0000810  -0.0000470  -0.0001208  -0.0000323   0.0001288  -0.0000242
    3   0.0000682  -0.0000357  -0.0000670  -0.0002346  -0.0000173   0.0000080
           13          14          15          16          17
    1  -0.0009486  -0.0003017  -0.0001378   0.0005484   0.0003592
    2  -0.0006572  -0.0000594  -0.0000133   0.0007258  -0.0000475
    3  -0.0008110   0.0000140   0.0000475   0.0004970   0.0003575
 Max gradient component =       9.486E-04
 RMS gradient           =       3.544E-04
 Gradient time:  CPU 206.58 s  wall 206.58 s
 Geometry Optimization Parameters
   NAtoms,    NIC,     NZ,  NCons,   NDum,   NFix, NCnnct, MaxDiis
       17     114      17       0       0       0       0       0

 Cartesian Hessian Update
 Hessian Updated using BFGS Update


** GEOMETRY OPTIMIZATION IN DELOCALIZED INTERNAL COORDINATES **
   Searching for a Minimum

   Optimization Cycle:   2

                       Coordinates (Angstroms)
     ATOM              X           Y           Z
      1  C        -1.079164    0.076156   -0.344785
      2  H        -1.004998    0.046858   -1.445950
      3  C        -2.132389    1.066639    0.038971
      4  H        -2.227520    2.014923   -0.486356
      5  H        -2.702560    0.933108    0.958012
      6  C        -1.439597   -1.327645    0.161606
      7  H        -0.720852   -2.083943   -0.176605
      8  H        -2.434310   -1.624927   -0.191941
      9  H        -1.453914   -1.340421    1.261481
     10  C         0.299153    0.534421    0.188082
     11  H         0.504873    1.560078   -0.149984
     12  H         0.264031    0.558601    1.290577
     13  C         1.452507   -0.356186   -0.270597
     14  H         1.446263   -0.435890   -1.366352
     15  H         1.346669   -1.375264    0.134548
     16  O         2.717477    0.187734    0.077917
     17  H         2.794838    0.234996    1.036621
   Point Group: c1    Number of degrees of freedom:    45


   Energy is   -272.201431229

 GETINT wrote B to file, NVib is           45
 Hessian Updated using BFGS Update

 41 Hessian modes will be used to form the next step
  Hessian Eigenvalues:
     0.003277    0.004793    0.005747    0.008799    0.010706    0.013187
     0.035317    0.040218    0.048359    0.048809    0.049375    0.054967
     0.056864    0.059077    0.059698    0.085892    0.118434    0.123720
     0.139821    0.159581    0.163460    0.169546    0.181163    0.219548
     0.227778    0.278410    0.290834    0.297191    0.328490    0.335492
     0.336377    0.339058    0.339740    0.341497    0.342286    0.342623
     0.344471    0.353785    0.366300    0.439398    0.536336

 Minimum Search - Taking Simple RFO Step
 Searching for Lamda that Minimizes Along All modes
 Value Taken    Lamda =  -0.00008314
 Step Taken.  Stepsize is  0.092539

                             Maximum     Tolerance    Cnvgd?
         Gradient           0.000798      0.000300      NO
         Displacement       0.035659      0.001200      NO
         Energy change     -0.000367      0.000001      NO


 New Cartesian Coordinates Obtained by Inverse Iteration

 Displacement from previous Coordinates is:  0.105195
 ----------------------------------------------------
       Standard Nuclear Orientation (Angstroms)
    I     Atom         X            Y            Z
 ----------------------------------------------------
    1      C      -1.076739     0.078189    -0.341007
    2      H      -1.000205     0.051042    -1.442419
    3      C      -2.128561     1.069686     0.040879
    4      H      -2.228971     2.014749    -0.488637
    5      H      -2.730381     0.917182     0.936094
    6      C      -1.443826    -1.325446     0.163151
    7      H      -0.734391    -2.086318    -0.184140
    8      H      -2.444222    -1.613327    -0.182693
    9      H      -1.448860    -1.340610     1.263504
   10      C       0.303738     0.532090     0.194745
   11      H       0.509596     1.558857    -0.140162
   12      H       0.268957     0.552988     1.297602
   13      C       1.457177    -0.357399    -0.268785
   14      H       1.446126    -0.439465    -1.364733
   15      H       1.355899    -1.376455     0.138387
   16      O       2.722936     0.187887     0.068223
   17      H       2.802233     0.245588     1.025236
 ----------------------------------------------------
 Molecular Point Group                 C1    NOp =  1
 Largest Abelian Subgroup              C1    NOp =  1
 Nuclear Repulsion Energy =   244.0257882606 hartrees
 There are       25 alpha and       24 beta electrons
 Applying Cartesian multipole field
    Component          Value
    ---------          -----
     (2,0,0)        1.00000E-11
     (0,2,0)        2.00000E-11
     (0,0,2)       -3.00000E-11
 Nucleus-field energy     =     0.0000000071 hartrees
 Requested basis set is non-standard
 There are 138 shells and 314 basis functions
 A cutoff of  1.0D-11 yielded   8974 shell pairs
 There are     45858 function pairs (     54918 Cartesian)
 Smallest overlap matrix eigenvalue = 1.52E-05
 Guess MOs from SCF MO coefficient file
Reading MOs from coefficient file
Reading MOs from coefficient file
 An unrestricted hybrid HF-DFT SCF calculation will be
 performed using Pulay DIIS extrapolation
 Exchange:     0.5679 Hartree-Fock + 1.0000 M08SO
 SCF converges when DIIS error is below 1.0E-08
Geometry optimization detected.  Setting ReadMinima to 0
Setting SaveMinima to 0
 ---------------------------------------
  Cycle       Energy         DIIS Error
 ---------------------------------------
    1    -272.2016484473      1.53E-04
    2    -272.2014495503      2.08E-05
    3    -272.2014737585      9.92E-06
    4    -272.2014775394      7.16E-06
    5    -272.2014791398      1.94E-06
    6    -272.2014793984      8.45E-07
    7    -272.2014794402      3.40E-07
    8    -272.2014794451      6.43E-08
    9    -272.2014794451      2.01E-08
   10    -272.2014794449      8.65E-09 Convergence criterion met
 ---------------------------------------
 <S^2> = 0.7556
 SCF time:  CPU 1363.01 s  wall 1363.97 s
 SCF   energy in the final basis set = -272.2014794449
 Total energy in the final basis set = -272.2014794449
 Analysis of SCF Wavefunction
 
 --------------------------------------------------------------
                    Orbital Energies (a.u.)
 --------------------------------------------------------------
 
 Alpha MOs
 -- Occupied --
-19.564 -10.543 -10.512 -10.507 -10.498 -10.491  -1.136  -0.921
 -0.823  -0.775  -0.718  -0.651  -0.592  -0.558  -0.528  -0.517
 -0.497  -0.473  -0.456  -0.429  -0.415  -0.410  -0.395  -0.360
 -0.272
 -- Virtual --
 -0.027  -0.016  -0.009  -0.009   0.013   0.016   0.018   0.021
  0.027   0.047   0.049   0.063   0.077   0.082   0.084   0.088
  0.103   0.109   0.118   0.125   0.126   0.131   0.133   0.143
  0.145   0.147   0.158   0.163   0.167   0.182   0.188   0.193
  0.202   0.212   0.218   0.233   0.242   0.248   0.254   0.259
  0.280   0.290   0.301   0.305   0.317   0.324   0.339   0.343
  0.356   0.370   0.395   0.429   0.437   0.453   0.462   0.479
  0.500   0.525   0.533   0.544   0.548   0.556   0.564   0.568
  0.576   0.588   0.591   0.599   0.612   0.617   0.629   0.634
  0.639   0.658   0.674   0.678   0.683   0.697   0.707   0.725
  0.750   0.764   0.776   0.795   0.824   0.846   0.869   0.888
  0.899   0.913   0.934   0.961   0.994   0.999   1.023   1.038
  1.058   1.075   1.083   1.112   1.128   1.139   1.152   1.172
  1.175   1.184   1.192   1.208   1.224   1.243   1.249   1.266
  1.274   1.292   1.302   1.321   1.338   1.348   1.353   1.368
  1.382   1.402   1.426   1.435   1.448   1.449   1.464   1.466
  1.478   1.502   1.508   1.525   1.539   1.566   1.576   1.585
  1.622   1.642   1.648   1.679   1.709   1.742   1.773   1.802
  1.936   2.065   2.109   2.285   2.292   2.408   2.458   2.471
  2.488   2.573   2.590   2.600   2.621   2.654   2.673   2.701
  2.738   2.742   2.776   2.786   2.806   2.838   2.866   2.884
  2.897   2.915   2.933   2.940   2.968   2.971   2.989   3.021
  3.072   3.080   3.113   3.129   3.166   3.175   3.192   3.212
  3.217   3.225   3.267   3.283   3.300   3.335   3.355   3.374
  3.390   3.397   3.414   3.420   3.444   3.483   3.509   3.523
  3.566   3.583   3.589   3.618   3.627   3.687   3.694   3.695
  3.713   3.747   3.763   3.777   3.800   3.814   3.827   3.844
  3.865   3.906   3.922   3.949   3.972   3.990   3.998   4.003
  4.029   4.045   4.090   4.102   4.119   4.131   4.147   4.159
  4.178   4.194   4.208   4.225   4.248   4.290   4.306   4.325
  4.355   4.360   4.394   4.400   4.450   4.477   4.487   4.502
  4.528   4.559   4.570   4.635   4.645   4.693   4.754   4.877
  4.893   5.045   5.151   5.180   5.200   5.255   5.358   5.375
  5.392   5.432   5.440   5.474   5.525   5.566   5.568   5.626
  5.651   5.668   5.776   5.885   6.477   6.956   7.131   7.168
  7.207   7.468   7.587  23.998  24.125  24.145  24.242  24.266
 49.797
 
 Beta MOs
 -- Occupied --
-19.564 -10.543 -10.513 -10.496 -10.490 -10.490  -1.136  -0.916
 -0.820  -0.764  -0.710  -0.644  -0.592  -0.554  -0.524  -0.512
 -0.496  -0.472  -0.453  -0.429  -0.410  -0.405  -0.394  -0.356
 -- Virtual --
 -0.036  -0.030  -0.017  -0.013  -0.009   0.010   0.015   0.016
  0.019   0.027   0.043   0.048   0.061   0.073   0.079   0.081
  0.082   0.099   0.107   0.115   0.121   0.123   0.128   0.129
  0.140   0.143   0.145   0.156   0.161   0.164   0.180   0.183
  0.193   0.202   0.212   0.220   0.232   0.243   0.247   0.257
  0.260   0.279   0.289   0.307   0.309   0.318   0.322   0.342
  0.344   0.355   0.376   0.395   0.430   0.438   0.454   0.462
  0.480   0.499   0.530   0.537   0.545   0.554   0.560   0.567
  0.574   0.581   0.592   0.601   0.614   0.624   0.635   0.638
  0.646   0.654   0.661   0.679   0.685   0.689   0.697   0.712
  0.735   0.751   0.770   0.778   0.802   0.826   0.848   0.869
  0.890   0.903   0.917   0.936   0.964   0.995   1.000   1.032
  1.044   1.063   1.079   1.089   1.116   1.132   1.141   1.154
  1.173   1.176   1.187   1.196   1.212   1.227   1.248   1.252
  1.272   1.288   1.295   1.305   1.331   1.347   1.356   1.361
  1.373   1.384   1.408   1.429   1.441   1.451   1.453   1.466
  1.472   1.483   1.510   1.513   1.538   1.546   1.569   1.579
  1.589   1.625   1.650   1.651   1.688   1.719   1.745   1.777
  1.810   1.936   2.067   2.110   2.285   2.293   2.417   2.465
  2.486   2.519   2.581   2.597   2.633   2.654   2.665   2.688
  2.716   2.747   2.769   2.789   2.804   2.854   2.878   2.897
  2.912   2.934   2.940   2.951   2.986   2.997   3.023   3.050
  3.072   3.087   3.101   3.134   3.153   3.172   3.188   3.210
  3.244   3.248   3.254   3.290   3.302   3.321   3.359   3.368
  3.393   3.415   3.418   3.436   3.456   3.490   3.505   3.521
  3.530   3.577   3.594   3.602   3.632   3.659   3.694   3.698
  3.699   3.716   3.758   3.776   3.784   3.813   3.834   3.837
  3.848   3.866   3.906   3.925   3.951   3.973   3.994   4.007
  4.014   4.040   4.067   4.099   4.111   4.125   4.145   4.165
  4.179   4.200   4.210   4.213   4.251   4.263   4.302   4.318
  4.340   4.375   4.384   4.402   4.420   4.456   4.489   4.495
  4.532   4.548   4.578   4.590   4.642   4.662   4.701   4.760
  4.949   4.982   5.122   5.160   5.182   5.206   5.271   5.353
  5.377   5.440   5.459   5.478   5.510   5.526   5.566   5.602
  5.634   5.662   5.683   5.776   5.885   6.476   6.956   7.131
  7.168   7.207   7.467   7.587  24.006  24.125  24.153  24.245
 24.275  49.797
 --------------------------------------------------------------
 
          Ground-State Mulliken Net Atomic Charges

     Atom                 Charge (a.u.)    Spin (a.u.)
  --------------------------------------------------------
      1 C                     0.012628      -0.071296
      2 H                     0.245412       0.025766
      3 C                    -0.441671       1.110586
      4 H                     0.193253      -0.047826
      5 H                     0.161970      -0.053615
      6 C                    -0.792755       0.013439
      7 H                     0.197075       0.002363
      8 H                     0.215032      -0.001199
      9 H                     0.222199       0.003479
     10 C                    -0.436472      -0.001966
     11 H                     0.254461       0.000916
     12 H                     0.242760       0.008560
     13 C                    -0.456516       0.008993
     14 H                     0.227391       0.001688
     15 H                     0.217309      -0.000837
     16 O                    -0.341750       0.001102
     17 H                     0.279674      -0.000150
  --------------------------------------------------------
  Sum of atomic charges =     0.000000
  Sum of spin   charges =     1.000000

 -----------------------------------------------------------------
                    Cartesian Multipole Moments
 -----------------------------------------------------------------
    Charge (ESU x 10^10)
                 0.0000
    Dipole Moment (Debye)
         X      -1.1360      Y      -0.5013      Z       0.9987
       Tot       1.5935
    Quadrupole Moments (Debye-Ang)
        XX     -47.2932     XY      -0.9163     YY     -40.4141
        XZ       3.3339     YZ      -0.0131     ZZ     -37.5021
    Octapole Moments (Debye-Ang^2)
       XXX      -4.2598    XXY      -2.2141    XYY       3.1492
       YYY       0.6734    XXZ      14.4843    XYZ       1.6286
       YYZ      -1.9873    XZZ      10.2736    YZZ       0.2910
       ZZZ       1.9386
    Hexadecapole Moments (Debye-Ang^3)
      XXXX    -859.2605   XXXY       7.9586   XXYY    -170.1538
      XYYY       0.6399   YYYY    -239.9165   XXXZ      32.4915
      XXYZ       5.8146   XYYZ       4.8942   YYYZ      -4.2560
      XXZZ    -125.9080   XYZZ       3.1495   YYZZ     -57.5362
      XZZZ       6.7828   YZZZ      -0.1144   ZZZZ     -88.6070
 -----------------------------------------------------------------
 Calculating analytic gradient of the SCF energy
 Gradient of Coulomb and Exchange Energy
            1           2           3           4           5           6
    1   4.2341632  -0.0486816   3.8846776   0.7841662   2.7944750   2.3006025
    2  -0.5279218   0.0620432  -2.7035183  -3.8831077   0.2465229   3.0322757
    3   0.2193534   4.8732231  -0.2660087   1.9080908  -3.3059413  -0.1496984
            7           8           9          10          11          12
    1  -2.0266605   3.6969623   0.3519530  -1.5696259  -0.8589226   0.0745777
    2   3.2557738   1.5195506   0.8666927   1.6005879  -4.5196837  -0.6069348
    3   0.9591849   0.9182446  -3.7606114   1.0062251   1.0407140  -4.4978395
           13          14          15          16          17
    1  -1.4729823  -0.1776601  -0.0585317 -10.4074443  -1.5010686
    2  -0.5510988   0.7577853   4.0977840  -2.1704198  -0.4763312
    3   0.1456833   4.4111018  -1.2853000   2.1841443  -4.4005662
 Gradient of SCF Energy
            1           2           3           4           5           6
    1   0.0000621  -0.0000515   0.0002215  -0.0001854  -0.0000199  -0.0002017
    2  -0.0001966   0.0000769  -0.0002149   0.0002096   0.0000507   0.0000146
    3  -0.0001827  -0.0001192  -0.0000908  -0.0002730   0.0004126  -0.0002019
            7           8           9          10          11          12
    1   0.0000778  -0.0000985  -0.0000323  -0.0001756   0.0000648   0.0001046
    2  -0.0000906  -0.0000701   0.0000039   0.0001318   0.0001627   0.0000449
    3  -0.0000311  -0.0000074   0.0002198   0.0001266  -0.0000246   0.0002353
           13          14          15          16          17
    1  -0.0000274   0.0001147   0.0000308   0.0001268  -0.0000106
    2  -0.0001461  -0.0000332  -0.0000866   0.0003393  -0.0001961
    3   0.0001015  -0.0001779   0.0000347   0.0006446  -0.0006666
 Max gradient component =       6.666E-04
 RMS gradient           =       1.966E-04
 Gradient time:  CPU 202.77 s  wall 202.85 s
 Geometry Optimization Parameters
   NAtoms,    NIC,     NZ,  NCons,   NDum,   NFix, NCnnct, MaxDiis
       17     114      17       0       0       0       0       0

 Cartesian Hessian Update
 Hessian Updated using BFGS Update


** GEOMETRY OPTIMIZATION IN DELOCALIZED INTERNAL COORDINATES **
   Searching for a Minimum

   Optimization Cycle:   3

                       Coordinates (Angstroms)
     ATOM              X           Y           Z
      1  C        -1.076739    0.078189   -0.341007
      2  H        -1.000205    0.051042   -1.442419
      3  C        -2.128561    1.069686    0.040879
      4  H        -2.228971    2.014749   -0.488637
      5  H        -2.730381    0.917182    0.936094
      6  C        -1.443826   -1.325446    0.163151
      7  H        -0.734391   -2.086318   -0.184140
      8  H        -2.444222   -1.613327   -0.182693
      9  H        -1.448860   -1.340610    1.263504
     10  C         0.303738    0.532090    0.194745
     11  H         0.509596    1.558857   -0.140162
     12  H         0.268957    0.552988    1.297602
     13  C         1.457177   -0.357399   -0.268785
     14  H         1.446126   -0.439465   -1.364733
     15  H         1.355899   -1.376455    0.138387
     16  O         2.722936    0.187887    0.068223
     17  H         2.802233    0.245588    1.025236
   Point Group: c1    Number of degrees of freedom:    45


   Energy is   -272.201479445

 GETINT wrote B to file, NVib is           45
 Hessian Updated using BFGS Update

 42 Hessian modes will be used to form the next step
  Hessian Eigenvalues:
     0.003267    0.004304    0.005396    0.006454    0.011898    0.013571
     0.035663    0.040153    0.048501    0.048797    0.050473    0.054964
     0.056914    0.059458    0.059735    0.085760    0.119871    0.123840
     0.139916    0.159489    0.160132    0.164027    0.168613    0.184079
     0.218952    0.230901    0.287100    0.292640    0.304837    0.330426
     0.335500    0.336967    0.339054    0.340865    0.341476    0.342516
     0.343203    0.344646    0.353736    0.362145    0.437614    0.550485

 Minimum Search - Taking Simple RFO Step
 Searching for Lamda that Minimizes Along All modes
 Value Taken    Lamda =  -0.00002762
 Step Taken.  Stepsize is  0.067977

                             Maximum     Tolerance    Cnvgd?
         Gradient           0.000635      0.000300      NO
         Displacement       0.026710      0.001200      NO
         Energy change     -0.000048      0.000001      NO


 New Cartesian Coordinates Obtained by Inverse Iteration

 Displacement from previous Coordinates is:  0.081482
 ----------------------------------------------------
       Standard Nuclear Orientation (Angstroms)
    I     Atom         X            Y            Z
 ----------------------------------------------------
    1      C      -1.075745     0.081654    -0.339463
    2      H      -0.998625     0.056657    -1.440830
    3      C      -2.128469     1.071032     0.044270
    4      H      -2.224255     2.020472    -0.476932
    5      H      -2.750130     0.902531     0.922114
    6      C      -1.440167    -1.323504     0.161997
    7      H      -0.733104    -2.083196    -0.192038
    8      H      -2.442566    -1.609577    -0.179170
    9      H      -1.438692    -1.341934     1.262091
   10      C       0.305674     0.533617     0.194697
   11      H       0.513938     1.558419    -0.143974
   12      H       0.270073     0.558125     1.297151
   13      C       1.455420    -0.361662    -0.265893
   14      H       1.440674    -0.451161    -1.361082
   15      H       1.351307    -1.377621     0.148200
   16      O       2.723575     0.180754     0.063848
   17      H       2.801598     0.254635     1.020259
 ----------------------------------------------------
 Molecular Point Group                 C1    NOp =  1
 Largest Abelian Subgroup              C1    NOp =  1
 Nuclear Repulsion Energy =   244.1021872489 hartrees
 There are       25 alpha and       24 beta electrons
 Applying Cartesian multipole field
    Component          Value
    ---------          -----
     (2,0,0)        1.00000E-11
     (0,2,0)        2.00000E-11
     (0,0,2)       -3.00000E-11
 Nucleus-field energy     =     0.0000000071 hartrees
 Requested basis set is non-standard
 There are 138 shells and 314 basis functions
 A cutoff of  1.0D-11 yielded   8973 shell pairs
 There are     45849 function pairs (     54909 Cartesian)
 Smallest overlap matrix eigenvalue = 1.52E-05
 Guess MOs from SCF MO coefficient file
Reading MOs from coefficient file
Reading MOs from coefficient file
 An unrestricted hybrid HF-DFT SCF calculation will be
 performed using Pulay DIIS extrapolation
 Exchange:     0.5679 Hartree-Fock + 1.0000 M08SO
 SCF converges when DIIS error is below 1.0E-08
Geometry optimization detected.  Setting ReadMinima to 0
Setting SaveMinima to 0
 ---------------------------------------
  Cycle       Energy         DIIS Error
 ---------------------------------------
    1    -272.2011060882      1.14E-04
    2    -272.2014802934      1.82E-05
    3    -272.2014967762      7.12E-06
    4    -272.2014993342      5.12E-06
    5    -272.2015002129      1.57E-06
    6    -272.2015004087      7.63E-07
    7    -272.2015004358      2.79E-07
    8    -272.2015004396      5.16E-08
    9    -272.2015004397      2.12E-08
   10    -272.2015004393      7.65E-09 Convergence criterion met
 ---------------------------------------
 <S^2> = 0.7556
 SCF time:  CPU 1350.95 s  wall 1351.91 s
 SCF   energy in the final basis set = -272.2015004393
 Total energy in the final basis set = -272.2015004393
 Analysis of SCF Wavefunction
 
 --------------------------------------------------------------
                    Orbital Energies (a.u.)
 --------------------------------------------------------------
 
 Alpha MOs
 -- Occupied --
-19.564 -10.543 -10.512 -10.507 -10.498 -10.491  -1.136  -0.921
 -0.823  -0.775  -0.719  -0.651  -0.592  -0.558  -0.528  -0.518
 -0.496  -0.473  -0.456  -0.430  -0.415  -0.410  -0.395  -0.359
 -0.272
 -- Virtual --
 -0.026  -0.016  -0.009  -0.009   0.013   0.016   0.018   0.021
  0.028   0.047   0.050   0.063   0.077   0.082   0.084   0.088
  0.103   0.109   0.118   0.125   0.126   0.131   0.133   0.143
  0.145   0.147   0.157   0.162   0.167   0.182   0.189   0.194
  0.202   0.212   0.218   0.233   0.241   0.248   0.254   0.260
  0.280   0.291   0.301   0.305   0.317   0.324   0.339   0.343
  0.356   0.369   0.395   0.429   0.437   0.452   0.461   0.479
  0.500   0.525   0.533   0.544   0.547   0.556   0.564   0.568
  0.576   0.588   0.591   0.599   0.612   0.617   0.629   0.634
  0.640   0.658   0.674   0.679   0.684   0.697   0.707   0.726
  0.751   0.764   0.776   0.794   0.824   0.845   0.869   0.888
  0.900   0.912   0.934   0.960   0.994   1.000   1.023   1.038
  1.059   1.075   1.082   1.113   1.128   1.139   1.153   1.172
  1.175   1.184   1.192   1.207   1.225   1.242   1.250   1.269
  1.274   1.292   1.303   1.320   1.338   1.348   1.356   1.369
  1.382   1.403   1.427   1.435   1.448   1.449   1.465   1.466
  1.479   1.502   1.507   1.526   1.539   1.567   1.577   1.586
  1.622   1.642   1.648   1.679   1.708   1.743   1.772   1.804
  1.934   2.066   2.110   2.284   2.293   2.409   2.455   2.471
  2.486   2.574   2.592   2.601   2.619   2.657   2.671   2.702
  2.736   2.741   2.777   2.787   2.806   2.838   2.864   2.885
  2.896   2.915   2.933   2.941   2.968   2.972   2.991   3.024
  3.072   3.080   3.114   3.129   3.166   3.175   3.192   3.211
  3.217   3.224   3.267   3.284   3.302   3.336   3.357   3.373
  3.391   3.395   3.414   3.421   3.444   3.485   3.508   3.524
  3.566   3.583   3.590   3.618   3.627   3.687   3.695   3.695
  3.712   3.748   3.763   3.777   3.799   3.813   3.827   3.844
  3.865   3.906   3.923   3.950   3.973   3.991   3.999   4.004
  4.029   4.045   4.092   4.103   4.121   4.131   4.147   4.160
  4.178   4.193   4.208   4.225   4.249   4.293   4.306   4.326
  4.355   4.362   4.395   4.401   4.452   4.478   4.488   4.503
  4.528   4.559   4.571   4.635   4.647   4.692   4.755   4.878
  4.898   5.046   5.151   5.179   5.200   5.255   5.359   5.375
  5.395   5.434   5.442   5.475   5.525   5.565   5.569   5.626
  5.652   5.669   5.778   5.886   6.479   6.955   7.129   7.168
  7.207   7.468   7.587  24.001  24.127  24.145  24.244  24.267
 49.797
 
 Beta MOs
 -- Occupied --
-19.564 -10.543 -10.513 -10.496 -10.490 -10.490  -1.136  -0.916
 -0.820  -0.764  -0.710  -0.644  -0.592  -0.554  -0.524  -0.513
 -0.496  -0.472  -0.453  -0.429  -0.410  -0.406  -0.394  -0.356
 -- Virtual --
 -0.036  -0.030  -0.017  -0.013  -0.009   0.010   0.015   0.016
  0.020   0.027   0.043   0.048   0.061   0.073   0.079   0.081
  0.082   0.099   0.107   0.115   0.121   0.124   0.128   0.129
  0.140   0.143   0.145   0.156   0.160   0.164   0.180   0.183
  0.194   0.202   0.211   0.220   0.232   0.243   0.247   0.257
  0.260   0.279   0.290   0.307   0.309   0.318   0.322   0.342
  0.344   0.356   0.375   0.395   0.430   0.438   0.454   0.462
  0.479   0.500   0.529   0.537   0.545   0.554   0.560   0.568
  0.574   0.580   0.592   0.601   0.614   0.624   0.635   0.638
  0.646   0.655   0.661   0.680   0.685   0.690   0.697   0.711
  0.736   0.753   0.770   0.779   0.801   0.826   0.847   0.870
  0.890   0.904   0.916   0.937   0.963   0.996   1.001   1.031
  1.044   1.063   1.078   1.089   1.116   1.133   1.141   1.155
  1.173   1.175   1.188   1.196   1.211   1.228   1.248   1.253
  1.274   1.288   1.295   1.305   1.330   1.347   1.359   1.361
  1.374   1.384   1.409   1.429   1.442   1.451   1.453   1.466
  1.473   1.483   1.510   1.513   1.538   1.545   1.569   1.580
  1.590   1.626   1.650   1.651   1.688   1.718   1.747   1.777
  1.812   1.935   2.067   2.111   2.285   2.293   2.417   2.463
  2.486   2.516   2.581   2.598   2.636   2.652   2.668   2.687
  2.716   2.747   2.769   2.789   2.805   2.854   2.877   2.896
  2.912   2.935   2.940   2.951   2.988   2.996   3.024   3.050
  3.073   3.087   3.101   3.135   3.155   3.173   3.188   3.211
  3.241   3.247   3.255   3.291   3.299   3.324   3.360   3.369
  3.393   3.415   3.417   3.437   3.457   3.493   3.506   3.519
  3.531   3.575   3.596   3.602   3.633   3.658   3.694   3.697
  3.701   3.716   3.758   3.776   3.784   3.813   3.834   3.837
  3.849   3.866   3.906   3.926   3.951   3.975   3.995   4.008
  4.015   4.041   4.067   4.099   4.112   4.126   4.147   4.165
  4.178   4.199   4.211   4.216   4.249   4.263   4.304   4.318
  4.342   4.376   4.384   4.404   4.419   4.458   4.490   4.496
  4.532   4.549   4.580   4.590   4.642   4.663   4.700   4.760
  4.949   4.987   5.122   5.161   5.182   5.206   5.272   5.354
  5.377   5.442   5.461   5.479   5.511   5.525   5.565   5.603
  5.635   5.663   5.684   5.778   5.886   6.479   6.955   7.129
  7.168   7.207   7.468   7.587  24.010  24.127  24.154  24.247
 24.276  49.797
 --------------------------------------------------------------
 
          Ground-State Mulliken Net Atomic Charges

     Atom                 Charge (a.u.)    Spin (a.u.)
  --------------------------------------------------------
      1 C                     0.022769      -0.072370
      2 H                     0.246138       0.027119
      3 C                    -0.449655       1.110148
      4 H                     0.193098      -0.048026
      5 H                     0.164914      -0.053398
      6 C                    -0.803639       0.013315
      7 H                     0.198155       0.002107
      8 H                     0.215285      -0.001150
      9 H                     0.223710       0.003481
     10 C                    -0.434846      -0.001404
     11 H                     0.254216       0.001060
     12 H                     0.243328       0.008421
     13 C                    -0.456866       0.008915
     14 H                     0.228080       0.001699
     15 H                     0.217841      -0.000841
     16 O                    -0.342346       0.001056
     17 H                     0.279820      -0.000132
  --------------------------------------------------------
  Sum of atomic charges =     0.000000
  Sum of spin   charges =     1.000000

 -----------------------------------------------------------------
                    Cartesian Multipole Moments
 -----------------------------------------------------------------
    Charge (ESU x 10^10)
                 0.0000
    Dipole Moment (Debye)
         X      -1.1528      Y      -0.4787      Z       0.9978
       Tot       1.5981
    Quadrupole Moments (Debye-Ang)
        XX     -47.2404     XY      -0.8132     YY     -40.3974
        XZ       3.3502     YZ       0.0016     ZZ     -37.5554
    Octapole Moments (Debye-Ang^2)
       XXX      -4.7775    XXY      -1.9312    XYY       3.1997
       YYY       0.7717    XXZ      14.5346    XYZ       1.7407
       YYZ      -2.0052    XZZ      10.2672    YZZ       0.2570
       ZZZ       1.8488
    Hexadecapole Moments (Debye-Ang^3)
      XXXX    -857.5931   XXXY       9.3454   XXYY    -170.0497
      XYYY       1.2929   YYYY    -239.7608   XXXZ      32.5091
      XXYZ       5.9785   XYYZ       5.0148   YYYZ      -4.3407
      XXZZ    -126.1462   XYZZ       3.5082   YYZZ     -57.5156
      XZZZ       7.0094   YZZZ      -0.1950   ZZZZ     -88.4269
 -----------------------------------------------------------------
 Calculating analytic gradient of the SCF energy
 Gradient of Coulomb and Exchange Energy
            1           2           3           4           5           6
    1   4.3324050  -0.0544488   3.8078955   0.7680606   2.8650651   2.2796930
    2  -0.4902964   0.0468515  -2.7755290  -3.9055028   0.3182019   3.0181472
    3   0.1299726   4.8653098  -0.2958296   1.8817867  -3.2374357  -0.1159298
            7           8           9          10          11          12
    1  -2.0298557   3.7029374   0.3264998  -1.6091326  -0.8690648   0.0797812
    2   3.2516037   1.5124260   0.8769883   1.5988031  -4.5154860  -0.6198768
    3   0.9804428   0.9024961  -3.7585977   1.0300895   1.0575210  -4.4946181
           13          14          15          16          17
    1  -1.4641676  -0.1616634  -0.0401084 -10.4403854  -1.4935107
    2  -0.5714280   0.7912995   4.0908528  -2.0737730  -0.5532817
    3   0.1420045   4.4012744  -1.3100400   2.2138912  -4.3923378
 Gradient of SCF Energy
            1           2           3           4           5           6
    1  -0.0001937   0.0000851   0.0002214  -0.0002478   0.0000854  -0.0000453
    2   0.0000258   0.0001063   0.0001825  -0.0001975  -0.0000014  -0.0001265
    3  -0.0001441   0.0000370   0.0001111  -0.0001583   0.0000706  -0.0000935
            7           8           9          10          11          12
    1   0.0000409  -0.0000207  -0.0000078  -0.0000024  -0.0000156   0.0000067
    2  -0.0000176   0.0000054   0.0000549   0.0000047   0.0000149   0.0000070
    3  -0.0000082  -0.0000002   0.0000824   0.0001054  -0.0000133   0.0000449
           13          14          15          16          17
    1   0.0002287   0.0000801  -0.0000220  -0.0001956   0.0000026
    2   0.0000904  -0.0000322  -0.0000587   0.0000787  -0.0001366
    3   0.0001277  -0.0000542   0.0000172   0.0001373  -0.0002618
 Max gradient component =       2.618E-04
 RMS gradient           =       1.090E-04
 Gradient time:  CPU 205.94 s  wall 205.92 s
 Geometry Optimization Parameters
   NAtoms,    NIC,     NZ,  NCons,   NDum,   NFix, NCnnct, MaxDiis
       17     114      17       0       0       0       0       0

 Cartesian Hessian Update
 Hessian Updated using BFGS Update


** GEOMETRY OPTIMIZATION IN DELOCALIZED INTERNAL COORDINATES **
   Searching for a Minimum

   Optimization Cycle:   4

                       Coordinates (Angstroms)
     ATOM              X           Y           Z
      1  C        -1.075745    0.081654   -0.339463
      2  H        -0.998625    0.056657   -1.440830
      3  C        -2.128469    1.071032    0.044270
      4  H        -2.224255    2.020472   -0.476932
      5  H        -2.750130    0.902531    0.922114
      6  C        -1.440167   -1.323504    0.161997
      7  H        -0.733104   -2.083196   -0.192038
      8  H        -2.442566   -1.609577   -0.179170
      9  H        -1.438692   -1.341934    1.262091
     10  C         0.305674    0.533617    0.194697
     11  H         0.513938    1.558419   -0.143974
     12  H         0.270073    0.558125    1.297151
     13  C         1.455420   -0.361662   -0.265893
     14  H         1.440674   -0.451161   -1.361082
     15  H         1.351307   -1.377621    0.148200
     16  O         2.723575    0.180754    0.063848
     17  H         2.801598    0.254635    1.020259
   Point Group: c1    Number of degrees of freedom:    45


   Energy is   -272.201500439

 GETINT wrote B to file, NVib is           45
 Hessian Updated using BFGS Update

 43 Hessian modes will be used to form the next step
  Hessian Eigenvalues:
     0.001587    0.003541    0.005053    0.006022    0.012747    0.014162
     0.035748    0.040122    0.048648    0.049092    0.051196    0.054978
     0.056917    0.059526    0.060095    0.086339    0.119635    0.123844
     0.140030    0.159506    0.159953    0.160579    0.163964    0.172052
     0.191175    0.222160    0.231808    0.288129    0.292958    0.304977
     0.330226    0.335477    0.337345    0.339265    0.340769    0.341548
     0.342466    0.343219    0.344173    0.353552    0.374673    0.452020
     0.548394

 Minimum Search - Taking Simple RFO Step
 Searching for Lamda that Minimizes Along All modes
 Value Taken    Lamda =  -0.00004802
 Step Taken.  Stepsize is  0.160161

                             Maximum     Tolerance    Cnvgd?
         Gradient           0.000245      0.000300     YES
         Displacement       0.066509      0.001200      NO
         Energy change     -0.000021      0.000001      NO


 New Cartesian Coordinates Obtained by Inverse Iteration

 Displacement from previous Coordinates is:  0.180720
 ----------------------------------------------------
       Standard Nuclear Orientation (Angstroms)
    I     Atom         X            Y            Z
 ----------------------------------------------------
    1      C      -1.074452     0.084353    -0.336845
    2      H      -0.996234     0.061901    -1.438385
    3      C      -2.127411     1.072417     0.047978
    4      H      -2.194920     2.039614    -0.443008
    5      H      -2.791283     0.875132     0.887064
    6      C      -1.437449    -1.322452     0.160509
    7      H      -0.737349    -2.081945    -0.206530
    8      H      -2.444460    -1.603110    -0.171097
    9      H      -1.423108    -1.347523     1.260031
   10      C       0.308393     0.533819     0.195132
   11      H       0.519727     1.555727    -0.149564
   12      H       0.271877     0.564406     1.297022
   13      C       1.453481    -0.368852    -0.260859
   14      H       1.430405    -0.472983    -1.354456
   15      H       1.348771    -1.378795     0.167301
   16      O       2.724843     0.173511     0.053574
   17      H       2.799675     0.284020     1.007379
 ----------------------------------------------------
 Molecular Point Group                 C1    NOp =  1
 Largest Abelian Subgroup              C1    NOp =  1
 Nuclear Repulsion Energy =   244.1823705446 hartrees
 There are       25 alpha and       24 beta electrons
 Applying Cartesian multipole field
    Component          Value
    ---------          -----
     (2,0,0)        1.00000E-11
     (0,2,0)        2.00000E-11
     (0,0,2)       -3.00000E-11
 Nucleus-field energy     =     0.0000000071 hartrees
 Requested basis set is non-standard
 There are 138 shells and 314 basis functions
 A cutoff of  1.0D-11 yielded   8967 shell pairs
 There are     45833 function pairs (     54893 Cartesian)
 Smallest overlap matrix eigenvalue = 1.53E-05
 Guess MOs from SCF MO coefficient file
Reading MOs from coefficient file
Reading MOs from coefficient file
 An unrestricted hybrid HF-DFT SCF calculation will be
 performed using Pulay DIIS extrapolation
 Exchange:     0.5679 Hartree-Fock + 1.0000 M08SO
 SCF converges when DIIS error is below 1.0E-08
Geometry optimization detected.  Setting ReadMinima to 0
Setting SaveMinima to 0
 ---------------------------------------
  Cycle       Energy         DIIS Error
 ---------------------------------------
    1    -272.1990039517      2.38E-04
    2    -272.2014243839      4.06E-05
    3    -272.2015204540      1.53E-05
    4    -272.2015365831      9.82E-06
    5    -272.2015413988      3.11E-06
    6    -272.2015424045      1.12E-06
    7    -272.2015424911      4.62E-07
    8    -272.2015424991      1.49E-07
    9    -272.2015424997      7.05E-08
   10    -272.2015424997      1.40E-08
   11    -272.2015425004      3.62E-09 Convergence criterion met
 ---------------------------------------
 <S^2> = 0.7556
 SCF time:  CPU 1500.10 s  wall 1501.32 s
 SCF   energy in the final basis set = -272.2015425004
 Total energy in the final basis set = -272.2015425004
 Analysis of SCF Wavefunction
 
 --------------------------------------------------------------
                    Orbital Energies (a.u.)
 --------------------------------------------------------------
 
 Alpha MOs
 -- Occupied --
-19.564 -10.543 -10.512 -10.507 -10.498 -10.490  -1.136  -0.921
 -0.824  -0.775  -0.719  -0.652  -0.592  -0.558  -0.529  -0.519
 -0.496  -0.474  -0.455  -0.430  -0.416  -0.409  -0.395  -0.359
 -0.272
 -- Virtual --
 -0.026  -0.016  -0.009  -0.009   0.013   0.017   0.018   0.021
  0.028   0.046   0.050   0.063   0.077   0.082   0.084   0.089
  0.103   0.109   0.118   0.125   0.126   0.130   0.133   0.143
  0.145   0.147   0.157   0.162   0.167   0.182   0.189   0.195
  0.202   0.211   0.218   0.232   0.240   0.247   0.255   0.261
  0.278   0.292   0.301   0.306   0.315   0.324   0.339   0.344
  0.355   0.367   0.395   0.428   0.439   0.452   0.461   0.479
  0.501   0.523   0.533   0.544   0.548   0.557   0.563   0.569
  0.575   0.588   0.589   0.599   0.611   0.616   0.630   0.635
  0.641   0.657   0.672   0.681   0.687   0.696   0.706   0.728
  0.753   0.764   0.777   0.791   0.825   0.845   0.871   0.887
  0.899   0.912   0.935   0.960   0.994   1.000   1.023   1.038
  1.059   1.074   1.081   1.113   1.129   1.140   1.154   1.171
  1.172   1.184   1.191   1.206   1.228   1.242   1.250   1.272
  1.274   1.292   1.304   1.318   1.338   1.348   1.359   1.371
  1.381   1.402   1.426   1.436   1.446   1.452   1.466   1.468
  1.479   1.502   1.505   1.525   1.538   1.566   1.578   1.586
  1.622   1.641   1.647   1.680   1.706   1.745   1.771   1.809
  1.931   2.066   2.110   2.283   2.293   2.409   2.450   2.465
  2.487   2.574   2.594   2.604   2.617   2.660   2.670   2.703
  2.734   2.740   2.779   2.787   2.804   2.837   2.861   2.887
  2.896   2.916   2.933   2.940   2.964   2.976   2.994   3.027
  3.074   3.080   3.118   3.128   3.168   3.174   3.193   3.212
  3.218   3.221   3.266   3.284   3.307   3.337   3.359   3.371
  3.389   3.394   3.413   3.425   3.444   3.490   3.507   3.526
  3.565   3.583   3.590   3.616   3.625   3.684   3.696   3.698
  3.712   3.750   3.763   3.775   3.796   3.813   3.828   3.843
  3.865   3.905   3.923   3.952   3.975   3.991   4.001   4.004
  4.031   4.046   4.095   4.104   4.124   4.131   4.148   4.161
  4.179   4.192   4.209   4.222   4.248   4.296   4.307   4.325
  4.354   4.363   4.396   4.403   4.455   4.477   4.490   4.505
  4.528   4.557   4.571   4.635   4.649   4.690   4.756   4.878
  4.903   5.045   5.153   5.178   5.200   5.255   5.359   5.374
  5.400   5.436   5.445   5.478   5.524   5.563   5.570   5.625
  5.654   5.670   5.781   5.887   6.481   6.954   7.126   7.169
  7.207   7.469   7.588  24.006  24.129  24.145  24.246  24.269
 49.797
 
 Beta MOs
 -- Occupied --
-19.564 -10.543 -10.513 -10.496 -10.490 -10.490  -1.136  -0.917
 -0.820  -0.764  -0.711  -0.644  -0.591  -0.555  -0.524  -0.514
 -0.495  -0.473  -0.453  -0.430  -0.409  -0.406  -0.394  -0.356
 -- Virtual --
 -0.037  -0.030  -0.017  -0.013  -0.009   0.010   0.015   0.015
  0.020   0.027   0.043   0.048   0.061   0.073   0.079   0.080
  0.083   0.099   0.107   0.115   0.121   0.124   0.127   0.129
  0.140   0.143   0.145   0.155   0.160   0.164   0.180   0.183
  0.195   0.202   0.210   0.220   0.232   0.242   0.245   0.258
  0.261   0.278   0.292   0.307   0.310   0.315   0.322   0.342
  0.344   0.355   0.373   0.395   0.428   0.440   0.453   0.462
  0.479   0.500   0.528   0.536   0.545   0.554   0.560   0.567
  0.575   0.580   0.592   0.599   0.614   0.623   0.635   0.637
  0.646   0.657   0.659   0.679   0.686   0.693   0.696   0.711
  0.738   0.754   0.769   0.779   0.798   0.827   0.847   0.872
  0.889   0.905   0.915   0.937   0.963   0.996   1.002   1.030
  1.044   1.064   1.077   1.088   1.116   1.133   1.142   1.156
  1.172   1.173   1.188   1.194   1.211   1.230   1.247   1.254
  1.277   1.289   1.295   1.305   1.327   1.346   1.359   1.362
  1.377   1.384   1.408   1.429   1.443   1.449   1.455   1.467
  1.475   1.484   1.509   1.513   1.537   1.544   1.568   1.581
  1.591   1.626   1.649   1.651   1.689   1.715   1.748   1.777
  1.817   1.932   2.068   2.111   2.284   2.294   2.418   2.458
  2.482   2.514   2.581   2.599   2.642   2.650   2.671   2.685
  2.715   2.746   2.769   2.789   2.807   2.854   2.874   2.893
  2.912   2.937   2.940   2.951   2.991   2.993   3.027   3.050
  3.076   3.086   3.102   3.136   3.158   3.174   3.186   3.213
  3.236   3.248   3.260   3.291   3.297   3.329   3.361   3.370
  3.392   3.412   3.415   3.437   3.460   3.493   3.512   3.518
  3.533   3.572   3.598   3.601   3.633   3.654   3.692   3.698
  3.704   3.715   3.757   3.776   3.783   3.812   3.831   3.837
  3.849   3.866   3.906   3.927   3.952   3.976   3.995   4.010
  4.017   4.042   4.065   4.098   4.114   4.128   4.150   4.165
  4.177   4.196   4.214   4.225   4.244   4.264   4.304   4.320
  4.343   4.377   4.383   4.406   4.418   4.461   4.491   4.497
  4.533   4.550   4.582   4.589   4.642   4.663   4.698   4.762
  4.948   4.993   5.121   5.163   5.181   5.206   5.273   5.354
  5.376   5.446   5.465   5.481   5.514   5.524   5.563   5.605
  5.634   5.663   5.685   5.781   5.887   6.481   6.954   7.126
  7.169   7.207   7.469   7.587  24.014  24.129  24.153  24.250
 24.277  49.797
 --------------------------------------------------------------
 
          Ground-State Mulliken Net Atomic Charges

     Atom                 Charge (a.u.)    Spin (a.u.)
  --------------------------------------------------------
      1 C                     0.046067      -0.075120
      2 H                     0.247627       0.030546
      3 C                    -0.463732       1.108969
      4 H                     0.192226      -0.048202
      5 H                     0.170313      -0.052952
      6 C                    -0.827330       0.012333
      7 H                     0.199956       0.001376
      8 H                     0.215408      -0.000942
      9 H                     0.226797       0.003516
     10 C                    -0.431188       0.000648
     11 H                     0.253293       0.001296
     12 H                     0.244152       0.007989
     13 C                    -0.458047       0.008803
     14 H                     0.229159       0.001687
     15 H                     0.218732      -0.000812
     16 O                    -0.343522       0.000948
     17 H                     0.280089      -0.000082
  --------------------------------------------------------
  Sum of atomic charges =     0.000000
  Sum of spin   charges =     1.000000

 -----------------------------------------------------------------
                    Cartesian Multipole Moments
 -----------------------------------------------------------------
    Charge (ESU x 10^10)
                 0.0000
    Dipole Moment (Debye)
         X      -1.1770      Y      -0.4295      Z       1.0030
       Tot       1.6049
    Quadrupole Moments (Debye-Ang)
        XX     -47.1879     XY      -0.5853     YY     -40.3286
        XZ       3.3571     YZ       0.0752     ZZ     -37.6913
    Octapole Moments (Debye-Ang^2)
       XXX      -5.6394    XXY      -1.4745    XYY       3.3349
       YYY       1.0886    XXZ      14.7101    XYZ       1.9550
       YYZ      -1.9492    XZZ      10.2943    YZZ       0.1903
       ZZZ       1.7165
    Hexadecapole Moments (Debye-Ang^3)
      XXXX    -855.2736   XXXY      11.7511   XXYY    -170.0718
      XYYY       1.7426   YYYY    -239.4843   XXXZ      32.3442
      XXYZ       6.6577   XYYZ       5.1747   YYYZ      -4.3719
      XXZZ    -126.9672   XYZZ       4.0931   YYZZ     -57.5574
      XZZZ       7.4768   YZZZ      -0.2836   ZZZZ     -88.0756
 -----------------------------------------------------------------
 Calculating analytic gradient of the SCF energy
 Gradient of Coulomb and Exchange Energy
            1           2           3           4           5           6
    1   4.4860285  -0.0603422   3.7200446   0.6654688   3.0104522   2.2438992
    2  -0.4201378   0.0231607  -2.8936267  -3.9717075   0.4396010   2.9963176
    3  -0.0479165   4.8462926  -0.2800530   1.7675918  -3.0827164  -0.0529677
            7           8           9          10          11          12
    1  -2.0248295   3.7144702   0.2775989  -1.6686109  -0.8788195   0.0813762
    2   3.2496623   1.4926023   0.8967873   1.6327332  -4.5057719  -0.6399298
    3   1.0221119   0.8675102  -3.7526310   1.0575416   1.0760421  -4.4861756
           13          14          15          16          17
    1  -1.4473926  -0.1243958  -0.0248614 -10.4971086  -1.4729782
    2  -0.6086679   0.8603400   4.0730598  -1.8906670  -0.7337555
    3   0.1422806   4.3794851  -1.3632290   2.2744324  -4.3675993
 Gradient of SCF Energy
            1           2           3           4           5           6
    1  -0.0004516   0.0002089   0.0000693  -0.0002995   0.0003134   0.0000567
[...]
 H         -0.025  0.041 -0.008   -0.061  0.105  0.000   -0.074  0.163  0.048
 C         -0.016  0.010 -0.003   -0.023  0.008  0.021   -0.030 -0.055  0.113
 H          0.033  0.061 -0.019    0.032  0.092 -0.058   -0.028  0.033 -0.083
 H         -0.003 -0.053  0.012    0.024 -0.111 -0.020    0.029 -0.074 -0.072
 H          0.041 -0.008 -0.005    0.036 -0.098  0.016   -0.081 -0.423  0.108
 C         -0.071  0.105  0.026   -0.049  0.024 -0.021   -0.066 -0.098 -0.030
 H         -0.500  0.216  0.098   -0.139  0.047  0.010    0.117 -0.159 -0.125
 H         -0.164  0.076  0.033    0.293 -0.127 -0.010   -0.034  0.043 -0.042
 C          0.268 -0.039  0.023   -0.112 -0.094 -0.016    0.028  0.092 -0.001
 H          0.547  0.004  0.005    0.283  0.038 -0.033    0.065 -0.068  0.012
 H          0.183 -0.117 -0.132   -0.326 -0.123 -0.146    0.135  0.126  0.107
 O         -0.185 -0.071 -0.044    0.056  0.045  0.027   -0.027 -0.035 -0.006
 H          0.198  0.074 -0.101    0.462  0.202 -0.021    0.005 -0.003 -0.014
 TransDip   0.000  0.000  0.000    0.000  0.000  0.000    0.000  0.000  0.000

 Mode:                22                     23                     24
 Frequency:      1199.55                1253.15                1286.16
 Force Cnst:      1.4559                 1.1791                 1.2663
 Red. Mass:       1.7173                 1.2744                 1.2992
 IR Active:          YES                    YES                    YES
 IR Intens:        0.000                  0.000                  0.000
 Raman Active:       YES                    YES                    YES
               X      Y      Z        X      Y      Z        X      Y      Z
 C         -0.161  0.021 -0.092   -0.060  0.026  0.047   -0.074 -0.011 -0.021
 H         -0.267  0.050 -0.102    0.415 -0.436  0.100    0.286  0.177 -0.017
 C          0.069 -0.006 -0.015    0.023  0.001  0.018    0.019  0.001  0.002
 H         -0.028  0.004  0.013   -0.002  0.002 -0.011   -0.016  0.006  0.005
 H          0.131 -0.224 -0.062    0.043 -0.076 -0.031    0.035 -0.060 -0.027
 C          0.079 -0.009  0.042    0.009 -0.021 -0.051    0.023  0.000  0.027
 H         -0.153 -0.159 -0.068    0.023 -0.062  0.075   -0.048 -0.016 -0.065
 H          0.040  0.279 -0.125   -0.056  0.065  0.089    0.019  0.089 -0.052
 H         -0.195 -0.104  0.042    0.011  0.197 -0.045   -0.074 -0.042  0.025
 C         -0.011 -0.002  0.115   -0.093  0.016 -0.032    0.001  0.032 -0.077
 H          0.012 -0.076 -0.092    0.613 -0.083  0.053   -0.290  0.152  0.105
 H          0.573  0.162  0.118    0.126 -0.060 -0.022    0.475 -0.245 -0.049
 C          0.011  0.012 -0.038    0.003  0.052  0.000    0.018 -0.026  0.101
 H          0.294 -0.119 -0.026    0.096 -0.039  0.004   -0.374  0.248  0.078
 H         -0.084  0.056  0.055    0.329  0.044  0.050    0.268 -0.140 -0.110
 O         -0.027 -0.011  0.009   -0.012 -0.027 -0.003    0.012  0.001 -0.019
 H          0.263  0.114 -0.031    0.000  0.002 -0.008   -0.306 -0.132  0.026
 TransDip   0.000  0.000  0.000    0.000  0.000  0.000    0.000  0.000  0.000

 Mode:                25                     26                     27
 Frequency:      1325.70                1331.21                1365.07
 Force Cnst:      1.6277                 1.3842                 1.4662
 Red. Mass:       1.5719                 1.3257                 1.3355
 IR Active:          YES                    YES                    YES
 IR Intens:        0.000                  0.000                  0.000
 Raman Active:       YES                    YES                    YES
               X      Y      Z        X      Y      Z        X      Y      Z
 C          0.026 -0.197 -0.006    0.126  0.041 -0.022   -0.084  0.000  0.011
 H          0.029  0.683 -0.049   -0.484 -0.189 -0.044    0.287  0.037  0.025
 C         -0.002  0.037 -0.007   -0.020 -0.009 -0.003    0.013 -0.001  0.002
 H         -0.199  0.079  0.066    0.008 -0.009 -0.014    0.000 -0.001  0.003
 H         -0.013  0.041  0.002   -0.056  0.124  0.042    0.027 -0.055 -0.023
 C         -0.020  0.026  0.048   -0.037 -0.017 -0.010    0.023  0.002  0.000
 H          0.079  0.214 -0.145    0.075  0.040  0.063   -0.032 -0.037 -0.016
 H          0.034  0.104 -0.168   -0.028 -0.046  0.006   -0.009  0.055  0.040
 H          0.074 -0.014  0.035    0.119  0.003 -0.015   -0.097 -0.014  0.005
 C         -0.042  0.053 -0.003   -0.065  0.021  0.009    0.094  0.006 -0.011
 H          0.429 -0.029  0.023   -0.138  0.037  0.014   -0.185  0.057 -0.021
 H         -0.005 -0.060  0.001    0.410 -0.040  0.018   -0.351 -0.014 -0.028
 C         -0.034  0.016 -0.022   -0.037 -0.001 -0.021   -0.009 -0.001 -0.080
 H          0.125 -0.085 -0.018   -0.200 -0.067 -0.015   -0.497 -0.149 -0.071
 H          0.288  0.001  0.011    0.583 -0.045  0.008    0.310  0.039  0.066
 O         -0.005 -0.013  0.008   -0.009 -0.020  0.031   -0.027 -0.013  0.062
 H          0.097  0.042 -0.008    0.247  0.111 -0.008    0.528  0.221 -0.017
 TransDip   0.000  0.000  0.000    0.000  0.000  0.000    0.000  0.000  0.000

 Mode:                28                     29                     30
 Frequency:      1388.78                1406.28                1442.28
 Force Cnst:      1.4542                 1.6988                 1.4578
 Red. Mass:       1.2797                 1.4580                 1.1894
 IR Active:          YES                    YES                    YES
 IR Intens:        0.000                  0.000                  0.000
 Raman Active:       YES                    YES                    YES
               X      Y      Z        X      Y      Z        X      Y      Z
 C         -0.005  0.043 -0.003   -0.034  0.025 -0.002    0.021 -0.023 -0.008
 H          0.018 -0.054  0.000    0.044 -0.040  0.007    0.010 -0.006 -0.008
 C          0.013 -0.020 -0.004    0.009 -0.013 -0.003   -0.086  0.080  0.026
 H         -0.079  0.002  0.004   -0.038 -0.003  0.004    0.651 -0.076 -0.104
 H         -0.027  0.114  0.020   -0.007  0.048  0.006    0.122 -0.644 -0.092
 C         -0.030 -0.135  0.050    0.009 -0.017 -0.002   -0.018 -0.009  0.018
 H          0.276  0.337 -0.304    0.037  0.022 -0.018   -0.023  0.007 -0.036
 H         -0.076  0.462 -0.285   -0.037  0.082  0.056    0.045  0.007 -0.203
 H          0.149  0.559  0.039   -0.072  0.024  0.003    0.179  0.101  0.008
 C          0.010 -0.018 -0.002    0.110 -0.004  0.010    0.009 -0.001 -0.003
 H         -0.077  0.015  0.037   -0.291  0.038 -0.069   -0.028  0.033  0.057
 H         -0.024  0.072 -0.002   -0.224 -0.032 -0.001   -0.014  0.056 -0.002
 C          0.013 -0.007 -0.003   -0.152  0.029  0.034   -0.015  0.002  0.001
 H         -0.058  0.018 -0.005    0.657 -0.065  0.036    0.043 -0.039  0.003
 H         -0.125  0.011  0.010    0.548 -0.087 -0.084    0.064 -0.021 -0.033
 O          0.000  0.005  0.002    0.016 -0.009 -0.023    0.001  0.000  0.000
 H          0.014  0.005  0.001   -0.178 -0.082  0.003    0.002  0.001  0.000
 TransDip   0.000  0.000  0.000    0.000  0.000  0.000    0.000  0.000  0.000

 Mode:                31                     32                     33
 Frequency:      1462.38                1474.48                1482.06
 Force Cnst:      1.3849                 1.3665                 1.3592
 Red. Mass:       1.0991                 1.0668                 1.0503
 IR Active:          YES                    YES                    YES
 IR Intens:        0.000                  0.000                  0.000
 Raman Active:       YES                    YES                    YES
               X      Y      Z        X      Y      Z        X      Y      Z
 C         -0.018 -0.004  0.004   -0.042  0.013 -0.002    0.005 -0.018 -0.020
 H          0.044  0.010  0.008    0.045 -0.011  0.002    0.010  0.058 -0.026
 C          0.015 -0.012 -0.004    0.017 -0.010 -0.003   -0.015  0.015  0.005
 H         -0.106  0.013  0.020   -0.069  0.006  0.013    0.096 -0.009 -0.014
 H         -0.015  0.095  0.011    0.002  0.045 -0.002    0.016 -0.102 -0.015
 C         -0.010  0.020  0.004   -0.046  0.008 -0.008   -0.001 -0.022 -0.043
 H         -0.089 -0.113  0.108    0.116 -0.119  0.511    0.463  0.251  0.297
 H          0.070 -0.051 -0.182    0.018  0.231 -0.353   -0.255  0.408  0.430
 H          0.211 -0.047 -0.009    0.607 -0.249 -0.028   -0.176 -0.323 -0.024
 C          0.008 -0.064 -0.046    0.015  0.017  0.016   -0.002 -0.014 -0.009
 H          0.004  0.188  0.605   -0.029 -0.059 -0.202   -0.003  0.049  0.152
 H          0.064  0.607 -0.057   -0.046 -0.196  0.019    0.044  0.150 -0.012
 C         -0.018  0.019  0.009    0.005 -0.001  0.001    0.002 -0.005  0.000
 H         -0.002 -0.188  0.024    0.000  0.020  0.001   -0.015  0.004  0.000
 H          0.024 -0.069 -0.174   -0.025  0.007  0.014   -0.060 -0.005 -0.010
 O          0.004  0.001  0.002   -0.001  0.001 -0.001    0.002  0.003  0.000
 H          0.008  0.010  0.001   -0.009 -0.007  0.000    0.000  0.000  0.001
 TransDip   0.000  0.000  0.000    0.000  0.000  0.000    0.000  0.000  0.000

 Mode:                34                     35                     36
 Frequency:      1496.07                2876.24                2954.05
 Force Cnst:      1.4364                 5.2584                 5.4678
 Red. Mass:       1.0892                 1.0788                 1.0635
 IR Active:          YES                    YES                    YES
 IR Intens:        0.000                  0.000                  0.000
 Raman Active:       YES                    YES                    YES
               X      Y      Z        X      Y      Z        X      Y      Z
 C         -0.002 -0.004  0.001    0.003 -0.003 -0.080    0.001  0.000 -0.005
 H          0.017  0.010  0.000   -0.059  0.058  0.988   -0.004  0.004  0.060
 C          0.000  0.001  0.000    0.001 -0.001 -0.001    0.000  0.000  0.000
 H         -0.003  0.001  0.002    0.002 -0.002 -0.002   -0.003 -0.005 -0.001
 H          0.000  0.000 -0.001    0.002 -0.002 -0.002    0.005  0.004  0.000
 C         -0.002  0.006  0.002    0.000  0.001  0.004    0.000  0.000  0.001
 H         -0.027 -0.029  0.020    0.016 -0.013 -0.007   -0.004  0.005  0.003
 H          0.017 -0.015 -0.042   -0.017 -0.001 -0.005    0.009  0.002  0.005
 H          0.045 -0.012  0.000   -0.002 -0.001 -0.048   -0.002 -0.003 -0.015
 C          0.004 -0.016 -0.012    0.000 -0.001  0.006   -0.004 -0.036 -0.060
 H         -0.024  0.058  0.167    0.000  0.015 -0.004    0.075  0.397 -0.165
 H         -0.003  0.171 -0.017    0.004 -0.005 -0.078   -0.023  0.027  0.886
 C         -0.018 -0.068 -0.044    0.000  0.000  0.000   -0.002  0.004  0.007
 H          0.124  0.654 -0.098   -0.004  0.001 -0.006   -0.002 -0.009 -0.107
 H          0.117  0.234  0.634   -0.001 -0.003  0.002   -0.001 -0.035  0.017
 O         -0.004 -0.006 -0.001    0.000  0.000  0.000    0.001  0.000  0.000
 H          0.017 -0.001 -0.005    0.001  0.000  0.000    0.005 -0.001  0.005
 TransDip   0.000  0.000  0.000    0.000  0.000  0.000    0.000  0.000  0.000

 Mode:                37                     38                     39
 Frequency:      2969.02                2978.59                3005.23
 Force Cnst:      5.5329                 5.4201                 5.8195
 Red. Mass:       1.0653                 1.0369                 1.0936
 IR Active:          YES                    YES                    YES
 IR Intens:        0.000                  0.000                  0.000
 Raman Active:       YES                    YES                    YES
               X      Y      Z        X      Y      Z        X      Y      Z
 C          0.000 -0.001 -0.002    0.000 -0.001 -0.001    0.000 -0.001  0.004
 H          0.000  0.002  0.018   -0.001  0.002  0.011    0.001 -0.002 -0.036
 C          0.000  0.000  0.000    0.000  0.000  0.000    0.000  0.000  0.000
 H         -0.001 -0.001  0.000   -0.003 -0.005  0.000   -0.003 -0.003  0.001
 H         -0.001 -0.001  0.000    0.005  0.004 -0.001   -0.002  0.001  0.000
 C         -0.001  0.009 -0.002    0.015  0.038 -0.029    0.000  0.000 -0.002
 H          0.080 -0.085 -0.045    0.302 -0.319 -0.169    0.000  0.000 -0.001
 H         -0.074 -0.015 -0.022   -0.502 -0.127 -0.162   -0.002 -0.001 -0.002
 H          0.003  0.000  0.091    0.026  0.002  0.673    0.002  0.002  0.024
 C          0.001  0.008 -0.014   -0.001 -0.002  0.001   -0.013 -0.061  0.050
 H         -0.022 -0.105  0.037    0.005  0.019 -0.006    0.144  0.761 -0.275
 H         -0.001  0.008  0.134    0.002  0.000 -0.006    0.005 -0.025 -0.332
 C         -0.004 -0.070  0.003    0.000  0.011  0.002   -0.001 -0.004 -0.037
 H          0.005  0.014  0.333   -0.001 -0.005 -0.084    0.006  0.039  0.449
 H          0.076  0.824 -0.370   -0.012 -0.128  0.056   -0.002 -0.004 -0.006
 O         -0.002 -0.001  0.000    0.000  0.000  0.000    0.000  0.000  0.000
 H         -0.001  0.000 -0.004    0.000  0.000  0.001    0.001 -0.001 -0.007
 TransDip   0.000  0.000  0.000    0.000  0.000  0.000    0.000  0.000  0.000

 Mode:                40                     41                     42
 Frequency:      3030.53                3047.04                3058.98
 Force Cnst:      5.9685                 6.0242                 6.0731
 Red. Mass:       1.1030                 1.1013                 1.1016
 IR Active:          YES                    YES                    YES
 IR Intens:        0.000                  0.000                  0.000
 Raman Active:       YES                    YES                    YES
               X      Y      Z        X      Y      Z        X      Y      Z
 C          0.000  0.000 -0.003    0.000  0.000 -0.005    0.001  0.000 -0.002
 H          0.002  0.002  0.029   -0.004  0.001  0.051   -0.003  0.000  0.019
 C          0.000  0.000  0.000    0.000  0.000  0.000   -0.001  0.000  0.000
 H          0.001  0.002  0.000    0.000 -0.004  0.000   -0.002 -0.005  0.000
 H          0.001  0.000  0.000   -0.001 -0.002 -0.001    0.008  0.005 -0.001
 C          0.008 -0.002 -0.001   -0.043 -0.025 -0.077    0.078 -0.038 -0.030
 H         -0.033  0.039  0.018   -0.142  0.138  0.055   -0.533  0.588  0.294
 H         -0.062 -0.018 -0.020    0.641  0.166  0.184   -0.426 -0.126 -0.145
 H          0.001 -0.001  0.020    0.014 -0.009  0.688    0.025 -0.009  0.214
 C          0.005  0.026 -0.030    0.001  0.002 -0.001    0.000 -0.002  0.001
 H         -0.058 -0.320  0.114   -0.004 -0.018  0.008    0.002  0.017 -0.006
 H         -0.009  0.016  0.245    0.002  0.003  0.011    0.001  0.000 -0.010
 C          0.002  0.022 -0.081    0.000 -0.001 -0.001    0.000 -0.005  0.007
 H          0.001  0.077  0.814   -0.001  0.001  0.015   -0.001 -0.006 -0.053
 H         -0.025 -0.338  0.137    0.002  0.006 -0.003    0.007  0.072 -0.030
 O          0.000  0.000  0.001    0.000  0.000  0.000    0.000  0.000  0.000
 H          0.008  0.002 -0.011    0.000  0.000  0.000   -0.001  0.000  0.001
 TransDip   0.000  0.000  0.000    0.000  0.000  0.000    0.000  0.000  0.000

 Mode:                43                     44                     45
 Frequency:      3125.92                3231.64                3892.36
 Force Cnst:      6.0552                 6.8821                 9.5196
 Red. Mass:       1.0518                 1.1185                 1.0665
 IR Active:          YES                    YES                    YES
 IR Intens:        0.000                  0.000                  0.000
 Raman Active:       YES                    YES                    YES
               X      Y      Z        X      Y      Z        X      Y      Z
 C         -0.002  0.002  0.001   -0.001 -0.001  0.000    0.000  0.000  0.000
 H         -0.001  0.001  0.003    0.000 -0.001  0.000    0.000  0.000  0.000
 C          0.046 -0.042 -0.010   -0.068 -0.074  0.002    0.000  0.000  0.000
 H          0.156  0.680  0.041    0.144  0.695  0.042    0.000  0.000  0.000
 H         -0.678 -0.210  0.063    0.667  0.191 -0.062    0.000  0.000  0.000
 C          0.001  0.000 -0.001    0.000  0.000  0.000    0.000  0.000  0.000
 H         -0.005  0.002  0.003    0.002 -0.001  0.000    0.000  0.000  0.000
 H         -0.007 -0.003 -0.002    0.003  0.003  0.001    0.000  0.000  0.000
 H          0.001 -0.001  0.008    0.000  0.000  0.002    0.000  0.000  0.000
 C          0.000 -0.001 -0.001    0.000  0.000  0.000    0.000  0.000  0.001
 H          0.002  0.005 -0.002    0.003  0.003 -0.001   -0.001  0.000  0.000
 H          0.001  0.000  0.006    0.001 -0.001 -0.001   -0.001  0.001 -0.003
 C          0.000  0.000  0.000    0.000  0.000  0.000    0.001  0.000 -0.002
 H          0.000  0.000 -0.002    0.000  0.000  0.001    0.000  0.000  0.013
 H          0.000  0.000  0.000    0.000  0.002 -0.001    0.003  0.001  0.001
 O          0.000  0.000  0.000    0.000  0.000  0.000   -0.006 -0.008 -0.062
 H          0.000  0.000  0.000    0.000  0.000  0.000    0.086  0.113  0.988
 TransDip   0.000  0.000  0.000    0.000  0.000  0.000    0.000  0.000  0.000

 STANDARD THERMODYNAMIC QUANTITIES AT   298.15 K  AND     1.00 ATM

   This Molecule has  0 Imaginary Frequencies
   Zero point vibrational energy:       93.216 kcal/mol

   Atom    1 Element C  Has Mass   12.00000
   Atom    2 Element H  Has Mass    1.00783
   Atom    3 Element C  Has Mass   12.00000
   Atom    4 Element H  Has Mass    1.00783
   Atom    5 Element H  Has Mass    1.00783
   Atom    6 Element C  Has Mass   12.00000
   Atom    7 Element H  Has Mass    1.00783
   Atom    8 Element H  Has Mass    1.00783
   Atom    9 Element H  Has Mass    1.00783
   Atom   10 Element C  Has Mass   12.00000
   Atom   11 Element H  Has Mass    1.00783
   Atom   12 Element H  Has Mass    1.00783
   Atom   13 Element C  Has Mass   12.00000
   Atom   14 Element H  Has Mass    1.00783
   Atom   15 Element H  Has Mass    1.00783
   Atom   16 Element O  Has Mass   15.99491
   Atom   17 Element H  Has Mass    1.00783
   Molecular Mass:    87.081040 amu
   Principal axes and moments of inertia in atomic units:
                             1           2           3
    Eigenvalues --      253.11633  1016.71082  1187.87834
          X               0.99999     0.00154     0.00293
          Y              -0.00156     0.99998     0.00550
          Z              -0.00292    -0.00551     0.99998
   Rotational Symmetry Number is   1
   The Molecule is an Asymmetric Top
   Translational Enthalpy:        0.889 kcal/mol
   Rotational Enthalpy:           0.889 kcal/mol
   Vibrational Enthalpy:         96.789 kcal/mol
   gas constant (RT):             0.592 kcal/mol
   Translational Entropy:        39.306  cal/mol.K
   Rotational Entropy:           27.216  cal/mol.K
   Vibrational Entropy:          21.728  cal/mol.K

   Total Enthalpy:               99.159 kcal/mol
   Total Entropy:                88.249  cal/mol.K
Archival summary:
1\1\node06\FREQ\ProcedureUnspecified\BasisUnspecified\1511(2)\edames\ThuMay1505:35:222014ThuMay1505:35:222014\0\\#,FREQ,ProcedureUnspecified,BasisUnspecified,\\0,2\C\H,1,1.11018\C,1,1.49364,2,108.564\H,3,1.08813,1,120.761,2,-87.4684,0\H,3,1.08828,1,120.726,2,85.4706,0\C,1,1.53722,2,107.505,3,-120.062,0\H,6,1.09668,1,111.883,2,-52.9982,0\H,6,1.09748,1,110.665,2,67.1716,0\H,6,1.09925,1,110.186,2,-173.544,0\C,1,1.53946,2,106.918,3,119.309,0\H,10,1.09993,1,109.516,2,-64.5705,0\H,10,1.10344,1,108.81,2,178.745,0\C,10,1.52659,1,113.495,2,56.3362,0\H,13,1.09883,10,109.781,1,-54.4311,0\H,13,1.10218,10,110.764,1,63.9236,0\O,13,1.41839,10,112.306,1,-172.044,0\H,16,0.962737,13,109.422,10,-60.6802,0\\\@

 Total job time:  125454.70s(wall), 125363.94s(cpu) 
 Thu May 15 05:35:22 2014

        *************************************************************
        *                                                           *
        *  Thank you very much for using Q-Chem.  Have a nice day.  *
        *                                                           *
        *************************************************************


0 sent ACK to 0 
now end server 0 ... 
cleanup process ... done
