 Entering Gaussian System, Link 0=/Local/ce_dana/g09/g09
 Initial command:
 /Local/ce_dana/g09/l1.exe "/storage/ce_dana/alongd/scratch/g09/Gau-235584.inp" -scrdir="/storage/ce_dana/alongd/scratch/g09/"
 Entering Link 1 = /Local/ce_dana/g09/l1.exe PID=    235585.
  
 Copyright (c) 1988,1990,1992,1993,1995,1998,2003,2009,2013,
            Gaussian, Inc.  All Rights Reserved.
  
 This is part of the Gaussian(R) 09 program.  It is based on
 the Gaussian(R) 03 system (copyright 2003, Gaussian, Inc.),
 the Gaussian(R) 98 system (copyright 1998, Gaussian, Inc.),
 the Gaussian(R) 94 system (copyright 1995, Gaussian, Inc.),
 the Gaussian 92(TM) system (copyright 1992, Gaussian, Inc.),
 the Gaussian 90(TM) system (copyright 1990, Gaussian, Inc.),
 the Gaussian 88(TM) system (copyright 1988, Gaussian, Inc.),
 the Gaussian 86(TM) system (copyright 1986, Carnegie Mellon
 University), and the Gaussian 82(TM) system (copyright 1983,
 Carnegie Mellon University). Gaussian is a federally registered
 trademark of Gaussian, Inc.
  
 This software contains proprietary and confidential information,
 including trade secrets, belonging to Gaussian, Inc.
  
 This software is provided under written license and may be
 used, copied, transmitted, or stored only in accord with that
 written license.
  
 The following legend is applicable only to US Government
 contracts under FAR:
  
                    RESTRICTED RIGHTS LEGEND
  
 Use, reproduction and disclosure by the US Government is
 subject to restrictions as set forth in subparagraphs (a)
 and (c) of the Commercial Computer Software - Restricted
 Rights clause in FAR 52.227-19.
  
 Gaussian, Inc.
 340 Quinnipiac St., Bldg. 40, Wallingford CT 06492
  
  
 ---------------------------------------------------------------
 Warning -- This program may not be used in any manner that
 competes with the business of Gaussian, Inc. or will provide
 assistance to any competitor of Gaussian, Inc.  The licensee
 of this program is prohibited from giving any competitor of
 Gaussian, Inc. access to this program.  By using this program,
 the user acknowledges that Gaussian, Inc. is engaged in the
 business of creating and licensing software in the field of
 computational chemistry and represents and warrants to the
 licensee that it is not a competitor of Gaussian, Inc. and that
 it will not use this program in any manner prohibited above.
 ---------------------------------------------------------------
  

 Cite this work as:
 Gaussian 09, Revision D.01,
 M. J. Frisch, G. W. Trucks, H. B. Schlegel, G. E. Scuseria, 
 M. A. Robb, J. R. Cheeseman, G. Scalmani, V. Barone, B. Mennucci, 
 G. A. Petersson, H. Nakatsuji, M. Caricato, X. Li, H. P. Hratchian, 
 A. F. Izmaylov, J. Bloino, G. Zheng, J. L. Sonnenberg, M. Hada, 
 M. Ehara, K. Toyota, R. Fukuda, J. Hasegawa, M. Ishida, T. Nakajima, 
 Y. Honda, O. Kitao, H. Nakai, T. Vreven, J. A. Montgomery, Jr., 
 J. E. Peralta, F. Ogliaro, M. Bearpark, J. J. Heyd, E. Brothers, 
 K. N. Kudin, V. N. Staroverov, T. Keith, R. Kobayashi, J. Normand, 
 K. Raghavachari, A. Rendell, J. C. Burant, S. S. Iyengar, J. Tomasi, 
 M. Cossi, N. Rega, J. M. Millam, M. Klene, J. E. Knox, J. B. Cross, 
 V. Bakken, C. Adamo, J. Jaramillo, R. Gomperts, R. E. Stratmann, 
 O. Yazyev, A. J. Austin, R. Cammi, C. Pomelli, J. W. Ochterski, 
 R. L. Martin, K. Morokuma, V. G. Zakrzewski, G. A. Voth, 
 P. Salvador, J. J. Dannenberg, S. Dapprich, A. D. Daniels, 
 O. Farkas, J. B. Foresman, J. V. Ortiz, J. Cioslowski, 
 and D. J. Fox, Gaussian, Inc., Wallingford CT, 2013.
 
 ******************************************
 Gaussian 09:  ES64L-G09RevD.01 24-Apr-2013
                12-Nov-2022 
 ******************************************
 %chk=check.chk
 %mem=7168mb
 %NProcShared=10
 Will use up to   10 processors via shared memory.
 ----------------------------------------------------------------------
 #P guess=read b2plypd3/def2tzvp freq IOp(7/33=1) scf=(tight, direct) i
 ntegral=(grid=ultrafine, Acc2E=12) IOp(2/9=2000) scf=xqc
 ----------------------------------------------------------------------
 1/10=4,30=1,38=1/1,3;
 2/9=2000,12=2,17=6,18=5,40=1/2;
 3/5=44,7=101,11=9,16=1,25=1,30=1,71=2,74=-60,75=-5,116=-2,140=1/1,2,3;
 4/5=1/1;
 5/5=2,8=3,13=1,32=2,38=6,87=12,98=1/2,8;
 8/6=3,8=1,10=1,19=11,30=-1,87=12/1;
 9/15=3,16=-3,87=12/6;
 11/6=1,8=1,15=11,17=12,24=-1,27=1,28=-2,29=300,32=6,42=3,87=12/1,2,10;
 10/6=2,21=1,87=12/2;
 8/6=4,8=1,10=1,19=11,30=-1,87=12/11,4;
 10/5=1,20=4,87=12/2;
 11/12=2,14=11,16=1,17=2,28=-2,42=3,87=12/2,10,12;
 6/7=2,8=2,9=2,10=2/1;
 7/8=1,10=1,12=2,25=1,33=1,44=2,87=12/1,2,3,16;
 1/10=4,30=1/3;
 99//99;
 Leave Link    1 at Sat Nov 12 21:56:24 2022, MaxMem=   939524096 cpu:         0.0
 (Enter /Local/ce_dana/g09/l101.exe)
 ---
 NH3
 ---
 Symbolic Z-matrix:
 Charge =  0 Multiplicity = 1
 N                     0.00061  -0.00094   0.27955 
 H                    -0.41847   0.84333  -0.08943 
 H                    -0.52115  -0.78343  -0.09469 
 H                     0.93901  -0.05896  -0.09545 
 
 NAtoms=      4 NQM=        4 NQMF=       0 NMMI=      0 NMMIF=      0
                NMic=       0 NMicF=      0.
                    Isotopes and Nuclear Properties:
 (Nuclear quadrupole moments (NQMom) in fm**2, nuclear magnetic moments (NMagM)
  in nuclear magnetons)

  Atom         1           2           3           4
 IAtWgt=          14           1           1           1
 AtmWgt=  14.0030740   1.0078250   1.0078250   1.0078250
 NucSpn=           2           1           1           1
 AtZEff=   0.0000000   0.0000000   0.0000000   0.0000000
 NQMom=    2.0440000   0.0000000   0.0000000   0.0000000
 NMagM=    0.4037610   2.7928460   2.7928460   2.7928460
 AtZNuc=   7.0000000   1.0000000   1.0000000   1.0000000
 Leave Link  101 at Sat Nov 12 21:56:24 2022, MaxMem=   939524096 cpu:         0.1
 (Enter /Local/ce_dana/g09/l103.exe)

 GradGradGradGradGradGradGradGradGradGradGradGradGradGradGradGradGradGrad
 Berny optimization.
 Initialization pass.
 Trust Radius=3.00D-01 FncErr=1.00D-07 GrdErr=1.00D-07
 Number of steps in this run=      2 maximum allowed number of steps=      2.
 GradGradGradGradGradGradGradGradGradGradGradGradGradGradGradGradGradGrad

 Leave Link  103 at Sat Nov 12 21:56:24 2022, MaxMem=   939524096 cpu:         0.0
 (Enter /Local/ce_dana/g09/l202.exe)
                          Input orientation:                          
 ---------------------------------------------------------------------
 Center     Atomic      Atomic             Coordinates (Angstroms)
 Number     Number       Type             X           Y           Z
 ---------------------------------------------------------------------
      1          7           0        0.000614   -0.000943    0.279554
      2          1           0       -0.418471    0.843329   -0.089425
      3          1           0       -0.521149   -0.783427   -0.094687
      4          1           0        0.939006   -0.058960   -0.095451
 ---------------------------------------------------------------------
                    Distance matrix (angstroms):
                    1          2          3          4
     1  N    0.000000
     2  H    1.012212   0.000000
     3  H    1.012213   1.630002   0.000000
     4  H    1.012213   1.630002   1.630002   0.000000
 Stoichiometry    H3N
 Framework group  C3[C3(N),X(H3)]
 Deg. of freedom     2
 Full point group                 C3      NOp   3
 Largest Abelian subgroup         C1      NOp   1
 Largest concise Abelian subgroup C1      NOp   1
                         Standard orientation:                         
 ---------------------------------------------------------------------
 Center     Atomic      Atomic             Coordinates (Angstroms)
 Number     Number       Type             X           Y           Z
 ---------------------------------------------------------------------
      1          7           0        0.000000    0.000000    0.111823
      2          1           0       -0.000000    0.941082   -0.260922
      3          1           0       -0.815001   -0.470541   -0.260922
      4          1           0        0.815001   -0.470541   -0.260922
 ---------------------------------------------------------------------
 Rotational constants (GHZ):    300.0475136    300.0475136    188.7366769
 Leave Link  202 at Sat Nov 12 21:56:24 2022, MaxMem=   939524096 cpu:         0.0
 (Enter /Local/ce_dana/g09/l301.exe)
 Standard basis: def2TZVP (5D, 7F)
 Ernie: Thresh=  0.10000D-02 Tol=  0.10000D-05 Strict=F.
 There are    54 symmetry adapted cartesian basis functions of A   symmetry.
 There are    49 symmetry adapted basis functions of A   symmetry.
    49 basis functions,    75 primitive gaussians,    54 cartesian basis functions
     5 alpha electrons        5 beta electrons
       nuclear repulsion energy        11.9525945672 Hartrees.
 IExCor=  419 DFT=T Ex+Corr=B2PLYPD3 ExCW=0 ScaHFX=  0.530000
 ScaDFX=  0.470000  0.470000  0.730000  0.730000 ScalE2=  0.270000  0.270000
 IRadAn=      5 IRanWt=     -1 IRanGd=            0 ICorTp=0 IEmpDi=141
 NAtoms=    4 NActive=    4 NUniq=    2 SFac= 4.00D+00 NAtFMM=   60 NAOKFM=F Big=F
 Integral buffers will be    131072 words long.
 Regular integral format.
 Two-electron integral symmetry is turned on.
 R6Disp:  Grimme-D3(BJ) Dispersion energy=       -0.0004986669 Hartrees.
 Nuclear repulsion after empirical dispersion term =       11.9520959002 Hartrees.
 Leave Link  301 at Sat Nov 12 21:56:24 2022, MaxMem=   939524096 cpu:         0.1
 (Enter /Local/ce_dana/g09/l302.exe)
 NPDir=0 NMtPBC=     1 NCelOv=     1 NCel=       1 NClECP=     1 NCelD=      1
         NCelK=      1 NCelE2=     1 NClLst=     1 CellRange=     0.0.
 One-electron integrals computed using PRISM.
   1 Symmetry operations used in ECPInt.
 ECPInt:  NShTT=     276 NPrTT=     772 LenC2=     277 LenP2D=     751.
 LDataN:  DoStor=T MaxTD1= 6 Len=  172
 NBasis=    49 RedAO= T EigKep=  4.95D-03  NBF=    49
 NBsUse=    49 1.00D-06 EigRej= -1.00D+00 NBFU=    49
 Precomputing XC quadrature grid using
 IXCGrd= 4 IRadAn=           5 IRanWt=          -1 IRanGd=           0 AccXCQ= 0.00D+00.
 Generated NRdTot=       0 NPtTot=           0 NUsed=           0 NTot=          32
 NSgBfM=    54    54    54    54    54 MxSgAt=     4 MxSgA2=     4.
 Leave Link  302 at Sat Nov 12 21:56:24 2022, MaxMem=   939524096 cpu:         1.3
 (Enter /Local/ce_dana/g09/l303.exe)
 DipDrv:  MaxL=1.
 Leave Link  303 at Sat Nov 12 21:56:24 2022, MaxMem=   939524096 cpu:         0.1
 (Enter /Local/ce_dana/g09/l401.exe)
 Initial guess from the checkpoint file:  "check.chk"
 B after Tr=    -0.000000    0.000000   -0.000000
         Rot=    0.000000    0.992527    0.122023    0.000000 Ang= 180.00 deg.
 Guess basis will be translated and rotated to current coordinates.
 JPrj=2 DoOrth=T DoCkMO=T.
 Initial guess orbital symmetries:
       Occupied  (A) (A) (E) (E) (A)
       Virtual   (A) (E) (E) (E) (E) (A) (A) (A) (E) (E) (E) (E)
                 (A) (E) (E) (A) (E) (E) (A) (A) (E) (E) (A) (E)
                 (E) (A) (E) (E) (A) (E) (E) (A) (E) (E) (A) (E)
                 (E) (A) (E) (E) (E) (E) (A) (A)
 The electronic state of the initial guess is 1-A.
 Leave Link  401 at Sat Nov 12 21:56:24 2022, MaxMem=   939524096 cpu:         0.2
 (Enter /Local/ce_dana/g09/l502.exe)
 Closed shell SCF:
 Using DIIS extrapolation, IDIIS=  1040.
 Integral symmetry usage will be decided dynamically.
 Keep R1 ints in memory in canonical form, NReq=2725425.
 IVT=       15680 IEndB=       15680 NGot=   939524096 MDV=   938757492
 LenX=   938757492 LenY=   938754135
 Requested convergence on RMS density matrix=1.00D-08 within  64 cycles.
 Requested convergence on MAX density matrix=1.00D-06.
 Requested convergence on             energy=1.00D-06.
 No special actions if energy rises.
 FoFCou: FMM=F IPFlag=           0 FMFlag=           0 FMFlg1=           0
         NFxFlg=           0 DoJE=F BraDBF=F KetDBF=F FulRan=T
         wScrn=  0.000000 ICntrl=     600 IOpCl=  0 I1Cent=           0 NGrid=           0
         NMat0=    1 NMatS0=   1225 NMatT0=    0 NMatD0=    1 NMtDS0=    0 NMtDT0=    0
 Symmetry not used in FoFCou.

 Cycle   1  Pass 1  IDiag  1:
 E= -56.4585752171192    
 DIIS: error= 7.41D-08 at cycle   1 NSaved=   1.
 NSaved= 1 IEnMin= 1 EnMin= -56.4585752171192     IErMin= 1 ErrMin= 7.41D-08
 ErrMax= 7.41D-08  0.00D+00 EMaxC= 1.00D-01 BMatC= 1.33D-13 BMatP= 1.33D-13
 IDIUse=1 WtCom= 1.00D+00 WtEn= 0.00D+00
 Coeff-Com:  0.100D+01
 Coeff:      0.100D+01
 Gap=     0.401 Goal=   None    Shift=    0.000
 RMSDP=8.29D-09 MaxDP=8.86D-08              OVMax= 1.68D-07

 SCF Done:  E(RB2PLYPD3) =  -56.4585752171     A.U. after    1 cycles
            NFock=  1  Conv=0.83D-08     -V/T= 2.0032
 KE= 5.627731032863D+01 PE=-1.559676581477D+02 EE= 3.127967670171D+01
 Leave Link  502 at Sat Nov 12 21:56:24 2022, MaxMem=   939524096 cpu:         2.0
 (Enter /Local/ce_dana/g09/l508.exe)
 QCSCF skips out because SCF is already converged.
 Leave Link  508 at Sat Nov 12 21:56:24 2022, MaxMem=   939524096 cpu:         0.0
 (Enter /Local/ce_dana/g09/l801.exe)
 DoSCS=T DFT=T ScalE2(SS,OS)=  0.270000  0.270000
 ExpMin= 1.03D-01 ExpMax= 1.97D+04 ExpMxC= 6.73D+02 IAcc=3 IRadAn=         5 AccDes= 0.00D+00
 HarFok:  IExCor=  205 AccDes= 0.00D+00 IRadAn=         5 IDoV=-2 UseB2=F ITyADJ=14
 ICtDFT= 12500011 ScaDFX=  1.000000  1.000000  1.000000  1.000000
 Largest valence mixing into a core orbital is  8.99D-05
 Largest core mixing into a valence orbital is  1.62D-05
 Range of M.O.s used for correlation:     2    49
 NBasis=    49 NAE=     5 NBE=     5 NFC=     1 NFV=     0
 NROrb=     48 NOA=     4 NOB=     4 NVA=    44 NVB=    44
 Leave Link  801 at Sat Nov 12 21:56:24 2022, MaxMem=   939524096 cpu:         0.3
 (Enter /Local/ce_dana/g09/l906.exe)
 DoSCS=T DFT=T ScalE2(SS,OS)=  0.270000  0.270000
 Frozen-core derivative calculation, NFC=   1 NFV=   0.
 FulOut=F Deriv=T AODrv=T NAtomX=     4
   MMem=           0  MDisk=           4 MDiskD=           4
  W3Min=       13230 MinDsk=      124655 NBas6D=          54
 NBas2D=        1578    NTT=        1485    LW2=     7400000
    MDV=   939484976 MDiskM=       86804 NBas2p=        1578
 Disk-based method using ON**2 memory for  4 occupieds at a time.
 Permanent disk used for amplitudes=       57860 words.
 Estimated scratch disk usage=     1626326 words.
 IMap=   1   2   3   4   5
 Actual    scratch disk usage=     1626326 words.
 JobTyp=1 Pass  1:  I=   2 to   5 NPSUse= 10 ParTrn=T ParDer=T DoDerP=T.
 (rs|ai) integrals will be sorted in core.
 Spin components of T(2) and E(2):
     alpha-alpha T2 =       0.1107814120D-01 E2=     -0.8271578946D-02
     alpha-beta  T2 =       0.7157478629D-01 E2=     -0.5624409145D-01
     beta-beta   T2 =       0.1107814120D-01 E2=     -0.8271578946D-02
 The integrals were generated   1 times.
 E2(B2PLYPD3) =    -0.7278724934D-01 E(B2PLYPD3) =    -0.56531362466463D+02
 Leave Link  906 at Sat Nov 12 21:56:25 2022, MaxMem=   939524096 cpu:         8.4
 (Enter /Local/ce_dana/g09/l1101.exe)
 Using compressed Sx but separate Hx and Fx, NAtomX=     4.
 Will process      5 centers per pass.
   3 Symmetry operations used in ECPInt.
 ECPInt:  NShTT=     276 NPrTT=     772 LenC2=     277 LenP2D=     751.
 LDataN:  DoStor=T MaxTD1= 7 Len=  274
 R6Disp: Adding Grimme-D3(BJ) dispersion energy 1st derivatives to the gradient.
 Leave Link 1101 at Sat Nov 12 21:56:26 2022, MaxMem=   939524096 cpu:         4.3
 (Enter /Local/ce_dana/g09/l1102.exe)
 Leave Link 1102 at Sat Nov 12 21:56:26 2022, MaxMem=   939524096 cpu:         0.0
 (Enter /Local/ce_dana/g09/l1110.exe)
 Forming Gx(P) for the SCF density, NAtomX=     4.
 Integral derivatives from FoFJK, PRISM(SPDF).
 Do as many integral derivatives as possible in FoFJK.
 G2DrvN: MDV=     939523960.
 G2DrvN: will do     5 centers at a time, making    1 passes.
 Calling FoFCou, ICntrl=  3107 FMM=F I1Cent=   0 AccDes= 1.00D-12.
 FoFJK:  IHMeth= 1 ICntrl=    3107 DoSepK=F KAlg= 0 I1Cent=   0 FoldK=F
 IRaf=         0 NMat=   1 IRICut=       1 DoRegI=T DoRafI=F ISym2E= 1.
 FoFCou: FMM=F IPFlag=           0 FMFlag=      100000 FMFlg1=           0
         NFxFlg=           0 DoJE=F BraDBF=F KetDBF=F FulRan=T
         wScrn=  0.000000 ICntrl=    3107 IOpCl=  0 I1Cent=           0 NGrid=           0
         NMat0=    1 NMatS0=      1 NMatT0=    0 NMatD0=    1 NMtDS0=    0 NMtDT0=    0
 Petite list used in FoFCou.
 End of G2Drv F.D. properties file   721 does not exist.
 End of G2Drv F.D. properties file   722 does not exist.
 End of G2Drv F.D. properties file   788 does not exist.
 Leave Link 1110 at Sat Nov 12 21:56:27 2022, MaxMem=   939524096 cpu:         6.5
 (Enter /Local/ce_dana/g09/l1002.exe)
 Minotr:  Closed shell wavefunction.
          IDoAtm=1111
          Frozen-core window.
          Direct CPHF calculation.
          Differentiating once with respect to electric field.
                with respect to dipole field.
          Differentiating once with respect to nuclear coordinates.
          Requested convergence is 1.0D-08 RMS, and 1.0D-07 maximum.
          Secondary convergence is 1.0D-12 RMS, and 1.0D-12 maximum.
          NewPWx=T KeepS1=T KeepF1=T KeepIn=T MapXYZ=F SortEE=F KeepMc=T.
          MDV=     939524004 using IRadAn=       1.
 Generate precomputed XC quadrature information.
 Keep R1 ints in memory in canonical form, NReq=2719419.
 FoFCou: FMM=F IPFlag=           0 FMFlag=           0 FMFlg1=           0
         NFxFlg=           0 DoJE=F BraDBF=F KetDBF=F FulRan=T
         wScrn=  0.000000 ICntrl=     600 IOpCl=  0 I1Cent=           0 NGrid=           0
         NMat0=    1 NMatS0=   1225 NMatT0=    0 NMatD0=    1 NMtDS0=    0 NMtDT0=    0
 Symmetry not used in FoFCou.
          Solving linear equations simultaneously, MaxMat=       0.
          There are    15 degrees of freedom in the 1st order CPHF.  IDoFFX=6 NUNeed=    15.
     12 vectors produced by pass  0 Test12= 1.47D-15 6.67D-09 XBig12= 3.52D+00 1.04D+00.
 AX will form    12 AO Fock derivatives at one time.
     12 vectors produced by pass  1 Test12= 1.47D-15 6.67D-09 XBig12= 2.95D-01 2.81D-01.
     12 vectors produced by pass  2 Test12= 1.47D-15 6.67D-09 XBig12= 4.41D-03 2.78D-02.
     12 vectors produced by pass  3 Test12= 1.47D-15 6.67D-09 XBig12= 2.70D-05 1.79D-03.
     12 vectors produced by pass  4 Test12= 1.47D-15 6.67D-09 XBig12= 9.21D-08 9.52D-05.
      8 vectors produced by pass  5 Test12= 1.47D-15 6.67D-09 XBig12= 1.15D-10 4.96D-06.
      3 vectors produced by pass  6 Test12= 1.47D-15 6.67D-09 XBig12= 2.14D-13 1.38D-07.
      1 vectors produced by pass  7 Test12= 1.47D-15 6.67D-09 XBig12= 4.97D-16 6.88D-09.
 InvSVY:  IOpt=1 It=  1 EMax= 1.11D-15
 Solved reduced A of dimension    72 with    12 vectors.
 FullF1:  Do perturbations    1 to    15.
 Saving first derivative matrices.
 End of Minotr F.D. properties file   721 does not exist.
 End of Minotr F.D. properties file   722 does not exist.
 End of Minotr F.D. properties file   788 does not exist.
 Leave Link 1002 at Sat Nov 12 21:56:28 2022, MaxMem=   939524096 cpu:        11.7
 (Enter /Local/ce_dana/g09/l811.exe)
 MDV=   939524096.
 DoSCS=T DFT=T ScalE2(SS,OS)=  0.270000  0.270000
 Form MO integral derivatives with frozen-active canonical formalism.
 MOERI=1 MOERIx=1 NAtoms=     4 NAtomX=     4.
 Discarding MO integrals.
 MO basis two electron integral derivatives will not be stored on disk.
 IAlg= 3 DoFC=T DoPWx=T Debug=F.
 Frozen-core window:  NFC=   1 NFV=   0.
 Reordered first order wavefunction length =        96800
 In DefCFB: NBatch=  1 ICI=  5 ICA= 44 LFMax= 44
            Large arrays: LIAPS=     2328480 LIARS=     2993760 words.
 In StABat: MaxSiz= 36 MinSiz= 18 NAtomB=  2
 DoIAMN: NPSUse= 10.
 Leave Link  811 at Sat Nov 12 21:56:29 2022, MaxMem=   939524096 cpu:         2.4
 (Enter /Local/ce_dana/g09/l804.exe)
 Frozen-core window:  NFC=   1 NFV=   0.
 Closed-shell transformation, MDV=   939524096 ITran=4 ISComp=1.
 Semi-Direct transformation.
 ModeAB=           2 MOrb=             5 LenV=     939112057
 LASXX=       268235 LTotXX=      268235 LenRXX=      268235
 LTotAB=      284575 MaxLAS=      363825 LenRXY=      363825
 NonZer=      536470 LenScr=     1571840 LnRSAI=           0
 LnScr1=           0 LExtra=           0 Total=      2203900
 MaxDsk=          -1 SrtSym=           F ITran=            4
 DoSDTr:  NPSUse= 10
 JobTyp=0 Pass  1:  I=   1 to   5.
 (rs|ai) integrals will be sorted in core.
 Complete sort for first half transformation.
 First half transformation complete.
 Complete sort for second half transformation.
 Second half transformation complete.
 SymMOI:  orbitals are not symmetric.
 DoSCS=T DFT=T ScalE2(SS,OS)=  0.270000  0.270000
 Spin components of T(2) and E(2):
     alpha-alpha T2 =       0.1107814120D-01 E2=     -0.8271578946D-02
     alpha-beta  T2 =       0.7157478629D-01 E2=     -0.5624409145D-01
     beta-beta   T2 =       0.1107814120D-01 E2=     -0.8271578946D-02
 E2(B2PLYPD3) =    -0.7278724934D-01 E(B2PLYPD3) =    -0.56531362466463D+02
 Leave Link  804 at Sat Nov 12 21:56:29 2022, MaxMem=   939524096 cpu:         1.2
 (Enter /Local/ce_dana/g09/l1002.exe)
 Minotr:  Closed shell wavefunction.
          Computing MP2/KS-MP2 derivatives.
          Using Z-Vector for PSCF gradient.
          Skipping F1 and S1 gradient terms here.
          IDoAtm=1111
          Frozen-core window.
          Direct CPHF calculation.
          Differentiating once with respect to electric field.
                with respect to dipole field.
          Differentiating once with respect to nuclear coordinates.
          Using symmetry in CPHF.
          Requested convergence is 1.0D-10 RMS, and 1.0D-09 maximum.
          NewPWx=T KeepS1=F KeepF1=F KeepIn=T MapXYZ=F SortEE=F KeepMc=T.
          MDV=     939524004 using IRadAn=       5.
 Using stored XC quadrature information.
 Keep R1 ints in memory in canonical form, NReq=2718233.
 FoFCou: FMM=F IPFlag=           0 FMFlag=           0 FMFlg1=           0
         NFxFlg=           0 DoJE=F BraDBF=F KetDBF=F FulRan=T
         wScrn=  0.000000 ICntrl=     600 IOpCl=  0 I1Cent=           0 NGrid=           0
         NMat0=    1 NMatS0=   1225 NMatT0=    0 NMatD0=    1 NMtDS0=    0 NMtDT0=    0
 Symmetry not used in FoFCou.
          Solving linear equations separately, MaxMat=       0.
          There are     1 degrees of freedom in the 1st order CPHF.  IDoFFX=0 NUNeed=     1.
 LinEq1:  Iter=  0 NonCon=     1 RMS=1.72D-03 Max=9.04D-03 NDo=     1
 AX will form     1 AO Fock derivatives at one time.
 LinEq1:  Iter=  1 NonCon=     1 RMS=8.95D-04 Max=8.51D-03 NDo=     1
 LinEq1:  Iter=  2 NonCon=     1 RMS=2.26D-04 Max=1.20D-03 NDo=     1
 LinEq1:  Iter=  3 NonCon=     1 RMS=2.40D-05 Max=1.47D-04 NDo=     1
 LinEq1:  Iter=  4 NonCon=     1 RMS=6.45D-06 Max=4.84D-05 NDo=     1
 LinEq1:  Iter=  5 NonCon=     1 RMS=8.93D-07 Max=6.29D-06 NDo=     1
 LinEq1:  Iter=  6 NonCon=     1 RMS=5.63D-08 Max=2.41D-07 NDo=     1
 LinEq1:  Iter=  7 NonCon=     1 RMS=4.05D-09 Max=2.22D-08 NDo=     1
 LinEq1:  Iter=  8 NonCon=     1 RMS=2.41D-10 Max=1.77D-09 NDo=     1
 LinEq1:  Iter=  9 NonCon=     0 RMS=1.45D-11 Max=1.13D-10 NDo=     1
 Linear equations converged to 1.000D-10 1.000D-09 after     9 iterations.
 End of Minotr F.D. properties file   721 does not exist.
 End of Minotr F.D. properties file   722 does not exist.
 End of Minotr F.D. properties file   788 does not exist.
 Leave Link 1002 at Sat Nov 12 21:56:30 2022, MaxMem=   939524096 cpu:        12.5
 (Enter /Local/ce_dana/g09/l1102.exe)
 Use density number 2.
 Symmetrizing basis deriv contribution to polar:
 IMax=3 JMax=2 DiffMx= 0.00D+00
 Leave Link 1102 at Sat Nov 12 21:56:30 2022, MaxMem=   939524096 cpu:         0.0
 (Enter /Local/ce_dana/g09/l1110.exe)
 Forming Gx(P) for generalized density number  2 NAtomX=     4.
 Integral derivatives from FoFJK, PRISM(SPDF).
 Do as many integral derivatives as possible in FoFJK.
 G2DrvN: MDV=     939523960.
 G2DrvN: will do     5 centers at a time, making    1 passes.
 Calling FoFCou, ICntrl=  3107 FMM=F I1Cent=   0 AccDes= 1.00D-12.
 FoFJK:  IHMeth= 1 ICntrl=    3107 DoSepK=F KAlg= 0 I1Cent=   0 FoldK=F
 IRaf=         0 NMat=   1 IRICut=       1 DoRegI=T DoRafI=F ISym2E= 1.
 FoFCou: FMM=F IPFlag=           0 FMFlag=      100000 FMFlg1=           0
         NFxFlg=           0 DoJE=F BraDBF=F KetDBF=F FulRan=T
         wScrn=  0.000000 ICntrl=    3107 IOpCl=  0 I1Cent=           0 NGrid=           0
         NMat0=    1 NMatS0=      1 NMatT0=    0 NMatD0=    1 NMtDS0=    0 NMtDT0=    0
 Petite list used in FoFCou.
 End of G2Drv F.D. properties file   721 does not exist.
 End of G2Drv F.D. properties file   722 does not exist.
 End of G2Drv F.D. properties file   788 does not exist.
 Leave Link 1110 at Sat Nov 12 21:56:31 2022, MaxMem=   939524096 cpu:         7.1
 (Enter /Local/ce_dana/g09/l1112.exe)
 MP22nd: MDV=     939524096
 DoSCS=T DFT=T ScalE2(SS,OS)=  0.270000  0.270000
 Using stored XC quadrature information.
 This link is doing NAtomX=     4 total of    15 degrees of freedom.
 Using ON3 I/O method in MakUI.
 Frozen-core window:  NFC=   1 NFV=   0.
 Using Ix for Sx.
 Use MO integrals over full window.
 Using OV2 memory method for fx*t*t/D, MaxI=     5 DoOO2=F NP=  10.
 R2 and R3 integrals will be kept in memory, NReq=     4146710.
 FoFCou: FMM=F IPFlag=           0 FMFlag=           0 FMFlg1=           0
         NFxFlg=           0 DoJE=F BraDBF=F KetDBF=F FulRan=T
         wScrn=  0.000000 ICntrl=     600 IOpCl=  0 I1Cent=           0 NGrid=           0
         NMat0=    1 NMatS0=      1 NMatT0=    0 NMatD0=    1 NMtDS0=    0 NMtDT0=    0
 Symmetry not used in FoFCou.
 DD1Dir will call FoFMem   1 times, MxPair=        40
 NAB=    15 NAA=    10 NBB=     0.
 Symmetry is being used.
 FoFJK:  IHMeth= 1 ICntrl=       0 DoSepK=F KAlg= 0 I1Cent=   0 FoldK=F
 IRaf=         0 NMat=  15 IRICut=      37 DoRegI=T DoRafI=T ISym2E= 2.
 R6Disp: Adding Grimme-D3(BJ) dispersion energy 1st derivatives to the gradient.
 Discarding MO integrals.
 Leave Link 1112 at Sat Nov 12 21:56:35 2022, MaxMem=   939524096 cpu:        31.5
 (Enter /Local/ce_dana/g09/l601.exe)
 Copying SCF densities to generalized density rwf, IOpCl= 0 IROHF=0.

 **********************************************************************

            Population analysis using the SCF density.

 **********************************************************************

 Orbital symmetries:
       Occupied  (A) (A) (E) (E) (A)
       Virtual   (A) (E) (E) (E) (E) (A) (A) (A) (E) (E) (E) (E)
                 (A) (E) (E) (A) (E) (E) (A) (A) (E) (E) (A) (E)
                 (E) (A) (E) (E) (A) (E) (E) (A) (E) (E) (A) (E)
                 (E) (A) (E) (E) (E) (E) (A) (A)
 The electronic state is 1-A.
 Alpha  occ. eigenvalues --  -14.81179  -0.97227  -0.53239  -0.53239  -0.33382
 Alpha virt. eigenvalues --    0.06713   0.15129   0.15129   0.35624   0.35624
 Alpha virt. eigenvalues --    0.41271   0.52832   0.56125   0.60307   0.60307
 Alpha virt. eigenvalues --    0.99891   0.99891   1.24005   1.33218   1.33218
 Alpha virt. eigenvalues --    1.71250   1.83643   1.83643   1.90351   2.08981
 Alpha virt. eigenvalues --    2.14935   2.14935   2.42046   2.46784   2.46784
 Alpha virt. eigenvalues --    2.54935   2.62161   2.62161   3.13129   3.35719
 Alpha virt. eigenvalues --    3.35719   4.21202   4.45351   4.45351   4.59037
 Alpha virt. eigenvalues --    4.76086   4.76086   4.78640   5.04150   5.04150
 Alpha virt. eigenvalues --    5.54819   5.54819   5.92222  32.02202
          Condensed to atoms (all electrons):
               1          2          3          4
     1  N    6.578202   0.368586   0.368586   0.368586
     2  H    0.368586   0.462119  -0.029347  -0.029347
     3  H    0.368586  -0.029347   0.462119  -0.029347
     4  H    0.368586  -0.029347  -0.029347   0.462119
 Mulliken charges:
               1
     1  N   -0.683962
     2  H    0.227987
     3  H    0.227987
     4  H    0.227987
 Sum of Mulliken charges =  -0.00000
 Mulliken charges with hydrogens summed into heavy atoms:
               1
     1  N   -0.000000
 APT charges:
               1
     1  N   -0.467035
     2  H    0.155678
     3  H    0.155678
     4  H    0.155678
 Sum of APT charges =  -0.00000
 APT charges with hydrogens summed into heavy atoms:
               1
     1  N   -0.000000
 Electronic spatial extent (au):  <R**2>=             26.6166
 Charge=             -0.0000 electrons
 Dipole moment (field-independent basis, Debye):
    X=             -0.0000    Y=              0.0000    Z=             -1.7024  Tot=              1.7024
 Quadrupole moment (field-independent basis, Debye-Ang):
   XX=             -6.1973   YY=             -6.1973   ZZ=             -9.2426
   XY=              0.0000   XZ=              0.0000   YZ=             -0.0000
 Traceless Quadrupole moment (field-independent basis, Debye-Ang):
   XX=              1.0151   YY=              1.0151   ZZ=             -2.0302
   XY=              0.0000   XZ=              0.0000   YZ=             -0.0000
 Octapole moment (field-independent basis, Debye-Ang**2):
  XXX=             -0.0000  YYY=              0.9255  ZZZ=             -1.6641  XYY=              0.0000
  XXY=             -0.9255  XXZ=             -0.9227  XZZ=              0.0000  YZZ=             -0.0000
  YYZ=             -0.9227  XYZ=              0.0000
 Hexadecapole moment (field-independent basis, Debye-Ang**3):
 XXXX=             -9.9838 YYYY=             -9.9838 ZZZZ=            -11.6570 XXXY=              0.0000
 XXXZ=              0.0000 YYYX=              0.0000 YYYZ=             -0.3448 ZZZX=             -0.0000
 ZZZY=              0.0000 XXYY=             -3.3279 XXZZ=             -3.6911 YYZZ=             -3.6911
 XXYZ=              0.3448 YYXZ=             -0.0000 ZZXY=              0.0000
 N-N= 1.195209590024D+01 E-N=-1.559676582623D+02  KE= 5.627731032863D+01
  Exact polarizability:  10.819   0.000  10.819   0.000   0.000   9.514
 Approx polarizability:  11.154   0.000  11.154   0.000  -0.000   9.095
 No NMR shielding tensors so no spin-rotation constants.
 Leave Link  601 at Sat Nov 12 21:56:35 2022, MaxMem=   939524096 cpu:         1.3
 (Enter /Local/ce_dana/g09/l701.exe)
 Compute integral second derivatives.
 ... and contract with generalized density number  2.
 Use density number 2.
 R6Disp: Adding Grimme-D3(BJ) dispersion energy 2nd derivatives to the Hessian.
 Entering OneElI...
 Calculate overlap and kinetic energy integrals
    NBasis =  54  MinDer = 2  MaxDer = 2
 Requested accuracy = 0.1000D-14
 PrsmSu:  NPrtUS=  10 ThrOK=T IAlg=1 NPAlg=1 LenDen=           0.
 Prism:   IPart=     0 DynPar=F LinDyn=F Incr=           1.
 PRISM was handed    93943030 working-precision words and   276 shell-pairs
 PRISM was handed    93943030 working-precision words and   276 shell-pairs
 PRISM was handed    93943030 working-precision words and   276 shell-pairs
 PRISM was handed    93943030 working-precision words and   276 shell-pairs
 PRISM was handed    93943030 working-precision words and   276 shell-pairs
 PRISM was handed    93943030 working-precision words and   276 shell-pairs
 PRISM was handed    93943030 working-precision words and   276 shell-pairs
 PRISM was handed    93943030 working-precision words and   276 shell-pairs
 PRISM was handed    93943030 working-precision words and   276 shell-pairs
 PRISM was handed    93943030 working-precision words and   276 shell-pairs
 IPart=  9 NShTot=          15 NBatch=           8 AvBLen=         1.9
 IPart=  8 NShTot=          18 NBatch=          11 AvBLen=         1.6
 IPart=  7 NShTot=          19 NBatch=          11 AvBLen=         1.7
 IPart=  5 NShTot=          21 NBatch=          12 AvBLen=         1.8
 IPart=  3 NShTot=          29 NBatch=          16 AvBLen=         1.8
 IPart=  2 NShTot=          35 NBatch=          22 AvBLen=         1.6
 IPart=  6 NShTot=          20 NBatch=          11 AvBLen=         1.8
 IPart=  1 NShTot=          40 NBatch=          26 AvBLen=         1.5
 IPart=  4 NShTot=          29 NBatch=          16 AvBLen=         1.8
 IPart=  0 NShTot=          50 NBatch=          36 AvBLen=         1.4
 PrSmSu:  NxtVal=             11.
 Entering OneElI...
 Calculate potential energy integrals
    NBasis =  54  MinDer = 2  MaxDer = 2
 Requested accuracy = 0.1000D-14
 PrsmSu:  NPrtUS=  10 ThrOK=T IAlg=1 NPAlg=1 LenDen=           0.
 Prism:   IPart=     0 DynPar=F LinDyn=F Incr=           1.
 PRISM was handed    93943408 working-precision words and   276 shell-pairs
 PRISM was handed    93943408 working-precision words and   276 shell-pairs
 PRISM was handed    93943408 working-precision words and   276 shell-pairs
 PRISM was handed    93943408 working-precision words and   276 shell-pairs
 PRISM was handed    93943408 working-precision words and   276 shell-pairs
 PRISM was handed    93943408 working-precision words and   276 shell-pairs
 PRISM was handed    93943408 working-precision words and   276 shell-pairs
 PRISM was handed    93943408 working-precision words and   276 shell-pairs
 PRISM was handed    93943408 working-precision words and   276 shell-pairs
 PRISM was handed    93943408 working-precision words and   276 shell-pairs
 IPart=  3 NShTot=         124 NBatch=          31 AvBLen=         4.0
 IPart=  5 NShTot=          84 NBatch=          21 AvBLen=         4.0
 IPart=  8 NShTot=          72 NBatch=          18 AvBLen=         4.0
 IPart=  7 NShTot=          76 NBatch=          19 AvBLen=         4.0
 IPart=  1 NShTot=         156 NBatch=          39 AvBLen=         4.0
 IPart=  4 NShTot=         120 NBatch=          30 AvBLen=         4.0
 IPart=  6 NShTot=          80 NBatch=          20 AvBLen=         4.0
 IPart=  2 NShTot=         140 NBatch=          35 AvBLen=         4.0
 IPart=  9 NShTot=          60 NBatch=          15 AvBLen=         4.0
 IPart=  0 NShTot=         192 NBatch=          48 AvBLen=         4.0
 PrSmSu:  NxtVal=             11.
   3 Symmetry operations used in ECPInt.
 ECPInt:  NShTT=     276 NPrTT=     772 LenC2=     277 LenP2D=     751.
 LDataN:  DoStor=F MaxTD1= 8 Len=  415
 LDataN:  DoStor=T MaxTD1= 8 Len=  415
 ECPSu:  NPrtUS=  10 ThrOK=T
 Polarizability after L701:
                1             2             3 
      1  0.108188D+02
      2  0.000000D+00  0.108188D+02
      3  0.000000D+00  0.858707D-05  0.951399D+01
 Dipole Derivatives after L701:
                 1             2             3             4             5 
      1  -0.385741D+00  0.000000D+00  0.000000D+00  0.174447D+00  0.000000D+00
      2   0.000000D+00 -0.385742D+00  0.164339D-05  0.000000D+00  0.827141D-01
      3   0.000000D+00  0.000000D+00 -0.629621D+00  0.000000D+00  0.943599D-01
                 6             7             8             9            10 
      1   0.000000D+00  0.105647D+00 -0.397215D-01 -0.127428D+00  0.105647D+00
      2   0.147140D+00 -0.397220D-01  0.151514D+00 -0.735710D-01  0.397221D-01
      3   0.209875D+00 -0.817186D-01 -0.471799D-01  0.209873D+00  0.817183D-01
                11            12 
      1   0.397215D-01  0.127428D+00
      2   0.151514D+00 -0.735710D-01
      3  -0.471803D-01  0.209873D+00
 Hessian after L701:
                1             2             3             4             5 
      1  0.439017D+01
      2  0.000000D+00  0.439017D+01
      3  0.000000D+00  0.000000D+00  0.635794D+01
      4 -0.242596D+01  0.000000D+00  0.000000D+00  0.239386D+01
      5  0.000000D+00 -0.500813D+00 -0.811187D+00  0.000000D+00  0.570991D+00
      6  0.000000D+00 -0.722701D+00 -0.211931D+01  0.000000D+00  0.775404D+00
      7 -0.982101D+00  0.833615D+00  0.702509D+00  0.160528D-01 -0.181640D-01
      8  0.833615D+00 -0.194468D+01  0.405594D+00 -0.704162D-01 -0.350890D-01
      9  0.625877D+00  0.361351D+00 -0.211931D+01  0.200985D-01  0.178915D-01
     10 -0.982101D+00 -0.833615D+00 -0.702509D+00  0.160528D-01  0.181640D-01
     11 -0.833615D+00 -0.194468D+01  0.405594D+00  0.704162D-01 -0.350890D-01
     12 -0.625877D+00  0.361351D+00 -0.211931D+01 -0.200985D-01  0.178916D-01
                6             7             8             9            10 
      6  0.206913D+01
      7 -0.544534D-02  0.102671D+01
      8 -0.263516D-01 -0.789325D+00  0.193814D+01
      9  0.250909D-01 -0.671520D+00 -0.387702D+00  0.206913D+01
     10  0.544532D-02 -0.606598D-01  0.261262D-01  0.255438D-01  0.102671D+01
     11 -0.263516D-01 -0.261262D-01  0.416236D-01  0.846000D-02  0.789325D+00
     12  0.250909D-01 -0.255438D-01  0.846000D-02  0.250908D-01  0.671520D+00
               11            12 
     11  0.193814D+01
     12 -0.387702D+00  0.206913D+01
 Leave Link  701 at Sat Nov 12 21:56:35 2022, MaxMem=   939524096 cpu:         4.9
 (Enter /Local/ce_dana/g09/l702.exe)
 L702 exits ... SP integral derivatives will be done elsewhere.
 Leave Link  702 at Sat Nov 12 21:56:35 2022, MaxMem=   939524096 cpu:         0.0
 (Enter /Local/ce_dana/g09/l703.exe)
 Compute integral second derivatives, UseDBF=F ICtDFT=           0.
 Integral derivatives from FoFJK, PRISM(SPDF).
 ICntrl=  10100127.
 Calling FoFJK, ICntrl=  10100127 FMM=F ISym2X=1 I1Cent= 0 IOpClX= 0 NMat=1 NMatS=1 NMatT=0.
 FoFJK:  IHMeth= 1 ICntrl=10100127 DoSepK=F KAlg= 0 I1Cent=   0 FoldK=F
 IRaf=         0 NMat=   1 IRICut=       1 DoRegI=T DoRafI=F ISym2E= 1.
 FoFCou: FMM=F IPFlag=           0 FMFlag=      100000 FMFlg1=         800
         NFxFlg=           0 DoJE=F BraDBF=F KetDBF=F FulRan=T
         wScrn=  0.000000 ICntrl=10100127 IOpCl=  0 I1Cent=           0 NGrid=           0
         NMat0=    1 NMatS0=      1 NMatT0=    0 NMatD0=    1 NMtDS0=    0 NMtDT0=    0
 Petite list used in FoFCou.
 FoFCou:  KetSym=F NOpSet=  3 NOpAb=1 NOp=  3.
 FoFCou:  CnvScl= 1.00D+00 Thresh= 1.00D-12 IAcrcy=      10.
 PrismS was handed   939498095 working-precision words and   276 shell-pairs
 FoFCou: LinMIO=F DoNuc=F BraDBF=F KetDBF=F HaveP=T PDBF=F HaveZ=T HaveW=F
         NIJTC =      10 NIJTAt=       0 NIJTCD=       0 NIJTT =      10
         IJTBeg=       1 IJTEnd=      10 KLTBeg=       1 KLTEnd=      10
         IPTBeg=       1 IPTEnd=      10 IPTBCv=       1 IPTECv=      10
         IZTBeg=       1 IZTEnd=      10 IZTBCv=       1 IZTECv=      10
         IWTBeg=      11 IWTEnd=      10 IWTBCv=      11 IWTECv=      10
         INTBeg=       1 INTEnd=       0 IFTBCv=       1 IFTECv=      10
 NCel replicated for PrismC:     1
 CoulSu:  IncDef=  1024 NBBP=          38226 NTPThr=   100 NPartT=   10 Incr=          38 LDynOK=F.
 CoulSu:  NPrtUS=  10 ThrOK=T IAlg=1 NPAlg=1 LenDen=           0 LWGrdD=           0 DoCopy=F.
 Enter PrismC: JobTyp=22 DoJE=F Cont=F.
 PrismC:  IPart=     0 DynPar=F LinDyn=F Incr=          38 UseFst=F UseS4=T IGathr=2.
 Enter PrismC: JobTyp=22 DoJE=F Cont=F.
 PrismC was handed    93943706 working-precision words and   276 shell-pairs
 Enter PrismC: JobTyp=22 DoJE=F Cont=F.
 Enter PrismC: JobTyp=22 DoJE=F Cont=F.
 Enter PrismC: JobTyp=22 DoJE=F Cont=F.
 PrismC was handed    93943706 working-precision words and   276 shell-pairs
 Enter PrismC: JobTyp=22 DoJE=F Cont=F.
 Enter PrismC: JobTyp=22 DoJE=F Cont=F.
 PrismC was handed    93943706 working-precision words and   276 shell-pairs
 Enter PrismC: JobTyp=22 DoJE=F Cont=F.
 PrismC was handed    93943706 working-precision words and   276 shell-pairs
 PrismC was handed    93943706 working-precision words and   276 shell-pairs
 PrismC was handed    93943706 working-precision words and   276 shell-pairs
 Enter PrismC: JobTyp=22 DoJE=F Cont=F.
 PrismC was handed    93943706 working-precision words and   276 shell-pairs
 PrismC was handed    93943706 working-precision words and   276 shell-pairs
 PrismC was handed    93943706 working-precision words and   276 shell-pairs
 Enter PrismC: JobTyp=22 DoJE=F Cont=F.
 PrismC was handed    93943706 working-precision words and   276 shell-pairs
 IPart=  8 NShTot=        1308 NShNF=        1308 NShFF=           0 NBatch=         315 AvBLen=         4.2
 IPart=  0 NShTot=        1729 NShNF=        1729 NShFF=           0 NBatch=         570 AvBLen=         3.0
 IPart=  2 NShTot=        1556 NShNF=        1556 NShFF=           0 NBatch=         498 AvBLen=         3.1
 IPart=  9 NShTot=        1263 NShNF=        1263 NShFF=           0 NBatch=         283 AvBLen=         4.5
 IPart=  1 NShTot=        1611 NShNF=        1611 NShFF=           0 NBatch=         504 AvBLen=         3.2
 IPart=  6 NShTot=        1324 NShNF=        1324 NShFF=           0 NBatch=         316 AvBLen=         4.2
 IPart=  7 NShTot=        1305 NShNF=        1305 NShFF=           0 NBatch=         295 AvBLen=         4.4
 IPart=  3 NShTot=        1340 NShNF=        1340 NShFF=           0 NBatch=         334 AvBLen=         4.0
 IPart=  4 NShTot=        1390 NShNF=        1390 NShFF=           0 NBatch=         376 AvBLen=         3.7
 IPart=  5 NShTot=        1390 NShNF=        1390 NShFF=           0 NBatch=         367 AvBLen=         3.8
 CoulSu:  NxtVal=            381.
 ReadGW:  IGet=0 IStart=           1 Next=           1 LGW=           0.
 Remaining memory in FofDFT      896.00 Mw
 CkSvGd:  ISavGI=        -1 IRadAn=       5 IRASav=       5 ISavGd=        -1.
 CalDSu:  NPrtUS=  10 ThrOK=T IAlg=1 NPAlg=2 DoDPD=T LenP=        1485 LenD1P=             0.
 IPart=  0 IRanGd=          0 ScrnBf=T ScrnGd=T RCrit=4.00D+00 DoMicB=T.
 IPart=  3         4894 of         5212 points in       5 batches and       29 microbatches, Max-NSigAt=       4 Max-NSgAt2=       4
 IPart=  0         4069 of         4192 points in       3 batches and       26 microbatches, Max-NSigAt=       4 Max-NSgAt2=       4
 IPart=  8         3744 of         3940 points in       4 batches and       39 microbatches, Max-NSigAt=       4 Max-NSgAt2=       4
 IPart=  2         3372 of         3568 points in       4 batches and       21 microbatches, Max-NSigAt=       4 Max-NSgAt2=       4
 IPart=  4         3817 of         3898 points in       3 batches and       18 microbatches, Max-NSigAt=       4 Max-NSgAt2=       4
 IPart=  6         3849 of         4144 points in       4 batches and       25 microbatches, Max-NSigAt=       4 Max-NSgAt2=       4
 IPart=  9         4427 of         4748 points in       5 batches and       19 microbatches, Max-NSigAt=       4 Max-NSgAt2=       4
 IPart=  1         3978 of         4130 points in       4 batches and       15 microbatches, Max-NSigAt=       4 Max-NSgAt2=       4
 IPart=  7         4562 of         4804 points in       4 batches and       47 microbatches, Max-NSigAt=       4 Max-NSgAt2=       4
 IPart=  5         5000 of         5226 points in       4 batches and       33 microbatches, Max-NSigAt=       4 Max-NSgAt2=       4
 Polarizability after L703:
                1             2             3 
      1  0.108188D+02
      2  0.000000D+00  0.108188D+02
      3  0.000000D+00  0.858707D-05  0.951399D+01
 Dipole Derivatives after L703:
                 1             2             3             4             5 
      1  -0.385741D+00  0.000000D+00  0.000000D+00  0.174447D+00  0.000000D+00
      2   0.000000D+00 -0.385742D+00  0.164339D-05  0.000000D+00  0.827141D-01
      3   0.000000D+00  0.000000D+00 -0.629621D+00  0.000000D+00  0.943599D-01
                 6             7             8             9            10 
      1   0.000000D+00  0.105647D+00 -0.397215D-01 -0.127428D+00  0.105647D+00
      2   0.147140D+00 -0.397220D-01  0.151514D+00 -0.735710D-01  0.397221D-01
      3   0.209875D+00 -0.817186D-01 -0.471799D-01  0.209873D+00  0.817183D-01
                11            12 
      1   0.397215D-01  0.127428D+00
      2   0.151514D+00 -0.735710D-01
      3  -0.471803D-01  0.209873D+00
 Hessian after L703:
                1             2             3             4             5 
      1  0.651492D+00
      2  0.000000D+00  0.651492D+00
      3  0.000000D+00  0.000000D+00  0.209614D+00
      4 -0.612638D-01  0.000000D+00  0.000000D+00  0.598015D-01
      5  0.000000D+00 -0.373064D+00  0.116373D+00  0.000000D+00  0.407541D+00
      6  0.000000D+00  0.172028D+00 -0.698714D-01  0.000000D+00 -0.137300D+00
      7 -0.295114D+00 -0.135013D+00 -0.100782D+00  0.731098D-03  0.297989D-02
      8 -0.135013D+00 -0.139214D+00 -0.581871D-01 -0.341045D-01 -0.172386D-01
      9 -0.148980D+00 -0.860144D-01 -0.698713D-01  0.140096D-01  0.104632D-01
     10 -0.295114D+00  0.135014D+00  0.100783D+00  0.731134D-03 -0.297991D-02
     11  0.135014D+00 -0.139214D+00 -0.581861D-01  0.341045D-01 -0.172387D-01
     12  0.148981D+00 -0.860135D-01 -0.698713D-01 -0.140095D-01  0.104631D-01
                6             7             8             9            10 
      6  0.687155D-01
      7 -0.205658D-02  0.320607D+00
      8 -0.173641D-01  0.150576D+00  0.146736D+00
      9  0.577947D-03  0.118905D+00  0.686502D-01  0.687155D-01
     10  0.205660D-02 -0.262235D-01  0.185423D-01  0.160661D-01  0.320606D+00
     11 -0.173643D-01 -0.185422D-01  0.971599D-02  0.690102D-02 -0.150576D+00
     12  0.577947D-03 -0.160662D-01  0.690108D-02  0.577881D-03 -0.118905D+00
               11            12 
     11  0.146737D+00
     12  0.686494D-01  0.687155D-01
 Leave Link  703 at Sat Nov 12 21:56:38 2022, MaxMem=   939524096 cpu:        19.8
 (Enter /Local/ce_dana/g09/l716.exe)
 FrcOut:
 IF    =    38 IFX   =    50 IFXYZ =    62
 IFFX  =    74 IFFFX =   152 IFLen =    12
 IFFLen=    78 IFFFLn=     0 IEDerv=   152
 LEDerv=   629 IFroze=   939 ICStrt=  5892
 Dipole        =-5.11662621D-11 2.73913715D-11-6.64221930D-01
 DipoleDeriv   =-3.85741018D-01 1.42546906D-09-1.41505727D-09
                -3.14859089D-09-3.85741865D-01 3.04776543D-07
                -2.46237407D-10 1.64339457D-06-6.29621310D-01
                 1.74446824D-01-3.50472238D-08 2.66610079D-07
                -3.25531483D-08 8.27141017D-02 9.43599336D-02
                 3.20851960D-08 1.47140319D-01 2.09874533D-01
                 1.05647069D-01-3.97220164D-02-8.17186029D-02
                -3.97214938D-02 1.51513911D-01-4.71798888D-02
                -1.27428048D-01-7.35709533D-02 2.09873389D-01
                 1.05647126D-01 3.97220501D-02 8.17183377D-02
                 3.97215295D-02 1.51513852D-01-4.71803496D-02
                 1.27428016D-01-7.35710091D-02 2.09873388D-01
 Polarizability= 1.08188350D+01 8.15239817D-09 1.08188362D+01
                 7.66221707D-09 8.58707245D-06 9.51398533D+00
 VibFq2-Diag1:  N=     12 IV=           5 MDV=   939517456 NE2=    78293121
 Full mass-weighted force constant matrix:
 Low frequencies ---   -3.1120    0.0008    0.0014    0.0014    4.4973    4.6004
 Low frequencies --- 1042.0896 1683.6896 1683.6900
 OrtVCM:  Ph=1 IPass= 1 DotMx1= 0.00D+00
 OrtVCM:  IS=    1 I=    1 IndO=    1 Dot= 1.00D+00 DotN= 1.00D+00 ElMax1= 9.07D-01 ElMax1N= 9.07D-01
 OrtVCM:  Ph=2 NNew=    0 IAdd=    2 IPass= 1 DotMx2= 0.00D+00
 OrtVCM:  IS=    1 I=    2 IndO=    2 Dot= 1.00D+00 DotN= 1.00D+00 ElMax1= 9.07D-01 ElMax1N= 9.07D-01
 OrtVCM:  Ph=2 NNew=    0 IAdd=    3 IPass= 1 DotMx2= 0.00D+00
 OrtVCM:  IS=    1 I=    3 IndO=    3 Dot= 1.00D+00 DotN= 1.00D+00 ElMax1= 9.07D-01 ElMax1N= 9.07D-01
 OrtVCM:  Ph=2 NNew=    0 IAdd=    4 IPass= 1 DotMx2= 2.78D-17
 OrtVCM:  IS=    1 I=    4 IndO=    4 Dot= 1.00D+00 DotN= 1.00D+00 ElMax1= 6.89D-01 ElMax1N= 6.89D-01
 OrtVCM:  Ph=2 NNew=    0 IAdd=    5 IPass= 1 DotMx2= 1.39D-16
 OrtVCM:  IS=    1 I=    5 IndO=    5 Dot= 1.00D+00 DotN= 1.00D+00 ElMax1= 7.14D-01 ElMax1N= 7.14D-01
 OrtVCM:  Ph=2 NNew=    0 IAdd=    6 IPass= 1 DotMx2= 9.71D-17
 OrtVCM:  IS=    1 I=    6 IndO=    6 Dot= 1.00D+00 DotN= 1.00D+00 ElMax1= 5.77D-01 ElMax1N= 5.77D-01
 OrtVCM:  Ph=1 IPass= 1 DotMx1= 9.07D-01
 OrtVCM:  Ph=1 IPass= 2 DotMx1= 4.58D-16
 OrtVCM:  IS=    1 I=    1 IndO=    7 Dot= 1.41D-01 DotN= 1.41D-01 ElMax1= 1.75D-01 ElMax1N= 1.75D-01
 OrtVCM:  Ph=2 NNew=    0 IAdd=    2 IPass= 1 DotMx2= 2.08D-17
 OrtVCM:  IS=    1 I=    2 IndO=    8 Dot= 1.41D-01 DotN= 1.41D-01 ElMax1= 1.75D-01 ElMax1N= 1.75D-01
 OrtVCM:  Ph=2 NNew=    0 IAdd=    3 IPass= 1 DotMx2= 4.16D-17
 OrtVCM:  IS=    1 I=    3 IndO=    9 Dot= 1.78D-01 DotN= 1.78D-01 ElMax1= 2.21D-01 ElMax1N= 2.21D-01
 OrtVCM:  Ph=2 NNew=    0 IAdd=    4 IPass= 1 DotMx2= 4.67D-01
 OrtVCM:  Ph=2 NNew=    0 IAdd=    4 IPass= 2 DotMx2= 9.71D-17
 OrtVCM:  IS=    1 I=    4 IndO=   10 Dot= 3.33D-01 DotN= 3.33D-01 ElMax1= 3.33D-01 ElMax1N= 3.33D-01
 OrtVCM:  Ph=2 NNew=    0 IAdd=    5 IPass= 1 DotMx2= 4.67D-01
 OrtVCM:  Ph=2 NNew=    0 IAdd=    5 IPass= 2 DotMx2= 1.39D-16
 OrtVCM:  IS=    1 I=    5 IndO=   11 Dot= 6.67D-01 DotN= 6.67D-01 ElMax1= 6.67D-01 ElMax1N= 6.67D-01
 OrtVCM:  Ph=2 NNew=    0 IAdd=    6 IPass= 1 DotMx2= 5.24D-01
 OrtVCM:  Ph=2 NNew=    0 IAdd=    6 IPass= 2 DotMx2= 1.65D-16
 OrtVCM:  IS=    1 I=    6 IndO=    0 Dot= 5.52D-33 DotN= 5.52D-33 ElMax1= 5.63D-17 ElMax1N= 5.63D-17
 SchOr2:  IPass= 1 Test2A= 1.00D-01 IOff=     0 NDo=     6 NNew=     5
 OrtVCM:  Ph=1 IPass= 1 DotMx1= 4.67D-01
 OrtVCM:  Ph=1 IPass= 2 DotMx1= 1.12D-16
 OrtVCM:  IS=    1 I=    1 IndO=   12 Dot= 5.00D-01 DotN= 5.00D-01 ElMax1= 5.00D-01 ElMax1N= 5.00D-01
 SchOr2:  IPass= 1 Test2A= 1.00D-01 IOff=     6 NDo=     1 NNew=     1
 VibFq2-Diag2:  N=      6 IV=           5 MDV=   939517456 NE2=   156586242
 Dipole derivatives wrt mode   1: -7.60963D-08  2.40795D-05 -1.34390D+01
 Vibrational polarizability contributions from mode   1       0.0000000       0.0000000       4.4756299
 Vibrational hyperpolarizability contributions from mode   1      -0.0000000       0.0000000      -0.0000000
 Dipole derivatives wrt mode   2: -1.78002D-03 -4.65882D+00  1.14235D-05
 Vibrational polarizability contributions from mode   2       0.0000000       0.2060446       0.0000000
 Vibrational hyperpolarizability contributions from mode   2      -0.0000000      -0.0000000       0.0000000
 Dipole derivatives wrt mode   3:  4.65880D+00 -1.78005D-03 -1.99640D-07
 Vibrational polarizability contributions from mode   3       0.2060421       0.0000000       0.0000000
 Vibrational hyperpolarizability contributions from mode   3       0.0000000      -0.0000000      -0.0000000
 Dipole derivatives wrt mode   4:  3.72091D-08 -2.21759D-05 -8.07950D-01
 Vibrational polarizability contributions from mode   4       0.0000000       0.0000000       0.0014466
 Vibrational hyperpolarizability contributions from mode   4       0.0000000      -0.0000000      -0.0000000
 Dipole derivatives wrt mode   5: -2.16588D-03 -1.62590D+00  1.91857D-05
 Vibrational polarizability contributions from mode   5       0.0000000       0.0054472       0.0000000
 Vibrational hyperpolarizability contributions from mode   5      -0.0000000      -0.0000000       0.0000000
 Dipole derivatives wrt mode   6: -1.62590D+00  2.16584D-03 -2.40982D-08
 Vibrational polarizability contributions from mode   6       0.0054471       0.0000000       0.0000000
 Vibrational hyperpolarizability contributions from mode   6      -0.0000000       0.0000000      -0.0000000
 Diagonal vibrational polarizability:
        0.2114893       0.2114918       4.4770765
 NorSel:  MapVib=      1      2      3      4      5      6
 Harmonic frequencies (cm**-1), IR intensities (KM/Mole), Raman scattering
 activities (A**4/AMU), depolarization ratios for plane and unpolarized
 incident light, reduced masses (AMU), force constants (mDyne/A),
 and normal coordinates:
                      1                      2                      3
                      A                      E                      E
 Frequencies --   1042.0896              1683.6896              1683.6900
 Red. masses --      1.1826                 1.0673                 1.0673
 Frc consts  --      0.7566                 1.7826                 1.7826
 IR Inten    --    180.6056                21.7046                21.7044
  Atom  AN      X      Y      Z        X      Y      Z        X      Y      Z
     1   7     0.00   0.00   0.12     0.00   0.07  -0.00    -0.07   0.00   0.00
     2   1    -0.00  -0.20  -0.54    -0.00   0.14   0.25     0.76   0.00   0.00
     3   1     0.17   0.10  -0.54     0.39  -0.54  -0.12     0.09  -0.39   0.21
     4   1    -0.17   0.10  -0.54    -0.39  -0.54  -0.12     0.09   0.39  -0.22
                      4                      5                      6
                      A                      E                      E
 Frequencies --   3484.7895              3613.8934              3613.8939
 Red. masses --      1.0253                 1.0898                 1.0898
 Frc consts  --      7.3357                 8.3862                 8.3862
 IR Inten    --      0.6528                 2.6436                 2.6435
  Atom  AN      X      Y      Z        X      Y      Z        X      Y      Z
     1   7    -0.00  -0.00  -0.04     0.00   0.08  -0.00     0.08  -0.00  -0.00
     2   1     0.00  -0.55   0.17     0.00  -0.76   0.29     0.02   0.00  -0.00
     3   1     0.48   0.28   0.17    -0.34  -0.17  -0.15    -0.56  -0.34  -0.25
     4   1    -0.48   0.28   0.17     0.34  -0.17  -0.15    -0.56   0.34   0.25

 -------------------
 - Thermochemistry -
 -------------------
 Temperature   298.150 Kelvin.  Pressure   1.00000 Atm.
 Atom     1 has atomic number  7 and mass  14.00307
 Atom     2 has atomic number  1 and mass   1.00783
 Atom     3 has atomic number  1 and mass   1.00783
 Atom     4 has atomic number  1 and mass   1.00783
 Molecular mass:    17.02655 amu.
 Principal axes and moments of inertia in atomic units:
                           1         2         3
     Eigenvalues --     6.01485   6.01485   9.56222
           X           -0.19223   0.98135   0.00000
           Y            0.98135   0.19223   0.00000
           Z            0.00000   0.00000   1.00000
 This molecule is an oblate symmetric top.
 Rotational symmetry number  3.
 Rotational temperatures (Kelvin)     14.39999    14.39999     9.05792
 Rotational constants (GHZ):         300.04751   300.04751   188.73668
 Zero-point vibrational energy      90449.9 (Joules/Mol)
                                   21.61805 (Kcal/Mol)
 Vibrational temperatures:   1499.33  2422.45  2422.45  5013.83  5199.58
          (Kelvin)           5199.58
 
 Zero-point correction=                           0.034451 (Hartree/Particle)
 Thermal correction to Energy=                    0.037319
 Thermal correction to Enthalpy=                  0.038263
 Thermal correction to Gibbs Free Energy=         0.016426
 Sum of electronic and zero-point Energies=            -56.496912
 Sum of electronic and thermal Energies=               -56.494044
 Sum of electronic and thermal Enthalpies=             -56.493099
 Sum of electronic and thermal Free Energies=          -56.514936
 
                     E (Thermal)             CV                S
                      KCal/Mol        Cal/Mol-Kelvin    Cal/Mol-Kelvin
 Total                   23.418              6.373             45.959
 Electronic               0.000              0.000              0.000
 Translational            0.889              2.981             34.441
 Rotational               0.889              2.981             11.429
 Vibrational             21.641              0.411              0.090
                       Q            Log10(Q)             Ln(Q)
 Total Bot       0.278204D-07         -7.555637        -17.397498
 Total V=0       0.195202D+09          8.290484         19.089546
 Vib (Bot)       0.143545D-15        -15.843012        -36.479883
 Vib (V=0)       0.100719D+01          0.003110          0.007161
 Electronic      0.100000D+01          0.000000          0.000000
 Translational   0.276150D+07          6.441145         14.831285
 Rotational      0.701826D+02          1.846229          4.251100
 
                                                                 NH3
                                                             IR Spectrum
 
      3   3                                                              1                      1                                    
      6   4                                                              6                      0                                    
      1   8                                                              8                      4                                    
      4   5                                                              4                      2                                    
 
      X   X                                                              X                      X                                    
                                                                         X                      X                                    
                                                                         X                      X                                    
                                                                         X                      X                                    
                                                                         X                      X                                    
                                                                                                X                                    
                                                                                                X                                    
                                                                                                X                                    
                                                                                                X                                    
                                                                                                X                                    
                                                                                                X                                    
                                                                                                X                                    
                                                                                                X                                    
                                                                                                X                                    
                                                                                                X                                    
                                                                                                X                                    
                                                                                                X                                    
                                                                                                X                                    
                                                                                                X                                    
                                                                                                X                                    
 
 Forces in standard orientation:
 -------------------------------------------------------------------
 Center     Atomic                   Forces (Hartrees/Bohr)
 Number     Number              X              Y              Z
 -------------------------------------------------------------------
      1        7           0.000000001   -0.000000025    0.000001097
      2        1          -0.000000000   -0.000000368   -0.000000361
      3        1           0.000000203    0.000000197   -0.000000368
      4        1          -0.000000203    0.000000197   -0.000000368
 -------------------------------------------------------------------
 ***** Axes restored to original set *****
 Rotating derivatives, DoTrsp=F IDiff=-2 LEDeriv=    628 LFDPrp=       0 LDFDPr=       0.
 -------------------------------------------------------------------
 Center     Atomic                   Forces (Hartrees/Bohr)
 Number     Number              X              Y              Z
 -------------------------------------------------------------------
      1        7          -0.000000014    0.000000026   -0.000001097
      2        1          -0.000000163    0.000000329    0.000000363
      3        1          -0.000000093   -0.000000268    0.000000367
      4        1           0.000000270   -0.000000087    0.000000367
 -------------------------------------------------------------------
 Cartesian Forces:  Max     0.000001097 RMS     0.000000398
 Z-matrix is all fixed cartesians, so copy forces.
 Force constants in Cartesian coordinates: 
                1             2             3             4             5 
      1  0.651490D+00
      2  0.330167D-05  0.651487D+00
      3 -0.970822D-03  0.149067D-02  0.209621D+00
      4 -0.123138D+00  0.124652D+00 -0.511858D-01  0.128761D+00
      5  0.124626D+00 -0.312338D+00  0.103155D+00 -0.138924D+00  0.339674D+00
      6 -0.759219D-01  0.153011D+00 -0.687231D-01  0.604235D-01 -0.121773D+00
      7 -0.157159D+00 -0.143840D+00 -0.647130D-01  0.960364D-02  0.162971D-01
      8 -0.143634D+00 -0.276709D+00 -0.973000D-01 -0.208643D-01 -0.260778D-01
      9 -0.955208D-01 -0.143650D+00 -0.703315D-01  0.780926D-02  0.154739D-01
     10 -0.371193D+00  0.191843D-01  0.116870D+00 -0.152273D-01 -0.199913D-02
     11  0.190046D-01 -0.624396D-01 -0.734591D-02  0.351362D-01 -0.125787D-02
     12  0.172413D+00 -0.108518D-01 -0.705667D-01 -0.170469D-01  0.314437D-02
                6             7             8             9            10 
      6  0.676230D-01
      7  0.591045D-02  0.166693D+00
      8 -0.165130D-01  0.160306D+00  0.300212D+00
      9  0.544524D-03  0.763292D-01  0.114774D+00  0.691538D-01
     10  0.958796D-02 -0.191375D-01  0.419273D-02  0.113823D-01  0.405558D+00
     11 -0.147242D-01 -0.327630D-01  0.257461D-02  0.134014D-01 -0.213779D-01
     12  0.555612D-03 -0.175266D-01 -0.961290D-03  0.633209D-03 -0.137840D+00
               11            12 
     11  0.611228D-01
     12  0.866875D-02  0.693778D-01
 Final forces over variables, Energy=-5.65313625D+01:
 -1.42294847D-08-1.62826771D-07-9.34109714D-08 2.70467225D-07
  2.61253395D-08 3.28622036D-07-2.67572334D-07-8.71750429D-08
 -1.09715139D-06 3.62737412D-07 3.67351100D-07 3.67062878D-07
 Leave Link  716 at Sat Nov 12 21:56:38 2022, MaxMem=   939524096 cpu:         0.0
 (Enter /Local/ce_dana/g09/l103.exe)

 GradGradGradGradGradGradGradGradGradGradGradGradGradGradGradGradGradGrad
 Berny optimization.
 Search for a local minimum.
 Step number   1 out of a maximum of    2
 All quantities printed in internal units (Hartrees-Bohrs-Radians)
 Second derivative matrix not updated -- analytic derivatives used.
 The second derivative matrix:
                          X1        Y1        Z1        X2        Y2
           X1           0.65149
           Y1           0.00000   0.65149
           Z1          -0.00097   0.00149   0.20962
           X2          -0.12314   0.12465  -0.05119   0.12876
           Y2           0.12463  -0.31234   0.10316  -0.13892   0.33967
           Z2          -0.07592   0.15301  -0.06872   0.06042  -0.12177
           X3          -0.15716  -0.14384  -0.06471   0.00960   0.01630
           Y3          -0.14363  -0.27671  -0.09730  -0.02086  -0.02608
           Z3          -0.09552  -0.14365  -0.07033   0.00781   0.01547
           X4          -0.37119   0.01918   0.11687  -0.01523  -0.00200
           Y4           0.01900  -0.06244  -0.00735   0.03514  -0.00126
           Z4           0.17241  -0.01085  -0.07057  -0.01705   0.00314
                          Z2        X3        Y3        Z3        X4
           Z2           0.06762
           X3           0.00591   0.16669
           Y3          -0.01651   0.16031   0.30021
           Z3           0.00054   0.07633   0.11477   0.06915
           X4           0.00959  -0.01914   0.00419   0.01138   0.40556
           Y4          -0.01472  -0.03276   0.00257   0.01340  -0.02138
           Z4           0.00056  -0.01753  -0.00096   0.00063  -0.13784
                          Y4        Z4
           Y4           0.06112
           Z4           0.00867   0.06938
 ITU=  0
     Eigenvalues ---    0.09125   0.13698   0.13698   0.55108   0.88378
     Eigenvalues ---    0.88378
 Angle between quadratic step and forces=  25.26 degrees.
 ClnCor:  largest displacement from symmetrization is 7.39D-07 for atom     3.
 Linear search not attempted -- first point.
 ClnCor:  largest displacement from symmetrization is 2.43D-15 for atom     4.
 TrRot= -0.000000  0.000000 -0.000003  0.000000 -0.000000  0.000000
 Variable       Old X    -DE/DX   Delta X   Delta X   Delta X     New X
                                 (Linear)    (Quad)   (Total)
    X1        0.00116  -0.00000   0.00000  -0.00000  -0.00000   0.00116
    Y1       -0.00178   0.00000   0.00000   0.00000   0.00000  -0.00178
    Z1        0.52828  -0.00000   0.00000  -0.00001  -0.00001   0.52827
    X2       -0.79080  -0.00000   0.00000  -0.00000  -0.00000  -0.79080
    Y2        1.59366   0.00000   0.00000   0.00000   0.00000   1.59366
    Z2       -0.16899   0.00000   0.00000   0.00001   0.00000  -0.16899
    X3       -0.98483  -0.00000   0.00000  -0.00000  -0.00000  -0.98483
    Y3       -1.48046  -0.00000   0.00000  -0.00000  -0.00000  -1.48046
    Z3       -0.17893   0.00000   0.00000   0.00001   0.00000  -0.17893
    X4        1.77446   0.00000   0.00000   0.00000   0.00000   1.77447
    Y4       -0.11142  -0.00000   0.00000  -0.00000  -0.00000  -0.11142
    Z4       -0.18038   0.00000   0.00000   0.00001   0.00000  -0.18037
         Item               Value     Threshold  Converged?
 Maximum Force            0.000001     0.000450     YES
 RMS     Force            0.000000     0.000300     YES
 Maximum Displacement     0.000009     0.001800     YES
 RMS     Displacement     0.000004     0.001200     YES
 Predicted change in Energy=-8.378606D-12
 Optimization completed.
    -- Stationary point found.
 GradGradGradGradGradGradGradGradGradGradGradGradGradGradGradGradGradGrad

 Leave Link  103 at Sat Nov 12 21:56:38 2022, MaxMem=   939524096 cpu:         0.0
 (Enter /Local/ce_dana/g09/l9999.exe)

 Test job not archived.
 1\1\GINC-TECH-WN226\Freq\RB2PLYPD3-FC\def2TZVP\H3N1\ALONGD\12-Nov-2022
 \0\\#P guess=read b2plypd3/def2tzvp freq IOp(7/33=1) scf=(tight, direc
 t) integral=(grid=ultrafine, Acc2E=12) IOp(2/9=2000) scf=xqc\\NH3\\0,1
 \N,0.0006140853,-0.0009431456,0.2795539993\H,-0.418471,0.843329,-0.089
 425\H,-0.5211489874,-0.7834263105,-0.0946874458\H,0.9390053885,-0.0589
 596671,-0.0954514829\\Version=ES64L-G09RevD.01\State=1-A\HF=-56.458575
 2\MP2=-56.5313625\RMSD=8.286e-09\RMSF=3.981e-07\ZeroPoint=0.0344506\Th
 ermal=0.0373189\Dipole=-0.0014594,0.0022408,-0.6642165\DipoleDeriv=-0.
 3857424,0.0000022,-0.000536,0.0000021,-0.3857445,0.000823,-0.0005365,0
 .0008242,-0.6296173,0.1560905,0.036953,-0.0416958,0.0369283,0.1001068,
 0.0840764,-0.0651546,0.1313569,0.2108381,0.146044,-0.0423835,-0.052237
 4,-0.0421878,0.1115026,-0.0788237,-0.0814539,-0.1227805,0.2094878,0.08
 36079,0.0054283,0.0944692,0.0052574,0.1741351,-0.0060757,0.1471451,-0.
 0094006,0.2092914\Polar=10.8188289,0.0000092,10.8188211,-0.0028707,0.0
 044097,9.5140065\PG=C03 [C3(N1),X(H3)]\NImag=0\\0.65148970,0.00000330,
 0.65148676,-0.00097082,0.00149067,0.20962125,-0.12313774,0.12465249,-0
 .05118579,0.12876145,0.12462640,-0.31233846,0.10315520,-0.13892440,0.3
 3967409,-0.07592186,0.15301069,-0.06872310,0.06042345,-0.12177349,0.06
 762296,-0.15715897,-0.14384005,-0.06471299,0.00960364,0.01629713,0.005
 91045,0.16669279,-0.14363436,-0.27670873,-0.09729995,-0.02086429,-0.02
 607777,-0.01651296,0.16030591,0.30021189,-0.09552080,-0.14364953,-0.07
 033151,0.00780926,0.01547392,0.00054452,0.07632919,0.11477420,0.069153
 77,-0.37119299,0.01918426,0.11686960,-0.01522735,-0.00199913,0.0095879
 6,-0.01913745,0.00419273,0.01138235,0.40555779,0.01900465,-0.06243957,
 -0.00734591,0.03513620,-0.00125787,-0.01472425,-0.03276299,0.00257461,
 0.01340141,-0.02137786,0.06112282,0.17241348,-0.01085183,-0.07056665,-
 0.01704692,0.00314437,0.00055561,-0.01752665,-0.00096129,0.00063321,-0
 .13783991,0.00866875,0.06937783\\0.00000001,-0.00000003,0.00000110,0.0
 0000016,-0.00000033,-0.00000036,0.00000009,0.00000027,-0.00000037,-0.0
 0000027,0.00000009,-0.00000037\\\@


 ... THIS SEEMS PLAINLY ABSURD; BUT WHOEVER WISHES TO BECOME A 
 PHILOSOPHER MUST LEARN NOT TO BE FRIGHTENED BY ABSURDITIES.

                          -- BERTRAND RUSSELL
 Job cpu time:       0 days  0 hours  1 minutes 56.9 seconds.
 File lengths (MBytes):  RWF=     51 Int=      0 D2E=      0 Chk=      1 Scr=      1
 Normal termination of Gaussian 09 at Sat Nov 12 21:56:38 2022.
