 Entering Gaussian System, Link 0=g03
 Input=ethyl_scan_72.com
 Output=ethyl_scan_72.log
 Initial command:
 /home/g03/l1.exe /scratch/cfgold/Gau-12810.inp -scrdir=/scratch/cfgold/
 Entering Link 1 = /home/g03/l1.exe PID=     12812.
  
 Copyright (c) 1988,1990,1992,1993,1995,1998,2003,2004, Gaussian, Inc.
                  All Rights Reserved.
  
 This is the Gaussian(R) 03 program.  It is based on the
 the Gaussian(R) 98 system (copyright 1998, Gaussian, Inc.),
 the Gaussian(R) 94 system (copyright 1995, Gaussian, Inc.),
 the Gaussian 92(TM) system (copyright 1992, Gaussian, Inc.),
 the Gaussian 90(TM) system (copyright 1990, Gaussian, Inc.),
 the Gaussian 88(TM) system (copyright 1988, Gaussian, Inc.),
 the Gaussian 86(TM) system (copyright 1986, Carnegie Mellon
 University), and the Gaussian 82(TM) system (copyright 1983,
 Carnegie Mellon University). Gaussian is a federally registered
 trademark of Gaussian, Inc.
  
 This software contains proprietary and confidential information,
 including trade secrets, belonging to Gaussian, Inc.
  
 This software is provided under written license and may be
 used, copied, transmitted, or stored only in accord with that
 written license.
  
 The following legend is applicable only to US Government
 contracts under FAR:
  
                    RESTRICTED RIGHTS LEGEND
  
 Use, reproduction and disclosure by the US Government is
 subject to restrictions as set forth in subparagraphs (a)
 and (c) of the Commercial Computer Software - Restricted
 Rights clause in FAR 52.227-19.
  
 Gaussian, Inc.
 340 Quinnipiac St., Bldg. 40, Wallingford CT 06492
  
  
 ---------------------------------------------------------------
 Warning -- This program may not be used in any manner that
 competes with the business of Gaussian, Inc. or will provide
 assistance to any competitor of Gaussian, Inc.  The licensee
 of this program is prohibited from giving any competitor of
 Gaussian, Inc. access to this program.  By using this program,
 the user acknowledges that Gaussian, Inc. is engaged in the
 business of creating and licensing software in the field of
 computational chemistry and represents and warrants to the
 licensee that it is not a competitor of Gaussian, Inc. and that
 it will not use this program in any manner prohibited above.
 ---------------------------------------------------------------
  

 Cite this work as:
 Gaussian 03, Revision D.01,
 M. J. Frisch, G. W. Trucks, H. B. Schlegel, G. E. Scuseria, 
 M. A. Robb, J. R. Cheeseman, J. A. Montgomery, Jr., T. Vreven, 
 K. N. Kudin, J. C. Burant, J. M. Millam, S. S. Iyengar, J. Tomasi, 
 V. Barone, B. Mennucci, M. Cossi, G. Scalmani, N. Rega, 
 G. A. Petersson, H. Nakatsuji, M. Hada, M. Ehara, K. Toyota, 
 R. Fukuda, J. Hasegawa, M. Ishida, T. Nakajima, Y. Honda, O. Kitao, 
 H. Nakai, M. Klene, X. Li, J. E. Knox, H. P. Hratchian, J. B. Cross, 
 V. Bakken, C. Adamo, J. Jaramillo, R. Gomperts, R. E. Stratmann, 
 O. Yazyev, A. J. Austin, R. Cammi, C. Pomelli, J. W. Ochterski, 
 P. Y. Ayala, K. Morokuma, G. A. Voth, P. Salvador, J. J. Dannenberg, 
 V. G. Zakrzewski, S. Dapprich, A. D. Daniels, M. C. Strain, 
 O. Farkas, D. K. Malick, A. D. Rabuck, K. Raghavachari, 
 J. B. Foresman, J. V. Ortiz, Q. Cui, A. G. Baboul, S. Clifford, 
 J. Cioslowski, B. B. Stefanov, G. Liu, A. Liashenko, P. Piskorz, 
 I. Komaromi, R. L. Martin, D. J. Fox, T. Keith, M. A. Al-Laham, 
 C. Y. Peng, A. Nanayakkara, M. Challacombe, P. M. W. Gill, 
 B. Johnson, W. Chen, M. W. Wong, C. Gonzalez, and J. A. Pople, 
 Gaussian, Inc., Wallingford CT, 2004.
 
 ******************************************
 Gaussian 03:  AM64L-G03RevD.01 13-Oct-2005
                 9-Mar-2010 
 ******************************************
 %chk=ethyl_scan_1.chk
 %mem=900MB
 %nproc=8
 Will use up to    8 processors via shared memory.
 ---------------------------------------------------------------
 # opt=(calcfc,modredundant) freq ub3lyp/6-31+g(d,p) scfcyc=9000
 ---------------------------------------------------------------
 1/10=4,14=-1,18=120,26=3,38=1/1,3;
 2/9=110,17=6,18=5,40=1/2;
 3/5=1,6=6,7=111,11=2,16=1,25=1,30=1,74=-5/1,2,3;
 4/7=2/1;
 5/5=2,7=9000,38=5/2;
 8/6=4,10=90,11=11/1;
 11/6=1,8=1,9=11,15=111,16=1/1,2,10;
 10/6=1,7=6/2;
 6/7=2,8=2,9=2,10=2,28=1/1;
 7/10=1,18=20,25=1/1,2,3,16;
 1/10=4,14=-1,18=20/3(3);
 2/9=110/2;
 6/7=2,8=2,9=2,10=2,19=2,28=1/1;
 99//99;
 2/9=110/2;
 3/5=1,6=6,7=111,11=2,16=1,25=1,30=1,74=-5/1,2,3;
 4/5=5,7=2,16=3/1;
 5/5=2,7=9000,38=5/2;
 7//1,2,3,16;
 1/14=-1,18=20/3(-5);
 2/9=110/2;
 6/7=2,8=2,9=2,10=2,19=2,28=1/1;
 99/9=1/99;
 -------------------
 Title Card Required
 -------------------
 Symbolic Z-matrix:
 Charge =  0 Multiplicity = 2
 C
 C                    1    B1
 H                    1    B2       2    A1
 H                    1    B3       2    A2       3    D1       0
 H                    2    B4       1    A3       3    D2       0
 H                    2    B5       1    A4       3    D3       0
 H                    2    B6       1    A5       3    D4       0
       Variables:
  B1                    1.48754                  
  B2                    1.08307                  
  B3                    1.08308                  
  B4                    1.09429                  
  B5                    1.10267                  
  B6                    1.09423                  
  A1                  120.98594                  
  A2                  120.97692                  
  A3                  111.86913                  
  A4                  111.81741                  
  A5                  111.8702                   
  D1                  172.09655                  
  D2                  154.55385                  
  D3                  -86.26931                  
  D4                   32.92527                  
 
 The following ModRedundant input section has been read:
 D    3    1    2    5 S  72 5.0000                                            

 GradGradGradGradGradGradGradGradGradGradGradGradGradGradGradGradGradGrad
 Berny optimization.
 Initialization pass.
                           ----------------------------
                           !    Initial Parameters    !
                           ! (Angstroms and Degrees)  !
 --------------------------                            --------------------------
 ! Name  Definition              Value          Derivative Info.                !
 --------------------------------------------------------------------------------
 ! R1    R(1,2)                  1.4875         calculate D2E/DX2 analytically  !
 ! R2    R(1,3)                  1.0831         calculate D2E/DX2 analytically  !
 ! R3    R(1,4)                  1.0831         calculate D2E/DX2 analytically  !
 ! R4    R(2,5)                  1.0943         calculate D2E/DX2 analytically  !
 ! R5    R(2,6)                  1.1027         calculate D2E/DX2 analytically  !
 ! R6    R(2,7)                  1.0942         calculate D2E/DX2 analytically  !
 ! A1    A(2,1,3)              120.9859         calculate D2E/DX2 analytically  !
 ! A2    A(2,1,4)              120.9769         calculate D2E/DX2 analytically  !
 ! A3    A(3,1,4)              117.5849         calculate D2E/DX2 analytically  !
 ! A4    A(1,2,5)              111.8691         calculate D2E/DX2 analytically  !
 ! A5    A(1,2,6)              111.8174         calculate D2E/DX2 analytically  !
 ! A6    A(1,2,7)              111.8702         calculate D2E/DX2 analytically  !
 ! A7    A(5,2,6)              106.3547         calculate D2E/DX2 analytically  !
 ! A8    A(5,2,7)              108.2337         calculate D2E/DX2 analytically  !
 ! A9    A(6,2,7)              106.3681         calculate D2E/DX2 analytically  !
 ! D1    D(3,1,2,5)            154.5539         Scan                            !
 ! D2    D(3,1,2,6)            -86.2693         calculate D2E/DX2 analytically  !
 ! D3    D(3,1,2,7)             32.9253         calculate D2E/DX2 analytically  !
 ! D4    D(4,1,2,5)            -33.3496         calculate D2E/DX2 analytically  !
 ! D5    D(4,1,2,6)             85.8272         calculate D2E/DX2 analytically  !
 ! D6    D(4,1,2,7)           -154.9782         calculate D2E/DX2 analytically  !
 --------------------------------------------------------------------------------
 Trust Radius=3.00D-01 FncErr=1.00D-07 GrdErr=1.00D-06
 Number of optimizations in scan=  73
 Number of steps in this run=  31 maximum allowed number of steps= 100.
 GradGradGradGradGradGradGradGradGradGradGradGradGradGradGradGradGradGrad

                          Input orientation:                          
 ---------------------------------------------------------------------
 Center     Atomic     Atomic              Coordinates (Angstroms)
 Number     Number      Type              X           Y           Z
 ---------------------------------------------------------------------
    1          6             0        0.000000    0.000000    0.000000
    2          6             0        0.000000    0.000000    1.487537
    3          1             0        0.928512    0.000000   -0.557597
    4          1             0       -0.919783   -0.127687   -0.557452
    5          1             0       -0.917022    0.436340    1.895146
    6          1             0        0.066608   -1.021517    1.897343
    7          1             0        0.852372    0.551958    1.895144
 ---------------------------------------------------------------------
                    Distance matrix (angstroms):
                    1          2          3          4          5
     1  C    0.000000
     2  C    1.487537   0.000000
     3  H    1.083074   2.246043   0.000000
     4  H    1.083078   2.245949   1.852701   0.000000
     5  H    2.150094   1.094289   3.100377   2.516620   0.000000
     6  H    2.155886   1.102667   2.795194   2.792476   1.758659
     7  H    2.150062   1.094230   2.515231   3.101238   1.773168
                    6          7
     6  H    0.000000
     7  H    1.758765   0.000000
 Stoichiometry    C2H5(2)
 Framework group  C1[X(C2H5)]
 Deg. of freedom    15
 Full point group                 C1
 Largest Abelian subgroup         C1      NOp   1
 Largest concise Abelian subgroup C1      NOp   1
                         Standard orientation:                         
 ---------------------------------------------------------------------
 Center     Atomic     Atomic              Coordinates (Angstroms)
 Number     Number      Type              X           Y           Z
 ---------------------------------------------------------------------
    1          6             0        0.793840   -0.000004   -0.018056
    2          6             0       -0.693611    0.000051   -0.001999
    3          1             0        1.352129    0.926280    0.039908
    4          1             0        1.351917   -0.926420    0.039921
    5          1             0       -1.106609   -0.884707   -0.496068
    6          1             0       -1.092343   -0.003881    1.026044
    7          1             0       -1.106470    0.888449   -0.489476
 ---------------------------------------------------------------------
 Rotational constants (GHZ):    103.7545797     22.7286400     21.0640246
 Standard basis: 6-31+G(d,p) (6D, 7F)
 There are    63 symmetry adapted basis functions of A   symmetry.
 Integral buffers will be    131072 words long.
 Raffenetti 2 integral format.
 Two-electron integral symmetry is turned on.
    63 basis functions,    99 primitive gaussians,    63 cartesian basis functions
     9 alpha electrons        8 beta electrons
       nuclear repulsion energy        36.9323990245 Hartrees.
 NAtoms=    7 NActive=    7 NUniq=    7 SFac= 7.50D-01 NAtFMM=   80 NAOKFM=F Big=F
 One-electron integrals computed using PRISM.
 NBasis=    63 RedAO= T  NBF=    63
 NBsUse=    63 1.00D-06 NBFU=    63
 Harris functional with IExCor=  402 diagonalized for initial guess.
 ExpMin= 4.38D-02 ExpMax= 3.05D+03 ExpMxC= 4.57D+02 IAcc=2 IRadAn=         4 AccDes= 0.00D+00
 HarFok:  IExCor= 402 AccDes= 0.00D+00 IRadAn=         4 IDoV=1
 ScaDFX=  1.000000  1.000000  1.000000  1.000000
 Initial guess orbital symmetries:
 Alpha Orbitals:
       Occupied  (A) (A) (A) (A) (A) (A) (A) (A) (A)
       Virtual   (A) (A) (A) (A) (A) (A) (A) (A) (A) (A) (A) (A)
                 (A) (A) (A) (A) (A) (A) (A) (A) (A) (A) (A) (A)
                 (A) (A) (A) (A) (A) (A) (A) (A) (A) (A) (A) (A)
                 (A) (A) (A) (A) (A) (A) (A) (A) (A) (A) (A) (A)
                 (A) (A) (A) (A) (A) (A)
 Beta  Orbitals:
       Occupied  (A) (A) (A) (A) (A) (A) (A) (A)
       Virtual   (A) (A) (A) (A) (A) (A) (A) (A) (A) (A) (A) (A)
                 (A) (A) (A) (A) (A) (A) (A) (A) (A) (A) (A) (A)
                 (A) (A) (A) (A) (A) (A) (A) (A) (A) (A) (A) (A)
                 (A) (A) (A) (A) (A) (A) (A) (A) (A) (A) (A) (A)
                 (A) (A) (A) (A) (A) (A) (A)
 The electronic state of the initial guess is 2-A.
 <S**2> of initial guess= 0.7500
 Requested convergence on RMS density matrix=1.00D-08 within9000 cycles.
 Requested convergence on MAX density matrix=1.00D-06.
 Requested convergence on             energy=1.00D-06.
 No special actions if energy rises.
 Keep R1 and R2 integrals in memory in canonical form, NReq=    86886702.
 SCF Done:  E(UB+HF-LYP) =  -79.1700865801     A.U. after   12 cycles
             Convg  =    0.3230D-08             -V/T =  2.0106
             S**2   =   0.7538
 Annihilation of the first spin contaminant:
 S**2 before annihilation     0.7538,   after     0.7500
 Range of M.O.s used for correlation:     1    63
 NBasis=    63 NAE=     9 NBE=     8 NFC=     0 NFV=     0
 NROrb=     63 NOA=     9 NOB=     8 NVA=    54 NVB=    55

 **** Warning!!: The largest alpha MO coefficient is  0.26832563D+02


 **** Warning!!: The largest beta MO coefficient is  0.26857645D+02

 Symmetrizing basis deriv contribution to polar:
 IMax=3 JMax=2 DiffMx= 0.00D+00
 G2DrvN: will do    8 centers at a time, making    1 passes doing MaxLOS=2.
 FoFDir/FoFCou used for L=0 through L=2.
 DoAtom=TTTTTTT
          Differentiating once with respect to electric field.
                with respect to dipole field.
          Differentiating once with respect to nuclear coordinates.
          Store integrals in memory, NReq=     4888399.
          There are  24 degrees of freedom in the 1st order CPHF.
    21 vectors were produced by pass  0.
 AX will form  21 AO Fock derivatives at one time.
    21 vectors were produced by pass  1.
    21 vectors were produced by pass  2.
    21 vectors were produced by pass  3.
    14 vectors were produced by pass  4.
     4 vectors were produced by pass  5.
     1 vectors were produced by pass  6.
 Inv2:  IOpt= 1 Iter= 1 AM= 1.07D-15 Conv= 1.00D-12.
 Inverted reduced A of dimension  103 with in-core refinement.
 Isotropic polarizability for W=    0.000000       24.65 Bohr**3.
 End of Minotr Frequency-dependent properties file   721 does not exist.

 **********************************************************************

            Population analysis using the SCF density.

 **********************************************************************

 Orbital symmetries:
 Alpha Orbitals:
       Occupied  (A) (A) (A) (A) (A) (A) (A) (A) (A)
       Virtual   (A) (A) (A) (A) (A) (A) (A) (A) (A) (A) (A) (A)
                 (A) (A) (A) (A) (A) (A) (A) (A) (A) (A) (A) (A)
                 (A) (A) (A) (A) (A) (A) (A) (A) (A) (A) (A) (A)
                 (A) (A) (A) (A) (A) (A) (A) (A) (A) (A) (A) (A)
                 (A) (A) (A) (A) (A) (A)
 Beta  Orbitals:
       Occupied  (A) (A) (A) (A) (A) (A) (A) (A)
       Virtual   (A) (A) (A) (A) (A) (A) (A) (A) (A) (A) (A) (A)
                 (A) (A) (A) (A) (A) (A) (A) (A) (A) (A) (A) (A)
                 (A) (A) (A) (A) (A) (A) (A) (A) (A) (A) (A) (A)
                 (A) (A) (A) (A) (A) (A) (A) (A) (A) (A) (A) (A)
                 (A) (A) (A) (A) (A) (A) (A)
 The electronic state is 2-A.
 Alpha  occ. eigenvalues --  -10.19672 -10.18695  -0.76020  -0.61255  -0.45414
 Alpha  occ. eigenvalues --   -0.41651  -0.39559  -0.36125  -0.20499
 Alpha virt. eigenvalues --    0.01904   0.03031   0.05117   0.05877   0.08273
 Alpha virt. eigenvalues --    0.08725   0.09844   0.14889   0.17739   0.17848
 Alpha virt. eigenvalues --    0.22642   0.27301   0.27320   0.30825   0.60836
 Alpha virt. eigenvalues --    0.63445   0.65688   0.68033   0.68995   0.72305
 Alpha virt. eigenvalues --    0.88672   0.90666   0.90801   0.97805   1.01257
 Alpha virt. eigenvalues --    1.08288   1.29489   1.31717   1.43892   1.55834
 Alpha virt. eigenvalues --    1.80858   1.87845   1.96220   1.96307   2.04158
 Alpha virt. eigenvalues --    2.11425   2.11619   2.23030   2.32446   2.40111
 Alpha virt. eigenvalues --    2.50196   2.52204   2.61137   2.68816   2.83825
 Alpha virt. eigenvalues --    2.84630   2.90031   3.21950   3.29219   3.41498
 Alpha virt. eigenvalues --    3.46435   3.52301   4.25732   4.52888
  Beta  occ. eigenvalues --  -10.18777 -10.18322  -0.74367  -0.58873  -0.44773
  Beta  occ. eigenvalues --   -0.40169  -0.38759  -0.35676
  Beta virt. eigenvalues --   -0.05709   0.02020   0.03264   0.05126   0.06223
  Beta virt. eigenvalues --    0.08243   0.08709   0.11301   0.15121   0.17957
  Beta virt. eigenvalues --    0.18956   0.24176   0.27752   0.28181   0.31214
  Beta virt. eigenvalues --    0.61325   0.63704   0.67028   0.69775   0.72906
  Beta virt. eigenvalues --    0.73481   0.90476   0.91042   0.91469   0.99390
  Beta virt. eigenvalues --    1.01422   1.08801   1.30555   1.33405   1.48159
  Beta virt. eigenvalues --    1.55964   1.83744   1.89204   1.96492   2.01206
  Beta virt. eigenvalues --    2.04768   2.11786   2.12343   2.23163   2.33172
  Beta virt. eigenvalues --    2.41743   2.51764   2.54415   2.62566   2.69168
  Beta virt. eigenvalues --    2.84450   2.85141   2.90454   3.22453   3.29906
  Beta virt. eigenvalues --    3.41765   3.47112   3.52945   4.28063   4.53887
          Condensed to atoms (all electrons):
              1          2          3          4          5          6
     1  C    5.326303   0.283100   0.386408   0.386288  -0.054168  -0.053550
     2  C    0.283100   5.084876  -0.026912  -0.026847   0.411632   0.389838
     3  H    0.386408  -0.026912   0.533431  -0.031645   0.003587   0.000291
     4  H    0.386288  -0.026847  -0.031645   0.533526  -0.005432   0.000251
     5  H   -0.054168   0.411632   0.003587  -0.005432   0.549542  -0.032883
     6  H   -0.053550   0.389838   0.000291   0.000251  -0.032883   0.569756
     7  H   -0.054064   0.411677  -0.005473   0.003593  -0.026305  -0.032819
              7
     1  C   -0.054064
     2  C    0.411677
     3  H   -0.005473
     4  H    0.003593
     5  H   -0.026305
     6  H   -0.032819
     7  H    0.549432
 Mulliken atomic charges:
              1
     1  C   -0.220317
     2  C   -0.527364
     3  H    0.140313
     4  H    0.140266
     5  H    0.154025
     6  H    0.159116
     7  H    0.153961
 Sum of Mulliken charges=   0.00000
 Atomic charges with hydrogens summed into heavy atoms:
              1
     1  C    0.060261
     2  C   -0.060261
     3  H    0.000000
     4  H    0.000000
     5  H    0.000000
     6  H    0.000000
     7  H    0.000000
 Sum of Mulliken charges=   0.00000
          Atomic-Atomic Spin Densities.
              1          2          3          4          5          6
     1  C    1.296642  -0.106589   0.004931   0.004952  -0.013764  -0.038209
     2  C   -0.106589  -0.051660  -0.009340  -0.009359   0.011475   0.019867
     3  H    0.004931  -0.009340  -0.046261   0.000969   0.000019  -0.000300
     4  H    0.004952  -0.009359   0.000969  -0.046248   0.000745  -0.000299
     5  H   -0.013764   0.011475   0.000019   0.000745   0.024942  -0.011954
     6  H   -0.038209   0.019867  -0.000300  -0.000299  -0.011954   0.108977
     7  H   -0.013481   0.011292   0.000744   0.000017   0.004732  -0.011798
              7
     1  C   -0.013481
     2  C    0.011292
     3  H    0.000744
     4  H    0.000017
     5  H    0.004732
     6  H   -0.011798
     7  H    0.024308
 Mulliken atomic spin densities:
              1
     1  C    1.134483
     2  C   -0.134314
     3  H   -0.049238
     4  H   -0.049223
     5  H    0.016195
     6  H    0.066284
     7  H    0.015814
 Sum of Mulliken spin densities=   1.00000
 APT atomic charges:
              1
     1  C   -0.062289
     2  C    0.066173
     3  H    0.019876
     4  H    0.019746
     5  H   -0.013108
     6  H   -0.017268
     7  H   -0.013130
 Sum of APT charges=   0.00000
 APT Atomic charges with hydrogens summed into heavy atoms:
              1
     1  C   -0.022667
     2  C    0.022667
     3  H    0.000000
     4  H    0.000000
     5  H    0.000000
     6  H    0.000000
     7  H    0.000000
 Sum of APT charges=   0.00000
 Electronic spatial extent (au):  <R**2>=    99.8527
 Charge=     0.0000 electrons
 Dipole moment (field-independent basis, Debye):
    X=    -0.3220    Y=    -0.0003    Z=     0.1449  Tot=     0.3531
 Quadrupole moment (field-independent basis, Debye-Ang):
   XX=   -14.6005   YY=   -13.7805   ZZ=   -15.6356
   XY=     0.0003   XZ=     0.1645   YZ=     0.0001
 Traceless Quadrupole moment (field-independent basis, Debye-Ang):
   XX=     0.0717   YY=     0.8917   ZZ=    -0.9634
   XY=     0.0003   XZ=     0.1645   YZ=     0.0001
 Octapole moment (field-independent basis, Debye-Ang**2):
  XXX=    -0.4198  YYY=     0.0060  ZZZ=     0.8337  XYY=     0.3692
  XXY=     0.0005  XXZ=     0.2424  XZZ=    -1.9918  YZZ=    -0.0063
  YYZ=    -0.4240  XYZ=    -0.0002
 Hexadecapole moment (field-independent basis, Debye-Ang**3):
 XXXX=   -90.3853 YYYY=   -30.0374 ZZZZ=   -27.4535 XXXY=     0.0008
 XXXZ=     0.6101 YYYX=    -0.0074 YYYZ=     0.0003 ZZZX=    -0.2519
 ZZZY=    -0.0001 XXYY=   -18.0466 XXZZ=   -20.7623 YYZZ=    -9.9207
 XXYZ=     0.0004 YYXZ=     0.8431 ZZXY=     0.0072
 N-N= 3.693239902450D+01 E-N=-2.562851194967D+02  KE= 7.834286061242D+01
  Exact polarizability:  28.191   0.005  23.057  -0.558   0.000  22.707
 Approx polarizability:  32.321   0.008  29.150  -0.749   0.000  27.575
                          Isotropic Fermi Contact Couplings
        Atom                 a.u.       MegaHertz       Gauss      10(-4) cm-1
     1  C(13)              0.10767     121.04627      43.19232      40.37669
     2  C(13)             -0.02677     -30.09807     -10.73974     -10.03964
     3  H(1)              -0.01450     -64.82814     -23.13229     -21.62434
     4  H(1)              -0.01450     -64.80711     -23.12479     -21.61732
     5  H(1)               0.00845      37.78790      13.48366      12.60469
     6  H(1)               0.03380     151.08933      53.91243      50.39798
     7  H(1)               0.00825      36.87024      13.15622      12.29859
 --------------------------------------------------------
       Center         ----  Spin Dipole Couplings  ----
                      3XX-RR        3YY-RR        3ZZ-RR
 --------------------------------------------------------
     1   Atom       -0.524421     -0.518940      1.043361
     2   Atom        0.013279     -0.019646      0.006368
     3   Atom       -0.034484      0.034429      0.000056
     4   Atom       -0.034511      0.034464      0.000047
     5   Atom        0.011817     -0.003720     -0.008097
     6   Atom        0.011954     -0.011342     -0.000612
     7   Atom        0.011799     -0.003706     -0.008092
 --------------------------------------------------------
                        XY            XZ            YZ
 --------------------------------------------------------
     1   Atom       -0.000002     -0.047126      0.000005
     2   Atom        0.000002     -0.003125      0.000010
     3   Atom        0.062173      0.001007      0.005624
     4   Atom       -0.062150      0.001007     -0.005625
     5   Atom        0.009885      0.003559      0.001546
     6   Atom        0.000044     -0.009739     -0.000051
     7   Atom       -0.009909      0.003494     -0.001502
 --------------------------------------------------------


 ---------------------------------------------------------------------------------
              Anisotropic Spin Dipole Couplings in Principal Axis System
 ---------------------------------------------------------------------------------

       Atom             a.u.   MegaHertz   Gauss  10(-4) cm-1        Axes

              Baa    -0.5258   -70.562   -25.178   -23.537  0.9995  0.0002  0.0300
     1 C(13)  Bbb    -0.5189   -69.637   -24.848   -23.228 -0.0002  1.0000  0.0000
              Bcc     1.0448   140.199    50.026    46.765 -0.0300  0.0000  0.9995
 
              Baa    -0.0196    -2.636    -0.941    -0.879 -0.0001  1.0000 -0.0004
     2 C(13)  Bbb     0.0052     0.693     0.247     0.231  0.3594  0.0004  0.9332
              Bcc     0.0145     1.943     0.693     0.648  0.9332 -0.0001 -0.3594
 
              Baa    -0.0712   -37.971   -13.549   -12.666  0.8607 -0.5083  0.0280
     3 H(1)   Bbb    -0.0003    -0.155    -0.055    -0.052 -0.0621 -0.0503  0.9968
              Bcc     0.0715    38.126    13.604    12.717  0.5052  0.8597  0.0749
 
              Baa    -0.0712   -37.966   -13.547   -12.664  0.8609  0.5081  0.0280
     4 H(1)   Bbb    -0.0003    -0.160    -0.057    -0.053 -0.0621  0.0503  0.9968
              Bcc     0.0715    38.126    13.604    12.717 -0.5050  0.8599 -0.0748
 
              Baa    -0.0088    -4.690    -1.674    -1.565 -0.3440  0.4137  0.8429
     5 H(1)   Bbb    -0.0084    -4.495    -1.604    -1.499 -0.3008  0.8019 -0.5163
              Bcc     0.0172     9.185     3.277     3.064  0.8895  0.4312  0.1514
 
              Baa    -0.0113    -6.052    -2.159    -2.019  0.0001  1.0000  0.0049
     6 H(1)   Bbb    -0.0059    -3.158    -1.127    -1.053  0.4785 -0.0044  0.8781
              Bcc     0.0173     9.210     3.286     3.072  0.8781  0.0022 -0.4785
 
              Baa    -0.0088    -4.689    -1.673    -1.564 -0.3612 -0.4655  0.8080
     7 H(1)   Bbb    -0.0084    -4.487    -1.601    -1.497  0.2802  0.7723  0.5701
              Bcc     0.0172     9.176     3.274     3.061  0.8894 -0.4323  0.1485
 

 ---------------------------------------------------------------------------------

 ***** Axes restored to original set *****
 -------------------------------------------------------------------
 Center     Atomic                   Forces (Hartrees/Bohr)
 Number     Number              X              Y              Z
 -------------------------------------------------------------------
    1          6          -0.000016540    0.000363195   -0.000075006
    2          6           0.000029758   -0.000416116    0.000278589
    3          1           0.001279587   -0.000026091   -0.000835802
    4          1          -0.001270838   -0.000198736   -0.000835570
    5          1          -0.001010999    0.000554335    0.000483771
    6          1           0.000060384   -0.000963285    0.000499945
    7          1           0.000928648    0.000686697    0.000484072
 -------------------------------------------------------------------
 Cartesian Forces:  Max     0.001279587 RMS     0.000668757

 GradGradGradGradGradGradGradGradGradGradGradGradGradGradGradGradGradGrad
 Berny optimization.
 Internal  Forces:  Max     0.001746118 RMS     0.000758869
 Search for a local minimum.
 Step number   1 out of a maximum of  31 on scan point     1 out of    73
 All quantities printed in internal units (Hartrees-Bohrs-Radians)
 Second derivative matrix not updated -- analytic derivatives used.
     Eigenvalues ---    0.00361   0.03663   0.05725   0.10253   0.10666
     Eigenvalues ---    0.11970   0.13562   0.16127   0.30874   0.33061
     Eigenvalues ---    0.33724   0.34963   0.36801   0.370091000.00000
     Eigenvalues --- 1000.000001000.000001000.000001000.000001000.00000
     Eigenvalues --- 1000.00000
 RFO step:  Lambda=-3.46289414D-05.
 Linear search not attempted -- first point.
 Iteration  1 RMS(Cart)=  0.00282162 RMS(Int)=  0.00000382
 Iteration  2 RMS(Cart)=  0.00000234 RMS(Int)=  0.00000139
 Iteration  3 RMS(Cart)=  0.00000000 RMS(Int)=  0.00000139
 Iteration  1 RMS(Cart)=  0.00000006 RMS(Int)=  0.00000008
 Variable       Old X    -DE/DX   Delta X   Delta X   Delta X     New X
                                 (Linear)    (Quad)   (Total)
    R1        2.81104   0.00175   0.00000   0.00511   0.00511   2.81615
    R2        2.04671   0.00153   0.00000   0.00413   0.00413   2.05085
    R3        2.04672   0.00153   0.00000   0.00416   0.00416   2.05088
    R4        2.06791   0.00125   0.00000   0.00360   0.00360   2.07151
    R5        2.08374   0.00108   0.00000   0.00293   0.00293   2.08666
    R6        2.06779   0.00125   0.00000   0.00357   0.00357   2.07136
    A1        2.11160   0.00004   0.00000   0.00005   0.00004   2.11165
    A2        2.11145   0.00003   0.00000  -0.00009  -0.00009   2.11135
    A3        2.05224  -0.00008   0.00000  -0.00053  -0.00053   2.05171
    A4        1.95248  -0.00002   0.00000  -0.00086  -0.00086   1.95162
    A5        1.95158   0.00019   0.00000   0.00146   0.00146   1.95304
    A6        1.95250  -0.00002   0.00000  -0.00083  -0.00083   1.95168
    A7        1.85624  -0.00004   0.00000   0.00060   0.00060   1.85684
    A8        1.88903  -0.00007   0.00000  -0.00103  -0.00103   1.88800
    A9        1.85647  -0.00004   0.00000   0.00073   0.00073   1.85721
    D1        2.69747  -0.00004   0.00000   0.00000   0.00000   2.69747
    D2       -1.50568   0.00001   0.00000   0.00118   0.00118  -1.50451
    D3        0.57465   0.00008   0.00000   0.00255   0.00255   0.57720
    D4       -0.58206  -0.00007   0.00000  -0.00500  -0.00500  -0.58706
    D5        1.49797  -0.00002   0.00000  -0.00382  -0.00382   1.49414
    D6       -2.70488   0.00005   0.00000  -0.00245  -0.00246  -2.70733
         Item               Value     Threshold  Converged?
 Maximum Force            0.001746     0.000450     NO 
 RMS     Force            0.000777     0.000300     NO 
 Maximum Displacement     0.005114     0.001800     NO 
 RMS     Displacement     0.002821     0.001200     NO 
 Predicted change in Energy=-1.731446D-05
 GradGradGradGradGradGradGradGradGradGradGradGradGradGradGradGradGradGrad

                          Input orientation:                          
 ---------------------------------------------------------------------
 Center     Atomic     Atomic              Coordinates (Angstroms)
 Number     Number      Type              X           Y           Z
 ---------------------------------------------------------------------
    1          6             0       -0.000080    0.001296   -0.001452
    2          6             0        0.000059   -0.000581    1.488790
    3          1             0        0.930230    0.000427   -0.560303
    4          1             0       -0.921405   -0.129004   -0.560031
    5          1             0       -0.918100    0.437710    1.896866
    6          1             0        0.066235   -1.023484    1.899376
    7          1             0        0.853749    0.552729    1.896875
 ---------------------------------------------------------------------
                    Distance matrix (angstroms):
                    1          2          3          4          5
     1  C    0.000000
     2  C    1.490244   0.000000
     3  H    1.085261   2.250333   0.000000
     4  H    1.085278   2.250168   1.856153   0.000000
     5  H    2.153330   1.096194   3.105675   2.521412   0.000000
     6  H    2.160491   1.104215   2.800875   2.797179   1.761820
     7  H    2.153312   1.096117   2.519645   3.106818   1.775578
                    6          7
     6  H    0.000000
     7  H    1.761997   0.000000
 Stoichiometry    C2H5(2)
 Framework group  C1[X(C2H5)]
 Deg. of freedom    15
 Full point group                 C1
 Largest Abelian subgroup         C1      NOp   1
 Largest concise Abelian subgroup C1      NOp   1
                         Standard orientation:                         
 ---------------------------------------------------------------------
 Center     Atomic     Atomic              Coordinates (Angstroms)
 Number     Number      Type              X           Y           Z
 ---------------------------------------------------------------------
    1          6             0        0.795234    0.000000   -0.018665
    2          6             0       -0.694912    0.000074   -0.001623
    3          1             0        1.354765    0.927958    0.041403
    4          1             0        1.354410   -0.928195    0.041369
    5          1             0       -1.108107   -0.885259   -0.498710
    6          1             0       -1.095049   -0.005241    1.027529
    7          1             0       -1.107946    0.890297   -0.489863
 ---------------------------------------------------------------------
 Rotational constants (GHZ):    103.3870704     22.6457069     20.9891044
 Standard basis: 6-31+G(d,p) (6D, 7F)
 There are    63 symmetry adapted basis functions of A   symmetry.
 Integral buffers will be    131072 words long.
 Raffenetti 2 integral format.
 Two-electron integral symmetry is turned on.
    63 basis functions,    99 primitive gaussians,    63 cartesian basis functions
     9 alpha electrons        8 beta electrons
       nuclear repulsion energy        36.8661881049 Hartrees.
 NAtoms=    7 NActive=    7 NUniq=    7 SFac= 7.50D-01 NAtFMM=   80 NAOKFM=F Big=F
 One-electron integrals computed using PRISM.
 NBasis=    63 RedAO= T  NBF=    63
 NBsUse=    63 1.00D-06 NBFU=    63
 Initial guess read from the read-write file:
 Initial guess orbital symmetries:
 Alpha Orbitals:
       Occupied  (A) (A) (A) (A) (A) (A) (A) (A) (A)
       Virtual   (A) (A) (A) (A) (A) (A) (A) (A) (A) (A) (A) (A)
                 (A) (A) (A) (A) (A) (A) (A) (A) (A) (A) (A) (A)
                 (A) (A) (A) (A) (A) (A) (A) (A) (A) (A) (A) (A)
                 (A) (A) (A) (A) (A) (A) (A) (A) (A) (A) (A) (A)
                 (A) (A) (A) (A) (A) (A)
 Beta  Orbitals:
       Occupied  (A) (A) (A) (A) (A) (A) (A) (A)
       Virtual   (A) (A) (A) (A) (A) (A) (A) (A) (A) (A) (A) (A)
                 (A) (A) (A) (A) (A) (A) (A) (A) (A) (A) (A) (A)
                 (A) (A) (A) (A) (A) (A) (A) (A) (A) (A) (A) (A)
                 (A) (A) (A) (A) (A) (A) (A) (A) (A) (A) (A) (A)
                 (A) (A) (A) (A) (A) (A) (A)
 <S**2> of initial guess= 0.7538
 Requested convergence on RMS density matrix=1.00D-08 within9000 cycles.
 Requested convergence on MAX density matrix=1.00D-06.
 Requested convergence on             energy=1.00D-06.
 No special actions if energy rises.
 Keep R1 and R2 integrals in memory in canonical form, NReq=    86886702.
 SCF Done:  E(UB+HF-LYP) =  -79.1701039151     A.U. after    9 cycles
             Convg  =    0.2793D-08             -V/T =  2.0108
             S**2   =   0.7538
 Annihilation of the first spin contaminant:
 S**2 before annihilation     0.7538,   after     0.7500
 ***** Axes restored to original set *****
 -------------------------------------------------------------------
 Center     Atomic                   Forces (Hartrees/Bohr)
 Number     Number              X              Y              Z
 -------------------------------------------------------------------
    1          6          -0.000000895    0.000012439   -0.000002169
    2          6           0.000002972   -0.000002131    0.000005323
    3          1           0.000007868    0.000000644   -0.000005431
    4          1          -0.000008680    0.000004589   -0.000005536
    5          1          -0.000007205   -0.000005641    0.000004956
    6          1           0.000000324   -0.000008610   -0.000002070
    7          1           0.000005616   -0.000001291    0.000004927
 -------------------------------------------------------------------
 Cartesian Forces:  Max     0.000012439 RMS     0.000005628

 GradGradGradGradGradGradGradGradGradGradGradGradGradGradGradGradGradGrad
 Berny optimization.
 Internal  Forces:  Max     0.000012883 RMS     0.000004975
 Search for a local minimum.
 Step number   2 out of a maximum of  31 on scan point     1 out of    73
 All quantities printed in internal units (Hartrees-Bohrs-Radians)
 Update second derivatives using D2CorX and points  1  2
 Trust test= 1.00D+00 RLast= 1.24D-02 DXMaxT set to 3.00D-01
     Eigenvalues ---    0.00361   0.03664   0.05725   0.10253   0.10666
     Eigenvalues ---    0.11970   0.13562   0.16126   0.30875   0.33057
     Eigenvalues ---    0.33724   0.34864   0.36801   0.368981000.00000
     Eigenvalues --- 1000.000001000.000001000.000001000.000001000.00000
     Eigenvalues --- 1000.00000
 RFO step:  Lambda= 0.00000000D+00.
 Quartic linear search produced a step of  0.00639.
 Iteration  1 RMS(Cart)=  0.00003496 RMS(Int)=  0.00000001
 Iteration  2 RMS(Cart)=  0.00000000 RMS(Int)=  0.00000001
 Iteration  1 RMS(Cart)=  0.00000003 RMS(Int)=  0.00000004
 Variable       Old X    -DE/DX   Delta X   Delta X   Delta X     New X
                                 (Linear)    (Quad)   (Total)
    R1        2.81615   0.00001   0.00003   0.00001   0.00004   2.81619
    R2        2.05085   0.00001   0.00003   0.00000   0.00003   2.05087
    R3        2.05088   0.00001   0.00003   0.00000   0.00003   2.05091
    R4        2.07151   0.00001   0.00002   0.00000   0.00002   2.07153
    R5        2.08666   0.00000   0.00002  -0.00001   0.00001   2.08668
    R6        2.07136   0.00001   0.00002   0.00000   0.00002   2.07138
    A1        2.11165   0.00000   0.00000   0.00000   0.00000   2.11164
    A2        2.11135   0.00000   0.00000  -0.00001  -0.00001   2.11135
    A3        2.05171   0.00000   0.00000   0.00000   0.00000   2.05171
    A4        1.95162   0.00000  -0.00001   0.00000  -0.00001   1.95161
    A5        1.95304   0.00000   0.00001  -0.00001   0.00000   1.95305
    A6        1.95168   0.00000  -0.00001   0.00000   0.00000   1.95167
    A7        1.85684   0.00000   0.00000   0.00000   0.00000   1.85684
    A8        1.88800   0.00000  -0.00001   0.00001   0.00000   1.88800
    A9        1.85721   0.00000   0.00000   0.00000   0.00001   1.85721
    D1        2.69747   0.00000   0.00000   0.00000   0.00000   2.69747
    D2       -1.50451   0.00000   0.00001  -0.00001   0.00000  -1.50451
    D3        0.57720   0.00000   0.00002  -0.00001   0.00001   0.57721
    D4       -0.58706   0.00000  -0.00003  -0.00009  -0.00012  -0.58718
    D5        1.49414   0.00000  -0.00002  -0.00010  -0.00012   1.49402
    D6       -2.70733   0.00000  -0.00002  -0.00010  -0.00011  -2.70745
         Item               Value     Threshold  Converged?
 Maximum Force            0.000013     0.000450     YES
 RMS     Force            0.000005     0.000300     YES
 Maximum Displacement     0.000099     0.001800     YES
 RMS     Displacement     0.000035     0.001200     YES
 Predicted change in Energy=-7.281775D-10
 Optimization completed.
    -- Stationary point found.
                           ----------------------------
                           !   Optimized Parameters   !
                           ! (Angstroms and Degrees)  !
 --------------------------                            --------------------------
 ! Name  Definition              Value          Derivative Info.                !
 --------------------------------------------------------------------------------
 ! R1    R(1,2)                  1.4902         -DE/DX =    0.0                 !
 ! R2    R(1,3)                  1.0853         -DE/DX =    0.0                 !
 ! R3    R(1,4)                  1.0853         -DE/DX =    0.0                 !
 ! R4    R(2,5)                  1.0962         -DE/DX =    0.0                 !
 ! R5    R(2,6)                  1.1042         -DE/DX =    0.0                 !
 ! R6    R(2,7)                  1.0961         -DE/DX =    0.0                 !
 ! A1    A(2,1,3)              120.9884         -DE/DX =    0.0                 !
 ! A2    A(2,1,4)              120.9717         -DE/DX =    0.0                 !
 ! A3    A(3,1,4)              117.5544         -DE/DX =    0.0                 !
 ! A4    A(1,2,5)              111.8196         -DE/DX =    0.0                 !
 ! A5    A(1,2,6)              111.9012         -DE/DX =    0.0                 !
 ! A6    A(1,2,7)              111.8228         -DE/DX =    0.0                 !
 ! A7    A(5,2,6)              106.3893         -DE/DX =    0.0                 !
 ! A8    A(5,2,7)              108.1746         -DE/DX =    0.0                 !
 ! A9    A(6,2,7)              106.41           -DE/DX =    0.0                 !
 ! D1    D(3,1,2,5)            154.5539         -DE/DX =    0.0                 !
 ! D2    D(3,1,2,6)            -86.2018         -DE/DX =    0.0                 !
 ! D3    D(3,1,2,7)             33.0712         -DE/DX =    0.0                 !
 ! D4    D(4,1,2,5)            -33.6362         -DE/DX =    0.0                 !
 ! D5    D(4,1,2,6)             85.6082         -DE/DX =    0.0                 !
 ! D6    D(4,1,2,7)           -155.1188         -DE/DX =    0.0                 !
 --------------------------------------------------------------------------------
 Iteration  1 RMS(Cart)=  0.01099496 RMS(Int)=  0.01307459
 Iteration  2 RMS(Cart)=  0.00015887 RMS(Int)=  0.01307340
 Iteration  3 RMS(Cart)=  0.00000258 RMS(Int)=  0.01307340
 Iteration  4 RMS(Cart)=  0.00000004 RMS(Int)=  0.01307340
 Iteration  1 RMS(Cart)=  0.00518962 RMS(Int)=  0.00616202
 Iteration  2 RMS(Cart)=  0.00244847 RMS(Int)=  0.00688673
 Iteration  3 RMS(Cart)=  0.00115464 RMS(Int)=  0.00764519
 Iteration  4 RMS(Cart)=  0.00054437 RMS(Int)=  0.00806865
 Iteration  5 RMS(Cart)=  0.00025662 RMS(Int)=  0.00828032
 Iteration  6 RMS(Cart)=  0.00012096 RMS(Int)=  0.00838254
 Iteration  7 RMS(Cart)=  0.00005702 RMS(Int)=  0.00843124
 Iteration  8 RMS(Cart)=  0.00002688 RMS(Int)=  0.00845431
 Iteration  9 RMS(Cart)=  0.00001267 RMS(Int)=  0.00846520
 Iteration 10 RMS(Cart)=  0.00000597 RMS(Int)=  0.00847035
 Iteration 11 RMS(Cart)=  0.00000281 RMS(Int)=  0.00847277
 Iteration 12 RMS(Cart)=  0.00000133 RMS(Int)=  0.00847392
 Iteration 13 RMS(Cart)=  0.00000063 RMS(Int)=  0.00847445
 GradGradGradGradGradGradGradGradGradGradGradGradGradGradGradGradGradGrad

                          Input orientation:                          
 ---------------------------------------------------------------------
 Center     Atomic     Atomic              Coordinates (Angstroms)
 Number     Number      Type              X           Y           Z
 ---------------------------------------------------------------------
    1          6             0        0.000595    0.015713   -0.002192
    2          6             0        0.005607    0.015222    1.488065
    3          1             0        0.929573   -0.027667   -0.561732
    4          1             0       -0.922638   -0.124358   -0.555267
    5          1             0       -0.928755    0.414712    1.899381
    6          1             0        0.067388   -1.014106    1.883029
    7          1             0        0.858919    0.559576    1.908838
 ---------------------------------------------------------------------
                    Distance matrix (angstroms):
                    1          2          3          4          5
     1  C    0.000000
     2  C    1.490265   0.000000
     3  H    1.085342   2.248826   0.000000
     4  H    1.085297   2.248627   1.854744   0.000000
     5  H    2.153804   1.096269   3.115471   2.513152   0.000000
     6  H    2.149197   1.104233   2.773676   2.777965   1.741864
     7  H    2.164380   1.096135   2.540386   3.116652   1.793559
                    6          7
     6  H    0.000000
     7  H    1.761722   0.000000
 Stoichiometry    C2H5(2)
 Framework group  C1[X(C2H5)]
 Deg. of freedom    15
 Full point group                 C1
 Largest Abelian subgroup         C1      NOp   1
 Largest concise Abelian subgroup C1      NOp   1
                         Standard orientation:                         
 ---------------------------------------------------------------------
 Center     Atomic     Atomic              Coordinates (Angstroms)
 Number     Number      Type              X           Y           Z
 ---------------------------------------------------------------------
    1          6             0       -0.795396   -0.000718   -0.027035
    2          6             0        0.694717   -0.002819   -0.005862
    3          1             0       -1.354517   -0.926018    0.068731
    4          1             0       -1.351302    0.928577    0.045422
    5          1             0        1.110522    0.904528   -0.459330
    6          1             0        1.075547    0.002888    1.030606
    7          1             0        1.123824   -0.888752   -0.488048
 ---------------------------------------------------------------------
 Rotational constants (GHZ):    103.3224244     22.6831450     20.9730905
 Standard basis: 6-31+G(d,p) (6D, 7F)
 There are    63 symmetry adapted basis functions of A   symmetry.
 Integral buffers will be    131072 words long.
 Raffenetti 2 integral format.
 Two-electron integral symmetry is turned on.
    63 basis functions,    99 primitive gaussians,    63 cartesian basis functions
     9 alpha electrons        8 beta electrons
       nuclear repulsion energy        36.8689878232 Hartrees.
 NAtoms=    7 NActive=    7 NUniq=    7 SFac= 7.50D-01 NAtFMM=   80 NAOKFM=F Big=F
 One-electron integrals computed using PRISM.
 NBasis=    63 RedAO= T  NBF=    63
 NBsUse=    63 1.00D-06 NBFU=    63
 Initial guess read from the read-write file:
 Initial guess orbital symmetries:
 Alpha Orbitals:
       Occupied  (A) (A) (A) (A) (A) (A) (A) (A) (A)
       Virtual   (A) (A) (A) (A) (A) (A) (A) (A) (A) (A) (A) (A)
                 (A) (A) (A) (A) (A) (A) (A) (A) (A) (A) (A) (A)
                 (A) (A) (A) (A) (A) (A) (A) (A) (A) (A) (A) (A)
                 (A) (A) (A) (A) (A) (A) (A) (A) (A) (A) (A) (A)
                 (A) (A) (A) (A) (A) (A)
 Beta  Orbitals:
       Occupied  (A) (A) (A) (A) (A) (A) (A) (A)
       Virtual   (A) (A) (A) (A) (A) (A) (A) (A) (A) (A) (A) (A)
                 (A) (A) (A) (A) (A) (A) (A) (A) (A) (A) (A) (A)
                 (A) (A) (A) (A) (A) (A) (A) (A) (A) (A) (A) (A)
                 (A) (A) (A) (A) (A) (A) (A) (A) (A) (A) (A) (A)
                 (A) (A) (A) (A) (A) (A) (A)
 <S**2> of initial guess= 0.7818
 Harris functional with IExCor=  402 diagonalized for initial guess.
 ExpMin= 4.38D-02 ExpMax= 3.05D+03 ExpMxC= 4.57D+02 IAcc=2 IRadAn=         4 AccDes= 0.00D+00
 HarFok:  IExCor= 402 AccDes= 0.00D+00 IRadAn=         4 IDoV=1
 ScaDFX=  1.000000  1.000000  1.000000  1.000000
 Requested convergence on RMS density matrix=1.00D-08 within9000 cycles.
 Requested convergence on MAX density matrix=1.00D-06.
 Requested convergence on             energy=1.00D-06.
 No special actions if energy rises.
 Keep R1 and R2 integrals in memory in canonical form, NReq=    86886702.
 SCF Done:  E(UB+HF-LYP) =  -79.1699274560     A.U. after   13 cycles
             Convg  =    0.4063D-08             -V/T =  2.0108
             S**2   =   0.7538
 Annihilation of the first spin contaminant:
 S**2 before annihilation     0.7538,   after     0.7500
 ***** Axes restored to original set *****
 -------------------------------------------------------------------
 Center     Atomic                   Forces (Hartrees/Bohr)
 Number     Number              X              Y              Z
 -------------------------------------------------------------------
    1          6           0.000687558    0.000311724    0.000287661
    2          6          -0.002624271   -0.004277006   -0.000221161
    3          1           0.000112619    0.000430722   -0.000040694
    4          1          -0.000095776    0.000293896    0.000059142
    5          1           0.001428733    0.003047658   -0.000059192
    6          1           0.001771461   -0.000779950    0.000317731
    7          1          -0.001280324    0.000972957   -0.000343488
 -------------------------------------------------------------------
 Cartesian Forces:  Max     0.004277006 RMS     0.001448550

 GradGradGradGradGradGradGradGradGradGradGradGradGradGradGradGradGradGrad
 Berny optimization.
 Internal  Forces:  Max     0.002149998 RMS     0.000981276
 Search for a local minimum.
 Step number   1 out of a maximum of  31 on scan point     2 out of    73
 All quantities printed in internal units (Hartrees-Bohrs-Radians)
 Second derivative matrix not updated -- first step.
     Eigenvalues ---    0.00361   0.03658   0.05725   0.10253   0.10665
     Eigenvalues ---    0.11966   0.13557   0.16126   0.30870   0.33058
     Eigenvalues ---    0.33724   0.34863   0.36801   0.368981000.00000
     Eigenvalues --- 1000.000001000.000001000.000001000.000001000.00000
     Eigenvalues --- 1000.00000
 RFO step:  Lambda=-3.30965007D-04.
 Linear search not attempted -- first point.
 Iteration  1 RMS(Cart)=  0.02816656 RMS(Int)=  0.00069729
 Iteration  2 RMS(Cart)=  0.00061024 RMS(Int)=  0.00017055
 Iteration  3 RMS(Cart)=  0.00000011 RMS(Int)=  0.00017055
 Iteration  1 RMS(Cart)=  0.00000215 RMS(Int)=  0.00000255
 Iteration  2 RMS(Cart)=  0.00000101 RMS(Int)=  0.00000285
 Iteration  3 RMS(Cart)=  0.00000048 RMS(Int)=  0.00000316
 Variable       Old X    -DE/DX   Delta X   Delta X   Delta X     New X
                                 (Linear)    (Quad)   (Total)
    R1        2.81619  -0.00031   0.00000   0.00011   0.00011   2.81630
    R2        2.05100   0.00010   0.00000   0.00025   0.00025   2.05125
    R3        2.05091   0.00001   0.00000  -0.00014  -0.00014   2.05077
    R4        2.07165  -0.00013   0.00000  -0.00128  -0.00128   2.07037
    R5        2.08670   0.00094   0.00000   0.00015   0.00015   2.08685
    R6        2.07140  -0.00064   0.00000   0.00110   0.00110   2.07250
    A1        2.10906   0.00006   0.00000   0.00003  -0.00021   2.10885
    A2        2.10880  -0.00007   0.00000   0.00464   0.00440   2.11320
    A3        2.04906   0.00009   0.00000   0.00223   0.00199   2.05104
    A4        1.95218   0.00002   0.00000   0.00072   0.00038   1.95257
    A5        1.93711   0.00093   0.00000   0.01514   0.01499   1.95210
    A6        1.96744  -0.00109   0.00000  -0.01563  -0.01577   1.95167
    A7        1.82676   0.00183   0.00000   0.03272   0.03240   1.85916
    A8        1.91612  -0.00150   0.00000  -0.02671  -0.02701   1.88912
    A9        1.85674   0.00001   0.00000  -0.00306  -0.00301   1.85374
    D1        2.78474  -0.00215   0.00000   0.00000   0.00000   2.78474
    D2       -1.46536   0.00074   0.00000   0.05094   0.05108  -1.41428
    D3        0.61548   0.00067   0.00000   0.04702   0.04687   0.66235
    D4       -0.55469  -0.00173   0.00000   0.04180   0.04181  -0.51288
    D5        1.47840   0.00116   0.00000   0.09274   0.09289   1.57129
    D6       -2.72394   0.00109   0.00000   0.08881   0.08868  -2.63526
         Item               Value     Threshold  Converged?
 Maximum Force            0.001710     0.000450     NO 
 RMS     Force            0.000758     0.000300     NO 
 Maximum Displacement     0.078838     0.001800     NO 
 RMS     Displacement     0.028173     0.001200     NO 
 Predicted change in Energy=-1.696143D-04
 GradGradGradGradGradGradGradGradGradGradGradGradGradGradGradGradGradGrad

                          Input orientation:                          
 ---------------------------------------------------------------------
 Center     Atomic     Atomic              Coordinates (Angstroms)
 Number     Number      Type              X           Y           Z
 ---------------------------------------------------------------------
    1          6             0        0.000158    0.004626   -0.001577
    2          6             0       -0.000744    0.000561    1.488741
    3          1             0        0.930905   -0.050070   -0.557431
    4          1             0       -0.924713   -0.082638   -0.562561
    5          1             0       -0.930503    0.411421    1.897479
    6          1             0        0.097435   -1.020821    1.896968
    7          1             0        0.838149    0.576013    1.898502
 ---------------------------------------------------------------------
                    Distance matrix (angstroms):
                    1          2          3          4          5
     1  C    0.000000
     2  C    1.490324   0.000000
     3  H    1.085474   2.248856   0.000000
     4  H    1.085221   2.251329   1.855911   0.000000
     5  H    2.153608   1.095593   3.115188   2.509168   0.000000
     6  H    2.159971   1.104314   2.767870   2.823872   1.762945
     7  H    2.153837   1.096719   2.536177   3.098118   1.776294
                    6          7
     6  H    0.000000
     7  H    1.760267   0.000000
 Stoichiometry    C2H5(2)
 Framework group  C1[X(C2H5)]
 Deg. of freedom    15
 Full point group                 C1
 Largest Abelian subgroup         C1      NOp   1
 Largest concise Abelian subgroup C1      NOp   1
                         Standard orientation:                         
 ---------------------------------------------------------------------
 Center     Atomic     Atomic              Coordinates (Angstroms)
 Number     Number      Type              X           Y           Z
 ---------------------------------------------------------------------
    1          6             0       -0.795291   -0.000001   -0.020499
    2          6             0        0.694913    0.001123   -0.001592
    3          1             0       -1.351729   -0.929715    0.044798
    4          1             0       -1.357051    0.926188    0.045103
    5          1             0        1.107793    0.923653   -0.424431
    6          1             0        1.092928   -0.079272    1.025360
    7          1             0        1.110331   -0.847589   -0.558284
 ---------------------------------------------------------------------
 Rotational constants (GHZ):    103.3650047     22.6456662     20.9881492
 Standard basis: 6-31+G(d,p) (6D, 7F)
 There are    63 symmetry adapted basis functions of A   symmetry.
 Integral buffers will be    131072 words long.
 Raffenetti 2 integral format.
 Two-electron integral symmetry is turned on.
    63 basis functions,    99 primitive gaussians,    63 cartesian basis functions
     9 alpha electrons        8 beta electrons
       nuclear repulsion energy        36.8649182311 Hartrees.
 NAtoms=    7 NActive=    7 NUniq=    7 SFac= 7.50D-01 NAtFMM=   80 NAOKFM=F Big=F
 One-electron integrals computed using PRISM.
 NBasis=    63 RedAO= T  NBF=    63
 NBsUse=    63 1.00D-06 NBFU=    63
 Initial guess read from the read-write file:
 Initial guess orbital symmetries:
 Alpha Orbitals:
       Occupied  (A) (A) (A) (A) (A) (A) (A) (A) (A)
       Virtual   (A) (A) (A) (A) (A) (A) (A) (A) (A) (A) (A) (A)
                 (A) (A) (A) (A) (A) (A) (A) (A) (A) (A) (A) (A)
                 (A) (A) (A) (A) (A) (A) (A) (A) (A) (A) (A) (A)
                 (A) (A) (A) (A) (A) (A) (A) (A) (A) (A) (A) (A)
                 (A) (A) (A) (A) (A) (A)
 Beta  Orbitals:
       Occupied  (A) (A) (A) (A) (A) (A) (A) (A)
       Virtual   (A) (A) (A) (A) (A) (A) (A) (A) (A) (A) (A) (A)
                 (A) (A) (A) (A) (A) (A) (A) (A) (A) (A) (A) (A)
                 (A) (A) (A) (A) (A) (A) (A) (A) (A) (A) (A) (A)
                 (A) (A) (A) (A) (A) (A) (A) (A) (A) (A) (A) (A)
                 (A) (A) (A) (A) (A) (A) (A)
 <S**2> of initial guess= 0.7538
 Harris functional with IExCor=  402 diagonalized for initial guess.
 ExpMin= 4.38D-02 ExpMax= 3.05D+03 ExpMxC= 4.57D+02 IAcc=2 IRadAn=         4 AccDes= 0.00D+00
 HarFok:  IExCor= 402 AccDes= 0.00D+00 IRadAn=         4 IDoV=1
 ScaDFX=  1.000000  1.000000  1.000000  1.000000
 Requested convergence on RMS density matrix=1.00D-08 within9000 cycles.
 Requested convergence on MAX density matrix=1.00D-06.
 Requested convergence on             energy=1.00D-06.
 No special actions if energy rises.
 Keep R1 and R2 integrals in memory in canonical form, NReq=    86886702.
 SCF Done:  E(UB+HF-LYP) =  -79.1700979565     A.U. after    9 cycles
             Convg  =    0.6999D-08             -V/T =  2.0108
             S**2   =   0.7538
 Annihilation of the first spin contaminant:
 S**2 before annihilation     0.7538,   after     0.7500
 ***** Axes restored to original set *****
 -------------------------------------------------------------------
 Center     Atomic                   Forces (Hartrees/Bohr)
 Number     Number              X              Y              Z
 -------------------------------------------------------------------
    1          6          -0.000010866   -0.000216626    0.000017932
    2          6          -0.000022181   -0.000234147   -0.000021709
    3          1          -0.000001280    0.000150403    0.000016304
    4          1           0.000009176    0.000065577    0.000016562
    5          1           0.000063097    0.000134197   -0.000007973
    6          1          -0.000002445    0.000031001   -0.000021442
    7          1          -0.000035501    0.000069596    0.000000327
 -------------------------------------------------------------------
 Cartesian Forces:  Max     0.000234147 RMS     0.000087365

 GradGradGradGradGradGradGradGradGradGradGradGradGradGradGradGradGradGrad
 Berny optimization.
 Internal  Forces:  Max     0.000156553 RMS     0.000053982
 Search for a local minimum.
 Step number   2 out of a maximum of  31 on scan point     2 out of    73
 All quantities printed in internal units (Hartrees-Bohrs-Radians)
 Update second derivatives using D2CorX and points  1  2
 Trust test= 1.01D+00 RLast= 1.59D-01 DXMaxT set to 4.24D-01
     Eigenvalues ---    0.00356   0.03665   0.05732   0.10253   0.10666
     Eigenvalues ---    0.11970   0.13561   0.16127   0.30882   0.33075
     Eigenvalues ---    0.33729   0.34858   0.36801   0.369001000.00000
     Eigenvalues --- 1000.000001000.000001000.000001000.000001000.00000
     Eigenvalues --- 1000.00000
 RFO step:  Lambda=-8.39466311D-07.
 Quartic linear search produced a step of  0.03651.
 Iteration  1 RMS(Cart)=  0.00288774 RMS(Int)=  0.00001423
 Iteration  2 RMS(Cart)=  0.00000914 RMS(Int)=  0.00000959
 Iteration  3 RMS(Cart)=  0.00000000 RMS(Int)=  0.00000959
 Iteration  1 RMS(Cart)=  0.00000034 RMS(Int)=  0.00000040
 Variable       Old X    -DE/DX   Delta X   Delta X   Delta X     New X
                                 (Linear)    (Quad)   (Total)
    R1        2.81630  -0.00005   0.00000  -0.00011  -0.00011   2.81620
    R2        2.05125  -0.00002   0.00001  -0.00009  -0.00008   2.05117
    R3        2.05077  -0.00002  -0.00001  -0.00012  -0.00013   2.05064
    R4        2.07037  -0.00001  -0.00005   0.00000  -0.00005   2.07032
    R5        2.08685  -0.00004   0.00001  -0.00025  -0.00024   2.08661
    R6        2.07250   0.00001   0.00004   0.00012   0.00016   2.07265
    A1        2.10885   0.00000  -0.00001   0.00019   0.00016   2.10901
    A2        2.11320   0.00000   0.00016   0.00040   0.00054   2.11374
    A3        2.05104   0.00002   0.00007   0.00042   0.00047   2.05151
    A4        1.95257  -0.00003   0.00001  -0.00029  -0.00029   1.95228
    A5        1.95210   0.00004   0.00055   0.00007   0.00061   1.95271
    A6        1.95167  -0.00003  -0.00058   0.00026  -0.00032   1.95135
    A7        1.85916   0.00006   0.00118  -0.00050   0.00067   1.85983
    A8        1.88912  -0.00007  -0.00099   0.00008  -0.00092   1.88820
    A9        1.85374   0.00003  -0.00011   0.00038   0.00027   1.85401
    D1        2.78474  -0.00016   0.00000   0.00000   0.00000   2.78474
    D2       -1.41428  -0.00007   0.00186  -0.00079   0.00108  -1.41320
    D3        0.66235  -0.00002   0.00171  -0.00008   0.00163   0.66398
    D4       -0.51288  -0.00004   0.00153   0.00779   0.00932  -0.50356
    D5        1.57129   0.00005   0.00339   0.00700   0.01040   1.58169
    D6       -2.63526   0.00010   0.00324   0.00771   0.01094  -2.62432
         Item               Value     Threshold  Converged?
 Maximum Force            0.000066     0.000450     YES
 RMS     Force            0.000027     0.000300     YES
 Maximum Displacement     0.009029     0.001800     NO 
 RMS     Displacement     0.002888     0.001200     NO 
 Predicted change in Energy=-6.168884D-07
 GradGradGradGradGradGradGradGradGradGradGradGradGradGradGradGradGradGrad

                          Input orientation:                          
 ---------------------------------------------------------------------
 Center     Atomic     Atomic              Coordinates (Angstroms)
 Number     Number      Type              X           Y           Z
 ---------------------------------------------------------------------
    1          6             0        0.000215    0.002279   -0.001486
    2          6             0       -0.000746   -0.000373    1.488779
    3          1             0        0.930920   -0.051936   -0.557379
    4          1             0       -0.924974   -0.077860   -0.562876
    5          1             0       -0.931050    0.409914    1.896787
    6          1             0        0.099582   -1.020783    1.898561
    7          1             0        0.836740    0.577854    1.897736
 ---------------------------------------------------------------------
                    Distance matrix (angstroms):
                    1          2          3          4          5
     1  C    0.000000
     2  C    1.490268   0.000000
     3  H    1.085434   2.248872   0.000000
     4  H    1.085153   2.251554   1.856083   0.000000
     5  H    2.153336   1.095568   3.114990   2.507569   0.000000
     6  H    2.160256   1.104185   2.767929   2.827984   1.763264
     7  H    2.153626   1.096802   2.536354   3.096484   1.775750
                    6          7
     6  H    0.000000
     7  H    1.760410   0.000000
 Stoichiometry    C2H5(2)
 Framework group  C1[X(C2H5)]
 Deg. of freedom    15
 Full point group                 C1
 Largest Abelian subgroup         C1      NOp   1
 Largest concise Abelian subgroup C1      NOp   1
                         Standard orientation:                         
 ---------------------------------------------------------------------
 Center     Atomic     Atomic              Coordinates (Angstroms)
 Number     Number      Type              X           Y           Z
 ---------------------------------------------------------------------
    1          6             0       -0.795250   -0.000001   -0.019206
    2          6             0        0.694913    0.001194   -0.001540
    3          1             0       -1.351666   -0.929950    0.042141
    4          1             0       -1.357415    0.926124    0.042589
    5          1             0        1.107042    0.925846   -0.420393
    6          1             0        1.094382   -0.085096    1.024230
    7          1             0        1.109676   -0.844078   -0.564089
 ---------------------------------------------------------------------
 Rotational constants (GHZ):    103.3812802     22.6457612     20.9886265
 Standard basis: 6-31+G(d,p) (6D, 7F)
 There are    63 symmetry adapted basis functions of A   symmetry.
 Integral buffers will be    131072 words long.
 Raffenetti 2 integral format.
 Two-electron integral symmetry is turned on.
    63 basis functions,    99 primitive gaussians,    63 cartesian basis functions
     9 alpha electrons        8 beta electrons
       nuclear repulsion energy        36.8657898865 Hartrees.
 NAtoms=    7 NActive=    7 NUniq=    7 SFac= 7.50D-01 NAtFMM=   80 NAOKFM=F Big=F
 One-electron integrals computed using PRISM.
 NBasis=    63 RedAO= T  NBF=    63
 NBsUse=    63 1.00D-06 NBFU=    63
 Initial guess read from the read-write file:
 Initial guess orbital symmetries:
 Alpha Orbitals:
       Occupied  (A) (A) (A) (A) (A) (A) (A) (A) (A)
       Virtual   (A) (A) (A) (A) (A) (A) (A) (A) (A) (A) (A) (A)
                 (A) (A) (A) (A) (A) (A) (A) (A) (A) (A) (A) (A)
                 (A) (A) (A) (A) (A) (A) (A) (A) (A) (A) (A) (A)
                 (A) (A) (A) (A) (A) (A) (A) (A) (A) (A) (A) (A)
                 (A) (A) (A) (A) (A) (A)
 Beta  Orbitals:
       Occupied  (A) (A) (A) (A) (A) (A) (A) (A)
       Virtual   (A) (A) (A) (A) (A) (A) (A) (A) (A) (A) (A) (A)
                 (A) (A) (A) (A) (A) (A) (A) (A) (A) (A) (A) (A)
                 (A) (A) (A) (A) (A) (A) (A) (A) (A) (A) (A) (A)
                 (A) (A) (A) (A) (A) (A) (A) (A) (A) (A) (A) (A)
                 (A) (A) (A) (A) (A) (A) (A)
 <S**2> of initial guess= 0.7538
 Requested convergence on RMS density matrix=1.00D-08 within9000 cycles.
 Requested convergence on MAX density matrix=1.00D-06.
 Requested convergence on             energy=1.00D-06.
 No special actions if energy rises.
 Keep R1 and R2 integrals in memory in canonical form, NReq=    86886702.
 SCF Done:  E(UB+HF-LYP) =  -79.1700986867     A.U. after    8 cycles
             Convg  =    0.4212D-08             -V/T =  2.0108
             S**2   =   0.7538
 Annihilation of the first spin contaminant:
 S**2 before annihilation     0.7538,   after     0.7500
 ***** Axes restored to original set *****
 -------------------------------------------------------------------
 Center     Atomic                   Forces (Hartrees/Bohr)
 Number     Number              X              Y              Z
 -------------------------------------------------------------------
    1          6           0.000001920   -0.000104568   -0.000001262
    2          6          -0.000038478   -0.000063620   -0.000002615
    3          1           0.000003887    0.000093831    0.000000134
    4          1          -0.000000078    0.000008522    0.000001198
    5          1           0.000029038    0.000065047    0.000004985
    6          1           0.000001938   -0.000000032   -0.000007247
    7          1           0.000001773    0.000000820    0.000004807
 -------------------------------------------------------------------
 Cartesian Forces:  Max     0.000104568 RMS     0.000038142

 GradGradGradGradGradGradGradGradGradGradGradGradGradGradGradGradGradGrad
 Berny optimization.
 Internal  Forces:  Max     0.000079354 RMS     0.000023915
 Search for a local minimum.
 Step number   3 out of a maximum of  31 on scan point     2 out of    73
 All quantities printed in internal units (Hartrees-Bohrs-Radians)
 Update second derivatives using D2CorX and points  1  2  3
 Trust test= 1.18D+00 RLast= 1.79D-02 DXMaxT set to 4.24D-01
     Eigenvalues ---    0.00327   0.03701   0.05752   0.10252   0.10667
     Eigenvalues ---    0.11971   0.13572   0.16129   0.30885   0.33050
     Eigenvalues ---    0.33727   0.34882   0.36801   0.368981000.00000
     Eigenvalues --- 1000.000001000.000001000.000001000.000001000.00000
     Eigenvalues --- 1000.00000
 RFO step:  Lambda= 0.00000000D+00.
 Quartic linear search produced a step of  0.04733.
 Iteration  1 RMS(Cart)=  0.00014967 RMS(Int)=  0.00000024
 Iteration  2 RMS(Cart)=  0.00000003 RMS(Int)=  0.00000023
 Iteration  1 RMS(Cart)=  0.00000016 RMS(Int)=  0.00000019
 Variable       Old X    -DE/DX   Delta X   Delta X   Delta X     New X
                                 (Linear)    (Quad)   (Total)
    R1        2.81620   0.00000  -0.00001   0.00000   0.00000   2.81620
    R2        2.05117   0.00000   0.00000   0.00000  -0.00001   2.05117
    R3        2.05064   0.00000  -0.00001   0.00000  -0.00001   2.05063
    R4        2.07032   0.00000   0.00000   0.00001   0.00000   2.07033
    R5        2.08661   0.00000  -0.00001  -0.00001  -0.00002   2.08659
    R6        2.07265   0.00000   0.00001   0.00001   0.00002   2.07267
    A1        2.10901   0.00000   0.00001   0.00001   0.00001   2.10902
    A2        2.11374   0.00000   0.00003   0.00000   0.00003   2.11376
    A3        2.05151   0.00000   0.00002   0.00001   0.00003   2.05154
    A4        1.95228   0.00000  -0.00001   0.00004   0.00002   1.95230
    A5        1.95271   0.00001   0.00003  -0.00004  -0.00002   1.95270
    A6        1.95135  -0.00001  -0.00002   0.00003   0.00001   1.95136
    A7        1.85983   0.00003   0.00003  -0.00002   0.00001   1.85984
    A8        1.88820  -0.00003  -0.00004   0.00003  -0.00002   1.88818
    A9        1.85401   0.00000   0.00001  -0.00002  -0.00001   1.85400
    D1        2.78474  -0.00008   0.00000   0.00000   0.00000   2.78474
    D2       -1.41320  -0.00004   0.00005  -0.00004   0.00001  -1.41318
    D3        0.66398  -0.00004   0.00008  -0.00008   0.00000   0.66398
    D4       -0.50356  -0.00003   0.00044   0.00013   0.00057  -0.50299
    D5        1.58169   0.00002   0.00049   0.00009   0.00058   1.58227
    D6       -2.62432   0.00002   0.00052   0.00005   0.00057  -2.62375
         Item               Value     Threshold  Converged?
 Maximum Force            0.000005     0.000450     YES
 RMS     Force            0.000002     0.000300     YES
 Maximum Displacement     0.000469     0.001800     YES
 RMS     Displacement     0.000150     0.001200     YES
 Predicted change in Energy=-2.954541D-09
 Optimization completed.
    -- Stationary point found.
                           ----------------------------
                           !   Optimized Parameters   !
                           ! (Angstroms and Degrees)  !
 --------------------------                            --------------------------
 ! Name  Definition              Value          Derivative Info.                !
 --------------------------------------------------------------------------------
 ! R1    R(1,2)                  1.4903         -DE/DX =    0.0                 !
 ! R2    R(1,3)                  1.0854         -DE/DX =    0.0                 !
 ! R3    R(1,4)                  1.0852         -DE/DX =    0.0                 !
 ! R4    R(2,5)                  1.0956         -DE/DX =    0.0                 !
 ! R5    R(2,6)                  1.1042         -DE/DX =    0.0                 !
 ! R6    R(2,7)                  1.0968         -DE/DX =    0.0                 !
 ! A1    A(2,1,3)              120.8373         -DE/DX =    0.0                 !
 ! A2    A(2,1,4)              121.1082         -DE/DX =    0.0                 !
 ! A3    A(3,1,4)              117.543          -DE/DX =    0.0                 !
 ! A4    A(1,2,5)              111.8573         -DE/DX =    0.0                 !
 ! A5    A(1,2,6)              111.8823         -DE/DX =    0.0                 !
 ! A6    A(1,2,7)              111.8039         -DE/DX =    0.0                 !
 ! A7    A(5,2,6)              106.5606         -DE/DX =    0.0                 !
 ! A8    A(5,2,7)              108.1856         -DE/DX =    0.0                 !
 ! A9    A(6,2,7)              106.2268         -DE/DX =    0.0                 !
 ! D1    D(3,1,2,5)            159.5538         -DE/DX =   -0.0001              !
 ! D2    D(3,1,2,6)            -80.9701         -DE/DX =    0.0                 !
 ! D3    D(3,1,2,7)             38.0434         -DE/DX =    0.0                 !
 ! D4    D(4,1,2,5)            -28.852          -DE/DX =    0.0                 !
 ! D5    D(4,1,2,6)             90.6241         -DE/DX =    0.0                 !
 ! D6    D(4,1,2,7)           -150.3623         -DE/DX =    0.0                 !
 --------------------------------------------------------------------------------
 Iteration  1 RMS(Cart)=  0.01102583 RMS(Int)=  0.01307169
 Iteration  2 RMS(Cart)=  0.00015943 RMS(Int)=  0.01307049
 Iteration  3 RMS(Cart)=  0.00000256 RMS(Int)=  0.01307049
 Iteration  4 RMS(Cart)=  0.00000004 RMS(Int)=  0.01307049
 Iteration  1 RMS(Cart)=  0.00520077 RMS(Int)=  0.00615767
 Iteration  2 RMS(Cart)=  0.00245241 RMS(Int)=  0.00688184
 Iteration  3 RMS(Cart)=  0.00115593 RMS(Int)=  0.00763934
 Iteration  4 RMS(Cart)=  0.00054472 RMS(Int)=  0.00806205
 Iteration  5 RMS(Cart)=  0.00025667 RMS(Int)=  0.00827324
 Iteration  6 RMS(Cart)=  0.00012093 RMS(Int)=  0.00837518
 Iteration  7 RMS(Cart)=  0.00005698 RMS(Int)=  0.00842372
 Iteration  8 RMS(Cart)=  0.00002684 RMS(Int)=  0.00844671
 Iteration  9 RMS(Cart)=  0.00001265 RMS(Int)=  0.00845756
 Iteration 10 RMS(Cart)=  0.00000596 RMS(Int)=  0.00846268
 Iteration 11 RMS(Cart)=  0.00000281 RMS(Int)=  0.00846509
 Iteration 12 RMS(Cart)=  0.00000132 RMS(Int)=  0.00846623
 Iteration 13 RMS(Cart)=  0.00000062 RMS(Int)=  0.00846677
 GradGradGradGradGradGradGradGradGradGradGradGradGradGradGradGradGradGrad

                          Input orientation:                          
 ---------------------------------------------------------------------
 Center     Atomic     Atomic              Coordinates (Angstroms)
 Number     Number      Type              X           Y           Z
 ---------------------------------------------------------------------
    1          6             0        0.001567    0.016483   -0.002225
    2          6             0        0.004629    0.015605    1.488039
    3          1             0        0.928852   -0.080270   -0.558182
    4          1             0       -0.925769   -0.073019   -0.558638
    5          1             0       -0.940976    0.386570    1.898690
    6          1             0        0.100701   -1.011293    1.882350
    7          1             0        0.841683    0.585018    1.910088
 ---------------------------------------------------------------------
                    Distance matrix (angstroms):
                    1          2          3          4          5
     1  C    0.000000
     2  C    1.490267   0.000000
     3  H    1.085499   2.247310   0.000000
     4  H    1.085153   2.249974   1.854635   0.000000
     5  H    2.153794   1.095636   3.122566   2.499983   0.000000
     6  H    2.148900   1.104187   2.740226   2.809345   1.743381
     7  H    2.164710   1.096821   2.557844   3.106687   1.793707
                    6          7
     6  H    0.000000
     7  H    1.760123   0.000000
 Stoichiometry    C2H5(2)
 Framework group  C1[X(C2H5)]
 Deg. of freedom    15
 Full point group                 C1
 Largest Abelian subgroup         C1      NOp   1
 Largest concise Abelian subgroup C1      NOp   1
                         Standard orientation:                         
 ---------------------------------------------------------------------
 Center     Atomic     Atomic              Coordinates (Angstroms)
 Number     Number      Type              X           Y           Z
 ---------------------------------------------------------------------
    1          6             0       -0.795402   -0.000755   -0.027529
    2          6             0        0.694710   -0.001084   -0.005993
    3          1             0       -1.351097   -0.927911    0.071932
    4          1             0       -1.354551    0.926508    0.043840
    5          1             0        1.108881    0.941051   -0.381841
    6          1             0        1.074912   -0.084918    1.027277
    7          1             0        1.126007   -0.843697   -0.560072
 ---------------------------------------------------------------------
 Rotational constants (GHZ):    103.3182402     22.6795759     20.9769482
 Standard basis: 6-31+G(d,p) (6D, 7F)
 There are    63 symmetry adapted basis functions of A   symmetry.
 Integral buffers will be    131072 words long.
 Raffenetti 2 integral format.
 Two-electron integral symmetry is turned on.
    63 basis functions,    99 primitive gaussians,    63 cartesian basis functions
     9 alpha electrons        8 beta electrons
       nuclear repulsion energy        36.8690598741 Hartrees.
 NAtoms=    7 NActive=    7 NUniq=    7 SFac= 7.50D-01 NAtFMM=   80 NAOKFM=F Big=F
 One-electron integrals computed using PRISM.
 NBasis=    63 RedAO= T  NBF=    63
 NBsUse=    63 1.00D-06 NBFU=    63
 Initial guess read from the read-write file:
 Initial guess orbital symmetries:
 Alpha Orbitals:
       Occupied  (A) (A) (A) (A) (A) (A) (A) (A) (A)
       Virtual   (A) (A) (A) (A) (A) (A) (A) (A) (A) (A) (A) (A)
                 (A) (A) (A) (A) (A) (A) (A) (A) (A) (A) (A) (A)
                 (A) (A) (A) (A) (A) (A) (A) (A) (A) (A) (A) (A)
                 (A) (A) (A) (A) (A) (A) (A) (A) (A) (A) (A) (A)
                 (A) (A) (A) (A) (A) (A)
 Beta  Orbitals:
       Occupied  (A) (A) (A) (A) (A) (A) (A) (A)
       Virtual   (A) (A) (A) (A) (A) (A) (A) (A) (A) (A) (A) (A)
                 (A) (A) (A) (A) (A) (A) (A) (A) (A) (A) (A) (A)
                 (A) (A) (A) (A) (A) (A) (A) (A) (A) (A) (A) (A)
                 (A) (A) (A) (A) (A) (A) (A) (A) (A) (A) (A) (A)
                 (A) (A) (A) (A) (A) (A) (A)
 <S**2> of initial guess= 0.7538
 Harris functional with IExCor=  402 diagonalized for initial guess.
 ExpMin= 4.38D-02 ExpMax= 3.05D+03 ExpMxC= 4.57D+02 IAcc=2 IRadAn=         4 AccDes= 0.00D+00
 HarFok:  IExCor= 402 AccDes= 0.00D+00 IRadAn=         4 IDoV=1
 ScaDFX=  1.000000  1.000000  1.000000  1.000000
 Requested convergence on RMS density matrix=1.00D-08 within9000 cycles.
 Requested convergence on MAX density matrix=1.00D-06.
 Requested convergence on             energy=1.00D-06.
 No special actions if energy rises.
 Keep R1 and R2 integrals in memory in canonical form, NReq=    86886702.
 SCF Done:  E(UB+HF-LYP) =  -79.1699063086     A.U. after    9 cycles
             Convg  =    0.7781D-08             -V/T =  2.0108
             S**2   =   0.7538
 Annihilation of the first spin contaminant:
 S**2 before annihilation     0.7538,   after     0.7500
 ***** Axes restored to original set *****
 -------------------------------------------------------------------
 Center     Atomic                   Forces (Hartrees/Bohr)
 Number     Number              X              Y              Z
 -------------------------------------------------------------------
    1          6           0.000577672    0.000163640    0.000254863
    2          6          -0.002464530   -0.004442136   -0.000176609
    3          1           0.000143687    0.000558206   -0.000045805
    4          1          -0.000080008    0.000292290    0.000039894
    5          1           0.001363011    0.003193154   -0.000039446
    6          1           0.001775390   -0.000691899    0.000298764
    7          1          -0.001315222    0.000926745   -0.000331661
 -------------------------------------------------------------------
 Cartesian Forces:  Max     0.004442136 RMS     0.001466533

 GradGradGradGradGradGradGradGradGradGradGradGradGradGradGradGradGradGrad
 Berny optimization.
 Internal  Forces:  Max     0.002262112 RMS     0.000996508
 Search for a local minimum.
 Step number   1 out of a maximum of  31 on scan point     3 out of    73
 All quantities printed in internal units (Hartrees-Bohrs-Radians)
 Second derivative matrix not updated -- first step.
     Eigenvalues ---    0.00327   0.03697   0.05752   0.10252   0.10666
     Eigenvalues ---    0.11967   0.13567   0.16128   0.30881   0.33051
     Eigenvalues ---    0.33727   0.34881   0.36801   0.368981000.00000
     Eigenvalues --- 1000.000001000.000001000.000001000.000001000.00000
     Eigenvalues --- 1000.00000
 RFO step:  Lambda=-3.29534786D-04.
 Linear search not attempted -- first point.
 Iteration  1 RMS(Cart)=  0.02976849 RMS(Int)=  0.00080718
 Iteration  2 RMS(Cart)=  0.00069798 RMS(Int)=  0.00019074
 Iteration  3 RMS(Cart)=  0.00000014 RMS(Int)=  0.00019074
 Iteration  1 RMS(Cart)=  0.00000259 RMS(Int)=  0.00000306
 Iteration  2 RMS(Cart)=  0.00000122 RMS(Int)=  0.00000342
 Iteration  3 RMS(Cart)=  0.00000057 RMS(Int)=  0.00000379
 Variable       Old X    -DE/DX   Delta X   Delta X   Delta X     New X
                                 (Linear)    (Quad)   (Total)
    R1        2.81620  -0.00025   0.00000   0.00017   0.00017   2.81637
    R2        2.05130   0.00010   0.00000   0.00016   0.00016   2.05145
    R3        2.05064   0.00002   0.00000  -0.00025  -0.00025   2.05039
    R4        2.07045  -0.00011   0.00000  -0.00115  -0.00115   2.06930
    R5        2.08661   0.00090   0.00000  -0.00024  -0.00024   2.08637
    R6        2.07269  -0.00065   0.00000   0.00129   0.00129   2.07398
[...]
 Frequencies --   978.6435              1065.5165              1192.7042
 Red. masses --     1.3259                 3.3002                 1.4716
 Frc consts  --     0.7482                 2.2076                 1.2334
 IR Inten    --     0.8424                 0.1115                 2.1191
 Atom AN      X      Y      Z        X      Y      Z        X      Y      Z
   1   6     0.02   0.00  -0.09     0.33   0.00   0.01     0.00   0.13   0.00
   2   6    -0.02   0.00   0.14    -0.31   0.00  -0.02     0.00  -0.16   0.00
   3   1     0.04  -0.02   0.06     0.43  -0.04   0.03     0.44  -0.14  -0.01
   4   1     0.04   0.02   0.06     0.43   0.04   0.03    -0.44  -0.14   0.01
   5   1     0.33   0.06  -0.27    -0.44   0.03   0.02    -0.44   0.12  -0.10
   6   1    -0.76   0.00  -0.16    -0.17   0.00   0.02     0.00   0.29   0.00
   7   1     0.32  -0.06  -0.27    -0.44  -0.03   0.02     0.45   0.11   0.10
                     7                      8                      9
                     A                      A                      A
 Frequencies --  1403.9032              1471.1185              1485.8584
 Red. masses --     1.1882                 1.1001                 1.0352
 Frc consts  --     1.3798                 1.4027                 1.3466
 IR Inten    --     1.6620                 3.5531                 6.4509
 Atom AN      X      Y      Z        X      Y      Z        X      Y      Z
   1   6     0.02   0.00   0.00     0.08   0.00   0.01     0.00   0.02   0.00
   2   6     0.13   0.00  -0.02    -0.01   0.00   0.04     0.00   0.04   0.00
   3   1    -0.13   0.08   0.00    -0.43   0.30  -0.03     0.07  -0.02   0.02
   4   1    -0.13  -0.08   0.00    -0.43  -0.30  -0.03    -0.03   0.01  -0.02
   5   1    -0.45   0.10   0.25    -0.12   0.26  -0.34    -0.34  -0.03   0.37
   6   1    -0.57   0.00  -0.25     0.21   0.00   0.10     0.01  -0.68   0.00
   7   1    -0.45  -0.11   0.24    -0.12  -0.25  -0.34     0.31  -0.06  -0.41
                    10                     11                     12
                     A                      A                      A
 Frequencies --  1488.2547              2960.8049              3051.1254
 Red. masses --     1.1341                 1.0596                 1.0705
 Frc consts  --     1.4799                 5.4729                 5.8714
 IR Inten    --     3.4465                28.3410                25.5433
 Atom AN      X      Y      Z        X      Y      Z        X      Y      Z
   1   6    -0.08   0.00   0.01     0.00   0.00   0.00     0.00   0.00   0.00
   2   6     0.06   0.00   0.04    -0.03   0.00   0.06    -0.04   0.00  -0.07
   3   1     0.34  -0.25   0.02     0.00   0.00   0.00     0.00   0.00   0.00
   4   1     0.35   0.25   0.02     0.00   0.00   0.00     0.00   0.00   0.00
   5   1    -0.25   0.35  -0.35     0.06   0.14   0.10     0.25   0.57   0.31
   6   1     0.14   0.04   0.05     0.33   0.00  -0.91    -0.09   0.00   0.20
   7   1    -0.29  -0.34  -0.31     0.06  -0.14   0.10     0.25  -0.56   0.29
                    13                     14                     15
                     A                      A                      A
 Frequencies --  3097.3023              3157.7737              3259.2292
 Red. masses --     1.1025                 1.0510                 1.1186
 Frc consts  --     6.2315                 6.1747                 7.0006
 IR Inten    --    23.4177                16.4110                16.2010
 Atom AN      X      Y      Z        X      Y      Z        X      Y      Z
   1   6     0.00  -0.01   0.00    -0.06   0.00  -0.01     0.00   0.10   0.00
   2   6     0.00   0.09   0.00     0.00   0.00   0.00     0.00   0.01   0.00
   3   1     0.02   0.04   0.01     0.35   0.61   0.03    -0.37  -0.60  -0.04
   4   1    -0.02   0.04  -0.01     0.35  -0.61   0.03     0.37  -0.60   0.04
   5   1    -0.26  -0.56  -0.32     0.00   0.00   0.00    -0.02  -0.04  -0.02
   6   1     0.00   0.03   0.00     0.00   0.00   0.00     0.00   0.00   0.00
   7   1     0.26  -0.57   0.33     0.00   0.00   0.00     0.02  -0.04   0.02

 -------------------
 - Thermochemistry -
 -------------------
 Temperature   298.150 Kelvin.  Pressure   1.00000 Atm.
 Atom  1 has atomic number  6 and mass  12.00000
 Atom  2 has atomic number  6 and mass  12.00000
 Atom  3 has atomic number  1 and mass   1.00783
 Atom  4 has atomic number  1 and mass   1.00783
 Atom  5 has atomic number  1 and mass   1.00783
 Atom  6 has atomic number  1 and mass   1.00783
 Atom  7 has atomic number  1 and mass   1.00783
 Molecular mass:    29.03913 amu.
 Principal axes and moments of inertia in atomic units:
                           1         2         3
     EIGENVALUES --    17.45674  79.69675  85.98664
           X            0.99999   0.00002   0.00414
           Y           -0.00002   1.00000   0.00000
           Z           -0.00414   0.00000   0.99999
 This molecule is an asymmetric top.
 Rotational symmetry number  1.
 Rotational temperatures (Kelvin)      4.96163     1.08679     1.00729
 Rotational constants (GHZ):         103.38365    22.64510    20.98862
 Zero-point vibrational energy     155593.9 (Joules/Mol)
                                   37.18783 (Kcal/Mol)
 Warning -- explicit consideration of   2 degrees of freedom as
           vibrations may cause significant error
 Vibrational temperatures:    148.49   697.10  1170.18  1408.05  1533.04
          (Kelvin)           1716.03  2019.90  2116.61  2137.82  2141.26
                             4259.93  4389.88  4456.32  4543.33  4689.30
 
 Zero-point correction=                           0.059263 (Hartree/Particle)
 Thermal correction to Energy=                    0.063243
 Thermal correction to Enthalpy=                  0.064187
 Thermal correction to Gibbs Free Energy=         0.035019
 Sum of electronic and zero-point Energies=            -79.110841
 Sum of electronic and thermal Energies=               -79.106861
 Sum of electronic and thermal Enthalpies=             -79.105917
 Sum of electronic and thermal Free Energies=          -79.135085
 
                     E (Thermal)             CV                S
                      KCal/Mol        Cal/Mol-Kelvin    Cal/Mol-Kelvin
 Total                   39.686             11.088             61.390
 Electronic               0.000              0.000              1.377
 Translational            0.889              2.981             36.032
 Rotational               0.889              2.981             19.420
 Vibrational             37.908              5.127              4.560
 Vibration  1             0.605              1.947              3.393
 Vibration  2             0.841              1.284              0.698
                       Q            Log10(Q)             Ln(Q)
 Total Bot       0.780468D-16        -16.107645        -37.089223
 Total V=0       0.141642D+12         11.151192         25.676569
 Vib (Bot)       0.162043D-26        -26.790369        -61.687105
 Vib (Bot)  1    0.198728D+01          0.298259          0.686766
 Vib (Bot)  2    0.343849D+00         -0.463632         -1.067552
 Vib (V=0)       0.294082D+01          0.468468          1.078688
 Vib (V=0)  1    0.254921D+01          0.406406          0.935785
 Vib (V=0)  2    0.110682D+01          0.044078          0.101492
 Electronic      0.200000D+01          0.301030          0.693147
 Translational   0.615078D+07          6.788930         15.632090
 Rotational      0.391529D+04          3.592764          8.272644
 ***** Axes restored to original set *****
 -------------------------------------------------------------------
 Center     Atomic                   Forces (Hartrees/Bohr)
 Number     Number              X              Y              Z
 -------------------------------------------------------------------
    1          6          -0.000006400   -0.000001384    0.000003068
    2          6           0.000006059    0.000000631   -0.000005919
    3          1          -0.000001987   -0.000002669   -0.000004439
    4          1          -0.000007110   -0.000005122    0.000003452
    5          1           0.000009495    0.000005839    0.000001848
    6          1           0.000002714   -0.000001698   -0.000002028
    7          1          -0.000002770    0.000004403    0.000004019
 -------------------------------------------------------------------
 Cartesian Forces:  Max     0.000009495 RMS     0.000004521

 GradGradGradGradGradGradGradGradGradGradGradGradGradGradGradGradGradGrad
 Berny optimization.
 Internal  Forces:  Max     0.000006993 RMS     0.000003350
 Search for a local minimum.
 Step number   1 out of a maximum of   2 on scan point     1 out of    73
 All quantities printed in internal units (Hartrees-Bohrs-Radians)
 Second derivative matrix not updated -- analytic derivatives used.
     Eigenvalues ---    0.00359   0.03659   0.05711   0.10233   0.10631
     Eigenvalues ---    0.11927   0.13541   0.16092   0.30561   0.32661
     Eigenvalues ---    0.33351   0.34570   0.36336   0.365451000.00000
     Eigenvalues --- 1000.000001000.000001000.000001000.000001000.00000
     Eigenvalues --- 1000.00000
 Angle between quadratic step and forces=  71.09 degrees.
 Linear search not attempted -- first point.
 Iteration  1 RMS(Cart)=  0.00010294 RMS(Int)=  0.00000002
 Iteration  2 RMS(Cart)=  0.00000001 RMS(Int)=  0.00000001
 Iteration  1 RMS(Cart)=  0.00000000 RMS(Int)=  0.00000000
 Variable       Old X    -DE/DX   Delta X   Delta X   Delta X     New X
                                 (Linear)    (Quad)   (Total)
    R1        2.81620   0.00000   0.00000  -0.00001  -0.00001   2.81619
    R2        2.05087   0.00000   0.00000   0.00000   0.00000   2.05087
    R3        2.05091   0.00000   0.00000  -0.00001  -0.00001   2.05091
    R4        2.07153   0.00000   0.00000   0.00000   0.00000   2.07153
    R5        2.08669   0.00000   0.00000  -0.00001  -0.00001   2.08668
    R6        2.07136   0.00001   0.00000   0.00002   0.00002   2.07138
    A1        2.11157   0.00001   0.00000   0.00007   0.00007   2.11164
    A2        2.11138  -0.00001   0.00000  -0.00003  -0.00003   2.11135
    A3        2.05170   0.00000   0.00000   0.00000   0.00000   2.05171
    A4        1.95163   0.00000   0.00000  -0.00002  -0.00002   1.95161
    A5        1.95300   0.00000   0.00000   0.00005   0.00005   1.95305
    A6        1.95167   0.00000   0.00000   0.00001   0.00001   1.95167
    A7        1.85688  -0.00001   0.00000  -0.00004  -0.00004   1.85684
    A8        1.88800   0.00000   0.00000   0.00000   0.00000   1.88800
    A9        1.85721   0.00000   0.00000   0.00000   0.00000   1.85721
    D1        2.69747   0.00000   0.00000   0.00000   0.00000   2.69747
    D2       -1.50448   0.00000   0.00000  -0.00003  -0.00003  -1.50451
    D3        0.57719   0.00000   0.00000   0.00001   0.00001   0.57721
    D4       -0.58752   0.00000   0.00000   0.00036   0.00036  -0.58716
    D5        1.49371   0.00000   0.00000   0.00033   0.00033   1.49404
    D6       -2.70780   0.00000   0.00000   0.00037   0.00037  -2.70743
         Item               Value     Threshold  Converged?
 Maximum Force            0.000007     0.000450     YES
 RMS     Force            0.000003     0.000300     YES
 Maximum Displacement     0.000220     0.001800     YES
 RMS     Displacement     0.000103     0.001200     YES
 Predicted change in Energy=-1.451316D-09
 Optimization completed.
    -- Stationary point found.
                           ----------------------------
                           !   Optimized Parameters   !
                           ! (Angstroms and Degrees)  !
 --------------------------                            --------------------------
 ! Name  Definition              Value          Derivative Info.                !
 --------------------------------------------------------------------------------
 ! R1    R(1,2)                  1.4903         -DE/DX =    0.0                 !
 ! R2    R(1,3)                  1.0853         -DE/DX =    0.0                 !
 ! R3    R(1,4)                  1.0853         -DE/DX =    0.0                 !
 ! R4    R(2,5)                  1.0962         -DE/DX =    0.0                 !
 ! R5    R(2,6)                  1.1042         -DE/DX =    0.0                 !
 ! R6    R(2,7)                  1.0961         -DE/DX =    0.0                 !
 ! A1    A(2,1,3)              120.9842         -DE/DX =    0.0                 !
 ! A2    A(2,1,4)              120.9732         -DE/DX =    0.0                 !
 ! A3    A(3,1,4)              117.554          -DE/DX =    0.0                 !
 ! A4    A(1,2,5)              111.8204         -DE/DX =    0.0                 !
 ! A5    A(1,2,6)              111.8987         -DE/DX =    0.0                 !
 ! A6    A(1,2,7)              111.8222         -DE/DX =    0.0                 !
 ! A7    A(5,2,6)              106.3914         -DE/DX =    0.0                 !
 ! A8    A(5,2,7)              108.1747         -DE/DX =    0.0                 !
 ! A9    A(6,2,7)              106.4103         -DE/DX =    0.0                 !
 ! D1    D(3,1,2,5)            154.5538         -DE/DX =    0.0                 !
 ! D2    D(3,1,2,6)            -86.2004         -DE/DX =    0.0                 !
 ! D3    D(3,1,2,7)             33.0708         -DE/DX =    0.0                 !
 ! D4    D(4,1,2,5)            -33.6625         -DE/DX =    0.0                 !
 ! D5    D(4,1,2,6)             85.5833         -DE/DX =    0.0                 !
 ! D6    D(4,1,2,7)           -155.1455         -DE/DX =    0.0                 !
 --------------------------------------------------------------------------------
 Iteration  1 RMS(Cart)=  0.01099499 RMS(Int)=  0.01307463
 Iteration  2 RMS(Cart)=  0.00015887 RMS(Int)=  0.01307343
 Iteration  3 RMS(Cart)=  0.00000258 RMS(Int)=  0.01307343
 Iteration  4 RMS(Cart)=  0.00000004 RMS(Int)=  0.01307343
 Iteration  1 RMS(Cart)=  0.00518961 RMS(Int)=  0.00616202
 Iteration  2 RMS(Cart)=  0.00244846 RMS(Int)=  0.00688672
 Iteration  3 RMS(Cart)=  0.00115463 RMS(Int)=  0.00764518
 Iteration  4 RMS(Cart)=  0.00054436 RMS(Int)=  0.00806864
 Iteration  5 RMS(Cart)=  0.00025662 RMS(Int)=  0.00828031
 Iteration  6 RMS(Cart)=  0.00012096 RMS(Int)=  0.00838253
 Iteration  7 RMS(Cart)=  0.00005702 RMS(Int)=  0.00843123
 Iteration  8 RMS(Cart)=  0.00002688 RMS(Int)=  0.00845430
 Iteration  9 RMS(Cart)=  0.00001267 RMS(Int)=  0.00846519
 Iteration 10 RMS(Cart)=  0.00000597 RMS(Int)=  0.00847034
 Iteration 11 RMS(Cart)=  0.00000281 RMS(Int)=  0.00847276
 Iteration 12 RMS(Cart)=  0.00000133 RMS(Int)=  0.00847390
 Iteration 13 RMS(Cart)=  0.00000063 RMS(Int)=  0.00847444
 GradGradGradGradGradGradGradGradGradGradGradGradGradGradGradGradGradGrad

 1\1\GINC-NODE34\Scan\UB3LYP\6-31+G(d,p)\C2H5(2)\CFGOLD\09-Mar-2010\0\\
 #N Geom=AllCheck Guess=Read SCRF=Check GenChk UB3LYP/6-31+G(d,p) Freq\
 \Title Card Required\\0,2\C,-0.0287593571,-0.0646326655,-0.0002804654\
 C,-0.0065073507,-0.0198038191,1.4891489407\H,-0.6102390262,0.651367271
 7,-0.572158726\H,0.6349707616,-0.7249741919,-0.5491703028\H,0.22126256
 77,-1.000419111,1.9229488295\H,0.7629858895,0.6752194306,1.8688052556\
 H,-0.9630258541,0.3223362634,1.900828209\\Version=AM64L-G03RevD.01\Sta
 te=2-A\HF=-79.1701039,-0.0001933,0.0000113,-0.0000085,0.0003085,0.0000
 002,-0.0000052,-0.0008369,-0.0001078,-0.0000038,0.0117087,-0.0025121,0
 .0001773,-0.000489,0.0022899,0.0005694,0.0000677,-0.0149848,-0.0008797
 ,-0.0032373,-0.0001841,0.0024177,0.0847921,0.0002315,0.,0.,0.,0.,0.,0.
 ,0.,0.,0.,0.,0.,0.,-0.1114292,-0.0084019,-0.0000083,1.942976,-0.007851
 7,-0.0231854,-0.0952938,0.0246937,-0.0000011,1.7792603,-0.0576112,0.00
 44649,-0.0030695,0.1142875,-0.0012026,0.1146896,0.0001658,0.0518539,0.
 0159373,0.0018494,-0.3647812,0.1232307,-2.0089077,-0.3359417,1.9482905
 ,-0.353335,-0.0000026,-0.0616544,0.,0.,0.,0.,0.,0.,0.,0.,0.\S2=0.75378
 8,0.000033,-0.003284,-0.000119,0.000049,0.00006,0.000453,-0.00015,-0.0
 00049,-0.000025,0.,0.092665,0.010845,0.001099,0.000009,-0.001094,0.008
 807,0.011029,0.000073,-0.006191,0.002126,0.00915,-0.000446,-0.013377,0
 .,0.,0.,0.,0.,0.,0.,0.,0.,0.,0.,0.,-0.276992,0.128946,-0.011037,0.0784
 89,0.,0.010765,-0.007148,-0.024529,-0.100697,-0.002399,-0.000002,0.000
 473,-0.058479,0.010269,-0.936838,-0.024657,-0.000003,-0.008131,-0.0006
 42,0.057186,0.001243,0.001656,-0.432041,0.000176,-0.001289,-0.123092,-
 0.000289,0.032241,0.,0.,0.,0.,0.,0.,0.,0.,0.\S2-1=0.,0.000023,0.000891
 ,-0.000006,-0.00322,-0.000529,-0.000006,0.000076,-0.000914,0.,0.000011
 ,-0.000478,-0.004318,-0.000043,-0.020261,0.111706,-0.000067,0.004795,-
 0.001632,0.000263,0.004317,-0.001815,0.004639,0.039859,0.,0.,0.,0.,0.,
 0.,0.,0.,0.,0.,0.,0.,-0.006881,-0.248905,-0.000003,0.041768,0.000002,0
 .011103,-0.000001,0.003945,-0.000001,-0.035967,-0.000679,-0.18896,0.00
 0026,-0.001133,-0.614937,0.007944,0.000003,-0.005102,0.069569,0.092053
 ,-0.066507,0.061779,0.000003,-0.179364,-0.000275,0.039626,-0.000291,-0
 .011686,0.,0.,0.,0.,0.,0.,0.,0.,0.\S2A=0.75001,-0.000137,0.00011,-0.00
 0508,0.001672,0.000815,-0.000152,0.,0.,-0.000634,0.024179,0.005627,0.0
 00023,-0.00001,0.019584,0.024462,-0.00041,0.000374,0.002927,0.049856,-
 0.000564,-0.037775,0.000324,-0.015689,0.,0.,0.,0.,0.,0.,0.,0.,0.,0.,0.
 ,0.,-0.000002,0.074439,-0.006563,0.004448,-0.000004,-0.004535,0.540373
 ,-0.00454,0.404363,-0.060343,-0.001156,0.004419,-0.005008,-0.04817,0.,
 0.001221,-0.000066,0.019756,-0.000023,0.003885,-0.40238,-0.085334,0.00
 0437,-0.002048,-0.025372,-0.655369,-0.000013,-0.01352,0.,0.,0.,0.,0.,0
 .,0.,0.,0.\RMSD=2.084e-09,1.075e-07,-4.703e-03,6.042e-05,-2.790e-03,-4
 .757e-06,-9.251e-07,-2.119e-04,-1.666e-03,-3.374e-02,1.062e-06,-4.442e
 -03,1.871e-03,-3.281e-03,4.866e-06,-8.398e-03,-3.391e-04,1.102e-02,-1.
 331e-03,1.126e-01,-7.832e-04,3.233e-03,6.689e-04,3.814e-02,0.000e+00,0
 .000e+00,0.000e+00,0.000e+00,0.000e+00,0.000e+00,0.000e+00,0.000e+00,0
 .000e+00,0.000e+00,0.000e+00,0.000e+00,-4.157e-03,2.116e-01,-1.884e-03
 ,2.285e-04,-9.193e-06,-4.445e-04,-5.813e-01,2.931e-03,-6.273e-01,2.237
 e-04,-6.800e-06,-2.129e-02,-9.064e-02,-2.108e-01,3.654e-07,-2.588e-02,
 -3.948e-01,5.177e-05,-1.855e-03,-4.759e-02,1.671e-02,-1.518e-01,5.296e
 -05,5.055e-02,-3.417e-02,-1.016e+00,1.324e-01,-4.112e-05,0.000e+00,0.0
 00e+00,0.000e+00,0.000e+00,0.000e+00,0.000e+00,0.000e+00,0.000e+00,0.0
 00e+00\ZeroPoint=0.0592626,0.0000604,0.0004534,-0.0001497,-0.0000485,-
 0.0000247,0.,0.0926658,0.0108447,0.001129,0.000001,-0.0005434,0.008897
 2,0.0133532,0.0000044,-0.0003054,0.0021265,0.0091503,-0.0004249,-0.023
 5645,-0.0197006,0.001645,-0.0104451,-0.0011311,0.,0.,0.,0.,0.,0.,0.,0.
 ,0.,0.,0.,0.,0.0000011,0.0107657,-0.0071475,-0.0245292,-0.1006968,-0.0
 024006,-0.0000025,0.0004735,-0.0584785,0.010269,-0.936838,-0.0246567,0
 .0000027,-0.0081171,-0.0006146,0.0571768,-0.000043,0.0037953,-0.431721
 ,-0.0018556,-0.0012892,-0.1230923,-0.000289,-0.6015248,-0.0000569,-0.0
 088225,-0.0001677,0.0001497,0.,0.,0.,0.,0.,0.,0.,0.,0.\Thermal=0.06324
 32,-0.0005077,0.001672,0.0008148,-0.0001515,0.0000001,0.,-0.0006339,0.
 0241795,0.0056273,0.0000028,-0.000005,0.0195839,0.024462,-0.0000101,0.
 0003479,0.0029266,0.0498563,-0.0005635,-0.037775,-0.0000074,0.000003,0
 .0007916,-0.0094465,0.,0.,0.,0.,0.,0.,0.,0.,0.,0.,0.,0.,-0.0065587,0.0
 044568,-0.0000037,-0.0045354,0.5404041,-0.0045441,0.4043427,-0.0603429
 ,-0.0011562,0.0044194,-0.0050077,-0.0481701,-0.0000001,0.0012211,-0.00
 00659,0.0197481,-0.0000231,0.0038847,-0.402244,-0.0855542,0.0004373,-0
 .0020478,-0.025372,-0.6553693,-0.0000133,-0.2084353,-0.0001057,0.02369
 09,0.,0.,0.,0.,0.,0.,0.,0.,0.\PG=C01 [X(C2H5)]\\@


 BE CAREFUL NOT TO BECOME TOO GOOD OF A SONGBIRD OR 
 THEY'LL THROW YOU INTO A CAGE.

                                    -- SNOOPY TO WOODSTOCK
 Job cpu time:  0 days  0 hours  3 minutes  8.9 seconds.
 File lengths (MBytes):  RWF=     23 Int=      0 D2E=      0 Chk=     15 Scr=      1
 Normal termination of Gaussian 03 at Tue Mar  9 14:14:31 2010.
