
Running Job 1 of 1 c5h11o4scan5.in
qchem c5h11o4scan5.in_7449.0 /tmp/qchem7449/ 4
/opt/qchem/bin/mpi/mpirun_qchem -machinefile /tmp/281349.1.normal2/hostfile -np 4 /opt/qchem/exe/qcprog.exe c5h11o4scan5.in_7449.0 /tmp/qchem7449/

Process 0 of 4 is on node61.cluster - thread support 0
Process 2 of 4 is on node61.cluster - thread support 0
Process 3 of 4 is on node61.cluster - thread support 0
Process 1 of 4 is on node61.cluster - thread support 0
initial socket setup ...start
initial socket setup ...done 
now start server 0 ... 
                  Welcome to Q-Chem
     A Quantum Leap Into The Future Of Chemistry

 Y. Shao, L. Fusti-Molnar, Y. Jung, J. Kussmann, C. Ochsenfeld, S. T. Brown, 
 A. T. B. Gilbert, L. V. Slipchenko, S. V. Levchenko, D. P. O'Neill, 
 R. A. DiStasio Jr., R. C. Lochan, T. Wang, G. J. O. Beran, N. A. Besley, 
 J. M. Herbert, C. Y. Lin, T. Van Voorhis, S. H. Chien, A. Sodt, R. P. Steele, 
 V. A. Rassolov, P. E. Maslen, P. P. Korambath, R. D. Adamson, B. Austin, 
 J. Baker, E. F. C. Byrd, H. Dachsel, R. J. Doerksen, A. Dreuw, B. D. Dunietz, 
 A. D. Dutoi, T. R. Furlani, S. R. Gwaltney, A. Heyden, S. Hirata, C.-P. Hsu, 
 G. Kedziora, R. Z. Khaliullin, P. Klunzinger, A. M. Lee, M. S. Lee, W. Liang, 
 I. Lotan, N. Nair, B. Peters, E. I. Proynov, P. A. Pieniazek, Y. M. Rhee, 
 J. Ritchie, E. Rosta, C. D. Sherrill, A. C. Simmonett, J. E. Subotnik, 
 H. L. Woodcock III, W. Zhang, A. T. Bell, A. K. Chakraborty, D. M. Chipman, 
 F. J. Keil, A. Warshel, W. J. Hehre, H. F. Schaefer III, J. Kong, 
 A. I. Krylov, P. M. W. Gill, M. Head-Gordon

 Additional authors for Version 3.1: 
 Z. Gan, Y. Zhao, N. E. SchultzD. Truhlar, E. Epifanovsky, M. Oana

 Additional authors for Version 3.2: 
 R. Baer, B. R. Brooks, D. Casanova, J.-D. Chai, C.-L. Cheng, C. Cramer, 
 D. Crittenden, A. Ghysels, G. Hawkins, E. G. Hohenstein, C. Kelley, 
 W. Kurlancheek, D. Liotard, E. Livshits, P. Manohar, A. Marenich, 
 D. Neuhauser, R. Olson, M. A. Rohrdanz, K. S. Thanthiriwatte, A. J. W. Thom, 
 V. Vanovschi, C. F. Williams, Q. Wu, Z.-Q. You

 Additional authors for Version 4.0: 
 A. Aspuru-Guzik, Y. Bernard, C. Chang, J. Deng, A. Dreuw, M. Diedenhofen, 
 R. G. Edgar, D. Ghosh, W. A. Goddard III, M. Goldey, L. D. Jacobson, 
 M. Gordon, B. Kaduk, I. Kaliman, K. Khistyaev, R. King, A. Klamt, 
 D. Kosenkov, T. Kus, D. Lambrecht, A. Landau, A. W. Lange, K. Lawler, F. Liu, 
 J. Liu, R. Olivares-Amaya, S. P. Mao, J. Parkhill, N. Russ, M. Schmidt, 
 N. Shenvi, D. Small, Y. C. Su, E. Sundstrom, L. Vogt, O. Vydrov, M. Watson, 
 M. Wormit, X. Xu, S. Yeganeh, I. Y. Zhang, D. Zuev

 Additional authors for Version 4.1: 
 X. Feng, M. W. D. Hanson-Heine, P. Horn, H. Ji, A. Laurent, R. Peverati, 
 N. Mardirossian, N. Sergueev, S. Sharada, P. Zimmerman


 Q-Chem, Version 4.1, Q-Chem, Inc., Pittsburgh, PA (2013).

 Intel X86 Linux Version 4.1.0.1 

 Q-chem begins on Wed Apr  9 16:48:00 2014  

Host: 
0

     Scratch files written to /tmp/qchem7449.0//
 Oct1213 14483_epif 4150   
 Parallel job on  4  processors
Processing $rem in /opt/qchem/config/preferences.
 MEM_TOTAL  2000 
Warning: disabling incdft.
 Q-Chem warning in module /home/scratch/svnadmin/14483_epif/qchem/forms1/BasisType.C, line 1125:

 Setting pure/cartesian flag to 2111 for general basis


Finally everything over in PARseQInput

--------------------------------------------------------------
User input:
--------------------------------------------------------------
$rem
JOBTYPE pes_scan
EXCHANGE M062X
BASIS gen
GUI=2
UNRESTRICTED TRUE
CORRELATION NONE
$end

$scan
tors 14 13 16 17 -180 180 15
$end

$comment
c5h11o-1
$end

$molecule
READ c5h11o-4MG3S.out
$end

$basis
H  0
S  3 1.00
3.386500000000E+01 2.549380000000E-02
5.094790000000E+00 1.903730000000E-01
1.158790000000E+00 8.521610000000E-01
S  1 1.00
3.258400000000E-01 1.000000000000E+00
S  1 1.00
1.027410000000E-01 1.000000000000E+00
S  1 1.00
3.600000000000E-02 1.000000000000E+00
P  1 1.00
1.500000000000E+00 1.000000000000E+00
P  1 1.00
3.750000000000E-01 1.000000000000E+00
****
C 0
S  6 1.00
4.563240000000E+03 1.966650000000E-03
6.820240000000E+02 1.523060000000E-02
1.549730000000E+02 7.612690000000E-02
4.445530000000E+01 2.608010000000E-01
1.302900000000E+01 6.164620000000E-01
1.827730000000E+00 2.210060000000E-01
S  3 1.00
2.096420000000E+01 1.146600000000E-01
4.803310000000E+00 9.199990000000E-01
1.459330000000E+00 -3.030680000000E-03
S  1 1.00
4.834560000000E-01 1.000000000000E+00
S  1 1.00
1.455850000000E-01 1.000000000000E+00
S  1 1.00
4.380000000000E-02 1.000000000000E+00
P  3 1.00
2.096420000000E+01 4.024870000000E-02
4.803310000000E+00 2.375940000000E-01
1.459330000000E+00 8.158540000000E-01
P  1 1.00
4.834560000000E-01 1.000000000000E+00
P  1 1.00
1.455850000000E-01 1.000000000000E+00
P  1 1.00
4.380000000000E-02 1.000000000000E+00
D  1 1.00
1.252000000000E+00 1.000000000000E+00
D  1 1.00
3.130000000000E-01 1.000000000000E+00
F  1 1.00
8.000000000000E-01 1.000000000000E+00
****
O  0
S  6 1.00
8.588500000000E+03 1.895150000000E-03
1.297230000000E+03 1.438590000000E-02
2.992960000000E+02 7.073200000000E-02
8.737710000000E+01 2.400010000000E-01
2.567890000000E+01 5.947970000000E-01
3.740040000000E+00 2.808020000000E-01
S  3 1.00
4.211750000000E+01 1.138890000000E-01
9.628370000000E+00 9.208110000000E-01
2.853320000000E+00 -3.274470000000E-03
S  1 1.00
9.056610000000E-01 1.000000000000E+00
S  1 1.00
2.556110000000E-01 1.000000000000E+00
S  1 1.00
8.450000000000E-02 1.000000000000E+00
P  3 1.00
4.211750000000E+01 3.651140000000E-02
9.628370000000E+00 2.371530000000E-01
2.853320000000E+00 8.197020000000E-01
P  1 1.00
9.056610000000E-01 1.000000000000E+00
P  1 1.00
2.556110000000E-01 1.000000000000E+00
P  1 1.00
8.450000000000E-02 1.000000000000E+00
D  1 1.00
2.584000000000E+00 1.000000000000E+00
D  1 1.00
6.460000000000E-01 1.000000000000E+00
F  1 1.00
1.400000000000E+00 1.000000000000E+00
****
$end

--------------------------------------------------------------
 ----------------------------------------------------
       Standard Nuclear Orientation (Angstroms)
    I     Atom         X            Y            Z
 ----------------------------------------------------
    1      C       1.046034     0.027947     0.142240
    2      C       2.172159     1.010104     0.078293
    3      H       3.068700     0.628900     0.577972
    4      H       1.901594     1.965580     0.540880
    5      H       2.457945     1.229040    -0.965937
    6      C       1.363390    -1.416702    -0.095124
    7      H       2.354626    -1.668444     0.293780
    8      H       0.638956    -2.090108     0.374370
    9      H       1.367294    -1.657815    -1.173425
   10      C      -0.322951     0.546010    -0.182890
   11      H      -0.479187     1.515335     0.306323
   12      H      -0.397191     0.743151    -1.273193
   13      C      -1.477091    -0.372844     0.213062
   14      H      -1.411083    -0.618845     1.277297
   15      H      -1.439815    -1.314500    -0.351430
   16      O      -2.737227     0.253432     0.043940
   17      H      -2.853264     0.473158    -0.891646
 ----------------------------------------------------
 Molecular Point Group                 C1    NOp =  1
 Largest Abelian Subgroup              C1    NOp =  1
 Nuclear Repulsion Energy =   242.7758130833 hartrees
 There are       25 alpha and       24 beta electrons
 Requested basis set is non-standard
 There are 138 shells and 314 basis functions

Total QAlloc Memory Limit   2000 MB
Mega-Array Size        61 MB
MEM_STATIC part        62 MB
A total of 1 constraints
  
            1
    1   3.0100000
    2  14.0100000
    3  13.0100000
    4  16.0100000
    5  17.0100000
    6-180.0000000
    7 180.0000000
    8  15.0000000
    9   0.0000000
   10   0.0000000
 A cutoff of  1.0D-11 yielded   8903 shell pairs
 There are     45585 function pairs (     54663 Cartesian)
 Smallest overlap matrix eigenvalue = 1.55E-05

  Scale SEOQF with 1.000000e-01/1.000000e-01/1.000000e-01

 Standard Electronic Orientation quadrupole field applied
 Nucleus-field energy     =     0.0000000078 hartrees
 Guess MOs from core Hamiltonian diagonalization
 An unrestricted hybrid HF-DFT SCF calculation will be
 performed using Pulay DIIS extrapolation
 Exchange:     0.5400 Hartree-Fock + 1.0000 M062X
 SCF converges when DIIS error is below 1.0E-08
 ---------------------------------------
  Cycle       Energy         DIIS Error
 ---------------------------------------
    1    -192.3974245737      9.19E-02
    2    -167.5973246247      4.85E-02
    3    -168.0983484224      6.65E-02
    4    -239.4594144129      3.67E-02
    5    -267.8739136187      1.80E-02
    6    -271.2904181794      8.84E-03
    7    -272.2164197863      2.34E-03
    8    -272.2645628205      1.01E-03
    9    -272.2753581462      3.26E-04
   10    -272.2772462309      1.15E-04
   11    -272.2775517814      4.94E-05
   12    -272.2776013041      8.74E-06
   13    -272.2776042812      2.93E-06
   14    -272.2776049302      1.30E-06
   15    -272.2776050733      4.07E-07
   16    -272.2776050882      1.04E-07
   17    -272.2776050887      3.05E-08
   18    -272.2776050884      1.04E-08
   19    -272.2776050879      2.81E-09 Convergence criterion met
 ---------------------------------------
 <S^2> = 0.7551
 SCF time:  CPU 332.91 s  wall 340.78 s
 SCF   energy in the final basis set = -272.2776050879
 Total energy in the final basis set = -272.2776050879
 Analysis of SCF Wavefunction
 
 --------------------------------------------------------------
                    Orbital Energies (a.u.)
 --------------------------------------------------------------
 
 Alpha MOs
 -- Occupied --
-19.621 -10.582 -10.549 -10.537 -10.533 -10.530  -1.142  -0.917
 -0.826  -0.788  -0.722  -0.621  -0.585  -0.540  -0.528  -0.502
 -0.487  -0.471  -0.457  -0.436  -0.420  -0.407  -0.392  -0.347
 -0.234
 -- Virtual --
 -0.004   0.007   0.012   0.020   0.032   0.036   0.041   0.047
  0.049   0.067   0.076   0.086   0.089   0.099   0.109   0.119
  0.121   0.128   0.132   0.143   0.151   0.154   0.160   0.161
  0.166   0.174   0.175   0.178   0.181   0.202   0.206   0.209
  0.222   0.231   0.237   0.244   0.256   0.261   0.273   0.283
  0.297   0.316   0.323   0.328   0.330   0.334   0.350   0.358
  0.363   0.376   0.413   0.436   0.460   0.473   0.484   0.509
  0.520   0.530   0.549   0.560   0.566   0.581   0.584   0.593
  0.596   0.604   0.606   0.611   0.631   0.652   0.658   0.662
  0.675   0.692   0.696   0.712   0.723   0.735   0.737   0.747
  0.773   0.791   0.793   0.818   0.866   0.874   0.882   0.922
  0.934   0.942   0.952   0.999   1.014   1.024   1.050   1.076
  1.093   1.117   1.137   1.153   1.164   1.181   1.191   1.193
  1.204   1.213   1.226   1.246   1.257   1.260   1.280   1.289
  1.302   1.306   1.321   1.337   1.353   1.372   1.383   1.397
  1.415   1.428   1.446   1.457   1.466   1.468   1.496   1.509
  1.526   1.532   1.548   1.567   1.573   1.591   1.608   1.625
  1.634   1.648   1.661   1.705   1.750   1.762   1.803   1.847
  1.930   2.071   2.121   2.296   2.326   2.407   2.419   2.494
  2.521   2.539   2.587   2.624   2.661   2.701   2.715   2.762
  2.793   2.815   2.825   2.840   2.854   2.894   2.922   2.923
  2.957   2.970   2.984   2.990   3.012   3.053   3.070   3.096
  3.137   3.156   3.173   3.187   3.198   3.220   3.221   3.259
  3.263   3.280   3.325   3.327   3.337   3.365   3.373   3.403
  3.411   3.442   3.458   3.485   3.488   3.529   3.556   3.561
  3.601   3.615   3.622   3.643   3.662   3.680   3.704   3.722
  3.742   3.755   3.788   3.814   3.831   3.858   3.879   3.880
  3.920   3.925   3.952   3.981   4.006   4.013   4.044   4.059
  4.087   4.097   4.132   4.155   4.168   4.188   4.202   4.222
  4.235   4.240   4.260   4.273   4.304   4.334   4.355   4.360
  4.383   4.421   4.454   4.471   4.483   4.487   4.512   4.522
  4.540   4.585   4.603   4.631   4.656   4.740   4.788   4.872
  4.930   5.038   5.171   5.236   5.255   5.283   5.421   5.448
  5.480   5.494   5.506   5.572   5.597   5.603   5.619   5.647
  5.669   5.673   5.847   5.943   6.530   6.981   7.160   7.200
  7.242   7.514   7.649  24.126  24.368  24.413  24.459  24.516
 50.140
 
 Beta MOs
 -- Occupied --
-19.621 -10.581 -10.542 -10.537 -10.533 -10.531  -1.142  -0.899
 -0.822  -0.785  -0.719  -0.601  -0.584  -0.531  -0.518  -0.491
 -0.478  -0.467  -0.449  -0.434  -0.414  -0.402  -0.390  -0.345
 -- Virtual --
 -0.019   0.006   0.009   0.015   0.022   0.035   0.039   0.048
  0.052   0.054   0.071   0.078   0.083   0.089   0.097   0.109
  0.116   0.125   0.130   0.134   0.139   0.151   0.152   0.157
  0.162   0.164   0.172   0.176   0.179   0.184   0.198   0.204
  0.210   0.225   0.231   0.236   0.244   0.258   0.260   0.275
  0.286   0.298   0.316   0.321   0.331   0.336   0.340   0.348
  0.361   0.367   0.382   0.415   0.435   0.459   0.471   0.485
  0.511   0.522   0.532   0.554   0.562   0.566   0.584   0.587
  0.593   0.599   0.604   0.607   0.612   0.631   0.654   0.660
  0.667   0.677   0.690   0.702   0.712   0.719   0.733   0.734
  0.745   0.768   0.789   0.791   0.817   0.868   0.875   0.883
  0.922   0.934   0.945   0.952   1.000   1.013   1.025   1.049
  1.073   1.092   1.117   1.135   1.151   1.162   1.176   1.188
  1.193   1.204   1.215   1.225   1.247   1.257   1.263   1.282
  1.290   1.306   1.315   1.322   1.339   1.356   1.375   1.389
  1.401   1.415   1.428   1.448   1.456   1.463   1.469   1.495
  1.503   1.521   1.529   1.545   1.565   1.573   1.591   1.609
  1.621   1.632   1.648   1.663   1.708   1.752   1.765   1.808
  1.852   1.931   2.072   2.122   2.297   2.325   2.413   2.425
  2.497   2.527   2.543   2.595   2.635   2.672   2.706   2.729
  2.772   2.809   2.832   2.839   2.855   2.877   2.916   2.931
  2.938   2.960   2.974   2.989   3.007   3.024   3.067   3.081
  3.101   3.144   3.159   3.177   3.190   3.209   3.223   3.230
  3.259   3.268   3.281   3.325   3.328   3.339   3.368   3.373
  3.411   3.413   3.453   3.469   3.495   3.514   3.547   3.560
  3.578   3.614   3.616   3.626   3.654   3.677   3.687   3.707
  3.735   3.749   3.760   3.795   3.820   3.837   3.863   3.887
  3.889   3.924   3.927   3.954   3.985   4.008   4.016   4.048
  4.069   4.098   4.102   4.139   4.161   4.170   4.194   4.211
  4.221   4.233   4.249   4.273   4.283   4.309   4.342   4.359
  4.362   4.396   4.420   4.460   4.475   4.486   4.491   4.518
  4.528   4.551   4.586   4.614   4.636   4.682   4.754   4.800
  4.907   4.961   5.061   5.177   5.237   5.255   5.284   5.423
  5.454   5.499   5.515   5.517   5.572   5.591   5.605   5.616
  5.645   5.668   5.669   5.848   5.943   6.530   6.981   7.160
  7.200   7.242   7.514   7.649  24.133  24.369  24.414  24.461
 24.524  50.140
 --------------------------------------------------------------
 
          Ground-State Mulliken Net Atomic Charges

     Atom                 Charge (a.u.)    Spin (a.u.)
  --------------------------------------------------------
      1 C                     0.240093       0.886524
      2 C                    -0.480310      -0.026358
      3 H                     0.131449       0.010946
      4 H                     0.131872       0.010231
      5 H                     0.126705       0.058587
      6 C                    -0.547481      -0.058475
      7 H                     0.132291       0.007334
      8 H                     0.144259       0.014209
      9 H                     0.141578       0.060393
     10 C                    -0.194146      -0.050157
     11 H                     0.161409       0.015100
     12 H                     0.118872       0.063549
     13 C                    -0.388223       0.010688
     14 H                     0.184313      -0.000352
     15 H                     0.168699      -0.002806
     16 O                    -0.326221       0.001254
     17 H                     0.254841      -0.000666
  --------------------------------------------------------
  Sum of atomic charges =     0.000000
  Sum of spin   charges =     1.000000

 -----------------------------------------------------------------
                    Cartesian Multipole Moments
 -----------------------------------------------------------------
    Charge (ESU x 10^10)
                 0.0000
    Dipole Moment (Debye)
         X       1.3630      Y      -0.2561      Z      -1.4354
       Tot       1.9959
    Quadrupole Moments (Debye-Ang)
        XX     -44.5965     XY       0.2745     YY     -39.3722
        XZ       4.0054     YZ      -0.8080     ZZ     -38.4899
    Octapole Moments (Debye-Ang^2)
       XXX       9.2914    XXY      -0.4028    XYY      -4.1217
       YYY       1.3089    XXZ     -12.2192    XYZ       2.5776
       YYZ       0.7030    XZZ      -9.6359    YZZ       0.7927
       ZZZ      -2.8911
    Hexadecapole Moments (Debye-Ang^3)
      XXXX    -838.6582   XXXY     -11.7293   XXYY    -175.0192
      XYYY      -0.7090   YYYY    -253.7209   XXXZ      48.4500
      XXYZ      -9.6744   XYYZ       2.9784   YYYZ       1.4441
      XXZZ    -130.7292   XYZZ      -2.1867   YYZZ     -54.9739
      XZZZ       2.0519   YZZZ      -1.6275   ZZZZ     -78.8836
 -----------------------------------------------------------------
 Calculating analytic gradient of the SCF energy
 Gradient of Coulomb and Exchange Energy
            1           2           3           4           5           6
    1  -3.3268755  -3.4360005  -3.5034042   0.2791030  -1.5756699  -3.3642714
    2  -0.4388102  -2.2366329   0.8379763  -3.6577392  -1.1982700   3.4894655
    3  -1.7270613  -0.2034387  -1.6441065  -1.5267911   3.3376563   0.0358993
            7           8           9          10          11          12
    1  -3.6679522   2.2209148  -0.2283270   1.6915739   0.6102693   0.2289226
    2   1.4845919   3.0388866   1.4927153   0.3110487  -4.3612199  -1.1854310
    3  -1.2499614  -1.4876984   3.5808361   0.0509045  -1.6773202   4.1385577
           13          14          15          16          17
    1   1.8498975   0.0352152   0.1996618  10.4651636   1.5217789
    2   0.4110671   1.3123141   3.8925727  -2.0228315  -1.1697034
    3  -0.4216930  -4.3407400   1.9273984  -2.6693192   3.8768774
 Gradient of SCF Energy
            1           2           3           4           5           6
    1   0.0000643  -0.0009150   0.0024389  -0.0004290   0.0009412  -0.0005015
    2  -0.0004411  -0.0004052  -0.0010151   0.0028333   0.0007891   0.0011620
    3   0.0023065  -0.0009108   0.0014447   0.0017386  -0.0026719  -0.0001939
            7           8           9          10          11          12
    1   0.0026944  -0.0016851   0.0001581   0.0002736  -0.0006158  -0.0002261
    2  -0.0008454  -0.0021704  -0.0008977  -0.0009642   0.0023775   0.0007572
    3   0.0010388   0.0012664  -0.0030778   0.0000855   0.0014900  -0.0032577
           13          14          15          16          17
    1   0.0005370  -0.0005421  -0.0003944  -0.0008507  -0.0009477
    2   0.0007251  -0.0001818  -0.0023772  -0.0011534   0.0018072
    3  -0.0001897   0.0026113  -0.0017770   0.0084052  -0.0083081
 Max gradient component =       8.405E-03
 RMS gradient           =       2.213E-03
 Gradient time:  CPU 54.47 s  wall 54.81 s
 Geometry Optimization Parameters
   NAtoms,    NIC,     NZ,  NCons,   NDum,   NFix, NCnnct, MaxDiis
       17     108      17       1       0       0       0       0


** CONSTRAINED OPTIMIZATION IN DELOCALIZED INTERNAL COORDINATES **
   Searching for a Minimum

   Optimization Cycle:   1

                       Coordinates (Angstroms)
     ATOM              X           Y           Z
      1  C         1.046034    0.027947    0.142240
      2  C         2.172159    1.010104    0.078293
      3  H         3.068700    0.628900    0.577972
      4  H         1.901594    1.965580    0.540880
      5  H         2.457945    1.229040   -0.965937
      6  C         1.363390   -1.416702   -0.095124
      7  H         2.354626   -1.668444    0.293780
      8  H         0.638956   -2.090108    0.374370
      9  H         1.367294   -1.657815   -1.173425
     10  C        -0.322951    0.546010   -0.182890
     11  H        -0.479187    1.515335    0.306323
     12  H        -0.397191    0.743151   -1.273193
     13  C        -1.477091   -0.372844    0.213062
     14  H        -1.411083   -0.618845    1.277297
     15  H        -1.439815   -1.314500   -0.351430
     16  O        -2.737227    0.253432    0.043940
     17  H        -2.853264    0.473158   -0.891646
   Point Group: c1    Number of degrees of freedom:    45


   Energy is   -272.277605088

              Constraints and their Current Values
                                        Value     Constraint
   Dihedral:       14  13  16  17     -178.675     -180.000

 Attempting to Generate Delocalized Internal Coordinates
 GETINT wrote B to file, NVib is           45
 GETINT wrote B to file, NVib is           45
 calling HSSCONV
 HCONV 3*NATOMS:           51
 wrote HINT to file
  writing hessian 

   Using Lagrange Multiplier Algorithm


 46 Hessian modes will be used to form the next step
  Hessian Eigenvalues:
    -0.977753    0.045000    0.045000    0.045000    0.045000    0.047885
     0.069806    0.074244    0.080830    0.082078    0.092105    0.092602
     0.093405    0.093529    0.105759    0.113408    0.138590    0.142891
     0.160000    0.160000    0.160000    0.160000    0.160000    0.160000
     0.160000    0.219981    0.220006    0.228032    0.229809    0.296600
     0.324398    0.325506    0.325858    0.328412    0.331421    0.331842
     0.338458    0.340201    0.341845    0.342537    0.342577    0.343217
     0.343372    0.428681    0.537833    1.022753

 Minimum Search - Taking P-RFO Step
 Searching for Lamda that Maximizes Along the Constraint modes Only
 Value Taken    Lamda =   0.00027019
 Searching for Lamda that Minimizes Along All other modes
 Value Taken    Lamda =  -0.00082146
 Step Taken.  Stepsize is  0.048151

                             Maximum     Tolerance    Cnvgd?
         Gradient           0.023119      0.000300      NO
         Displacement       0.023106      0.001200      NO
         Energy change     *********      0.000001      NO


 New Cartesian Coordinates Obtained by Inverse Iteration

 Displacement from previous Coordinates is:  0.097552
 ----------------------------------------------------
       Standard Nuclear Orientation (Angstroms)
    I     Atom         X            Y            Z
 ----------------------------------------------------
    1      C       1.041879     0.029635     0.140192
    2      C       2.166388     1.006429     0.078917
    3      H       3.057857     0.626957     0.578913
    4      H       1.894449     1.958556     0.535519
    5      H       2.452025     1.221151    -0.961248
    6      C       1.355308    -1.411496    -0.093918
    7      H       2.341319    -1.664401     0.294473
    8      H       0.629371    -2.077121     0.373549
    9      H       1.358269    -1.650923    -1.167445
   10      C      -0.322600     0.545799    -0.183875
   11      H      -0.478968     1.511226     0.303133
   12      H      -0.397456     0.741647    -1.268811
   13      C      -1.468260    -0.377052     0.209785
   14      H      -1.388088    -0.617604     1.270246
   15      H      -1.421660    -1.312766    -0.355040
   16      O      -2.727260     0.246798     0.042506
   17      H      -2.839686     0.476565    -0.882385
 ----------------------------------------------------
 Molecular Point Group                 C1    NOp =  1
 Largest Abelian Subgroup              C1    NOp =  1
 Nuclear Repulsion Energy =   243.7059060793 hartrees
 There are       25 alpha and       24 beta electrons
 Applying Cartesian multipole field
    Component          Value
    ---------          -----
     (2,0,0)        1.00000E-11
     (0,2,0)        2.00000E-11
     (0,0,2)       -3.00000E-11
 Nucleus-field energy     =     0.0000000078 hartrees
 Requested basis set is non-standard
 There are 138 shells and 314 basis functions
 A cutoff of  1.0D-11 yielded   8911 shell pairs
 There are     45655 function pairs (     54760 Cartesian)
 Smallest overlap matrix eigenvalue = 1.51E-05
 Guess MOs from core Hamiltonian diagonalization
 An unrestricted hybrid HF-DFT SCF calculation will be
 performed using Pulay DIIS extrapolation
 Exchange:     0.5400 Hartree-Fock + 1.0000 M062X
 SCF converges when DIIS error is below 1.0E-08
 ---------------------------------------
  Cycle       Energy         DIIS Error
 ---------------------------------------
    1    -192.2827174431      9.20E-02
    2    -167.3948190608      4.86E-02
    3    -168.0620668324      6.66E-02
    4    -239.6301715450      3.68E-02
    5    -267.9805738195      1.78E-02
    6    -271.3124833752      8.78E-03
    7    -272.2195660356      2.28E-03
    8    -272.2653889001      9.91E-04
    9    -272.2757251909      3.16E-04
   10    -272.2775169727      1.12E-04
   11    -272.2778095016      4.79E-05
   12    -272.2778562769      8.39E-06
   13    -272.2778590390      2.81E-06
   14    -272.2778596453      1.25E-06
   15    -272.2778597783      3.93E-07
   16    -272.2778597919      9.96E-08
   17    -272.2778597924      2.80E-08
   18    -272.2778597920      9.87E-09 Convergence criterion met
 ---------------------------------------
 <S^2> = 0.7550
 SCF time:  CPU 320.77 s  wall 327.32 s
 SCF   energy in the final basis set = -272.2778597920
 Total energy in the final basis set = -272.2778597920
 Analysis of SCF Wavefunction
 
 --------------------------------------------------------------
                    Orbital Energies (a.u.)
 --------------------------------------------------------------
 
 Alpha MOs
 -- Occupied --
-19.620 -10.580 -10.547 -10.535 -10.531 -10.528  -1.145  -0.919
 -0.828  -0.790  -0.724  -0.621  -0.587  -0.542  -0.529  -0.503
 -0.488  -0.472  -0.458  -0.437  -0.421  -0.407  -0.393  -0.347
 -0.233
 -- Virtual --
 -0.003   0.007   0.012   0.020   0.032   0.036   0.041   0.047
  0.049   0.068   0.076   0.086   0.089   0.099   0.110   0.119
  0.122   0.128   0.133   0.143   0.151   0.155   0.160   0.161
  0.166   0.174   0.175   0.179   0.182   0.202   0.207   0.210
  0.223   0.231   0.239   0.246   0.257   0.263   0.274   0.284
  0.299   0.317   0.324   0.330   0.332   0.336   0.351   0.359
  0.364   0.378   0.414   0.436   0.460   0.474   0.483   0.510
  0.520   0.530   0.550   0.561   0.567   0.583   0.585   0.594
  0.597   0.605   0.609   0.612   0.633   0.655   0.661   0.665
  0.678   0.693   0.699   0.714   0.726   0.737   0.740   0.749
  0.773   0.792   0.794   0.820   0.868   0.876   0.884   0.924
  0.937   0.945   0.954   1.001   1.015   1.027   1.053   1.080
  1.094   1.120   1.139   1.155   1.167   1.183   1.193   1.195
  1.208   1.214   1.228   1.250   1.260   1.262   1.285   1.293
  1.306   1.311   1.323   1.340   1.356   1.375   1.384   1.400
  1.418   1.433   1.451   1.460   1.470   1.473   1.498   1.512
  1.528   1.534   1.551   1.572   1.576   1.597   1.611   1.629
  1.638   1.653   1.666   1.706   1.753   1.767   1.807   1.852
  1.934   2.072   2.127   2.299   2.324   2.406   2.421   2.491
  2.522   2.538   2.590   2.625   2.668   2.702   2.717   2.764
  2.799   2.819   2.831   2.842   2.859   2.896   2.924   2.929
  2.958   2.974   2.987   2.992   3.015   3.055   3.075   3.098
  3.140   3.161   3.175   3.193   3.201   3.222   3.223   3.261
  3.266   3.284   3.328   3.331   3.341   3.369   3.375   3.404
  3.418   3.443   3.460   3.486   3.494   3.533   3.558   3.566
  3.604   3.618   3.625   3.647   3.663   3.682   3.706   3.727
  3.748   3.762   3.796   3.822   3.839   3.867   3.889   3.890
  3.929   3.936   3.964   3.990   4.019   4.026   4.054   4.071
  4.100   4.107   4.144   4.162   4.178   4.199   4.217   4.230
  4.244   4.248   4.271   4.282   4.315   4.345   4.365   4.372
  4.391   4.431   4.466   4.479   4.495   4.498   4.524   4.529
  4.555   4.599   4.613   4.644   4.670   4.751   4.796   4.879
  4.944   5.043   5.178   5.241   5.258   5.290   5.427   5.466
  5.498   5.513   5.524   5.590   5.614   5.618   5.639   5.667
  5.689   5.694   5.856   5.957   6.539   6.983   7.203   7.207
  7.245   7.519   7.649  24.139  24.389  24.439  24.486  24.545
 50.148
 
 Beta MOs
 -- Occupied --
-19.620 -10.580 -10.540 -10.535 -10.531 -10.529  -1.144  -0.902
 -0.824  -0.787  -0.720  -0.601  -0.586  -0.533  -0.520  -0.493
 -0.479  -0.468  -0.450  -0.435  -0.415  -0.402  -0.391  -0.346
 -- Virtual --
 -0.019   0.007   0.009   0.015   0.022   0.035   0.040   0.048
  0.052   0.054   0.072   0.078   0.083   0.090   0.098   0.109
  0.116   0.126   0.130   0.134   0.140   0.151   0.152   0.157
  0.162   0.164   0.172   0.176   0.179   0.184   0.199   0.205
  0.211   0.226   0.232   0.237   0.245   0.259   0.262   0.276
  0.288   0.299   0.317   0.322   0.333   0.339   0.341   0.349
  0.362   0.367   0.383   0.415   0.435   0.459   0.473   0.484
  0.512   0.523   0.532   0.555   0.562   0.567   0.585   0.589
  0.594   0.600   0.604   0.609   0.613   0.633   0.657   0.663
  0.670   0.680   0.691   0.704   0.714   0.722   0.735   0.737
  0.748   0.768   0.790   0.792   0.819   0.869   0.877   0.885
  0.924   0.937   0.948   0.955   1.003   1.013   1.029   1.051
  1.076   1.094   1.119   1.137   1.154   1.165   1.178   1.191
  1.194   1.207   1.217   1.226   1.251   1.260   1.264   1.286
  1.293   1.311   1.319   1.324   1.342   1.360   1.378   1.391
  1.403   1.418   1.433   1.452   1.460   1.467   1.473   1.497
  1.506   1.523   1.531   1.548   1.570   1.576   1.597   1.613
  1.625   1.636   1.653   1.667   1.709   1.755   1.769   1.813
  1.857   1.935   2.073   2.127   2.300   2.324   2.412   2.427
  2.495   2.528   2.542   2.598   2.636   2.679   2.706   2.731
  2.774   2.814   2.836   2.844   2.860   2.881   2.919   2.934
  2.941   2.962   2.977   2.992   3.010   3.027   3.068   3.085
  3.104   3.148   3.164   3.180   3.197   3.211   3.225   3.233
  3.261   3.271   3.285   3.328   3.332   3.343   3.372   3.376
  3.412   3.419   3.455   3.472   3.497   3.518   3.551   3.563
  3.583   3.616   3.621   3.630   3.657   3.678   3.691   3.709
  3.740   3.754   3.767   3.802   3.828   3.845   3.873   3.897
  3.900   3.933   3.937   3.967   3.995   4.020   4.029   4.057
  4.081   4.110   4.112   4.151   4.168   4.180   4.208   4.222
  4.230   4.241   4.256   4.285   4.291   4.319   4.351   4.370
  4.374   4.405   4.430   4.473   4.483   4.497   4.505   4.531
  4.535   4.565   4.600   4.625   4.649   4.695   4.764   4.809
  4.914   4.975   5.066   5.184   5.242   5.259   5.291   5.428
  5.472   5.517   5.534   5.536   5.590   5.612   5.617   5.636
  5.664   5.688   5.690   5.857   5.957   6.539   6.983   7.203
  7.207   7.246   7.519   7.649  24.146  24.390  24.440  24.487
 24.553  50.148
 --------------------------------------------------------------
 
          Ground-State Mulliken Net Atomic Charges

     Atom                 Charge (a.u.)    Spin (a.u.)
  --------------------------------------------------------
      1 C                     0.244802       0.885270
      2 C                    -0.486468      -0.025419
      3 H                     0.132306       0.011057
      4 H                     0.132838       0.010135
      5 H                     0.127883       0.058930
      6 C                    -0.550855      -0.058967
      7 H                     0.133106       0.007379
      8 H                     0.145762       0.014205
      9 H                     0.143838       0.060609
     10 C                    -0.204260      -0.049966
     11 H                     0.163706       0.015088
     12 H                     0.120140       0.064006
     13 C                    -0.385786       0.010008
     14 H                     0.185458      -0.000103
     15 H                     0.170597      -0.002845
     16 O                    -0.326460       0.001271
     17 H                     0.253393      -0.000659
  --------------------------------------------------------
  Sum of atomic charges =     0.000000
  Sum of spin   charges =     1.000000

 -----------------------------------------------------------------
                    Cartesian Multipole Moments
 -----------------------------------------------------------------
    Charge (ESU x 10^10)
                 0.0000
    Dipole Moment (Debye)
         X       1.3703      Y      -0.2363      Z      -1.4285
       Tot       1.9936
    Quadrupole Moments (Debye-Ang)
        XX     -44.5930     XY       0.1927     YY     -39.3211
        XZ       3.9780     YZ      -0.8055     ZZ     -38.4685
    Octapole Moments (Debye-Ang^2)
       XXX       9.3246    XXY      -0.1554    XYY      -4.2124
       YYY       1.4805    XXZ     -12.0305    XYZ       2.5613
       YYZ       0.6924    XZZ      -9.4939    YZZ       0.8159
       ZZZ      -2.7606
    Hexadecapole Moments (Debye-Ang^3)
      XXXX    -831.5033   XXXY     -12.7776   XXYY    -173.3700
      XYYY      -1.2654   YYYY    -251.9011   XXXZ      47.4344
      XXYZ      -9.5816   XYYZ       2.9340   YYYZ       1.4533
      XXZZ    -129.8305   XYZZ      -2.3586   YYZZ     -54.6054
      XZZZ       1.8507   YZZZ      -1.5431   ZZZZ     -78.4305
 -----------------------------------------------------------------
 Calculating analytic gradient of the SCF energy
 Gradient of Coulomb and Exchange Energy
            1           2           3           4           5           6
    1  -3.3308348  -3.4547362  -3.5113874   0.2890093  -1.5832461  -3.3881838
    2  -0.4485894  -2.2199971   0.8367783  -3.6662583  -1.1911561   3.4722353
    3  -1.6532722  -0.2177227  -1.6535700  -1.5128198   3.3393907  -0.0090270
            7           8           9          10          11          12
    1  -3.6769001   2.2465488  -0.2210918   1.7145359   0.6067554   0.2431792
    2   1.4969317   3.0233672   1.4948474   0.3327255  -4.3758762  -1.1903253
    3  -1.2572452  -1.4849497   3.5850152  -0.0078190  -1.6725342   4.1352332
           13          14          15          16          17
    1   1.9258287  -0.0522030   0.1433474  10.5139362   1.5354424
    2   0.4680666   1.2866764   3.9002313  -1.9801289  -1.2395283
    3  -0.4242747  -4.3450751   1.9510672  -2.6414771   3.8690804
 Gradient of SCF Energy
            1           2           3           4           5           6
    1  -0.0002138  -0.0002306   0.0000385   0.0000251  -0.0000839  -0.0001678
    2  -0.0003079  -0.0000120  -0.0001186  -0.0001072   0.0000687   0.0004559
    3   0.0009747  -0.0005808   0.0000485   0.0002786   0.0000943  -0.0004618
            7           8           9          10          11          12
    1   0.0000812  -0.0000977   0.0000286  -0.0002744   0.0000360  -0.0001678
    2  -0.0000088   0.0000086   0.0000712  -0.0001892   0.0000056   0.0000010
    3   0.0000036   0.0000347  -0.0000163   0.0001072   0.0001152   0.0000309
           13          14          15          16          17
    1  -0.0002258   0.0008205   0.0005354  -0.0002198   0.0001163
    2  -0.0019618   0.0010380   0.0000479   0.0010053   0.0000035
    3   0.0000118   0.0001994  -0.0006583  -0.0001982   0.0000165
 Max gradient component =       1.962E-03
 RMS gradient           =       4.378E-04
 Gradient time:  CPU 53.60 s  wall 53.78 s
 Geometry Optimization Parameters
   NAtoms,    NIC,     NZ,  NCons,   NDum,   NFix, NCnnct, MaxDiis
       17     108      17       1       0       0       0       0

 Cartesian Hessian Update
 Hessian Updated using BFGS Update


** CONSTRAINED OPTIMIZATION IN DELOCALIZED INTERNAL COORDINATES **
   Searching for a Minimum

   Optimization Cycle:   2

                       Coordinates (Angstroms)
     ATOM              X           Y           Z
      1  C         1.041879    0.029635    0.140192
      2  C         2.166388    1.006429    0.078917
      3  H         3.057857    0.626957    0.578913
      4  H         1.894449    1.958556    0.535519
      5  H         2.452025    1.221151   -0.961248
      6  C         1.355308   -1.411496   -0.093918
      7  H         2.341319   -1.664401    0.294473
      8  H         0.629371   -2.077121    0.373549
      9  H         1.358269   -1.650923   -1.167445
     10  C        -0.322600    0.545799   -0.183875
     11  H        -0.478968    1.511226    0.303133
     12  H        -0.397456    0.741647   -1.268811
     13  C        -1.468260   -0.377052    0.209785
     14  H        -1.388088   -0.617604    1.270246
     15  H        -1.421660   -1.312766   -0.355040
     16  O        -2.727260    0.246798    0.042506
     17  H        -2.839686    0.476565   -0.882385
   Point Group: c1    Number of degrees of freedom:    45


   Energy is   -272.277859792

              Constraints and their Current Values
                                        Value     Constraint
   Dihedral:       14  13  16  17     -179.999     -180.000
 GETINT wrote B to file, NVib is           45
 Hessian Updated using BFGS Update

   Using Lagrange Multiplier Algorithm


 39 Hessian modes will be used to form the next step
  Hessian Eigenvalues:
    -0.975090    0.044558    0.045010    0.047379    0.069744    0.073396
     0.079799    0.082122    0.091981    0.092414    0.093377    0.093535
     0.108498    0.113335    0.138764    0.142883    0.159616    0.160527
     0.218577    0.221796    0.228377    0.229827    0.297015    0.321371
     0.325114    0.327152    0.328942    0.331648    0.334182    0.338085
     0.340647    0.342043    0.342553    0.342999    0.343276    0.350109
     0.426202    0.533370    1.026508

 Minimum Search - Taking P-RFO Step
 Searching for Lamda that Maximizes Along the Constraint modes Only
 Value Taken    Lamda =   0.00000068
 Searching for Lamda that Minimizes Along All other modes
 Value Taken    Lamda =  -0.00004543
 Step Taken.  Stepsize is  0.021534

                             Maximum     Tolerance    Cnvgd?
         Gradient           0.001179      0.000300      NO
         Displacement       0.008188      0.001200      NO
         Energy change     -0.000255      0.000001      NO


 New Cartesian Coordinates Obtained by Inverse Iteration

 Displacement from previous Coordinates is:  0.030487
 ----------------------------------------------------
       Standard Nuclear Orientation (Angstroms)
    I     Atom         X            Y            Z
 ----------------------------------------------------
    1      C       1.043166     0.029883     0.138259
    2      C       2.167846     1.006682     0.078537
    3      H       3.058264     0.628782     0.580591
    4      H       1.894669     1.959577     0.531863
    5      H       2.455581     1.219531    -0.961165
    6      C       1.357502    -1.411895    -0.093354
    7      H       2.343104    -1.663714     0.295421
    8      H       0.632167    -2.077366     0.374128
    9      H       1.360890    -1.652688    -1.166262
   10      C      -0.322003     0.546219    -0.184497
   11      H      -0.477304     1.511204     0.302862
   12      H      -0.396213     0.743082    -1.268879
   13      C      -1.470057    -0.376084     0.208960
   14      H      -1.394699    -0.623120     1.267928
   15      H      -1.426487    -1.311050    -0.355789
   16      O      -2.730477     0.243662     0.044157
   17      H      -2.843060     0.480694    -0.878248
 ----------------------------------------------------
 Molecular Point Group                 C1    NOp =  1
 Largest Abelian Subgroup              C1    NOp =  1
 Nuclear Repulsion Energy =   243.6099146220 hartrees
 There are       25 alpha and       24 beta electrons
 Applying Cartesian multipole field
    Component          Value
    ---------          -----
     (2,0,0)        1.00000E-11
     (0,2,0)        2.00000E-11
     (0,0,2)       -3.00000E-11
 Nucleus-field energy     =     0.0000000078 hartrees
 Requested basis set is non-standard
 There are 138 shells and 314 basis functions
 A cutoff of  1.0D-11 yielded   8911 shell pairs
 There are     45655 function pairs (     54760 Cartesian)
 Smallest overlap matrix eigenvalue = 1.52E-05
 Guess MOs from core Hamiltonian diagonalization
 An unrestricted hybrid HF-DFT SCF calculation will be
 performed using Pulay DIIS extrapolation
 Exchange:     0.5400 Hartree-Fock + 1.0000 M062X
 SCF converges when DIIS error is below 1.0E-08
 ---------------------------------------
  Cycle       Energy         DIIS Error
 ---------------------------------------
    1    -192.3058483447      9.20E-02
    2    -167.3861538927      4.86E-02
    3    -168.0085341544      6.66E-02
    4    -239.6046486157      3.68E-02
    5    -267.9559734114      1.78E-02
    6    -271.3125961830      8.78E-03
    7    -272.2191819012      2.29E-03
    8    -272.2653943230      9.91E-04
    9    -272.2757514260      3.16E-04
   10    -272.2775428505      1.12E-04
   11    -272.2778354466      4.80E-05
   12    -272.2778822681      8.42E-06
   13    -272.2778850288      2.81E-06
   14    -272.2778856345      1.24E-06
   15    -272.2778857671      3.92E-07
   16    -272.2778857807      9.96E-08
   17    -272.2778857812      2.79E-08
   18    -272.2778857808      9.86E-09 Convergence criterion met
 ---------------------------------------
 <S^2> = 0.7550
 SCF time:  CPU 321.68 s  wall 327.91 s
 SCF   energy in the final basis set = -272.2778857808
 Total energy in the final basis set = -272.2778857808
 Analysis of SCF Wavefunction
 
 --------------------------------------------------------------
                    Orbital Energies (a.u.)
 --------------------------------------------------------------
 
 Alpha MOs
 -- Occupied --
-19.620 -10.580 -10.547 -10.535 -10.530 -10.528  -1.145  -0.919
 -0.827  -0.790  -0.724  -0.622  -0.586  -0.542  -0.530  -0.503
 -0.488  -0.472  -0.458  -0.437  -0.421  -0.407  -0.393  -0.347
 -0.233
 -- Virtual --
 -0.003   0.007   0.012   0.020   0.032   0.036   0.041   0.048
  0.049   0.068   0.076   0.086   0.089   0.099   0.110   0.119
  0.122   0.128   0.133   0.143   0.151   0.155   0.160   0.161
  0.166   0.174   0.175   0.179   0.182   0.202   0.207   0.210
  0.224   0.231   0.239   0.246   0.257   0.263   0.274   0.284
  0.299   0.317   0.324   0.330   0.332   0.335   0.351   0.359
  0.364   0.378   0.414   0.436   0.460   0.474   0.484   0.510
  0.520   0.530   0.550   0.561   0.567   0.583   0.585   0.594
  0.597   0.605   0.609   0.612   0.633   0.655   0.661   0.665
  0.678   0.693   0.699   0.714   0.725   0.737   0.740   0.749
  0.773   0.792   0.794   0.820   0.868   0.876   0.884   0.924
  0.937   0.945   0.954   1.002   1.014   1.027   1.052   1.080
  1.094   1.120   1.139   1.155   1.167   1.184   1.193   1.194
  1.207   1.214   1.227   1.249   1.261   1.263   1.284   1.293
  1.306   1.310   1.323   1.339   1.356   1.374   1.384   1.400
  1.418   1.433   1.451   1.461   1.470   1.473   1.498   1.512
  1.528   1.534   1.551   1.571   1.576   1.597   1.612   1.630
  1.638   1.653   1.666   1.706   1.752   1.767   1.807   1.851
  1.934   2.074   2.126   2.298   2.324   2.406   2.420   2.490
  2.520   2.537   2.589   2.624   2.666   2.701   2.717   2.764
  2.799   2.819   2.830   2.842   2.859   2.896   2.924   2.928
  2.959   2.974   2.987   2.992   3.016   3.056   3.075   3.098
  3.140   3.160   3.175   3.192   3.201   3.221   3.223   3.263
  3.267   3.284   3.328   3.330   3.340   3.369   3.375   3.404
  3.417   3.444   3.461   3.487   3.493   3.533   3.557   3.564
  3.603   3.617   3.625   3.646   3.663   3.682   3.707   3.727
  3.748   3.762   3.795   3.822   3.839   3.867   3.889   3.890
  3.929   3.936   3.964   3.990   4.018   4.024   4.055   4.071
  4.099   4.107   4.144   4.162   4.178   4.198   4.218   4.231
  4.244   4.249   4.271   4.281   4.315   4.345   4.364   4.371
  4.393   4.431   4.466   4.479   4.494   4.498   4.524   4.529
  4.554   4.598   4.612   4.643   4.669   4.750   4.796   4.879
  4.944   5.043   5.178   5.241   5.257   5.289   5.426   5.465
  5.498   5.513   5.524   5.591   5.617   5.620   5.640   5.668
  5.691   5.695   5.858   5.961   6.542   6.983   7.203   7.211
  7.245   7.520   7.649  24.140  24.391  24.441  24.486  24.544
 50.149
 
 Beta MOs
 -- Occupied --
-19.620 -10.580 -10.540 -10.535 -10.531 -10.529  -1.145  -0.902
 -0.824  -0.787  -0.721  -0.602  -0.585  -0.533  -0.520  -0.493
 -0.479  -0.468  -0.450  -0.435  -0.415  -0.402  -0.391  -0.346
 -- Virtual --
 -0.019   0.007   0.009   0.015   0.022   0.035   0.040   0.048
  0.052   0.054   0.072   0.078   0.083   0.090   0.098   0.109
  0.117   0.126   0.130   0.134   0.140   0.151   0.152   0.157
  0.162   0.164   0.172   0.177   0.179   0.184   0.199   0.205
  0.211   0.226   0.232   0.237   0.245   0.259   0.262   0.276
  0.288   0.299   0.317   0.322   0.333   0.338   0.341   0.349
  0.362   0.367   0.384   0.415   0.435   0.459   0.472   0.485
  0.512   0.523   0.532   0.555   0.562   0.567   0.585   0.589
  0.594   0.600   0.605   0.609   0.613   0.633   0.656   0.663
  0.670   0.680   0.691   0.705   0.715   0.722   0.736   0.737
  0.748   0.768   0.791   0.792   0.819   0.869   0.877   0.885
  0.924   0.937   0.948   0.954   1.003   1.012   1.028   1.051
  1.076   1.093   1.119   1.137   1.154   1.165   1.179   1.191
  1.194   1.206   1.216   1.226   1.251   1.260   1.265   1.286
  1.293   1.310   1.319   1.324   1.341   1.360   1.377   1.391
  1.403   1.418   1.433   1.452   1.460   1.467   1.473   1.497
  1.506   1.523   1.531   1.548   1.569   1.576   1.597   1.613
  1.626   1.636   1.652   1.668   1.709   1.755   1.770   1.812
  1.857   1.934   2.075   2.127   2.299   2.323   2.411   2.426
  2.494   2.526   2.542   2.597   2.635   2.677   2.706   2.731
  2.774   2.814   2.836   2.844   2.860   2.881   2.919   2.934
  2.940   2.963   2.978   2.992   3.010   3.028   3.069   3.085
  3.104   3.148   3.163   3.180   3.196   3.211   3.224   3.233
  3.263   3.272   3.285   3.328   3.332   3.343   3.373   3.376
  3.413   3.419   3.456   3.472   3.498   3.518   3.550   3.562
  3.581   3.615   3.620   3.629   3.657   3.678   3.691   3.710
  3.741   3.754   3.766   3.801   3.828   3.845   3.873   3.897
  3.900   3.933   3.938   3.966   3.994   4.020   4.027   4.057
  4.081   4.109   4.112   4.151   4.168   4.180   4.208   4.223
  4.232   4.242   4.257   4.285   4.290   4.320   4.352   4.370
  4.373   4.406   4.430   4.473   4.483   4.496   4.504   4.531
  4.535   4.563   4.600   4.624   4.649   4.694   4.764   4.809
  4.915   4.976   5.065   5.184   5.242   5.258   5.291   5.427
  5.470   5.517   5.535   5.536   5.591   5.614   5.619   5.637
  5.666   5.689   5.692   5.859   5.961   6.542   6.983   7.203
  7.211   7.245   7.520   7.649  24.147  24.391  24.441  24.487
 24.552  50.149
 --------------------------------------------------------------
 
          Ground-State Mulliken Net Atomic Charges

     Atom                 Charge (a.u.)    Spin (a.u.)
  --------------------------------------------------------
      1 C                     0.246077       0.885706
      2 C                    -0.485919      -0.025950
      3 H                     0.132509       0.011146
      4 H                     0.132843       0.010103
      5 H                     0.128010       0.058940
      6 C                    -0.552651      -0.058851
      7 H                     0.133171       0.007377
      8 H                     0.146016       0.014231
      9 H                     0.143660       0.060481
     10 C                    -0.202155      -0.050212
     11 H                     0.163131       0.015171
     12 H                     0.120631       0.063881
     13 C                    -0.389037       0.010316
     14 H                     0.185687      -0.000128
     15 H                     0.170950      -0.002825
     16 O                    -0.326282       0.001266
     17 H                     0.253360      -0.000652
  --------------------------------------------------------
  Sum of atomic charges =     0.000000
  Sum of spin   charges =     1.000000

 -----------------------------------------------------------------
                    Cartesian Multipole Moments
 -----------------------------------------------------------------
    Charge (ESU x 10^10)
                 0.0000
    Dipole Moment (Debye)
         X       1.3711      Y      -0.2227      Z      -1.4273
       Tot       1.9917
    Quadrupole Moments (Debye-Ang)
        XX     -44.5769     XY       0.1607     YY     -39.2990
        XZ       3.9759     YZ      -0.8250     ZZ     -38.4834
    Octapole Moments (Debye-Ang^2)
       XXX       9.3488    XXY      -0.0451    XYY      -4.2507
       YYY       1.5112    XXZ     -12.0132    XYZ       2.6019
       YYZ       0.7008    XZZ      -9.4566    YZZ       0.8133
       ZZZ      -2.7265
    Hexadecapole Moments (Debye-Ang^3)
      XXXX    -832.9695   XXXY     -13.1571   XXYY    -173.5003
      XYYY      -1.3976   YYYY    -251.8714   XXXZ      47.6420
      XXYZ      -9.6680   XYYZ       2.9823   YYYZ       1.4616
      XXZZ    -130.1372   XYZZ      -2.3855   YYZZ     -54.5849
      XZZZ       1.9316   YZZZ      -1.5228   ZZZZ     -78.3496
 -----------------------------------------------------------------
 Calculating analytic gradient of the SCF energy
 Gradient of Coulomb and Exchange Energy
            1           2           3           4           5           6
    1  -3.3374862  -3.4389067  -3.5111290   0.2926734  -1.5894148  -3.3960468
    2  -0.4724046  -2.2107392   0.8305843  -3.6706958  -1.1838552   3.4725277
    3  -1.6252021  -0.2312390  -1.6599459  -1.4996930   3.3362992  -0.0184196
            7           8           9          10          11          12
    1  -3.6757585   2.2428775  -0.2214423   1.7164285   0.6028736   0.2353044
    2   1.4948766   3.0253989   1.4984046   0.3436834  -4.3754958  -1.1966066
    3  -1.2586114  -1.4853878   3.5818450   0.0160464  -1.6693991   4.1316274
           13          14          15          16          17
    1   1.8691429  -0.0116154   0.1677232  10.5180247   1.5367516
    2   0.3988919   1.3267659   3.8999430  -1.9106946  -1.2705846
    3  -0.4370894  -4.3292382   1.9371778  -2.6486254   3.8598552
 Gradient of SCF Energy
            1           2           3           4           5           6
    1  -0.0000597   0.0001074  -0.0001234   0.0000733  -0.0001653   0.0000471
    2   0.0000266   0.0000293   0.0000303  -0.0002817   0.0000404  -0.0000200
    3   0.0005787  -0.0002225  -0.0001319   0.0000841   0.0002619  -0.0002426
            7           8           9          10          11          12
    1  -0.0001928   0.0001733   0.0000064   0.0002539   0.0000710   0.0000270
    2   0.0000087   0.0001355   0.0001129   0.0002584  -0.0002377   0.0000325
    3  -0.0001234  -0.0001471   0.0001679  -0.0003156  -0.0000212   0.0002310
           13          14          15          16          17
    1  -0.0003181   0.0000591  -0.0000272  -0.0001167   0.0001847
    2  -0.0011515   0.0005772   0.0004249   0.0001147  -0.0001007
    3  -0.0000596  -0.0000986  -0.0000779  -0.0005783   0.0006951
 Max gradient component =       1.151E-03
 RMS gradient           =       2.818E-04
 Gradient time:  CPU 53.66 s  wall 53.75 s
 Geometry Optimization Parameters
   NAtoms,    NIC,     NZ,  NCons,   NDum,   NFix, NCnnct, MaxDiis
       17     108      17       1       0       0       0       0

 Cartesian Hessian Update
 Hessian Updated using BFGS Update


** CONSTRAINED OPTIMIZATION IN DELOCALIZED INTERNAL COORDINATES **
   Searching for a Minimum

   Optimization Cycle:   3

                       Coordinates (Angstroms)
     ATOM              X           Y           Z
      1  C         1.043166    0.029883    0.138259
      2  C         2.167846    1.006682    0.078537
      3  H         3.058264    0.628782    0.580591
      4  H         1.894669    1.959577    0.531863
      5  H         2.455581    1.219531   -0.961165
      6  C         1.357502   -1.411895   -0.093354
      7  H         2.343104   -1.663714    0.295421
      8  H         0.632167   -2.077366    0.374128
      9  H         1.360890   -1.652688   -1.166262
     10  C        -0.322003    0.546219   -0.184497
     11  H        -0.477304    1.511204    0.302862
     12  H        -0.396213    0.743082   -1.268879
     13  C        -1.470057   -0.376084    0.208960
     14  H        -1.394699   -0.623120    1.267928
     15  H        -1.426487   -1.311050   -0.355789
     16  O        -2.730477    0.243662    0.044157
     17  H        -2.843060    0.480694   -0.878248
   Point Group: c1    Number of degrees of freedom:    45


   Energy is   -272.277885781

              Constraints and their Current Values
                                        Value     Constraint
   Dihedral:       14  13  16  17      180.000     -180.000
 GETINT wrote B to file, NVib is           45
 Hessian Updated using BFGS Update

 39 Hessian modes will be used to form the next step
  Hessian Eigenvalues:
     0.033931    0.045000    0.045010    0.046330    0.066274    0.070046
     0.078314    0.082185    0.092050    0.092546    0.093438    0.093534
     0.108891    0.114122    0.139223    0.143050    0.159221    0.160010
     0.160714    0.219401    0.227344    0.229720    0.237726    0.313964
     0.324759    0.325586    0.327988    0.329357    0.331557    0.332567
     0.339813    0.341058    0.342052    0.342491    0.343031    0.343261
     0.367426    0.431356    0.543909

 Minimum Search - Taking Simple RFO Step
 Searching for Lamda that Minimizes Along All modes
 Value Taken    Lamda =  -0.00001241
 Step Taken.  Stepsize is  0.016186

                             Maximum     Tolerance    Cnvgd?
         Gradient           0.000588      0.000300      NO
         Displacement       0.007272      0.001200      NO
         Energy change     -0.000026      0.000001      NO


 New Cartesian Coordinates Obtained by Inverse Iteration

 Displacement from previous Coordinates is:  0.021928
 ----------------------------------------------------
       Standard Nuclear Orientation (Angstroms)
    I     Atom         X            Y            Z
 ----------------------------------------------------
    1      C       1.043229     0.030495     0.136154
    2      C       2.168490     1.007173     0.078107
    3      H       3.057408     0.629714     0.583566
    4      H       1.894325     1.961469     0.528594
    5      H       2.459867     1.218094    -0.961346
    6      C       1.357171    -1.412169    -0.092929
    7      H       2.342809    -1.663505     0.296668
    8      H       0.631217    -2.076858     0.375358
    9      H       1.360820    -1.655001    -1.165698
   10      C      -0.322410     0.547096    -0.185059
   11      H      -0.477611     1.511971     0.303247
   12      H      -0.397916     0.744776    -1.269446
   13      C      -1.469341    -0.376168     0.208423
   14      H      -1.394351    -0.628773     1.266379
   15      H      -1.425723    -1.310848    -0.357593
   16      O      -2.730826     0.241802     0.045810
   17      H      -2.844271     0.484132    -0.875725
 ----------------------------------------------------
 Molecular Point Group                 C1    NOp =  1
 Largest Abelian Subgroup              C1    NOp =  1
 Nuclear Repulsion Energy =   243.5707537888 hartrees
 There are       25 alpha and       24 beta electrons
 Applying Cartesian multipole field
    Component          Value
    ---------          -----
     (2,0,0)        1.00000E-11
     (0,2,0)        2.00000E-11
     (0,0,2)       -3.00000E-11
 Nucleus-field energy     =     0.0000000078 hartrees
 Requested basis set is non-standard
 There are 138 shells and 314 basis functions
 A cutoff of  1.0D-11 yielded   8910 shell pairs
 There are     45650 function pairs (     54754 Cartesian)
 Smallest overlap matrix eigenvalue = 1.52E-05
 Guess MOs from core Hamiltonian diagonalization
 An unrestricted hybrid HF-DFT SCF calculation will be
 performed using Pulay DIIS extrapolation
 Exchange:     0.5400 Hartree-Fock + 1.0000 M062X
 SCF converges when DIIS error is below 1.0E-08
 ---------------------------------------
  Cycle       Energy         DIIS Error
 ---------------------------------------
    1    -192.3026914569      9.20E-02
    2    -167.3876357954      4.86E-02
    3    -168.0198842140      6.66E-02
    4    -239.6047932995      3.68E-02
    5    -267.9531472005      1.78E-02
    6    -271.3123727893      8.78E-03
    7    -272.2191260444      2.29E-03
    8    -272.2653859368      9.92E-04
    9    -272.2757576929      3.16E-04
   10    -272.2775514328      1.12E-04
   11    -272.2778439397      4.80E-05
   12    -272.2778907165      8.40E-06
   13    -272.2778934688      2.80E-06
   14    -272.2778940727      1.24E-06
   15    -272.2778942050      3.91E-07
   16    -272.2778942188      9.94E-08
   17    -272.2778942193      2.75E-08
   18    -272.2778942189      9.79E-09 Convergence criterion met
 ---------------------------------------
 <S^2> = 0.7550
 SCF time:  CPU 320.79 s  wall 327.57 s
 SCF   energy in the final basis set = -272.2778942189
 Total energy in the final basis set = -272.2778942189
 Analysis of SCF Wavefunction
 
 --------------------------------------------------------------
                    Orbital Energies (a.u.)
 --------------------------------------------------------------
 
 Alpha MOs
 -- Occupied --
-19.620 -10.580 -10.547 -10.535 -10.531 -10.528  -1.145  -0.919
 -0.827  -0.790  -0.724  -0.622  -0.586  -0.542  -0.530  -0.503
 -0.488  -0.472  -0.458  -0.437  -0.421  -0.407  -0.393  -0.347
 -0.233
 -- Virtual --
 -0.004   0.007   0.012   0.020   0.032   0.036   0.041   0.048
  0.049   0.068   0.076   0.086   0.089   0.099   0.110   0.119
  0.122   0.128   0.133   0.143   0.151   0.154   0.160   0.161
  0.166   0.174   0.175   0.179   0.182   0.202   0.206   0.210
  0.223   0.231   0.238   0.246   0.257   0.263   0.274   0.284
  0.299   0.317   0.324   0.330   0.332   0.335   0.351   0.359
  0.364   0.378   0.414   0.436   0.460   0.474   0.484   0.510
  0.520   0.530   0.550   0.561   0.566   0.582   0.585   0.594
  0.597   0.605   0.609   0.612   0.633   0.654   0.661   0.665
  0.678   0.693   0.699   0.714   0.725   0.737   0.740   0.749
  0.772   0.793   0.794   0.820   0.867   0.876   0.884   0.924
  0.938   0.945   0.954   1.002   1.014   1.027   1.052   1.080
  1.094   1.120   1.139   1.155   1.167   1.184   1.193   1.194
  1.206   1.214   1.227   1.249   1.261   1.263   1.284   1.293
  1.306   1.310   1.322   1.339   1.356   1.374   1.384   1.401
  1.418   1.433   1.451   1.461   1.470   1.473   1.498   1.511
  1.528   1.534   1.551   1.571   1.576   1.597   1.612   1.630
  1.638   1.653   1.667   1.705   1.752   1.768   1.807   1.852
  1.933   2.075   2.125   2.298   2.324   2.406   2.421   2.490
  2.520   2.537   2.588   2.624   2.666   2.701   2.718   2.764
  2.799   2.819   2.830   2.842   2.859   2.895   2.924   2.927
  2.959   2.974   2.986   2.992   3.017   3.056   3.075   3.098
  3.140   3.160   3.175   3.192   3.200   3.221   3.223   3.263
  3.268   3.283   3.328   3.330   3.340   3.369   3.375   3.404
  3.417   3.444   3.461   3.487   3.493   3.533   3.557   3.564
  3.603   3.617   3.625   3.646   3.662   3.682   3.707   3.727
  3.747   3.762   3.795   3.821   3.839   3.866   3.889   3.890
  3.928   3.935   3.963   3.989   4.017   4.024   4.054   4.071
  4.098   4.106   4.143   4.162   4.177   4.198   4.217   4.231
  4.244   4.248   4.271   4.280   4.315   4.345   4.364   4.371
  4.393   4.431   4.466   4.478   4.493   4.498   4.524   4.529
  4.553   4.598   4.611   4.643   4.668   4.750   4.795   4.880
  4.945   5.043   5.177   5.241   5.257   5.289   5.425   5.464
  5.498   5.512   5.524   5.591   5.616   5.619   5.639   5.667
  5.690   5.694   5.859   5.961   6.542   6.983   7.202   7.208
  7.245   7.521   7.649  24.139  24.389  24.439  24.485  24.542
 50.148
 
 Beta MOs
 -- Occupied --
-19.620 -10.580 -10.540 -10.536 -10.531 -10.529  -1.145  -0.902
 -0.824  -0.787  -0.721  -0.602  -0.585  -0.533  -0.520  -0.493
 -0.479  -0.468  -0.450  -0.435  -0.415  -0.402  -0.390  -0.346
 -- Virtual --
 -0.019   0.007   0.009   0.015   0.022   0.035   0.040   0.048
  0.052   0.054   0.072   0.078   0.083   0.090   0.098   0.109
  0.117   0.126   0.130   0.134   0.140   0.151   0.152   0.157
  0.162   0.164   0.172   0.177   0.179   0.184   0.199   0.205
  0.211   0.226   0.232   0.237   0.245   0.259   0.262   0.277
  0.288   0.299   0.317   0.322   0.333   0.338   0.341   0.349
  0.362   0.367   0.384   0.415   0.435   0.459   0.472   0.485
  0.512   0.523   0.532   0.555   0.562   0.567   0.585   0.589
  0.594   0.600   0.605   0.609   0.613   0.632   0.656   0.663
  0.670   0.680   0.691   0.705   0.715   0.722   0.735   0.737
  0.748   0.768   0.791   0.792   0.819   0.869   0.877   0.885
  0.924   0.937   0.948   0.954   1.003   1.012   1.028   1.051
  1.076   1.093   1.119   1.137   1.154   1.165   1.179   1.190
  1.194   1.205   1.217   1.226   1.251   1.260   1.265   1.286
  1.293   1.310   1.319   1.324   1.341   1.359   1.377   1.391
  1.403   1.418   1.433   1.453   1.460   1.467   1.472   1.497
  1.506   1.523   1.531   1.548   1.569   1.576   1.597   1.613
  1.626   1.636   1.652   1.668   1.708   1.754   1.771   1.813
  1.857   1.934   2.076   2.126   2.299   2.323   2.412   2.427
  2.493   2.525   2.542   2.596   2.635   2.677   2.706   2.732
  2.774   2.814   2.836   2.844   2.860   2.881   2.919   2.934
  2.940   2.963   2.977   2.992   3.009   3.029   3.069   3.085
  3.104   3.148   3.163   3.180   3.196   3.211   3.224   3.233
  3.264   3.272   3.284   3.328   3.332   3.343   3.373   3.376
  3.413   3.418   3.457   3.472   3.498   3.517   3.551   3.562
  3.581   3.615   3.620   3.628   3.656   3.678   3.691   3.710
  3.741   3.753   3.766   3.801   3.828   3.844   3.872   3.896
  3.899   3.932   3.937   3.965   3.994   4.019   4.026   4.057
  4.081   4.108   4.111   4.151   4.168   4.179   4.207   4.222
  4.231   4.242   4.257   4.284   4.290   4.320   4.353   4.369
  4.373   4.406   4.429   4.473   4.482   4.496   4.503   4.531
  4.535   4.563   4.599   4.622   4.648   4.693   4.763   4.808
  4.915   4.976   5.065   5.183   5.242   5.258   5.290   5.426
  5.470   5.516   5.534   5.535   5.590   5.613   5.618   5.636
  5.664   5.688   5.690   5.860   5.961   6.542   6.983   7.202
  7.208   7.245   7.521   7.649  24.146  24.390  24.440  24.486
 24.550  50.148
 --------------------------------------------------------------
 
          Ground-State Mulliken Net Atomic Charges

     Atom                 Charge (a.u.)    Spin (a.u.)
  --------------------------------------------------------
      1 C                     0.247870       0.886227
      2 C                    -0.485646      -0.026349
      3 H                     0.132460       0.011254
      4 H                     0.132689       0.010046
      5 H                     0.127888       0.058942
      6 C                    -0.553178      -0.058907
      7 H                     0.133083       0.007394
      8 H                     0.146020       0.014272
      9 H                     0.143594       0.060385
     10 C                    -0.201846      -0.050468
     11 H                     0.162719       0.015232
     12 H                     0.120611       0.063858
     13 C                    -0.389862       0.010382
     14 H                     0.185885      -0.000088
     15 H                     0.171059      -0.002802
     16 O                    -0.326896       0.001274
     17 H                     0.253550      -0.000653
  --------------------------------------------------------
  Sum of atomic charges =     0.000000
  Sum of spin   charges =     1.000000

 -----------------------------------------------------------------
                    Cartesian Multipole Moments
 -----------------------------------------------------------------
    Charge (ESU x 10^10)
                 0.0000
    Dipole Moment (Debye)
         X       1.3713      Y      -0.2143      Z      -1.4262
       Tot       1.9901
    Quadrupole Moments (Debye-Ang)
        XX     -44.5757     XY       0.1324     YY     -39.2868
        XZ       3.9803     YZ      -0.8402     ZZ     -38.4962
    Octapole Moments (Debye-Ang^2)
       XXX       9.3162    XXY       0.0485    XYY      -4.2838
       YYY       1.5348    XXZ     -12.0129    XYZ       2.6320
       YYZ       0.7074    XZZ      -9.4213    YZZ       0.8036
       ZZZ      -2.6945
    Hexadecapole Moments (Debye-Ang^3)
      XXXX    -833.1060   XXXY     -13.5438   XXYY    -173.4863
      XYYY      -1.5325   YYYY    -252.0424   XXXZ      47.7772
      XXYZ      -9.7394   XYYZ       3.0071   YYYZ       1.4861
      XXZZ    -130.2283   XYZZ      -2.4273   YYZZ     -54.6039
      XZZZ       1.9980   YZZZ      -1.5024   ZZZZ     -78.3372
 -----------------------------------------------------------------
 Calculating analytic gradient of the SCF energy
 Gradient of Coulomb and Exchange Energy
            1           2           3           4           5           6
    1  -3.3442155  -3.4292507  -3.5055095   0.2950566  -1.6011211  -3.4004069
    2  -0.4834597  -2.2131334   0.8290234  -3.6746389  -1.1749398   3.4757170
    3  -1.5869358  -0.2381784  -1.6705145  -1.4887109   3.3330604  -0.0297766
            7           8           9          10          11          12
    1  -3.6749795   2.2443346  -0.2212462   1.7208028   0.6025783   0.2388267
    2   1.4922248   3.0223921   1.5034353   0.3429481  -4.3754920  -1.1990109
    3  -1.2617659  -1.4869435   3.5796805   0.0258745  -1.6701566   4.1289074
           13          14          15          16          17
    1   1.8460186  -0.0035822   0.1689984  10.5230392   1.5406566
    2   0.3635941   1.3614529   3.8982839  -1.8744125  -1.2939843
    3  -0.4479617  -4.3165734   1.9295388  -2.6504660   3.8509216
 Gradient of SCF Energy
            1           2           3           4           5           6
    1  -0.0001083   0.0001206  -0.0000142   0.0000388  -0.0001035   0.0000722
    2   0.0000160   0.0000154  -0.0000244  -0.0000653   0.0001010  -0.0001061
    3   0.0004540  -0.0000143  -0.0000908   0.0001080   0.0000528  -0.0001272
            7           8           9          10          11          12
    1  -0.0000556   0.0000336  -0.0000025   0.0001562   0.0000167   0.0000321
    2  -0.0000171   0.0000017   0.0000630   0.0001592  -0.0000678   0.0000567
    3  -0.0000740  -0.0000933  -0.0000270  -0.0003901   0.0000430   0.0000828
           13          14          15          16          17
    1  -0.0000288  -0.0000908  -0.0000664  -0.0000052   0.0000052
    2  -0.0003672   0.0001398   0.0001645  -0.0002029   0.0001336
    3   0.0000818  -0.0000391   0.0000411  -0.0001412   0.0001333
 Max gradient component =       4.540E-04
 RMS gradient           =       1.299E-04
 Gradient time:  CPU 53.38 s  wall 53.62 s
 Geometry Optimization Parameters
   NAtoms,    NIC,     NZ,  NCons,   NDum,   NFix, NCnnct, MaxDiis
       17     108      17       1       0       0       0       0

 Cartesian Hessian Update
 Hessian Updated using BFGS Update


** CONSTRAINED OPTIMIZATION IN DELOCALIZED INTERNAL COORDINATES **
   Searching for a Minimum

   Optimization Cycle:   4

                       Coordinates (Angstroms)
     ATOM              X           Y           Z
      1  C         1.043229    0.030495    0.136154
      2  C         2.168490    1.007173    0.078107
      3  H         3.057408    0.629714    0.583566
      4  H         1.894325    1.961469    0.528594
      5  H         2.459867    1.218094   -0.961346
      6  C         1.357171   -1.412169   -0.092929
      7  H         2.342809   -1.663505    0.296668
      8  H         0.631217   -2.076858    0.375358
      9  H         1.360820   -1.655001   -1.165698
     10  C        -0.322410    0.547096   -0.185059
     11  H        -0.477611    1.511971    0.303247
     12  H        -0.397916    0.744776   -1.269446
     13  C        -1.469341   -0.376168    0.208423
     14  H        -1.394351   -0.628773    1.266379
     15  H        -1.425723   -1.310848   -0.357593
     16  O        -2.730826    0.241802    0.045810
     17  H        -2.844271    0.484132   -0.875725
   Point Group: c1    Number of degrees of freedom:    45


   Energy is   -272.277894219

              Constraints and their Current Values
                                        Value     Constraint
   Dihedral:       14  13  16  17      180.000     -180.000
 GETINT wrote B to file, NVib is           45
 Hessian Updated using BFGS Update

 41 Hessian modes will be used to form the next step
  Hessian Eigenvalues:
     0.017341    0.044999    0.045006    0.045014    0.046510    0.069751
     0.073657    0.078493    0.082203    0.092104    0.092686    0.093365
     0.093537    0.112720    0.115763    0.139628    0.143053    0.159549
     0.159949    0.160614    0.164335    0.219740    0.227088    0.229988
     0.237721    0.313065    0.322894    0.326030    0.327928    0.331490
     0.332522    0.337119    0.340558    0.341607    0.342042    0.342986
     0.343259    0.346570    0.363482    0.430296    0.553215

 Minimum Search - Taking Simple RFO Step
 Searching for Lamda that Minimizes Along All modes
 Value Taken    Lamda =  -0.00000683
 Step Taken.  Stepsize is  0.018586

                             Maximum     Tolerance    Cnvgd?
         Gradient           0.000246      0.000300     YES
         Displacement       0.009196      0.001200      NO
         Energy change     -0.000008      0.000001      NO


 New Cartesian Coordinates Obtained by Inverse Iteration

 Displacement from previous Coordinates is:  0.027481
 ----------------------------------------------------
       Standard Nuclear Orientation (Angstroms)
    I     Atom         X            Y            Z
 ----------------------------------------------------
    1      C       1.043088     0.031081     0.133327
    2      C       2.168777     1.007317     0.077374
    3      H       3.055333     0.630685     0.587892
    4      H       1.892970     1.963028     0.524139
    5      H       2.465381     1.215388    -0.961323
    6      C       1.356890    -1.412088    -0.092520
    7      H       2.342564    -1.662375     0.298032
    8      H       0.630639    -2.075714     0.377102
    9      H       1.360876    -1.657682    -1.164801
   10      C      -0.323101     0.547748    -0.185626
   11      H      -0.477870     1.512105     0.304240
   12      H      -0.400546     0.746831    -1.269780
   13      C      -1.468752    -0.376481     0.207293
   14      H      -1.392241    -0.634395     1.264065
   15      H      -1.425313    -1.310252    -0.361103
   16      O      -2.730934     0.240824     0.048402
   17      H      -2.844874     0.487378    -0.872201
 ----------------------------------------------------
 Molecular Point Group                 C1    NOp =  1
 Largest Abelian Subgroup              C1    NOp =  1
 Nuclear Repulsion Energy =   243.5667223626 hartrees
 There are       25 alpha and       24 beta electrons
 Applying Cartesian multipole field
    Component          Value
    ---------          -----
     (2,0,0)        1.00000E-11
     (0,2,0)        2.00000E-11
     (0,0,2)       -3.00000E-11
 Nucleus-field energy     =     0.0000000078 hartrees
 Requested basis set is non-standard
 There are 138 shells and 314 basis functions
 A cutoff of  1.0D-11 yielded   8910 shell pairs
 There are     45654 function pairs (     54759 Cartesian)
 Smallest overlap matrix eigenvalue = 1.51E-05
 Guess MOs from core Hamiltonian diagonalization
 An unrestricted hybrid HF-DFT SCF calculation will be
 performed using Pulay DIIS extrapolation
 Exchange:     0.5400 Hartree-Fock + 1.0000 M062X
 SCF converges when DIIS error is below 1.0E-08
 ---------------------------------------
  Cycle       Energy         DIIS Error
 ---------------------------------------
    1    -192.2951279177      9.20E-02
    2    -167.3762449132      4.86E-02
    3    -168.0222987708      6.66E-02
    4    -239.6030741006      3.68E-02
    5    -267.9516176306      1.78E-02
    6    -271.3115070205      8.78E-03
    7    -272.2190608427      2.29E-03
    8    -272.2653799058      9.92E-04
    9    -272.2757577582      3.17E-04
   10    -272.2775561200      1.12E-04
   11    -272.2778488379      4.80E-05
   12    -272.2778955977      8.39E-06
   13    -272.2778983440      2.80E-06
   14    -272.2778989458      1.24E-06
   15    -272.2778990777      3.90E-07
   16    -272.2778990914      9.91E-08
   17    -272.2778990919      2.70E-08
   18    -272.2778990915      9.69E-09 Convergence criterion met
 ---------------------------------------
 <S^2> = 0.7550
 SCF time:  CPU 319.55 s  wall 326.46 s
 SCF   energy in the final basis set = -272.2778990915
 Total energy in the final basis set = -272.2778990915
 Analysis of SCF Wavefunction
 
 --------------------------------------------------------------
                    Orbital Energies (a.u.)
 --------------------------------------------------------------
 
 Alpha MOs
 -- Occupied --
-19.620 -10.580 -10.547 -10.535 -10.531 -10.529  -1.145  -0.919
 -0.827  -0.790  -0.724  -0.622  -0.586  -0.542  -0.530  -0.503
 -0.488  -0.472  -0.458  -0.437  -0.421  -0.407  -0.392  -0.347
 -0.233
 -- Virtual --
 -0.004   0.007   0.012   0.020   0.032   0.036   0.041   0.048
  0.049   0.068   0.076   0.087   0.089   0.099   0.110   0.119
  0.122   0.128   0.133   0.143   0.151   0.154   0.160   0.161
  0.166   0.174   0.175   0.179   0.182   0.202   0.206   0.210
  0.223   0.231   0.238   0.246   0.257   0.263   0.274   0.284
  0.299   0.318   0.324   0.330   0.332   0.336   0.351   0.359
  0.364   0.378   0.414   0.436   0.460   0.474   0.484   0.510
  0.520   0.530   0.550   0.561   0.566   0.582   0.585   0.594
  0.596   0.605   0.609   0.612   0.632   0.654   0.661   0.665
  0.678   0.693   0.699   0.714   0.725   0.737   0.740   0.749
  0.772   0.793   0.794   0.820   0.867   0.876   0.883   0.924
  0.938   0.945   0.953   1.002   1.014   1.027   1.052   1.080
  1.094   1.120   1.139   1.155   1.168   1.184   1.193   1.194
  1.205   1.214   1.227   1.249   1.261   1.263   1.284   1.293
  1.307   1.310   1.322   1.339   1.355   1.374   1.384   1.401
  1.417   1.433   1.452   1.461   1.469   1.472   1.497   1.511
  1.528   1.534   1.551   1.570   1.576   1.597   1.611   1.630
  1.638   1.652   1.667   1.705   1.751   1.769   1.807   1.852
  1.933   2.075   2.125   2.298   2.324   2.406   2.421   2.489
  2.519   2.537   2.587   2.624   2.666   2.701   2.718   2.764
  2.800   2.820   2.830   2.842   2.859   2.895   2.924   2.927
  2.959   2.974   2.986   2.992   3.018   3.056   3.075   3.098
  3.139   3.160   3.175   3.192   3.200   3.220   3.223   3.264
  3.268   3.283   3.328   3.330   3.340   3.368   3.375   3.404
  3.417   3.445   3.462   3.486   3.493   3.533   3.557   3.565
  3.603   3.617   3.625   3.646   3.662   3.682   3.707   3.727
  3.747   3.762   3.795   3.821   3.839   3.866   3.889   3.890
  3.927   3.935   3.962   3.988   4.017   4.023   4.054   4.071
  4.097   4.106   4.143   4.161   4.177   4.197   4.217   4.231
  4.244   4.248   4.271   4.280   4.316   4.346   4.363   4.371
  4.394   4.431   4.466   4.477   4.493   4.498   4.524   4.529
  4.553   4.597   4.611   4.642   4.667   4.749   4.795   4.880
  4.946   5.043   5.176   5.241   5.257   5.289   5.425   5.464
  5.498   5.512   5.524   5.590   5.615   5.619   5.639   5.666
  5.689   5.693   5.859   5.961   6.542   6.983   7.202   7.207
  7.245   7.521   7.649  24.139  24.389  24.439  24.485  24.542
 50.148
 
 Beta MOs
 -- Occupied --
-19.620 -10.580 -10.540 -10.536 -10.531 -10.529  -1.145  -0.902
 -0.824  -0.787  -0.721  -0.602  -0.585  -0.533  -0.520  -0.493
 -0.479  -0.468  -0.450  -0.435  -0.415  -0.402  -0.390  -0.346
 -- Virtual --
 -0.018   0.007   0.009   0.015   0.022   0.035   0.039   0.048
  0.052   0.054   0.072   0.078   0.083   0.090   0.098   0.109
  0.117   0.126   0.130   0.134   0.140   0.151   0.152   0.158
  0.162   0.164   0.172   0.177   0.179   0.184   0.199   0.205
  0.211   0.226   0.232   0.237   0.245   0.259   0.262   0.277
  0.288   0.299   0.317   0.322   0.333   0.339   0.341   0.349
  0.362   0.366   0.384   0.415   0.435   0.459   0.472   0.485
  0.512   0.523   0.532   0.555   0.562   0.567   0.585   0.589
  0.594   0.600   0.605   0.609   0.613   0.632   0.656   0.663
  0.670   0.680   0.691   0.705   0.715   0.722   0.735   0.737
  0.748   0.767   0.791   0.792   0.819   0.868   0.877   0.884
  0.924   0.938   0.948   0.954   1.004   1.012   1.029   1.051
  1.077   1.093   1.120   1.137   1.153   1.165   1.179   1.190
  1.194   1.204   1.217   1.225   1.250   1.260   1.265   1.286
  1.294   1.310   1.319   1.323   1.341   1.359   1.377   1.391
  1.404   1.418   1.432   1.453   1.460   1.467   1.472   1.496
  1.506   1.523   1.531   1.548   1.568   1.576   1.597   1.613
  1.625   1.636   1.652   1.668   1.708   1.754   1.771   1.813
  1.858   1.933   2.076   2.126   2.299   2.323   2.412   2.427
  2.493   2.525   2.542   2.596   2.635   2.678   2.706   2.732
  2.774   2.814   2.836   2.845   2.860   2.881   2.919   2.934
  2.940   2.963   2.977   2.992   3.009   3.030   3.069   3.085
  3.104   3.148   3.163   3.180   3.195   3.211   3.224   3.233
  3.264   3.272   3.284   3.327   3.331   3.342   3.373   3.376
  3.413   3.418   3.457   3.472   3.497   3.518   3.551   3.562
  3.581   3.615   3.620   3.628   3.656   3.678   3.691   3.710
  3.741   3.753   3.767   3.801   3.828   3.844   3.872   3.896
  3.900   3.932   3.937   3.964   3.993   4.019   4.026   4.056
  4.081   4.108   4.110   4.151   4.167   4.179   4.207   4.222
  4.231   4.242   4.257   4.283   4.290   4.320   4.353   4.369
  4.372   4.407   4.429   4.472   4.481   4.496   4.503   4.531
  4.535   4.563   4.598   4.622   4.648   4.693   4.763   4.807
  4.916   4.977   5.065   5.183   5.242   5.257   5.290   5.426
  5.470   5.516   5.534   5.535   5.590   5.613   5.618   5.636
  5.663   5.687   5.690   5.860   5.962   6.542   6.983   7.202
  7.207   7.245   7.521   7.649  24.146  24.390  24.439  24.486
 24.550  50.148
 --------------------------------------------------------------
 
          Ground-State Mulliken Net Atomic Charges

     Atom                 Charge (a.u.)    Spin (a.u.)
  --------------------------------------------------------
      1 C                     0.250094       0.886753
      2 C                    -0.485646      -0.026812
      3 H                     0.132416       0.011429
      4 H                     0.132484       0.009953
      5 H                     0.127821       0.058954
      6 C                    -0.553612      -0.059024
      7 H                     0.132956       0.007428
      8 H                     0.146066       0.014349
      9 H                     0.143590       0.060323
     10 C                    -0.202375      -0.050748
     11 H                     0.162460       0.015310
     12 H                     0.120458       0.063868
     13 C                    -0.390210       0.010356
     14 H                     0.185974       0.000001
     15 H                     0.171126      -0.002762
     16 O                    -0.327262       0.001275
     17 H                     0.253661      -0.000653
  --------------------------------------------------------
  Sum of atomic charges =     0.000000
  Sum of spin   charges =     1.000000

 -----------------------------------------------------------------
                    Cartesian Multipole Moments
 -----------------------------------------------------------------
    Charge (ESU x 10^10)
                 0.0000
    Dipole Moment (Debye)
         X       1.3712      Y      -0.2080      Z      -1.4253
       Tot       1.9887
    Quadrupole Moments (Debye-Ang)
        XX     -44.5733     XY       0.1093     YY     -39.2792
        XZ       3.9892     YZ      -0.8511     ZZ     -38.5083
    Octapole Moments (Debye-Ang^2)
       XXX       9.2851    XXY       0.1234    XYY      -4.3122
[...]
 Hessian Updated using BFGS Update

 43 Hessian modes will be used to form the next step
  Hessian Eigenvalues:
     0.031272    0.044999    0.045000    0.045068    0.047215    0.053498
     0.067421    0.077834    0.081962    0.092264    0.092537    0.093378
     0.093531    0.099281    0.115188    0.138704    0.143746    0.159942
     0.160000    0.160000    0.160012    0.160521    0.168259    0.223626
     0.229226    0.232453    0.257438    0.313924    0.330296    0.331960
     0.333803    0.336865    0.337074    0.337965    0.343601    0.346348
     0.347468    0.348067    0.348199    0.348621    0.356682    0.466898
     0.560494

 Minimum Search - Taking Simple RFO Step
 Searching for Lamda that Minimizes Along All modes
 Value Taken    Lamda =   0.00000000
 Step Taken.  Stepsize is  0.004574

                             Maximum     Tolerance    Cnvgd?
         Gradient           0.000101      0.000300     YES
         Displacement       0.002119      0.001200      NO
         Energy change     -0.000003      0.000001      NO


 New Cartesian Coordinates Obtained by Inverse Iteration

 Displacement from previous Coordinates is:  0.006636
 ----------------------------------------------------
       Standard Nuclear Orientation (Angstroms)
    I     Atom         X            Y            Z
 ----------------------------------------------------
    1      C       1.038355     0.026450     0.144406
    2      C       2.160745     1.006044     0.199344
    3      H       3.013703     0.609639     0.751608
    4      H       1.854184     1.942545     0.665289
    5      H       2.526567     1.254242    -0.807786
    6      C       1.364268    -1.391501    -0.194064
    7      H       2.355760    -1.659785     0.169882
    8      H       0.649752    -2.097035     0.231546
    9      H       1.362924    -1.558128    -1.281172
   10      C      -0.331045     0.559634    -0.129460
   11      H      -0.509340     1.450339     0.479330
   12      H      -0.399924     0.896566    -1.179421
   13      C      -1.464973    -0.424844     0.126017
   14      H      -1.405506    -0.806828     1.145705
   15      H      -1.392702    -1.281864    -0.550553
   16      O      -2.735206     0.187173     0.015066
   17      H      -2.834675     0.540752    -0.871224
 ----------------------------------------------------
 Molecular Point Group                 C1    NOp =  1
 Largest Abelian Subgroup              C1    NOp =  1
 Nuclear Repulsion Energy =   243.6141584178 hartrees
 There are       25 alpha and       24 beta electrons
 Applying Cartesian multipole field
    Component          Value
    ---------          -----
     (2,0,0)        1.00000E-11
     (0,2,0)        2.00000E-11
     (0,0,2)       -3.00000E-11
 Nucleus-field energy     =     0.0000000078 hartrees
 Requested basis set is non-standard
 There are 138 shells and 314 basis functions
 A cutoff of  1.0D-11 yielded   8907 shell pairs
 There are     45649 function pairs (     54754 Cartesian)
 Smallest overlap matrix eigenvalue = 1.49E-05
 Guess MOs from core Hamiltonian diagonalization
 An unrestricted hybrid HF-DFT SCF calculation will be
 performed using Pulay DIIS extrapolation
 Exchange:     0.5400 Hartree-Fock + 1.0000 M062X
 SCF converges when DIIS error is below 1.0E-08
 ---------------------------------------
  Cycle       Energy         DIIS Error
 ---------------------------------------
    1    -192.2872192642      9.20E-02
    2    -167.2402328351      4.86E-02
    3    -168.0671681448      6.66E-02
    4    -239.7575254981      3.68E-02
    5    -268.0218219114      1.77E-02
    6    -271.3065735560      8.81E-03
    7    -272.2203432166      2.27E-03
    8    -272.2654283453      9.89E-04
    9    -272.2757101434      3.16E-04
   10    -272.2774964898      1.11E-04
   11    -272.2777841442      4.75E-05
   12    -272.2778303677      8.26E-06
   13    -272.2778331200      2.77E-06
   14    -272.2778337291      1.24E-06
   15    -272.2778338620      3.94E-07
   16    -272.2778338757      9.94E-08
   17    -272.2778338762      2.57E-08
   18    -272.2778338758      9.70E-09 Convergence criterion met
 ---------------------------------------
 <S^2> = 0.7550
 SCF time:  CPU 321.11 s  wall 327.69 s
 SCF   energy in the final basis set = -272.2778338758
 Total energy in the final basis set = -272.2778338758
 Analysis of SCF Wavefunction
 
 --------------------------------------------------------------
                    Orbital Energies (a.u.)
 --------------------------------------------------------------
 
 Alpha MOs
 -- Occupied --
-19.620 -10.580 -10.547 -10.535 -10.531 -10.528  -1.145  -0.919
 -0.828  -0.790  -0.724  -0.622  -0.586  -0.542  -0.529  -0.503
 -0.487  -0.472  -0.458  -0.437  -0.422  -0.407  -0.393  -0.347
 -0.232
 -- Virtual --
 -0.004   0.007   0.012   0.019   0.032   0.036   0.041   0.047
  0.049   0.068   0.076   0.087   0.089   0.099   0.110   0.119
  0.122   0.128   0.133   0.143   0.152   0.154   0.160   0.161
  0.166   0.173   0.175   0.178   0.185   0.202   0.207   0.211
  0.222   0.228   0.239   0.247   0.256   0.263   0.274   0.284
  0.298   0.316   0.325   0.331   0.333   0.339   0.349   0.359
  0.364   0.379   0.413   0.439   0.460   0.475   0.483   0.511
  0.521   0.531   0.547   0.560   0.566   0.581   0.584   0.594
  0.594   0.607   0.612   0.613   0.632   0.652   0.661   0.663
  0.677   0.694   0.699   0.714   0.725   0.734   0.739   0.746
  0.771   0.793   0.796   0.824   0.865   0.877   0.883   0.923
  0.940   0.950   0.953   1.003   1.012   1.030   1.053   1.081
  1.092   1.122   1.137   1.152   1.167   1.185   1.192   1.198
  1.202   1.214   1.227   1.250   1.264   1.271   1.283   1.297
  1.309   1.315   1.324   1.336   1.350   1.370   1.384   1.404
  1.412   1.431   1.454   1.458   1.468   1.472   1.495   1.512
  1.525   1.534   1.550   1.568   1.579   1.600   1.610   1.629
  1.638   1.652   1.666   1.707   1.748   1.774   1.807   1.855
  1.934   2.073   2.122   2.299   2.325   2.407   2.431   2.486
  2.513   2.541   2.590   2.621   2.669   2.693   2.722   2.765
  2.804   2.823   2.832   2.849   2.861   2.898   2.921   2.925
  2.962   2.973   2.983   2.992   3.025   3.057   3.077   3.098
  3.133   3.158   3.174   3.190   3.198   3.218   3.227   3.268
  3.271   3.282   3.321   3.330   3.341   3.363   3.382   3.410
  3.417   3.445   3.467   3.485   3.493   3.535   3.558   3.568
  3.604   3.615   3.631   3.646   3.660   3.686   3.706   3.729
  3.749   3.763   3.795   3.822   3.840   3.867   3.891   3.892
  3.926   3.937   3.957   3.991   4.013   4.025   4.053   4.073
  4.096   4.099   4.145   4.157   4.181   4.201   4.218   4.234
  4.244   4.249   4.270   4.279   4.321   4.351   4.366   4.372
  4.395   4.430   4.464   4.474   4.498   4.502   4.528   4.531
  4.552   4.598   4.612   4.641   4.662   4.748   4.797   4.884
  4.952   5.044   5.174   5.242   5.257   5.291   5.425   5.468
  5.500   5.514   5.525   5.591   5.617   5.623   5.641   5.666
  5.690   5.693   5.858   5.963   6.544   6.983   7.203   7.209
  7.245   7.521   7.650  24.140  24.391  24.439  24.485  24.543
 50.150
 
 Beta MOs
 -- Occupied --
-19.620 -10.580 -10.540 -10.536 -10.531 -10.529  -1.145  -0.901
 -0.824  -0.786  -0.721  -0.601  -0.585  -0.533  -0.520  -0.492
 -0.479  -0.468  -0.450  -0.435  -0.416  -0.402  -0.391  -0.346
 -- Virtual --
 -0.017   0.007   0.009   0.015   0.022   0.035   0.040   0.048
  0.052   0.053   0.073   0.079   0.084   0.089   0.098   0.109
  0.117   0.126   0.130   0.134   0.140   0.151   0.153   0.158
  0.161   0.164   0.172   0.177   0.179   0.186   0.199   0.205
  0.212   0.224   0.230   0.238   0.246   0.258   0.262   0.276
  0.288   0.299   0.316   0.323   0.335   0.340   0.342   0.349
  0.363   0.367   0.385   0.415   0.438   0.459   0.473   0.484
  0.513   0.523   0.533   0.552   0.562   0.568   0.584   0.588
  0.592   0.600   0.606   0.611   0.617   0.632   0.655   0.663
  0.668   0.681   0.691   0.705   0.715   0.723   0.732   0.736
  0.746   0.766   0.792   0.793   0.823   0.866   0.878   0.884
  0.924   0.940   0.953   0.954   1.003   1.011   1.031   1.052
  1.079   1.092   1.122   1.135   1.150   1.166   1.181   1.190
  1.195   1.201   1.217   1.226   1.252   1.265   1.271   1.285
  1.297   1.311   1.324   1.325   1.338   1.354   1.373   1.391
  1.406   1.414   1.431   1.453   1.459   1.468   1.469   1.495
  1.506   1.520   1.529   1.549   1.567   1.580   1.600   1.611
  1.624   1.637   1.650   1.669   1.710   1.751   1.777   1.813
  1.861   1.934   2.074   2.123   2.300   2.325   2.413   2.437
  2.489   2.519   2.546   2.598   2.632   2.681   2.698   2.735
  2.776   2.819   2.838   2.849   2.865   2.885   2.920   2.933
  2.937   2.965   2.977   2.992   3.008   3.037   3.069   3.086
  3.105   3.142   3.161   3.181   3.193   3.205   3.221   3.236
  3.271   3.273   3.282   3.321   3.329   3.345   3.368   3.384
  3.418   3.421   3.457   3.477   3.495   3.518   3.554   3.561
  3.583   3.615   3.622   3.632   3.658   3.679   3.693   3.709
  3.743   3.753   3.767   3.800   3.830   3.845   3.872   3.897
  3.902   3.930   3.939   3.959   3.995   4.015   4.028   4.055
  4.084   4.103   4.106   4.152   4.162   4.183   4.213   4.222
  4.232   4.242   4.258   4.281   4.290   4.326   4.358   4.370
  4.375   4.409   4.429   4.470   4.476   4.504   4.506   4.532
  4.537   4.563   4.599   4.621   4.647   4.688   4.762   4.810
  4.920   4.983   5.067   5.180   5.243   5.258   5.292   5.426
  5.474   5.519   5.535   5.537   5.591   5.617   5.619   5.638
  5.664   5.687   5.691   5.858   5.963   6.544   6.983   7.203
  7.209   7.245   7.521   7.650  24.147  24.392  24.439  24.486
 24.551  50.149
 --------------------------------------------------------------
 
          Ground-State Mulliken Net Atomic Charges

     Atom                 Charge (a.u.)    Spin (a.u.)
  --------------------------------------------------------
      1 C                     0.268788       0.888507
      2 C                    -0.490320      -0.030381
      3 H                     0.133801       0.013919
      4 H                     0.131250       0.008009
      5 H                     0.128008       0.058700
      6 C                    -0.562989      -0.057020
      7 H                     0.132888       0.007376
      8 H                     0.147605       0.015609
      9 H                     0.147172       0.059104
     10 C                    -0.211352      -0.052196
     11 H                     0.161802       0.016912
     12 H                     0.117727       0.063722
     13 C                    -0.386395       0.009065
     14 H                     0.187451       0.000796
     15 H                     0.169548      -0.002563
     16 O                    -0.328620       0.001112
     17 H                     0.253637      -0.000671
  --------------------------------------------------------
  Sum of atomic charges =     0.000000
  Sum of spin   charges =     1.000000

 -----------------------------------------------------------------
                    Cartesian Multipole Moments
 -----------------------------------------------------------------
    Charge (ESU x 10^10)
                 0.0000
    Dipole Moment (Debye)
         X       1.4014      Y      -0.0274      Z      -1.3931
       Tot       1.9762
    Quadrupole Moments (Debye-Ang)
        XX     -44.7697     XY      -0.4492     YY     -39.0788
        XZ       3.8494     YZ      -0.9118     ZZ     -38.5092
    Octapole Moments (Debye-Ang^2)
       XXX      10.1638    XXY       2.2086    XYY      -4.9305
       YYY       2.4708    XXZ     -11.2192    XYZ       2.9963
       YYZ       0.7930    XZZ      -9.0409    YZZ       1.4323
       ZZZ      -2.3651
    Hexadecapole Moments (Debye-Ang^3)
      XXXX    -836.5278   XXXY     -22.7144   XXYY    -171.4863
      XYYY      -5.9239   YYYY    -251.6831   XXXZ      37.7474
      XXYZ     -13.5040   XYYZ       0.6891   YYYZ      -6.7471
      XXZZ    -130.5654   XYZZ      -3.4686   YYZZ     -53.9443
      XZZZ      -4.3917   YZZZ      -9.3350   ZZZZ     -79.5035
 -----------------------------------------------------------------
 Calculating analytic gradient of the SCF energy
 Gradient of Coulomb and Exchange Energy
            1           2           3           4           5           6
    1  -3.4726739  -3.2857738  -3.3866127   0.4064383  -1.8624347  -3.4920960
    2  -0.4999421  -2.3670631   0.8758998  -3.6157964  -1.2489614   3.4545877
    3  -1.4408655  -0.5394472  -1.8678221  -1.5903950   3.1778615   0.0684412
            7           8           9          10          11          12
    1  -3.6971835   2.1830722  -0.2024567   1.9097137   0.6676647   0.2155631
    2   1.5307333   3.1376499   1.2360306   0.4708907  -4.1026306  -1.7434659
    3  -1.1215819  -1.2676606   3.6980109   0.1779512  -2.2293457   3.9265820
           13          14          15          16          17
    1   1.7871070   0.0647468   0.0630639  10.6166186   1.4852429
    2   0.4670046   1.8928223   3.6324368  -1.3790268  -1.7411694
    3  -0.3243348  -4.1125566   2.3873958  -2.6311420   3.6889087
 Gradient of SCF Energy
            1           2           3           4           5           6
    1  -0.0000133   0.0000183   0.0000260   0.0000248  -0.0000297  -0.0000124
    2   0.0000025  -0.0000358  -0.0000342  -0.0000241   0.0000382  -0.0000113
    3  -0.0000722   0.0000218  -0.0000588   0.0000335  -0.0000211   0.0000459
            7           8           9          10          11          12
    1  -0.0000028  -0.0000010  -0.0000279   0.0000593   0.0000063  -0.0000065
    2  -0.0000097  -0.0000056   0.0000002   0.0000181  -0.0000074   0.0000441
    3  -0.0000464  -0.0000157  -0.0000275  -0.0000189   0.0000299   0.0000172
           13          14          15          16          17
    1  -0.0000253  -0.0000722  -0.0000108   0.0001229  -0.0000556
    2   0.0000405  -0.0000559   0.0000481   0.0000944  -0.0001022
    3   0.0000060  -0.0000099   0.0000221   0.0000701   0.0000239
 Max gradient component =       1.229E-04
 RMS gradient           =       4.167E-05
 Gradient time:  CPU 53.39 s  wall 53.56 s
 Geometry Optimization Parameters
   NAtoms,    NIC,     NZ,  NCons,   NDum,   NFix, NCnnct, MaxDiis
       17     108      17       1       0       0       0       0

 Cartesian Hessian Update
 Hessian Updated using BFGS Update


** CONSTRAINED OPTIMIZATION IN DELOCALIZED INTERNAL COORDINATES **
   Searching for a Minimum

   Optimization Cycle:   7

                       Coordinates (Angstroms)
     ATOM              X           Y           Z
      1  C         1.038355    0.026450    0.144406
      2  C         2.160745    1.006044    0.199344
      3  H         3.013703    0.609639    0.751608
      4  H         1.854184    1.942545    0.665289
      5  H         2.526567    1.254242   -0.807786
      6  C         1.364268   -1.391501   -0.194064
      7  H         2.355760   -1.659785    0.169882
      8  H         0.649752   -2.097035    0.231546
      9  H         1.362924   -1.558128   -1.281172
     10  C        -0.331045    0.559634   -0.129460
     11  H        -0.509340    1.450339    0.479330
     12  H        -0.399924    0.896566   -1.179421
     13  C        -1.464973   -0.424844    0.126017
     14  H        -1.405506   -0.806828    1.145705
     15  H        -1.392702   -1.281864   -0.550553
     16  O        -2.735206    0.187173    0.015066
     17  H        -2.834675    0.540752   -0.871224
   Point Group: c1    Number of degrees of freedom:    45


   Energy is   -272.277833876

              Constraints and their Current Values
                                        Value     Constraint
   Dihedral:       14  13  16  17      180.000      180.000
 GETINT wrote B to file, NVib is           45
 Hessian Updated using BFGS Update

 43 Hessian modes will be used to form the next step
  Hessian Eigenvalues:
     0.014665    0.045000    0.045006    0.045065    0.047243    0.049256
     0.069967    0.078642    0.082240    0.092290    0.092514    0.093260
     0.093539    0.114305    0.121209    0.139509    0.143093    0.159855
     0.160000    0.160000    0.160017    0.160527    0.172923    0.225840
     0.229962    0.236168    0.258228    0.317672    0.330300    0.331901
     0.333803    0.336809    0.337157    0.343073    0.343782    0.346297
     0.347450    0.348032    0.348575    0.349745    0.357232    0.468135
     0.561839

 Minimum Search - Taking Simple RFO Step
 Searching for Lamda that Minimizes Along All modes
 Value Taken    Lamda =   0.00000000
 Step Taken.  Stepsize is  0.006543

                             Maximum     Tolerance    Cnvgd?
         Gradient           0.000082      0.000300     YES
         Displacement       0.003336      0.001200      NO
         Energy change     -0.000001      0.000001     YES

 Final energy is   -272.277833875797     


 ******************************
 **  OPTIMIZATION CONVERGED  **
 ******************************

Z-matrix Print:
$molecule
0 2
C 
C  1 1.490765
H  2 1.090009 1 111.627500
H  2 1.090720 1 111.630457 3 -121.507874 0
H  2 1.099882 1 111.404627 3 119.455210 0
C  1 1.493776 2 117.893929 3 167.253688 0
H  6 1.089720 1 110.887598 2 -31.723927 0
H  6 1.090621 1 112.501560 2 -152.598746 0
H  6 1.099805 1 111.562690 2 87.557029 0
C  1 1.494839 2 117.521964 3 -37.265009 0
H  10 1.093513 1 109.749009 2 45.103349 0
H  10 1.104847 1 109.876322 2 -70.708204 0
C  10 1.523240 1 114.878648 2 167.212276 0
H  13 1.090510 10 110.036591 1 -54.877727 0
H  13 1.094281 10 110.689988 1 63.761500 0
O  13 1.414343 10 112.070131 1 -172.424030 0
H  16 0.959387 13 108.969467 10 -60.007873 0
$end

PES scan, value:  180.0000 energy: -272.2778338758
------- Summary of potential scan: ------ 
 -180.0000      -272.2779092570
 -165.0000      -272.2776724075
 -150.0000      -272.2771175419
 -135.0000      -272.2765793945
 -120.0000      -272.2763882918
 -105.0000      -272.2767278425
  -90.0000      -272.2773797610
  -75.0000      -272.2779130831
  -60.0000      -272.2780929331
  -45.0000      -272.2777736492
  -30.0000      -272.2771512516
  -15.0000      -272.2765450507
    0.0000      -272.2762557676
   15.0000      -272.2764398330
   30.0000      -272.2769999405
   45.0000      -272.2776582431
   60.0000      -272.2780535245
   75.0000      -272.2779274635
   90.0000      -272.2773734247
  105.0000      -272.2766643667
  120.0000      -272.2762762379
  135.0000      -272.2764320731
  150.0000      -272.2770113833
  165.0000      -272.2776007071
  180.0000      -272.2778338758
----------------------------------------- 
Archival summary:
1\1\node61\JobtypUnspecified\ProcedureUnspecified\BasisUnspecified\1511(2)\edames\ThuApr1014:24:512014ThuApr1014:24:512014\0\\#,JobtypUnspecified,ProcedureUnspecified,BasisUnspecified,\\0,2\C\C,1,1.49077\H,2,1.09001,1,111.627\H,2,1.09072,1,111.63,3,-121.508,0\H,2,1.09988,1,111.405,3,119.455,0\C,1,1.49378,2,117.894,3,167.254,0\H,6,1.08972,1,110.888,2,-31.7239,0\H,6,1.09062,1,112.502,2,-152.599,0\H,6,1.0998,1,111.563,2,87.557,0\C,1,1.49484,2,117.522,3,-37.265,0\H,10,1.09351,1,109.749,2,45.1033,0\H,10,1.10485,1,109.876,2,-70.7082,0\C,10,1.52324,1,114.879,2,167.212,0\H,13,1.09051,10,110.037,1,-54.8777,0\H,13,1.09428,10,110.69,1,63.7615,0\O,13,1.41434,10,112.07,1,-172.424,0\H,16,0.959387,13,108.969,10,-60.0079,0\\\@

 Total job time:  77811.87s(wall), 76230.94s(cpu) 
 Thu Apr 10 14:24:51 2014

        *************************************************************
        *                                                           *
        *  Thank you very much for using Q-Chem.  Have a nice day.  *
        *                                                           *
        *************************************************************


0 sent ACK to 0 
now end server 0 ... 
cleanup process ... done
remove work dirs /tmp/qchem7449.0 -- /tmp/qchem7449.3
rm -rf /tmp/qchem7449.0
rm -rf /tmp/qchem7449.1
rm -rf /tmp/qchem7449.2
rm -rf /tmp/qchem7449.3
rm -rf /tmp/qchem7449
