
Running Job 1 of 2 c5h11o-4.in
qchem c5h11o-4.in_32036.0 /tmp/qchem32036/ 4
/opt/qchem/bin/mpi/mpirun_qchem -machinefile /tmp/281063.1.normal3/hostfile -np 4 /opt/qchem/exe/qcprog.exe c5h11o-4.in_32036.0 /tmp/qchem32036/

Process 1 of 4 is on node66.cluster - thread support 0
Process 0 of 4 is on node66.cluster - thread support 0
Process 2 of 4 is on node66.cluster - thread support 0
Process 3 of 4 is on node66.cluster - thread support 0
initial socket setup ...start
initial socket setup ...done 
now start server 0 ... 
                  Welcome to Q-Chem
     A Quantum Leap Into The Future Of Chemistry

 Y. Shao, L. Fusti-Molnar, Y. Jung, J. Kussmann, C. Ochsenfeld, S. T. Brown, 
 A. T. B. Gilbert, L. V. Slipchenko, S. V. Levchenko, D. P. O'Neill, 
 R. A. DiStasio Jr., R. C. Lochan, T. Wang, G. J. O. Beran, N. A. Besley, 
 J. M. Herbert, C. Y. Lin, T. Van Voorhis, S. H. Chien, A. Sodt, R. P. Steele, 
 V. A. Rassolov, P. E. Maslen, P. P. Korambath, R. D. Adamson, B. Austin, 
 J. Baker, E. F. C. Byrd, H. Dachsel, R. J. Doerksen, A. Dreuw, B. D. Dunietz, 
 A. D. Dutoi, T. R. Furlani, S. R. Gwaltney, A. Heyden, S. Hirata, C.-P. Hsu, 
 G. Kedziora, R. Z. Khaliullin, P. Klunzinger, A. M. Lee, M. S. Lee, W. Liang, 
 I. Lotan, N. Nair, B. Peters, E. I. Proynov, P. A. Pieniazek, Y. M. Rhee, 
 J. Ritchie, E. Rosta, C. D. Sherrill, A. C. Simmonett, J. E. Subotnik, 
 H. L. Woodcock III, W. Zhang, A. T. Bell, A. K. Chakraborty, D. M. Chipman, 
 F. J. Keil, A. Warshel, W. J. Hehre, H. F. Schaefer III, J. Kong, 
 A. I. Krylov, P. M. W. Gill, M. Head-Gordon

 Additional authors for Version 3.1: 
 Z. Gan, Y. Zhao, N. E. SchultzD. Truhlar, E. Epifanovsky, M. Oana

 Additional authors for Version 3.2: 
 R. Baer, B. R. Brooks, D. Casanova, J.-D. Chai, C.-L. Cheng, C. Cramer, 
 D. Crittenden, A. Ghysels, G. Hawkins, E. G. Hohenstein, C. Kelley, 
 W. Kurlancheek, D. Liotard, E. Livshits, P. Manohar, A. Marenich, 
 D. Neuhauser, R. Olson, M. A. Rohrdanz, K. S. Thanthiriwatte, A. J. W. Thom, 
 V. Vanovschi, C. F. Williams, Q. Wu, Z.-Q. You

 Additional authors for Version 4.0: 
 A. Aspuru-Guzik, Y. Bernard, C. Chang, J. Deng, A. Dreuw, M. Diedenhofen, 
 R. G. Edgar, D. Ghosh, W. A. Goddard III, M. Goldey, L. D. Jacobson, 
 M. Gordon, B. Kaduk, I. Kaliman, K. Khistyaev, R. King, A. Klamt, 
 D. Kosenkov, T. Kus, D. Lambrecht, A. Landau, A. W. Lange, K. Lawler, F. Liu, 
 J. Liu, R. Olivares-Amaya, S. P. Mao, J. Parkhill, N. Russ, M. Schmidt, 
 N. Shenvi, D. Small, Y. C. Su, E. Sundstrom, L. Vogt, O. Vydrov, M. Watson, 
 M. Wormit, X. Xu, S. Yeganeh, I. Y. Zhang, D. Zuev

 Additional authors for Version 4.1: 
 X. Feng, M. W. D. Hanson-Heine, P. Horn, H. Ji, A. Laurent, R. Peverati, 
 N. Mardirossian, N. Sergueev, S. Sharada, P. Zimmerman


 Q-Chem, Version 4.1, Q-Chem, Inc., Pittsburgh, PA (2013).

 Intel X86 Linux Version 4.1.0.1 

 Q-chem begins on Wed Apr  9 10:52:31 2014  

Host: 
0

     Scratch files written to /tmp/qchem32036.0//
 Oct1213 14483_epif 4150   
 Parallel job on  4  processors
Processing $rem in /opt/qchem/config/preferences.
 MEM_TOTAL  2000 
Warning: disabling incdft.
 Q-Chem warning in module /home/scratch/svnadmin/14483_epif/qchem/forms1/BasisType.C, line 1125:

 Setting pure/cartesian flag to 2111 for general basis


Finally everything over in PARseQInput

--------------------------------------------------------------
User input:
--------------------------------------------------------------
$rem
XC_GRID 000075000434
JOBTYPE opt
EXCHANGE M08SO
BASIS gen
GUI=2
UNRESTRICTED TRUE
CORRELATION NONE
$end

$comment
c5h11o-2
$end

$molecule
read c5h11o-4MG3S.out
$end

$basis
H  0
S  3 1.00
3.386500000000E+01 2.549380000000E-02
5.094790000000E+00 1.903730000000E-01
1.158790000000E+00 8.521610000000E-01
S  1 1.00
3.258400000000E-01 1.000000000000E+00
S  1 1.00
1.027410000000E-01 1.000000000000E+00
S  1 1.00
3.600000000000E-02 1.000000000000E+00
P  1 1.00
1.500000000000E+00 1.000000000000E+00
P  1 1.00
3.750000000000E-01 1.000000000000E+00
****
C 0
S  6 1.00
4.563240000000E+03 1.966650000000E-03
6.820240000000E+02 1.523060000000E-02
1.549730000000E+02 7.612690000000E-02
4.445530000000E+01 2.608010000000E-01
1.302900000000E+01 6.164620000000E-01
1.827730000000E+00 2.210060000000E-01
S  3 1.00
2.096420000000E+01 1.146600000000E-01
4.803310000000E+00 9.199990000000E-01
1.459330000000E+00 -3.030680000000E-03
S  1 1.00
4.834560000000E-01 1.000000000000E+00
S  1 1.00
1.455850000000E-01 1.000000000000E+00
S  1 1.00
4.380000000000E-02 1.000000000000E+00
P  3 1.00
2.096420000000E+01 4.024870000000E-02
4.803310000000E+00 2.375940000000E-01
1.459330000000E+00 8.158540000000E-01
P  1 1.00
4.834560000000E-01 1.000000000000E+00
P  1 1.00
1.455850000000E-01 1.000000000000E+00
P  1 1.00
4.380000000000E-02 1.000000000000E+00
D  1 1.00
1.252000000000E+00 1.000000000000E+00
D  1 1.00
3.130000000000E-01 1.000000000000E+00
F  1 1.00
8.000000000000E-01 1.000000000000E+00
****
O  0
S  6 1.00
8.588500000000E+03 1.895150000000E-03
1.297230000000E+03 1.438590000000E-02
2.992960000000E+02 7.073200000000E-02
8.737710000000E+01 2.400010000000E-01
2.567890000000E+01 5.947970000000E-01
3.740040000000E+00 2.808020000000E-01
S  3 1.00
4.211750000000E+01 1.138890000000E-01
9.628370000000E+00 9.208110000000E-01
2.853320000000E+00 -3.274470000000E-03
S  1 1.00
9.056610000000E-01 1.000000000000E+00
S  1 1.00
2.556110000000E-01 1.000000000000E+00
S  1 1.00
8.450000000000E-02 1.000000000000E+00
P  3 1.00
4.211750000000E+01 3.651140000000E-02
9.628370000000E+00 2.371530000000E-01
2.853320000000E+00 8.197020000000E-01
P  1 1.00
9.056610000000E-01 1.000000000000E+00
P  1 1.00
2.556110000000E-01 1.000000000000E+00
P  1 1.00
8.450000000000E-02 1.000000000000E+00
D  1 1.00
2.584000000000E+00 1.000000000000E+00
D  1 1.00
6.460000000000E-01 1.000000000000E+00
F  1 1.00
1.400000000000E+00 1.000000000000E+00
****
$end

--------------------------------------------------------------
 ----------------------------------------------------
       Standard Nuclear Orientation (Angstroms)
    I     Atom         X            Y            Z
 ----------------------------------------------------
    1      C       1.046034     0.027947     0.142240
    2      C       2.172159     1.010104     0.078293
    3      H       3.068700     0.628900     0.577972
    4      H       1.901594     1.965580     0.540880
    5      H       2.457945     1.229040    -0.965937
    6      C       1.363390    -1.416702    -0.095124
    7      H       2.354626    -1.668444     0.293780
    8      H       0.638956    -2.090108     0.374370
    9      H       1.367294    -1.657815    -1.173425
   10      C      -0.322951     0.546010    -0.182890
   11      H      -0.479187     1.515335     0.306323
   12      H      -0.397191     0.743151    -1.273193
   13      C      -1.477091    -0.372844     0.213062
   14      H      -1.411083    -0.618845     1.277297
   15      H      -1.439815    -1.314500    -0.351430
   16      O      -2.737227     0.253432     0.043940
   17      H      -2.853264     0.473158    -0.891646
 ----------------------------------------------------
 Molecular Point Group                 C1    NOp =  1
 Largest Abelian Subgroup              C1    NOp =  1
 Nuclear Repulsion Energy =   242.7758130833 hartrees
 There are       25 alpha and       24 beta electrons
 Requested basis set is non-standard
 There are 138 shells and 314 basis functions

Total QAlloc Memory Limit   2000 MB
Mega-Array Size        61 MB
MEM_STATIC part        62 MB
 A cutoff of  1.0D-11 yielded   8903 shell pairs
 There are     45585 function pairs (     54663 Cartesian)
 Smallest overlap matrix eigenvalue = 1.55E-05

  Scale SEOQF with 1.000000e-01/1.000000e-01/1.000000e-01

 Standard Electronic Orientation quadrupole field applied
 Nucleus-field energy     =     0.0000000078 hartrees
 Guess MOs from core Hamiltonian diagonalization
 An unrestricted hybrid HF-DFT SCF calculation will be
 performed using Pulay DIIS extrapolation
 Exchange:     0.5679 Hartree-Fock + 1.0000 M08SO
 SCF converges when DIIS error is below 1.0E-08
 ---------------------------------------
  Cycle       Energy         DIIS Error
 ---------------------------------------
    1    -192.1558107435      9.17E-02
    2    -167.1462366711      4.85E-02
    3    -168.0641233609      6.64E-02
    4    -239.1936837086      3.68E-02
    5    -267.6517366050      1.83E-02
    6    -271.2291436828      8.74E-03
    7    -272.1478273331      2.36E-03
    8    -272.1972361030      1.02E-03
    9    -272.2083786823      3.48E-04
   10    -272.2106800805      1.13E-04
   11    -272.2110245681      4.48E-05
   12    -272.2110758927      8.96E-06
   13    -272.2110805445      3.41E-06
   14    -272.2110814753      1.36E-06
   15    -272.2110816238      3.81E-07
   16    -272.2110816364      9.07E-08
   17    -272.2110816372      2.32E-08
   18    -272.2110816373      1.01E-08
   19    -272.2110816375      3.14E-09 Convergence criterion met
 ---------------------------------------
 <S^2> = 0.7561
 SCF time:  CPU 1906.51 s  wall 1918.36 s
 SCF   energy in the final basis set = -272.2110816375
 Total energy in the final basis set = -272.2110816375
 Analysis of SCF Wavefunction
 
 --------------------------------------------------------------
                    Orbital Energies (a.u.)
 --------------------------------------------------------------
 
 Alpha MOs
 -- Occupied --
-19.564 -10.541 -10.514 -10.497 -10.492 -10.489  -1.135  -0.918
 -0.827  -0.791  -0.725  -0.625  -0.592  -0.548  -0.536  -0.510
 -0.494  -0.479  -0.465  -0.444  -0.426  -0.412  -0.400  -0.356
 -0.243
 -- Virtual --
 -0.026  -0.015  -0.009  -0.001   0.010   0.015   0.021   0.027
  0.029   0.047   0.054   0.063   0.066   0.075   0.086   0.095
  0.105   0.109   0.114   0.122   0.128   0.134   0.139   0.140
  0.147   0.152   0.155   0.158   0.164   0.180   0.188   0.194
  0.208   0.213   0.220   0.226   0.239   0.243   0.257   0.266
  0.278   0.298   0.305   0.312   0.314   0.318   0.330   0.340
  0.344   0.360   0.398   0.416   0.442   0.456   0.466   0.492
  0.502   0.513   0.530   0.541   0.544   0.558   0.561   0.569
  0.571   0.579   0.581   0.590   0.608   0.629   0.632   0.639
  0.652   0.667   0.671   0.684   0.692   0.706   0.714   0.716
  0.749   0.766   0.769   0.797   0.843   0.851   0.860   0.898
  0.909   0.916   0.925   0.971   0.986   0.996   1.020   1.046
  1.062   1.087   1.107   1.118   1.133   1.143   1.156   1.159
  1.169   1.177   1.188   1.211   1.222   1.223   1.245   1.256
  1.266   1.271   1.285   1.299   1.316   1.334   1.348   1.358
  1.379   1.391   1.408   1.418   1.425   1.429   1.455   1.465
  1.485   1.492   1.504   1.525   1.531   1.548   1.569   1.577
  1.591   1.611   1.624   1.674   1.716   1.735   1.771   1.817
  1.924   2.059   2.107   2.276   2.296   2.377   2.390   2.461
  2.490   2.507   2.557   2.588   2.621   2.669   2.680   2.722
  2.750   2.764   2.776   2.795   2.808   2.852   2.881   2.882
  2.918   2.936   2.940   2.956   2.986   3.011   3.028   3.066
  3.090   3.125   3.140   3.146   3.162   3.174   3.181   3.211
  3.228   3.241   3.284   3.298   3.313   3.327   3.344   3.361
  3.381   3.398   3.413   3.445   3.453   3.494   3.513   3.522
  3.560   3.576   3.588   3.597   3.626   3.648   3.672   3.682
  3.702   3.724   3.747   3.777   3.793   3.822   3.834   3.850
  3.861   3.883   3.907   3.943   3.952   3.963   4.006   4.011
  4.042   4.053   4.083   4.110   4.120   4.134   4.158   4.169
  4.182   4.184   4.208   4.226   4.254   4.280   4.304   4.312
  4.320   4.373   4.405   4.419   4.434   4.435   4.461   4.482
  4.483   4.533   4.556   4.590   4.603   4.707   4.729   4.827
  4.878   4.999   5.134   5.178   5.192   5.232   5.361   5.416
  5.433   5.456   5.473   5.514   5.574   5.595   5.615   5.642
  5.663   5.666   5.782   5.883   6.489   6.955   7.099   7.174
  7.207   7.463   7.593  23.920  24.165  24.211  24.257  24.309
 49.796
 
 Beta MOs
 -- Occupied --
-19.564 -10.541 -10.498 -10.497 -10.493 -10.490  -1.135  -0.909
 -0.825  -0.789  -0.724  -0.611  -0.591  -0.539  -0.526  -0.499
 -0.485  -0.474  -0.455  -0.441  -0.426  -0.415  -0.399  -0.356
 -- Virtual --
 -0.040  -0.020  -0.015  -0.012  -0.005   0.007   0.011   0.015
  0.020   0.025   0.043   0.052   0.058   0.062   0.070   0.080
  0.088   0.100   0.105   0.112   0.119   0.125   0.128   0.133
  0.135   0.143   0.146   0.152   0.153   0.163   0.176   0.183
  0.194   0.208   0.213   0.219   0.227   0.239   0.240   0.259
  0.270   0.284   0.296   0.303   0.314   0.322   0.328   0.334
  0.343   0.350   0.374   0.401   0.417   0.442   0.456   0.467
  0.492   0.505   0.514   0.536   0.545   0.551   0.566   0.567
  0.571   0.578   0.580   0.588   0.599   0.615   0.635   0.646
  0.648   0.662   0.670   0.684   0.690   0.694   0.709   0.717
  0.726   0.757   0.770   0.783   0.801   0.845   0.854   0.860
  0.902   0.911   0.924   0.929   0.978   0.989   1.000   1.024
  1.049   1.068   1.090   1.109   1.120   1.135   1.144   1.158
  1.163   1.174   1.181   1.193   1.218   1.227   1.232   1.252
  1.264   1.279   1.291   1.295   1.310   1.330   1.350   1.361
  1.379   1.387   1.395   1.415   1.426   1.430   1.435   1.456
  1.469   1.486   1.494   1.509   1.531   1.543   1.552   1.576
  1.580   1.598   1.620   1.643   1.692   1.735   1.746   1.795
  1.838   1.926   2.061   2.109   2.278   2.297   2.386   2.398
  2.469   2.502   2.515   2.569   2.610   2.652   2.679   2.710
  2.748   2.790   2.822   2.835   2.848   2.886   2.901   2.916
  2.922   2.932   2.945   2.952   3.002   3.024   3.051   3.069
  3.086   3.109   3.129   3.143   3.158   3.185   3.201   3.209
  3.216   3.241   3.253   3.299   3.305   3.324   3.339   3.353
  3.382   3.387   3.424   3.447   3.481   3.503   3.519   3.531
  3.542   3.579   3.590   3.601   3.628   3.654   3.673   3.693
  3.714   3.727   3.736   3.773   3.797   3.811   3.836   3.850
  3.872   3.875   3.899   3.922   3.955   3.957   3.970   4.021
  4.050   4.062   4.076   4.100   4.120   4.131   4.160   4.171
  4.181   4.183   4.212   4.238   4.263   4.273   4.289   4.321
  4.327   4.374   4.387   4.431   4.437   4.448   4.458   4.488
  4.499   4.533   4.542   4.594   4.609   4.691   4.748   4.795
  4.950   4.996   5.084   5.154   5.184   5.199   5.251   5.365
  5.441   5.459   5.514   5.560   5.577   5.589   5.602   5.632
  5.640   5.664   5.669   5.788   5.883   6.489   6.955   7.099
  7.174   7.208   7.463   7.593  23.932  24.168  24.217  24.262
 24.335  49.796
 --------------------------------------------------------------
 
          Ground-State Mulliken Net Atomic Charges

     Atom                 Charge (a.u.)    Spin (a.u.)
  --------------------------------------------------------
      1 C                     0.486785       0.926396
      2 C                    -0.710293      -0.053117
      3 H                     0.183537       0.009616
      4 H                     0.183754       0.009448
      5 H                     0.188127       0.071057
      6 C                    -0.828780      -0.063149
      7 H                     0.185555       0.004617
      8 H                     0.209350       0.014945
      9 H                     0.207413       0.072083
     10 C                    -0.362675      -0.088790
     11 H                     0.226459       0.015108
     12 H                     0.187930       0.078568
     13 C                    -0.578064       0.000628
     14 H                     0.249639       0.002109
     15 H                     0.233558       0.001401
     16 O                    -0.344564       0.000149
     17 H                     0.282270      -0.001070
  --------------------------------------------------------
  Sum of atomic charges =     0.000000
  Sum of spin   charges =     1.000000

 -----------------------------------------------------------------
                    Cartesian Multipole Moments
 -----------------------------------------------------------------
    Charge (ESU x 10^10)
                 0.0000
    Dipole Moment (Debye)
         X       1.4180      Y      -0.2722      Z      -1.4275
       Tot       2.0304
    Quadrupole Moments (Debye-Ang)
        XX     -45.1758     XY       0.3242     YY     -39.7621
        XZ       4.0763     YZ      -0.8179     ZZ     -38.8449
    Octapole Moments (Debye-Ang^2)
       XXX      10.0198    XXY      -0.5672    XYY      -4.1141
       YYY       1.2604    XXZ     -12.3504    XYZ       2.6024
       YYZ       0.7295    XZZ      -9.6972    YZZ       0.7815
       ZZZ      -2.6704
    Hexadecapole Moments (Debye-Ang^3)
      XXXX    -850.7896   XXXY     -11.2228   XXYY    -177.1160
      XYYY      -0.7050   YYYY    -257.4659   XXXZ      49.2350
      XXYZ      -9.7758   XYYZ       3.0576   YYYZ       1.4359
      XXZZ    -132.6103   XYZZ      -2.1690   YYZZ     -56.0283
      XZZZ       2.2564   YZZZ      -1.6545   ZZZZ     -81.0107
 -----------------------------------------------------------------
 Calculating analytic gradient of the SCF energy
 Gradient of Coulomb and Exchange Energy
            1           2           3           4           5           6
    1  -3.4959615  -2.7851815  -3.4256402   0.2082054  -1.6324534  -3.5815982
    2  -0.6329412  -1.6947216   0.7531193  -3.5611952  -1.2620305   2.7214478
    3  -2.5788211  -0.0122136  -1.5613970  -1.4260461   3.1917982   0.2679189
            7           8           9          10          11          12
    1  -3.5830195   2.1650526  -0.1755051   1.7698160   0.6112715   0.3289407
    2   1.4876245   2.9625088   1.5877700   1.8672045  -4.3320536  -1.2739219
    3  -1.1765513  -1.3505467   3.3968842  -0.0432606  -1.5274245   4.0676915
           13          14          15          16          17
    1   1.5195924   0.0178388   0.1340635  10.3424246   1.5821539
    2  -0.6386270   1.3903292   3.8075491  -1.9247684  -1.2572937
    3   0.0273607  -4.1859086   1.7689554  -2.9856414   4.1272020
 Gradient of SCF Energy
            1           2           3           4           5           6
    1  -0.0005111   0.0008827  -0.0017577   0.0006025  -0.0001346   0.0005418
    2   0.0001345   0.0008374   0.0008491  -0.0017306  -0.0002129  -0.0017907
    3   0.0049503  -0.0021304  -0.0008876  -0.0005261   0.0017094  -0.0016980
            7           8           9          10          11          12
    1  -0.0019343   0.0020354   0.0001311  -0.0003780   0.0004641  -0.0000942
    2   0.0005800   0.0013696   0.0001117   0.0008497  -0.0022326  -0.0002765
    3  -0.0005732  -0.0009766   0.0016675  -0.0013899  -0.0008902   0.0013838
           13          14          15          16          17
    1   0.0009366  -0.0011420  -0.0007762   0.0007982   0.0003356
    2  -0.0007730   0.0011198   0.0022606  -0.0016555   0.0005593
    3  -0.0013558  -0.0020244   0.0008809   0.0068952  -0.0050346
 Max gradient component =       6.895E-03
 RMS gradient           =       1.807E-03
 Gradient time:  CPU 126.16 s  wall 126.52 s
 Geometry Optimization Parameters
   NAtoms,    NIC,     NZ,  NCons,   NDum,   NFix, NCnnct, MaxDiis
       17     108      17       0       0       0       0       0


** GEOMETRY OPTIMIZATION IN DELOCALIZED INTERNAL COORDINATES **
   Searching for a Minimum

   Optimization Cycle:   1

                       Coordinates (Angstroms)
     ATOM              X           Y           Z
      1  C         1.046034    0.027947    0.142240
      2  C         2.172159    1.010104    0.078293
      3  H         3.068700    0.628900    0.577972
      4  H         1.901594    1.965580    0.540880
      5  H         2.457945    1.229040   -0.965937
      6  C         1.363390   -1.416702   -0.095124
      7  H         2.354626   -1.668444    0.293780
      8  H         0.638956   -2.090108    0.374370
      9  H         1.367294   -1.657815   -1.173425
     10  C        -0.322951    0.546010   -0.182890
     11  H        -0.479187    1.515335    0.306323
     12  H        -0.397191    0.743151   -1.273193
     13  C        -1.477091   -0.372844    0.213062
     14  H        -1.411083   -0.618845    1.277297
     15  H        -1.439815   -1.314500   -0.351430
     16  O        -2.737227    0.253432    0.043940
     17  H        -2.853264    0.473158   -0.891646
   Point Group: c1    Number of degrees of freedom:    45


   Energy is   -272.211081638


 Attempting to Generate Delocalized Internal Coordinates
 GETINT wrote B to file, NVib is           45
 calling HSSCONV
 HCONV 3*NATOMS:           51
 wrote HINT to file
  writing hessian 

 45 Hessian modes will be used to form the next step
  Hessian Eigenvalues:
     0.005547    0.009257    0.009441    0.009758    0.012867    0.013356
     0.039999    0.049183    0.055674    0.058492    0.071110    0.071947
     0.072975    0.072997    0.098419    0.116895    0.131670    0.139494
     0.160000    0.160000    0.160000    0.160000    0.160000    0.160000
     0.160000    0.219675    0.220311    0.224238    0.226300    0.296600
     0.324398    0.325506    0.325858    0.328412    0.331421    0.331842
     0.338458    0.340201    0.341845    0.342537    0.342577    0.343217
     0.343372    0.428681    0.537833

 Minimum Search - Taking Simple RFO Step
 Searching for Lamda that Minimizes Along All modes
 Value Taken    Lamda =  -0.00060415
 Step Taken.  Stepsize is  0.152871

                             Maximum     Tolerance    Cnvgd?
         Gradient           0.005138      0.000300      NO
         Displacement       0.110772      0.001200      NO
         Energy change     *********      0.000001      NO


 New Cartesian Coordinates Obtained by Inverse Iteration

 Displacement from previous Coordinates is:  0.186006
 ----------------------------------------------------
       Standard Nuclear Orientation (Angstroms)
    I     Atom         X            Y            Z
 ----------------------------------------------------
    1      C       1.047321     0.037852     0.111354
    2      C       2.181753     1.012955     0.079434
    3      H       3.069990     0.618949     0.591116
    4      H       1.908101     1.968990     0.545912
    5      H       2.485397     1.239568    -0.960967
    6      C       1.346543    -1.414723    -0.098027
    7      H       2.334826    -1.677045     0.300331
    8      H       0.604295    -2.069932     0.378729
    9      H       1.350842    -1.672326    -1.175218
   10      C      -0.325486     0.560017    -0.189022
   11      H      -0.481790     1.528833     0.309588
   12      H      -0.414030     0.762905    -1.279519
   13      C      -1.464886    -0.376893     0.215372
   14      H      -1.384717    -0.623497     1.282123
   15      H      -1.407175    -1.322631    -0.347922
   16      O      -2.736371     0.229200     0.040015
   17      H      -2.861725     0.451179    -0.888785
 ----------------------------------------------------
 Molecular Point Group                 C1    NOp =  1
 Largest Abelian Subgroup              C1    NOp =  1
 Nuclear Repulsion Energy =   242.6740566271 hartrees
 There are       25 alpha and       24 beta electrons
 Applying Cartesian multipole field
    Component          Value
    ---------          -----
     (2,0,0)        1.00000E-11
     (0,2,0)        2.00000E-11
     (0,0,2)       -3.00000E-11
 Nucleus-field energy     =     0.0000000078 hartrees
 Requested basis set is non-standard
 There are 138 shells and 314 basis functions
 A cutoff of  1.0D-11 yielded   8902 shell pairs
 There are     45602 function pairs (     54702 Cartesian)
 Smallest overlap matrix eigenvalue = 1.55E-05
 Guess MOs from SCF MO coefficient file
Reading MOs from coefficient file
Reading MOs from coefficient file
 An unrestricted hybrid HF-DFT SCF calculation will be
 performed using Pulay DIIS extrapolation
 Exchange:     0.5679 Hartree-Fock + 1.0000 M08SO
 SCF converges when DIIS error is below 1.0E-08
Geometry optimization detected.  Setting ReadMinima to 0
Setting SaveMinima to 0
 ---------------------------------------
  Cycle       Energy         DIIS Error
 ---------------------------------------
    1    -272.2153646760      3.82E-04
    2    -272.2113694807      3.99E-05
    3    -272.2114065593      2.10E-05
    4    -272.2114120134      1.03E-05
    5    -272.2114135721      3.29E-06
    6    -272.2114137376      9.62E-07
    7    -272.2114137710      2.89E-07
    8    -272.2114137788      9.93E-08
    9    -272.2114137795      3.47E-08
   10    -272.2114137800      7.35E-09 Convergence criterion met
 ---------------------------------------
 <S^2> = 0.7563
 SCF time:  CPU 972.92 s  wall 978.82 s
 SCF   energy in the final basis set = -272.2114137800
 Total energy in the final basis set = -272.2114137800
 Analysis of SCF Wavefunction
 
 --------------------------------------------------------------
                    Orbital Energies (a.u.)
 --------------------------------------------------------------
 
 Alpha MOs
 -- Occupied --
-19.563 -10.543 -10.514 -10.498 -10.493 -10.491  -1.135  -0.917
 -0.827  -0.790  -0.725  -0.624  -0.592  -0.549  -0.535  -0.509
 -0.494  -0.478  -0.464  -0.443  -0.426  -0.412  -0.400  -0.356
 -0.241
 -- Virtual --
 -0.026  -0.015  -0.009  -0.002   0.010   0.015   0.021   0.026
  0.029   0.047   0.054   0.064   0.066   0.075   0.086   0.095
  0.105   0.109   0.114   0.122   0.128   0.134   0.138   0.140
  0.147   0.153   0.154   0.158   0.165   0.180   0.187   0.192
  0.207   0.213   0.220   0.226   0.237   0.243   0.258   0.266
  0.277   0.299   0.303   0.313   0.314   0.319   0.329   0.339
  0.344   0.363   0.397   0.417   0.444   0.455   0.465   0.492
  0.502   0.513   0.529   0.541   0.544   0.558   0.561   0.569
  0.570   0.580   0.583   0.589   0.608   0.628   0.633   0.638
  0.653   0.664   0.669   0.684   0.690   0.703   0.714   0.717
  0.749   0.766   0.770   0.797   0.842   0.852   0.858   0.897
  0.909   0.916   0.924   0.968   0.983   0.999   1.018   1.051
  1.060   1.084   1.109   1.116   1.137   1.141   1.155   1.159
  1.166   1.177   1.189   1.212   1.218   1.220   1.241   1.255
  1.269   1.273   1.283   1.298   1.315   1.333   1.347   1.362
  1.379   1.390   1.409   1.417   1.424   1.431   1.453   1.464
  1.484   1.490   1.501   1.520   1.528   1.546   1.566   1.573
  1.587   1.609   1.626   1.671   1.711   1.740   1.773   1.822
  1.925   2.057   2.106   2.276   2.295   2.378   2.389   2.456
  2.491   2.510   2.558   2.589   2.626   2.678   2.684   2.724
  2.753   2.765   2.774   2.796   2.810   2.852   2.877   2.885
  2.917   2.934   2.940   2.955   2.985   3.014   3.026   3.069
  3.084   3.126   3.139   3.144   3.158   3.168   3.179   3.206
  3.228   3.238   3.283   3.295   3.310   3.324   3.342   3.354
  3.379   3.399   3.415   3.447   3.451   3.495   3.511   3.529
  3.560   3.578   3.586   3.599   3.628   3.649   3.670   3.688
  3.701   3.724   3.748   3.775   3.793   3.819   3.833   3.849
  3.855   3.877   3.897   3.937   3.949   3.958   3.997   4.015
  4.033   4.046   4.079   4.104   4.116   4.124   4.162   4.165
  4.176   4.181   4.204   4.223   4.251   4.279   4.295   4.310
  4.319   4.369   4.404   4.409   4.430   4.434   4.460   4.475
  4.482   4.524   4.549   4.581   4.598   4.703   4.717   4.833
  4.891   4.998   5.129   5.175   5.191   5.229   5.357   5.413
  5.430   5.455   5.465   5.524   5.563   5.583   5.605   5.626
  5.648   5.650   5.775   5.886   6.481   6.956   7.124   7.169
  7.207   7.468   7.590  23.916  24.156  24.198  24.243  24.300
 49.800
 
 Beta MOs
 -- Occupied --
-19.563 -10.542 -10.499 -10.497 -10.494 -10.492  -1.135  -0.908
 -0.825  -0.788  -0.724  -0.610  -0.591  -0.539  -0.526  -0.499
 -0.484  -0.473  -0.455  -0.440  -0.426  -0.415  -0.399  -0.356
 -- Virtual --
 -0.040  -0.020  -0.015  -0.012  -0.004   0.007   0.010   0.015
  0.020   0.024   0.043   0.052   0.059   0.062   0.069   0.080
  0.088   0.100   0.105   0.112   0.119   0.125   0.129   0.133
  0.136   0.143   0.146   0.151   0.153   0.163   0.175   0.182
  0.193   0.206   0.214   0.219   0.227   0.238   0.240   0.259
  0.270   0.283   0.297   0.301   0.315   0.321   0.329   0.334
  0.344   0.350   0.377   0.401   0.418   0.443   0.455   0.467
  0.492   0.504   0.514   0.536   0.543   0.552   0.566   0.567
  0.571   0.579   0.581   0.588   0.599   0.616   0.634   0.646
  0.646   0.661   0.669   0.683   0.691   0.693   0.707   0.717
  0.728   0.757   0.769   0.783   0.802   0.845   0.855   0.859
  0.902   0.910   0.925   0.929   0.975   0.987   1.003   1.023
  1.055   1.066   1.087   1.110   1.118   1.139   1.142   1.157
  1.163   1.171   1.181   1.193   1.220   1.224   1.228   1.249
  1.264   1.280   1.292   1.295   1.308   1.328   1.352   1.362
  1.379   1.387   1.396   1.416   1.426   1.428   1.437   1.455
  1.467   1.485   1.492   1.506   1.528   1.538   1.550   1.572
  1.578   1.594   1.618   1.647   1.689   1.730   1.750   1.798
  1.844   1.927   2.059   2.109   2.279   2.296   2.388   2.397
  2.464   2.503   2.518   2.570   2.612   2.661   2.684   2.715
  2.748   2.790   2.823   2.838   2.851   2.884   2.899   2.915
  2.921   2.933   2.943   2.955   3.000   3.024   3.049   3.069
  3.088   3.111   3.130   3.141   3.153   3.182   3.201   3.207
  3.213   3.239   3.250   3.297   3.302   3.321   3.335   3.352
  3.373   3.385   3.424   3.448   3.484   3.502   3.521   3.533
  3.548   3.580   3.590   3.604   3.627   3.654   3.671   3.693
  3.713   3.730   3.734   3.767   3.796   3.811   3.834   3.849
  3.865   3.875   3.893   3.912   3.950   3.954   3.967   4.012
  4.052   4.057   4.069   4.097   4.114   4.126   4.158   4.165
  4.176   4.181   4.208   4.236   4.260   4.270   4.286   4.316
  4.319   4.372   4.388   4.424   4.434   4.447   4.456   4.488
  4.495   4.529   4.536   4.584   4.597   4.685   4.745   4.787
  4.959   5.008   5.084   5.149   5.182   5.196   5.248   5.361
  5.432   5.454   5.524   5.552   5.569   5.579   5.595   5.624
  5.629   5.649   5.655   5.781   5.886   6.481   6.956   7.125
  7.169   7.207   7.468   7.590  23.927  24.159  24.204  24.248
 24.326  49.800
 --------------------------------------------------------------
 
          Ground-State Mulliken Net Atomic Charges

     Atom                 Charge (a.u.)    Spin (a.u.)
  --------------------------------------------------------
      1 C                     0.508845       0.929692
      2 C                    -0.705859      -0.056506
      3 H                     0.180027       0.010187
      4 H                     0.182701       0.010083
      5 H                     0.185106       0.071124
      6 C                    -0.839699      -0.063694
      7 H                     0.183723       0.005090
      8 H                     0.210907       0.016182
      9 H                     0.207949       0.072319
     10 C                    -0.367433      -0.094019
     11 H                     0.224341       0.015937
     12 H                     0.185625       0.079145
     13 C                    -0.577458       0.001358
     14 H                     0.252306       0.002364
     15 H                     0.236334       0.001602
     16 O                    -0.349563       0.000246
     17 H                     0.282149      -0.001109
  --------------------------------------------------------
  Sum of atomic charges =     0.000000
  Sum of spin   charges =     1.000000

 -----------------------------------------------------------------
                    Cartesian Multipole Moments
 -----------------------------------------------------------------
    Charge (ESU x 10^10)
                 0.0000
    Dipole Moment (Debye)
         X       1.4143      Y      -0.2501      Z      -1.3889
       Tot       1.9980
    Quadrupole Moments (Debye-Ang)
        XX     -45.2092     XY       0.2204     YY     -39.7870
        XZ       4.1136     YZ      -0.7990     ZZ     -38.8292
    Octapole Moments (Debye-Ang^2)
       XXX       9.5640    XXY      -0.2835    XYY      -4.1960
       YYY       1.4026    XXZ     -12.2260    XYZ       2.4973
       YYZ       0.9694    XZZ      -9.6616    YZZ       0.7387
       ZZZ      -2.0183
    Hexadecapole Moments (Debye-Ang^3)
      XXXX    -848.5232   XXXY     -14.7211   XXYY    -177.2017
      XYYY      -2.9738   YYYY    -258.8021   XXXZ      49.8921
      XXYZ      -9.5704   XYYZ       2.9435   YYYZ       1.5949
      XXZZ    -132.3425   XYZZ      -2.8456   YYZZ     -56.2308
      XZZZ       2.4586   YZZZ      -1.6075   ZZZZ     -80.9272
 -----------------------------------------------------------------
 Calculating analytic gradient of the SCF energy
 Gradient of Coulomb and Exchange Energy
            1           2           3           4           5           6
    1  -3.4993513  -2.8011675  -3.3940120   0.2181947  -1.6656989  -3.6280159
    2  -0.7652850  -1.6486562   0.7942092  -3.5466127  -1.2547976   2.7400538
    3  -1.9773689  -0.1013187  -1.6037862  -1.4447139   3.1618421   0.1352462
            7           8           9          10          11          12
    1  -3.5772969   2.2341459  -0.1520485   1.7627402   0.6071285   0.3656917
    2   1.5195425   2.8787261   1.6108122   1.7919313  -4.3301249  -1.2893878
    3  -1.2168315  -1.3609293   3.3779699  -0.1432988  -1.5706181   4.0592791
           13          14          15          16          17
    1   1.5272549  -0.0629268   0.0298110  10.3671364   1.6684144
    2  -0.6374933   1.4140139   3.8087183  -1.8050239  -1.2806260
    3  -0.1018068  -4.1635255   1.7135771  -2.8775091   4.1137924
 Gradient of SCF Energy
            1           2           3           4           5           6
    1  -0.0006621   0.0005614   0.0000086   0.0001159  -0.0002749   0.0002234
    2  -0.0002622   0.0006781   0.0000811  -0.0000193  -0.0002502  -0.0006820
    3   0.0009569  -0.0005197   0.0000333   0.0000685   0.0000514  -0.0006302
            7           8           9          10          11          12
    1  -0.0000281  -0.0001371  -0.0000125  -0.0005377  -0.0000722   0.0004948
    2  -0.0000149   0.0000191   0.0004059   0.0002480   0.0000157  -0.0002091
    3   0.0001042  -0.0000196   0.0001215  -0.0003366   0.0000103   0.0000526
           13          14          15          16          17
    1   0.0010028   0.0003197   0.0000202  -0.0006626  -0.0003593
    2  -0.0006239  -0.0001821   0.0000638   0.0006415   0.0000907
    3   0.0007948   0.0000077  -0.0000332  -0.0003707  -0.0002912
 Max gradient component =       1.003E-03
 RMS gradient           =       3.935E-04
 Gradient time:  CPU 128.62 s  wall 128.90 s
 Geometry Optimization Parameters
   NAtoms,    NIC,     NZ,  NCons,   NDum,   NFix, NCnnct, MaxDiis
       17     108      17       0       0       0       0       0

 Cartesian Hessian Update
 Hessian Updated using BFGS Update


** GEOMETRY OPTIMIZATION IN DELOCALIZED INTERNAL COORDINATES **
   Searching for a Minimum

   Optimization Cycle:   2

                       Coordinates (Angstroms)
     ATOM              X           Y           Z
      1  C         1.047321    0.037852    0.111354
      2  C         2.181753    1.012955    0.079434
      3  H         3.069990    0.618949    0.591116
      4  H         1.908101    1.968990    0.545912
      5  H         2.485397    1.239568   -0.960967
      6  C         1.346543   -1.414723   -0.098027
      7  H         2.334826   -1.677045    0.300331
      8  H         0.604295   -2.069932    0.378729
      9  H         1.350842   -1.672326   -1.175218
     10  C        -0.325486    0.560017   -0.189022
     11  H        -0.481790    1.528833    0.309588
     12  H        -0.414030    0.762905   -1.279519
     13  C        -1.464886   -0.376893    0.215372
     14  H        -1.384717   -0.623497    1.282123
     15  H        -1.407175   -1.322631   -0.347922
     16  O        -2.736371    0.229200    0.040015
     17  H        -2.861725    0.451179   -0.888785
   Point Group: c1    Number of degrees of freedom:    45


   Energy is   -272.211413780

 GETINT wrote B to file, NVib is           45
 Hessian Updated using BFGS Update

 40 Hessian modes will be used to form the next step
  Hessian Eigenvalues:
     0.005556    0.008973    0.009365    0.009751    0.010247    0.013356
     0.040505    0.049622    0.055875    0.059318    0.071376    0.072205
     0.072966    0.072987    0.098468    0.117764    0.132318    0.139620
     0.159187    0.167473    0.219318    0.222269    0.226141    0.230264
     0.295885    0.322941    0.324524    0.325943    0.327402    0.331443
     0.331953    0.338748    0.340642    0.341928    0.342524    0.342939
     0.343312    0.351027    0.444430    0.537737

 Minimum Search - Taking Simple RFO Step
 Searching for Lamda that Minimizes Along All modes
 Value Taken    Lamda =  -0.00007991
 Step Taken.  Stepsize is  0.080500

                             Maximum     Tolerance    Cnvgd?
         Gradient           0.001175      0.000300      NO
         Displacement       0.052866      0.001200      NO
         Energy change     -0.000332      0.000001      NO


 New Cartesian Coordinates Obtained by Inverse Iteration

 Displacement from previous Coordinates is:  0.091796
 ----------------------------------------------------
       Standard Nuclear Orientation (Angstroms)
    I     Atom         X            Y            Z
 ----------------------------------------------------
    1      C       1.048520     0.039775     0.093529
    2      C       2.183273     1.013265     0.078498
    3      H       3.064855     0.615660     0.599658
    4      H       1.903578     1.967468     0.545987
    5      H       2.501660     1.246273    -0.956731
    6      C       1.345651    -1.415153    -0.097204
    7      H       2.335968    -1.672223     0.300461
    8      H       0.605533    -2.063194     0.393247
    9      H       1.345236    -1.691502    -1.170449
   10      C      -0.326751     0.562264    -0.195955
   11      H      -0.480359     1.527920     0.310414
   12      H      -0.426720     0.773584    -1.284365
   13      C      -1.463105    -0.378700     0.210013
   14      H      -1.377576    -0.630296     1.275471
   15      H      -1.406893    -1.322202    -0.358126
   16      O      -2.735822     0.224789     0.047653
   17      H      -2.864159     0.455672    -0.877588
 ----------------------------------------------------
 Molecular Point Group                 C1    NOp =  1
 Largest Abelian Subgroup              C1    NOp =  1
 Nuclear Repulsion Energy =   242.6623515051 hartrees
 There are       25 alpha and       24 beta electrons
 Applying Cartesian multipole field
    Component          Value
    ---------          -----
     (2,0,0)        1.00000E-11
     (0,2,0)        2.00000E-11
     (0,0,2)       -3.00000E-11
 Nucleus-field energy     =     0.0000000078 hartrees
 Requested basis set is non-standard
 There are 138 shells and 314 basis functions
 A cutoff of  1.0D-11 yielded   8899 shell pairs
 There are     45561 function pairs (     54649 Cartesian)
 Smallest overlap matrix eigenvalue = 1.53E-05
 Guess MOs from SCF MO coefficient file
Reading MOs from coefficient file
Reading MOs from coefficient file
 An unrestricted hybrid HF-DFT SCF calculation will be
 performed using Pulay DIIS extrapolation
 Exchange:     0.5679 Hartree-Fock + 1.0000 M08SO
 SCF converges when DIIS error is below 1.0E-08
Geometry optimization detected.  Setting ReadMinima to 0
Setting SaveMinima to 0
 ---------------------------------------
  Cycle       Energy         DIIS Error
 ---------------------------------------
    1    -272.2122308846      1.93E-04
    2    -272.2114547039      1.99E-05
    3    -272.2114663454      7.01E-06
    4    -272.2114672208      4.84E-06
    5    -272.2114675546      9.63E-07
    6    -272.2114675765      4.15E-07
    7    -272.2114675826      1.60E-07
    8    -272.2114675843      4.49E-08
    9    -272.2114675847      1.53E-08
   10    -272.2114675853      4.71E-09 Convergence criterion met
 ---------------------------------------
 <S^2> = 0.7563
 SCF time:  CPU 925.93 s  wall 937.45 s
 SCF   energy in the final basis set = -272.2114675853
 Total energy in the final basis set = -272.2114675853
 Analysis of SCF Wavefunction
 
 --------------------------------------------------------------
                    Orbital Energies (a.u.)
 --------------------------------------------------------------
 
 Alpha MOs
 -- Occupied --
-19.563 -10.543 -10.513 -10.498 -10.493 -10.491  -1.136  -0.917
 -0.827  -0.790  -0.725  -0.624  -0.592  -0.549  -0.535  -0.509
 -0.494  -0.478  -0.464  -0.443  -0.427  -0.412  -0.400  -0.356
 -0.240
 -- Virtual --
 -0.026  -0.015  -0.009  -0.002   0.010   0.015   0.021   0.026
  0.029   0.047   0.054   0.064   0.066   0.074   0.086   0.095
  0.105   0.109   0.114   0.122   0.128   0.134   0.138   0.140
  0.147   0.153   0.155   0.158   0.165   0.179   0.186   0.193
  0.206   0.213   0.220   0.226   0.237   0.242   0.258   0.266
  0.277   0.299   0.302   0.313   0.314   0.319   0.329   0.339
  0.343   0.365   0.397   0.418   0.445   0.455   0.465   0.492
  0.502   0.512   0.528   0.540   0.544   0.557   0.561   0.569
  0.570   0.581   0.584   0.589   0.607   0.628   0.633   0.639
  0.654   0.663   0.670   0.684   0.689   0.702   0.714   0.717
  0.749   0.767   0.770   0.798   0.842   0.854   0.857   0.895
  0.910   0.917   0.925   0.968   0.983   1.000   1.017   1.051
  1.060   1.086   1.109   1.115   1.138   1.143   1.154   1.159
  1.166   1.178   1.188   1.211   1.216   1.219   1.240   1.256
  1.271   1.275   1.283   1.298   1.316   1.333   1.347   1.364
  1.378   1.390   1.410   1.418   1.423   1.431   1.453   1.463
  1.483   1.490   1.501   1.519   1.528   1.545   1.565   1.573
  1.587   1.608   1.627   1.671   1.709   1.743   1.775   1.827
  1.925   2.058   2.106   2.276   2.296   2.379   2.390   2.455
  2.489   2.510   2.555   2.589   2.626   2.679   2.685   2.725
  2.755   2.768   2.775   2.798   2.813   2.853   2.876   2.886
  2.916   2.934   2.940   2.954   2.988   3.015   3.026   3.069
  3.080   3.126   3.138   3.144   3.158   3.165   3.178   3.207
  3.228   3.237   3.283   3.293   3.309   3.322   3.342   3.354
  3.379   3.400   3.417   3.447   3.451   3.495   3.509   3.532
  3.560   3.580   3.586   3.600   3.629   3.650   3.670   3.690
  3.702   3.725   3.751   3.775   3.793   3.819   3.833   3.851
  3.854   3.877   3.891   3.936   3.947   3.957   3.995   4.015
  4.031   4.046   4.080   4.104   4.116   4.121   4.164   4.166
  4.175   4.182   4.204   4.226   4.250   4.279   4.294   4.311
  4.319   4.368   4.402   4.406   4.431   4.436   4.460   4.475
  4.480   4.521   4.547   4.580   4.596   4.702   4.716   4.837
  4.900   4.997   5.128   5.176   5.191   5.229   5.357   5.413
  5.434   5.457   5.465   5.525   5.563   5.582   5.605   5.623
  5.646   5.648   5.778   5.887   6.486   6.956   7.130   7.171
  7.207   7.468   7.591  23.916  24.157  24.198  24.243  24.299
 49.802
 
 Beta MOs
 -- Occupied --
-19.563 -10.542 -10.499 -10.496 -10.494 -10.492  -1.136  -0.908
 -0.825  -0.788  -0.724  -0.610  -0.591  -0.539  -0.526  -0.498
 -0.484  -0.474  -0.454  -0.440  -0.426  -0.416  -0.399  -0.356
 -- Virtual --
 -0.039  -0.020  -0.015  -0.011  -0.004   0.007   0.010   0.015
  0.020   0.024   0.043   0.052   0.059   0.062   0.069   0.081
  0.089   0.100   0.105   0.112   0.118   0.125   0.129   0.133
  0.136   0.143   0.147   0.151   0.153   0.164   0.176   0.182
  0.193   0.206   0.214   0.219   0.227   0.238   0.240   0.259
  0.270   0.283   0.297   0.300   0.316   0.321   0.329   0.334
  0.343   0.350   0.378   0.401   0.418   0.444   0.455   0.467
  0.492   0.504   0.513   0.535   0.543   0.551   0.566   0.567
  0.571   0.579   0.581   0.587   0.599   0.617   0.634   0.645
  0.647   0.661   0.669   0.683   0.691   0.693   0.706   0.716
  0.728   0.758   0.770   0.784   0.802   0.845   0.856   0.859
  0.901   0.911   0.926   0.930   0.976   0.986   1.004   1.021
  1.054   1.066   1.089   1.111   1.117   1.141   1.144   1.157
  1.163   1.170   1.182   1.193   1.219   1.223   1.226   1.249
  1.264   1.281   1.292   1.295   1.308   1.328   1.353   1.363
  1.381   1.387   1.396   1.417   1.427   1.428   1.437   1.454
  1.467   1.484   1.492   1.506   1.526   1.538   1.549   1.571
  1.577   1.594   1.617   1.647   1.688   1.728   1.754   1.800
  1.849   1.927   2.060   2.108   2.279   2.296   2.389   2.398
  2.463   2.501   2.519   2.567   2.612   2.663   2.684   2.716
  2.749   2.790   2.825   2.841   2.854   2.885   2.899   2.914
  2.921   2.932   2.943   2.958   3.003   3.024   3.048   3.068
  3.087   3.111   3.130   3.141   3.151   3.181   3.200   3.209
  3.212   3.239   3.249   3.296   3.300   3.319   3.333   3.353
  3.373   3.385   3.425   3.447   3.485   3.502   3.520   3.532
  3.551   3.582   3.589   3.605   3.626   3.654   3.670   3.694
  3.714   3.732   3.734   3.768   3.797   3.811   3.834   3.849
  3.863   3.878   3.892   3.907   3.947   3.954   3.965   4.010
  4.051   4.057   4.069   4.097   4.115   4.124   4.156   4.167
  4.176   4.181   4.208   4.236   4.259   4.267   4.286   4.314
  4.319   4.371   4.390   4.419   4.433   4.448   4.457   4.488
  4.495   4.529   4.536   4.581   4.595   4.684   4.744   4.786
  4.964   5.017   5.085   5.150   5.182   5.196   5.247   5.362
  5.432   5.456   5.525   5.551   5.568   5.578   5.596   5.621
  5.632   5.646   5.655   5.784   5.887   6.486   6.956   7.130
  7.171   7.207   7.468   7.591  23.927  24.160  24.204  24.248
 24.326  49.802
 --------------------------------------------------------------
 
          Ground-State Mulliken Net Atomic Charges

     Atom                 Charge (a.u.)    Spin (a.u.)
  --------------------------------------------------------
      1 C                     0.523700       0.932946
      2 C                    -0.707148      -0.059136
      3 H                     0.178662       0.010647
      4 H                     0.182318       0.010563
      5 H                     0.184240       0.071134
      6 C                    -0.846780      -0.064076
      7 H                     0.182789       0.005118
      8 H                     0.212022       0.017266
      9 H                     0.208033       0.071998
     10 C                    -0.370147      -0.097359
     11 H                     0.223900       0.016587
     12 H                     0.184492       0.078959
     13 C                    -0.578870       0.002084
     14 H                     0.252417       0.002431
     15 H                     0.237466       0.001668
     16 O                    -0.349301       0.000280
     17 H                     0.282207      -0.001111
  --------------------------------------------------------
  Sum of atomic charges =     0.000000
  Sum of spin   charges =     1.000000

 -----------------------------------------------------------------
                    Cartesian Multipole Moments
 -----------------------------------------------------------------
    Charge (ESU x 10^10)
                 0.0000
    Dipole Moment (Debye)
         X       1.4052      Y      -0.2343      Z      -1.3785
       Tot       1.9823
    Quadrupole Moments (Debye-Ang)
        XX     -45.1706     XY       0.1574     YY     -39.7835
        XZ       4.1523     YZ      -0.8106     ZZ     -38.8463
    Octapole Moments (Debye-Ang^2)
       XXX       9.2722    XXY      -0.0939    XYY      -4.2732
       YYY       1.4582    XXZ     -12.2006    XYZ       2.5072
       YYZ       1.0221    XZZ      -9.5270    YZZ       0.7160
       ZZZ      -1.6238
    Hexadecapole Moments (Debye-Ang^3)
      XXXX    -847.9370   XXXY     -15.5692   XXYY    -177.2007
      XYYY      -3.3347   YYYY    -259.4480   XXXZ      50.2699
      XXYZ      -9.6385   XYYZ       2.9905   YYYZ       1.6993
      XXZZ    -132.6216   XYZZ      -2.9022   YYZZ     -56.2039
      XZZZ       2.7440   YZZZ      -1.5075   ZZZZ     -80.7407
 -----------------------------------------------------------------
 Calculating analytic gradient of the SCF energy
 Gradient of Coulomb and Exchange Energy
            1           2           3           4           5           6
    1  -3.5156247  -2.7778984  -3.3731910   0.2375724  -1.7076811  -3.6301011
    2  -0.8456342  -1.6365354   0.8060319  -3.5355412  -1.2659047   2.7266411
    3  -1.7000074  -0.1114922  -1.6356962  -1.4517220   3.1347109   0.0527529
            7           8           9          10          11          12
    1  -3.5827972   2.2217070  -0.1317937   1.7321452   0.5885586   0.4141123
    2   1.5007773   2.8497678   1.6649700   1.8553361  -4.3206481  -1.3171930
    3  -1.2189696  -1.4013539   3.3548614  -0.1112837  -1.5962078   4.0382743
           13          14          15          16          17
    1   1.5063895  -0.0698982   0.0295472  10.3823893   1.6765639
    2  -0.6375729   1.4275261   3.8026045  -1.7536435  -1.3209818
    3  -0.0705818  -4.1435188   1.7208502  -2.9568822   4.0962659
 Gradient of SCF Energy
            1           2           3           4           5           6
    1   0.0000039   0.0002228   0.0001661  -0.0000555  -0.0001350   0.0000467
    2  -0.0000266   0.0001503  -0.0000746   0.0001160  -0.0001130  -0.0001948
    3   0.0002210   0.0000026   0.0001040   0.0000858  -0.0002667   0.0000083
            7           8           9          10          11          12
    1   0.0001577  -0.0001823   0.0000455  -0.0003711  -0.0000562   0.0002143
    2  -0.0000739  -0.0000692   0.0002026   0.0001107   0.0001893  -0.0000850
    3   0.0001329   0.0000456  -0.0002849   0.0000508   0.0000527  -0.0001953
           13          14          15          16          17
    1   0.0001836  -0.0000218  -0.0000301  -0.0002769   0.0000881
    2  -0.0000142  -0.0000584  -0.0001695   0.0003827  -0.0002726
    3  -0.0000660   0.0001614  -0.0001067  -0.0006117   0.0006662
 Max gradient component =       6.662E-04
 RMS gradient           =       2.011E-04
 Gradient time:  CPU 135.07 s  wall 142.00 s
 Geometry Optimization Parameters
   NAtoms,    NIC,     NZ,  NCons,   NDum,   NFix, NCnnct, MaxDiis
       17     108      17       0       0       0       0       0

 Cartesian Hessian Update
 Hessian Updated using BFGS Update


** GEOMETRY OPTIMIZATION IN DELOCALIZED INTERNAL COORDINATES **
   Searching for a Minimum

   Optimization Cycle:   3

                       Coordinates (Angstroms)
     ATOM              X           Y           Z
      1  C         1.048520    0.039775    0.093529
      2  C         2.183273    1.013265    0.078498
      3  H         3.064855    0.615660    0.599658
      4  H         1.903578    1.967468    0.545987
      5  H         2.501660    1.246273   -0.956731
      6  C         1.345651   -1.415153   -0.097204
      7  H         2.335968   -1.672223    0.300461
      8  H         0.605533   -2.063194    0.393247
      9  H         1.345236   -1.691502   -1.170449
     10  C        -0.326751    0.562264   -0.195955
     11  H        -0.480359    1.527920    0.310414
     12  H        -0.426720    0.773584   -1.284365
     13  C        -1.463105   -0.378700    0.210013
     14  H        -1.377576   -0.630296    1.275471
     15  H        -1.406893   -1.322202   -0.358126
     16  O        -2.735822    0.224789    0.047653
     17  H        -2.864159    0.455672   -0.877588
   Point Group: c1    Number of degrees of freedom:    45


   Energy is   -272.211467585

 GETINT wrote B to file, NVib is           45
 Hessian Updated using BFGS Update

 41 Hessian modes will be used to form the next step
  Hessian Eigenvalues:
     0.004848    0.006032    0.009300    0.009754    0.010486    0.013419
     0.040216    0.050303    0.055671    0.059704    0.071252    0.072055
     0.072942    0.073052    0.097816    0.118627    0.130468    0.139640
     0.155104    0.160237    0.168108    0.219919    0.222762    0.226832
     0.231193    0.297463    0.323107    0.325771    0.326437    0.329736
     0.331723    0.336022    0.339074    0.340685    0.342003    0.342779
     0.342978    0.343547    0.354335    0.445711    0.558559

 Minimum Search - Taking Simple RFO Step
 Searching for Lamda that Minimizes Along All modes
 Value Taken    Lamda =  -0.00003486
 Step Taken.  Stepsize is  0.074418

                             Maximum     Tolerance    Cnvgd?
         Gradient           0.000635      0.000300      NO
         Displacement       0.038587      0.001200      NO
         Energy change     -0.000054      0.000001      NO


 New Cartesian Coordinates Obtained by Inverse Iteration

 Displacement from previous Coordinates is:  0.089650
 ----------------------------------------------------
       Standard Nuclear Orientation (Angstroms)
    I     Atom         X            Y            Z
 ----------------------------------------------------
    1      C       1.049014     0.040990     0.080151
    2      C       2.183466     1.013787     0.076498
    3      H       3.059605     0.614223     0.604888
    4      H       1.899677     1.966381     0.544584
    5      H       2.513988     1.252112    -0.953561
    6      C       1.343757    -1.415708    -0.095729
    7      H       2.338371    -1.666989     0.294262
    8      H       0.610063    -2.056973     0.412732
    9      H       1.331311    -1.710472    -1.163764
   10      C      -0.327427     0.563900    -0.199316
   11      H      -0.478841     1.525048     0.315909
   12      H      -0.437085     0.785056    -1.284710
   13      C      -1.460724    -0.381105     0.205466
   14      H      -1.371214    -0.638429     1.269115
   15      H      -1.403153    -1.321226    -0.367887
   16      O      -2.734587     0.220027     0.049296
   17      H      -2.863334     0.462776    -0.873421
 ----------------------------------------------------
 Molecular Point Group                 C1    NOp =  1
 Largest Abelian Subgroup              C1    NOp =  1
 Nuclear Repulsion Energy =   242.7110229852 hartrees
 There are       25 alpha and       24 beta electrons
 Applying Cartesian multipole field
    Component          Value
    ---------          -----
     (2,0,0)        1.00000E-11
     (0,2,0)        2.00000E-11
     (0,0,2)       -3.00000E-11
 Nucleus-field energy     =     0.0000000078 hartrees
 Requested basis set is non-standard
 There are 138 shells and 314 basis functions
 A cutoff of  1.0D-11 yielded   8900 shell pairs
 There are     45592 function pairs (     54693 Cartesian)
 Smallest overlap matrix eigenvalue = 1.52E-05
 Guess MOs from SCF MO coefficient file
Reading MOs from coefficient file
Reading MOs from coefficient file
 An unrestricted hybrid HF-DFT SCF calculation will be
 performed using Pulay DIIS extrapolation
 Exchange:     0.5679 Hartree-Fock + 1.0000 M08SO
 SCF converges when DIIS error is below 1.0E-08
Geometry optimization detected.  Setting ReadMinima to 0
Setting SaveMinima to 0
 ---------------------------------------
  Cycle       Energy         DIIS Error
 ---------------------------------------
    1    -272.2114387321      1.57E-04
    2    -272.2114776850      1.84E-05
    3    -272.2114873330      5.97E-06
    4    -272.2114879595      4.38E-06
    5    -272.2114882377      9.78E-07
    6    -272.2114882552      3.76E-07
    7    -272.2114882592      1.20E-07
    8    -272.2114882604      3.63E-08
    9    -272.2114882609      1.30E-08
   10    -272.2114882615      3.85E-09 Convergence criterion met
 ---------------------------------------
 <S^2> = 0.7564
 SCF time:  CPU 929.69 s  wall 936.35 s
 SCF   energy in the final basis set = -272.2114882615
 Total energy in the final basis set = -272.2114882615
 Analysis of SCF Wavefunction
 
 --------------------------------------------------------------
                    Orbital Energies (a.u.)
 --------------------------------------------------------------
 
 Alpha MOs
 -- Occupied --
-19.563 -10.542 -10.513 -10.498 -10.493 -10.491  -1.136  -0.917
 -0.827  -0.790  -0.726  -0.624  -0.592  -0.549  -0.536  -0.509
 -0.493  -0.479  -0.464  -0.443  -0.427  -0.413  -0.400  -0.356
 -0.239
 -- Virtual --
 -0.026  -0.015  -0.009  -0.002   0.010   0.015   0.021   0.026
  0.029   0.047   0.055   0.064   0.066   0.074   0.086   0.095
  0.105   0.108   0.114   0.122   0.128   0.134   0.138   0.140
  0.147   0.152   0.155   0.157   0.165   0.180   0.186   0.193
  0.206   0.213   0.220   0.227   0.237   0.242   0.258   0.266
  0.277   0.300   0.301   0.314   0.315   0.320   0.330   0.339
  0.343   0.366   0.397   0.419   0.445   0.455   0.465   0.492
  0.502   0.511   0.527   0.540   0.543   0.556   0.561   0.569
  0.570   0.581   0.585   0.589   0.607   0.628   0.634   0.639
  0.655   0.662   0.670   0.685   0.690   0.702   0.713   0.718
  0.749   0.768   0.771   0.799   0.841   0.856   0.857   0.894
  0.911   0.917   0.927   0.969   0.982   1.000   1.016   1.050
  1.061   1.088   1.109   1.115   1.138   1.145   1.154   1.160
  1.166   1.178   1.188   1.211   1.215   1.218   1.239   1.257
  1.272   1.276   1.282   1.298   1.315   1.333   1.347   1.366
  1.377   1.390   1.411   1.419   1.422   1.431   1.453   1.463
  1.482   1.490   1.501   1.517   1.528   1.546   1.564   1.573
  1.588   1.608   1.627   1.671   1.708   1.747   1.776   1.830
  1.925   2.058   2.105   2.277   2.296   2.379   2.391   2.452
  2.487   2.511   2.554   2.589   2.627   2.678   2.686   2.726
  2.756   2.770   2.776   2.801   2.815   2.853   2.875   2.887
  2.916   2.933   2.940   2.955   2.991   3.016   3.027   3.068
  3.077   3.127   3.137   3.144   3.158   3.164   3.177   3.208
  3.228   3.236   3.284   3.292   3.308   3.321   3.342   3.355
  3.380   3.401   3.419   3.446   3.453   3.494   3.508   3.534
  3.560   3.581   3.586   3.600   3.631   3.651   3.671   3.692
  3.704   3.725   3.754   3.776   3.794   3.820   3.834   3.853
  3.855   3.878   3.888   3.935   3.945   3.956   3.994   4.015
  4.031   4.047   4.082   4.104   4.115   4.119   4.164   4.169
  4.176   4.183   4.204   4.229   4.250   4.280   4.294   4.315
  4.320   4.367   4.398   4.405   4.433   4.438   4.461   4.475
  4.481   4.521   4.545   4.580   4.597   4.702   4.717   4.840
  4.908   4.998   5.127   5.175   5.191   5.230   5.356   5.415
  5.436   5.460   5.465   5.525   5.563   5.583   5.607   5.623
  5.647   5.649   5.779   5.888   6.488   6.956   7.128   7.171
  7.208   7.468   7.591  23.917  24.160  24.199  24.245  24.301
 49.802
 
 Beta MOs
 -- Occupied --
-19.563 -10.542 -10.499 -10.496 -10.494 -10.492  -1.136  -0.908
 -0.825  -0.788  -0.724  -0.610  -0.591  -0.539  -0.526  -0.498
 -0.483  -0.474  -0.454  -0.440  -0.427  -0.416  -0.399  -0.356
 -- Virtual --
 -0.039  -0.020  -0.015  -0.011  -0.003   0.007   0.010   0.015
  0.020   0.024   0.043   0.052   0.059   0.062   0.069   0.081
  0.089   0.100   0.105   0.111   0.118   0.125   0.129   0.133
  0.136   0.143   0.147   0.151   0.153   0.164   0.176   0.182
  0.193   0.205   0.215   0.219   0.227   0.237   0.240   0.260
  0.270   0.283   0.298   0.300   0.316   0.321   0.330   0.335
  0.343   0.351   0.380   0.401   0.419   0.445   0.456   0.467
  0.492   0.504   0.513   0.535   0.542   0.551   0.565   0.567
  0.572   0.580   0.582   0.587   0.599   0.618   0.634   0.645
  0.647   0.661   0.669   0.683   0.692   0.694   0.706   0.716
  0.727   0.757   0.771   0.784   0.803   0.844   0.856   0.861
  0.900   0.913   0.927   0.932   0.977   0.986   1.005   1.020
  1.054   1.066   1.091   1.111   1.117   1.141   1.147   1.156
  1.164   1.169   1.182   1.193   1.218   1.221   1.226   1.250
  1.264   1.282   1.292   1.296   1.308   1.328   1.353   1.364
  1.382   1.387   1.394   1.417   1.427   1.428   1.437   1.454
  1.466   1.483   1.492   1.506   1.526   1.538   1.549   1.571
  1.578   1.595   1.617   1.648   1.688   1.726   1.758   1.801
  1.852   1.927   2.060   2.108   2.280   2.297   2.390   2.399
  2.460   2.499   2.520   2.565   2.611   2.665   2.682   2.716
  2.750   2.790   2.828   2.844   2.856   2.886   2.900   2.914
  2.921   2.932   2.943   2.960   3.007   3.025   3.048   3.067
  3.087   3.112   3.130   3.142   3.149   3.181   3.199   3.210
  3.213   3.239   3.249   3.296   3.298   3.318   3.332   3.354
  3.374   3.386   3.427   3.446   3.486   3.501   3.518   3.532
  3.554   3.582   3.588   3.606   3.627   3.654   3.670   3.696
  3.715   3.733   3.734   3.768   3.798   3.811   3.835   3.850
  3.862   3.881   3.893   3.905   3.943   3.955   3.965   4.008
  4.051   4.056   4.070   4.099   4.115   4.124   4.154   4.169
  4.177   4.181   4.208   4.237   4.258   4.266   4.286   4.313
  4.323   4.370   4.391   4.415   4.432   4.450   4.459   4.489
  4.497   4.529   4.539   4.579   4.596   4.685   4.744   4.787
  4.968   5.024   5.086   5.149   5.181   5.196   5.248   5.361
  5.433   5.456   5.525   5.551   5.569   5.579   5.597   5.621
  5.636   5.647   5.657   5.786   5.888   6.488   6.956   7.128
  7.171   7.208   7.469   7.591  23.928  24.163  24.205  24.250
 24.328  49.802
 --------------------------------------------------------------
 
          Ground-State Mulliken Net Atomic Charges

     Atom                 Charge (a.u.)    Spin (a.u.)
  --------------------------------------------------------
      1 C                     0.538064       0.935566
      2 C                    -0.710970      -0.061078
      3 H                     0.177795       0.011050
      4 H                     0.182222       0.010926
      5 H                     0.183832       0.070925
      6 C                    -0.855799      -0.064462
      7 H                     0.182300       0.004980
      8 H                     0.213648       0.018480
      9 H                     0.209391       0.071383
     10 C                    -0.372915      -0.099713
     11 H                     0.223851       0.017280
     12 H                     0.183687       0.078842
     13 C                    -0.579735       0.002391
     14 H                     0.252702       0.002519
     15 H                     0.239214       0.001709
     16 O                    -0.349838       0.000309
     17 H                     0.282550      -0.001107
  --------------------------------------------------------
  Sum of atomic charges =     0.000000
  Sum of spin   charges =     1.000000

 -----------------------------------------------------------------
                    Cartesian Multipole Moments
 -----------------------------------------------------------------
    Charge (ESU x 10^10)
                 0.0000
    Dipole Moment (Debye)
         X       1.4052      Y      -0.2162      Z      -1.3666
       Tot       1.9720
    Quadrupole Moments (Debye-Ang)
        XX     -45.1691     XY       0.0850     YY     -39.7656
        XZ       4.1634     YZ      -0.8291     ZZ     -38.8397
    Octapole Moments (Debye-Ang^2)
       XXX       9.2204    XXY       0.1552    XYY      -4.3236
       YYY       1.5304    XXZ     -12.1345    XYZ       2.5455
       YYZ       1.0556    XZZ      -9.4624    YZZ       0.7159
       ZZZ      -1.3000
    Hexadecapole Moments (Debye-Ang^3)
      XXXX    -847.0992   XXXY     -16.4769   XXYY    -176.9884
      XYYY      -3.7387   YYYY    -259.9994   XXXZ      50.0518
      XXYZ      -9.7375   XYYZ       2.9394   YYYZ       1.8492
      XXZZ    -132.6383   XYZZ      -2.9993   YYZZ     -56.1212
      XZZZ       2.8173   YZZZ      -1.3908   ZZZZ     -80.4706
 -----------------------------------------------------------------
 Calculating analytic gradient of the SCF energy
 Gradient of Coulomb and Exchange Energy
            1           2           3           4           5           6
    1  -3.5362668  -2.7464349  -3.3574098   0.2475817  -1.7481737  -3.6378718
    2  -0.8863204  -1.6512234   0.8115589  -3.5274085  -1.2777421   2.7068656
    3  -1.4891073  -0.1047662  -1.6596081  -1.4552863   3.1111253  -0.0236275
            7           8           9          10          11          12
    1  -3.5990120   2.1973776  -0.0860350   1.7233897   0.5753809   0.4552160
    2   1.4788419   2.8220458   1.7246165   1.9278028  -4.3055484  -1.3543565
    3  -1.1991330  -1.4488484   3.3287016  -0.0748250  -1.6300355   4.0147400
           13          14          15          16          17
    1   1.4956480  -0.0846165   0.0193865  10.4044586   1.6773814
    2  -0.6468180   1.4540463   3.7910466  -1.6920377  -1.3753694
    3  -0.0838765  -4.1254690   1.7327499  -2.9712071   4.0784731
 Gradient of SCF Energy
            1           2           3           4           5           6
    1   0.0001267  -0.0000586   0.0000103  -0.0000361   0.0000271  -0.0001410
    2   0.0000634  -0.0001093  -0.0000557   0.0000331   0.0000296   0.0000837
    3  -0.0000255   0.0001207  -0.0000035  -0.0000086  -0.0001260   0.0002036
            7           8           9          10          11          12
    1   0.0000452  -0.0000148   0.0001050  -0.0000111  -0.0000010  -0.0000325
    2  -0.0000244   0.0000077  -0.0000127  -0.0000590   0.0000266  -0.0000083
    3   0.0000464  -0.0000531  -0.0001805   0.0001015  -0.0000044  -0.0000919
           13          14          15          16          17
    1  -0.0001713   0.0000602  -0.0000041   0.0001464  -0.0000504
    2   0.0001385  -0.0000712  -0.0000241   0.0000761  -0.0000940
    3   0.0000742   0.0000663  -0.0000669  -0.0001994   0.0001471
 Max gradient component =       2.036E-04
 RMS gradient           =       8.748E-05
 Gradient time:  CPU 130.77 s  wall 130.78 s
 Geometry Optimization Parameters
   NAtoms,    NIC,     NZ,  NCons,   NDum,   NFix, NCnnct, MaxDiis
       17     108      17       0       0       0       0       0

 Cartesian Hessian Update
 Hessian Updated using BFGS Update


** GEOMETRY OPTIMIZATION IN DELOCALIZED INTERNAL COORDINATES **
   Searching for a Minimum

   Optimization Cycle:   4

                       Coordinates (Angstroms)
     ATOM              X           Y           Z
      1  C         1.049014    0.040990    0.080151
      2  C         2.183466    1.013787    0.076498
      3  H         3.059605    0.614223    0.604888
      4  H         1.899677    1.966381    0.544584
      5  H         2.513988    1.252112   -0.953561
      6  C         1.343757   -1.415708   -0.095729
      7  H         2.338371   -1.666989    0.294262
      8  H         0.610063   -2.056973    0.412732
      9  H         1.331311   -1.710472   -1.163764
     10  C        -0.327427    0.563900   -0.199316
     11  H        -0.478841    1.525048    0.315909
     12  H        -0.437085    0.785056   -1.284710
     13  C        -1.460724   -0.381105    0.205466
     14  H        -1.371214   -0.638429    1.269115
     15  H        -1.403153   -1.321226   -0.367887
     16  O        -2.734587    0.220027    0.049296
     17  H        -2.863334    0.462776   -0.873421
   Point Group: c1    Number of degrees of freedom:    45


   Energy is   -272.211488262

 GETINT wrote B to file, NVib is           45
 Hessian Updated using BFGS Update

 42 Hessian modes will be used to form the next step
  Hessian Eigenvalues:
     0.003482    0.005888    0.009302    0.009758    0.011381    0.013540
     0.040763    0.050490    0.055734    0.059842    0.071340    0.071879
     0.072926    0.073021    0.098334    0.118962    0.131319    0.139541
     0.156979    0.160040    0.160643    0.168579    0.219911    0.222947
     0.226306    0.231272    0.297587    0.325134    0.325822    0.326584
     0.329826    0.331741    0.334655    0.338852    0.340681    0.341974
     0.342679    0.343157    0.343535    0.352526    0.448146    0.554060

 Minimum Search - Taking Simple RFO Step
 Searching for Lamda that Minimizes Along All modes
 Value Taken    Lamda =  -0.00000685
 Step Taken.  Stepsize is  0.037926

                             Maximum     Tolerance    Cnvgd?
         Gradient           0.000156      0.000300     YES
         Displacement       0.017344      0.001200      NO
         Energy change     -0.000021      0.000001      NO


 New Cartesian Coordinates Obtained by Inverse Iteration

 Displacement from previous Coordinates is:  0.053667
 ----------------------------------------------------
       Standard Nuclear Orientation (Angstroms)
    I     Atom         X            Y            Z
 ----------------------------------------------------
    1      C       1.049230     0.041542     0.077728
    2      C       2.183790     1.014243     0.075235
    3      H       3.059107     0.614912     0.605093
    4      H       1.899494     1.966749     0.543100
    5      H       2.516445     1.253072    -0.953775
    6      C       1.342490    -1.415913    -0.094059
    7      H       2.341362    -1.664855     0.286102
    8      H       0.614845    -2.054420     0.426586
    9      H       1.317459    -1.717611    -1.159594
   10      C      -0.327541     0.564918    -0.198118
   11      H      -0.479136     1.523526     0.321739
   12      H      -0.438787     0.791408    -1.282088
   13      C      -1.459907    -0.382991     0.202530
   14      H      -1.371965    -0.642786     1.265565
   15      H      -1.399759    -1.321527    -0.373016
   16      O      -2.734473     0.216518     0.046461
   17      H      -2.859768     0.466617    -0.874976
 ----------------------------------------------------
 Molecular Point Group                 C1    NOp =  1
 Largest Abelian Subgroup              C1    NOp =  1
 Nuclear Repulsion Energy =   242.7271730425 hartrees
 There are       25 alpha and       24 beta electrons
 Applying Cartesian multipole field
    Component          Value
    ---------          -----
     (2,0,0)        1.00000E-11
     (0,2,0)        2.00000E-11
     (0,0,2)       -3.00000E-11
 Nucleus-field energy     =     0.0000000078 hartrees
 Requested basis set is non-standard
 There are 138 shells and 314 basis functions
 A cutoff of  1.0D-11 yielded   8899 shell pairs
 There are     45583 function pairs (     54684 Cartesian)
 Smallest overlap matrix eigenvalue = 1.52E-05
 Guess MOs from SCF MO coefficient file
Reading MOs from coefficient file
Reading MOs from coefficient file
 An unrestricted hybrid HF-DFT SCF calculation will be
 performed using Pulay DIIS extrapolation
 Exchange:     0.5679 Hartree-Fock + 1.0000 M08SO
 SCF converges when DIIS error is below 1.0E-08
Geometry optimization detected.  Setting ReadMinima to 0
Setting SaveMinima to 0
 ---------------------------------------
  Cycle       Energy         DIIS Error
 ---------------------------------------
    1    -272.2117204303      7.07E-05
    2    -272.2114905670      1.03E-05
    3    -272.2114934166      3.08E-06
    4    -272.2114935851      2.10E-06
    5    -272.2114936504      4.92E-07
    6    -272.2114936547      1.88E-07
    7    -272.2114936555      5.71E-08
    8    -272.2114936557      2.21E-08
    9    -272.2114936560      5.39E-09 Convergence criterion met
 ---------------------------------------
 <S^2> = 0.7564
 SCF time:  CPU 889.61 s  wall 895.38 s
 SCF   energy in the final basis set = -272.2114936560
 Total energy in the final basis set = -272.2114936560
 Analysis of SCF Wavefunction
 
 --------------------------------------------------------------
                    Orbital Energies (a.u.)
 --------------------------------------------------------------
 
 Alpha MOs
 -- Occupied --
-19.563 -10.542 -10.513 -10.498 -10.493 -10.491  -1.136  -0.917
 -0.827  -0.790  -0.726  -0.624  -0.592  -0.549  -0.536  -0.509
 -0.493  -0.478  -0.464  -0.443  -0.427  -0.413  -0.400  -0.356
 -0.239
 -- Virtual --
 -0.026  -0.015  -0.009  -0.002   0.010   0.015   0.021   0.026
  0.029   0.047   0.055   0.064   0.066   0.074   0.086   0.095
  0.105   0.108   0.114   0.122   0.128   0.134   0.138   0.140
  0.147   0.152   0.155   0.157   0.165   0.180   0.186   0.193
  0.205   0.213   0.220   0.227   0.236   0.242   0.258   0.267
  0.277   0.299   0.301   0.314   0.315   0.320   0.330   0.339
  0.343   0.366   0.397   0.419   0.446   0.456   0.465   0.492
  0.501   0.511   0.527   0.539   0.543   0.555   0.561   0.569
  0.570   0.581   0.585   0.590   0.607   0.628   0.634   0.638
  0.655   0.662   0.670   0.685   0.690   0.702   0.713   0.717
  0.749   0.769   0.771   0.799   0.841   0.856   0.858   0.894
  0.911   0.917   0.929   0.969   0.982   1.001   1.016   1.050
  1.061   1.089   1.109   1.115   1.138   1.146   1.154   1.160
  1.166   1.179   1.188   1.210   1.215   1.219   1.239   1.258
  1.272   1.277   1.282   1.298   1.315   1.332   1.346   1.367
  1.376   1.389   1.412   1.419   1.422   1.431   1.453   1.462
  1.482   1.490   1.502   1.517   1.528   1.546   1.564   1.573
  1.589   1.608   1.628   1.671   1.707   1.749   1.776   1.831
  1.925   2.058   2.104   2.277   2.296   2.379   2.392   2.451
  2.486   2.511   2.555   2.588   2.626   2.677   2.686   2.726
  2.756   2.772   2.777   2.801   2.815   2.854   2.874   2.887
  2.916   2.933   2.940   2.955   2.992   3.017   3.028   3.067
  3.077   3.127   3.137   3.145   3.158   3.163   3.177   3.209
  3.229   3.237   3.284   3.291   3.307   3.321   3.342   3.355
  3.380   3.401   3.420   3.446   3.453   3.495   3.507   3.535
  3.561   3.580   3.587   3.600   3.631   3.651   3.671   3.692
  3.704   3.725   3.756   3.776   3.793   3.820   3.835   3.853
  3.855   3.878   3.886   3.935   3.945   3.956   3.994   4.015
  4.031   4.047   4.082   4.105   4.116   4.118   4.164   4.170
  4.176   4.183   4.205   4.230   4.249   4.280   4.294   4.317
  4.320   4.367   4.397   4.404   4.434   4.439   4.462   4.474
  4.481   4.521   4.545   4.579   4.597   4.701   4.717   4.840
  4.911   4.998   5.126   5.176   5.191   5.230   5.356   5.415
  5.438   5.462   5.465   5.524   5.563   5.584   5.608   5.623
  5.648   5.650   5.780   5.888   6.489   6.955   7.127   7.171
  7.208   7.468   7.592  23.917  24.161  24.200  24.245  24.301
 49.802
 
 Beta MOs
 -- Occupied --
-19.563 -10.542 -10.499 -10.496 -10.494 -10.492  -1.136  -0.908
 -0.825  -0.788  -0.724  -0.610  -0.591  -0.539  -0.526  -0.498
 -0.483  -0.474  -0.454  -0.440  -0.427  -0.416  -0.399  -0.356
 -- Virtual --
 -0.039  -0.020  -0.015  -0.011  -0.003   0.007   0.010   0.014
  0.020   0.024   0.043   0.052   0.058   0.062   0.069   0.081
  0.089   0.101   0.105   0.111   0.118   0.126   0.129   0.133
  0.136   0.143   0.147   0.151   0.153   0.164   0.176   0.182
  0.194   0.205   0.214   0.219   0.227   0.237   0.240   0.260
  0.271   0.283   0.298   0.299   0.317   0.322   0.329   0.335
  0.343   0.351   0.380   0.401   0.419   0.445   0.456   0.466
  0.492   0.504   0.513   0.534   0.542   0.551   0.564   0.567
  0.571   0.580   0.582   0.587   0.599   0.618   0.634   0.646
  0.647   0.661   0.669   0.683   0.692   0.694   0.706   0.715
  0.727   0.757   0.772   0.785   0.804   0.844   0.856   0.861
  0.899   0.913   0.927   0.934   0.977   0.986   1.005   1.020
  1.054   1.067   1.092   1.111   1.117   1.141   1.148   1.156
  1.164   1.169   1.183   1.193   1.217   1.221   1.227   1.250
  1.264   1.283   1.292   1.296   1.308   1.328   1.352   1.364
  1.382   1.386   1.393   1.417   1.427   1.428   1.438   1.454
  1.466   1.483   1.492   1.506   1.526   1.539   1.549   1.571
  1.578   1.596   1.617   1.649   1.688   1.725   1.760   1.801
  1.853   1.927   2.060   2.107   2.280   2.297   2.390   2.399
  2.459   2.498   2.520   2.566   2.611   2.665   2.680   2.716
  2.750   2.789   2.829   2.845   2.857   2.886   2.900   2.914
  2.921   2.931   2.944   2.961   3.008   3.025   3.048   3.067
  3.087   3.112   3.131   3.142   3.148   3.180   3.199   3.209
  3.215   3.239   3.249   3.296   3.298   3.318   3.333   3.354
  3.375   3.387   3.427   3.446   3.485   3.501   3.518   3.532
  3.555   3.582   3.588   3.607   3.627   3.654   3.669   3.697
  3.715   3.733   3.735   3.769   3.799   3.811   3.835   3.851
  3.861   3.881   3.893   3.904   3.943   3.955   3.965   4.008
  4.051   4.056   4.071   4.100   4.116   4.124   4.154   4.170
  4.178   4.181   4.209   4.237   4.258   4.266   4.287   4.313
  4.325   4.370   4.392   4.414   4.432   4.450   4.460   4.490
  4.497   4.528   4.540   4.578   4.596   4.685   4.744   4.787
  4.968   5.027   5.087   5.149   5.181   5.196   5.249   5.361
  5.434   5.457   5.524   5.552   5.570   5.579   5.598   5.621
  5.637   5.647   5.658   5.786   5.888   6.489   6.956   7.127
  7.171   7.208   7.468   7.591  23.929  24.164  24.206  24.250
 24.328  49.802
 --------------------------------------------------------------
 
          Ground-State Mulliken Net Atomic Charges

     Atom                 Charge (a.u.)    Spin (a.u.)
  --------------------------------------------------------
      1 C                     0.542662       0.936087
      2 C                    -0.713275      -0.061446
      3 H                     0.177600       0.011154
      4 H                     0.182199       0.010983
      5 H                     0.183720       0.070790
      6 C                    -0.861052      -0.064557
      7 H                     0.182294       0.004750
      8 H                     0.214717       0.019159
      9 H                     0.210754       0.070936
     10 C                    -0.372935      -0.100031
     11 H                     0.223900       0.017597
     12 H                     0.183394       0.078835
     13 C                    -0.579480       0.002263
     14 H                     0.252688       0.002572
     15 H                     0.240007       0.001701
     16 O                    -0.349722       0.000303
     17 H                     0.282528      -0.001096
  --------------------------------------------------------
  Sum of atomic charges =     0.000000
  Sum of spin   charges =     1.000000

 -----------------------------------------------------------------
                    Cartesian Multipole Moments
 -----------------------------------------------------------------
    Charge (ESU x 10^10)
                 0.0000
    Dipole Moment (Debye)
         X       1.4121      Y      -0.2047      Z      -1.3601
       Tot       1.9713
    Quadrupole Moments (Debye-Ang)
        XX     -45.2033     XY       0.0440     YY     -39.7506
        XZ       4.1439     YZ      -0.8383     ZZ     -38.8307
    Octapole Moments (Debye-Ang^2)
       XXX       9.4106    XXY       0.2902    XYY      -4.3486
       YYY       1.5874    XXZ     -12.0316    XYZ       2.5710
       YYZ       1.0690    XZZ      -9.4742    YZZ       0.7318
       ZZZ      -1.2090
    Hexadecapole Moments (Debye-Ang^3)
      XXXX    -847.2924   XXXY     -17.0562   XXYY    -176.8684
      XYYY      -4.0642   YYYY    -260.2513   XXXZ      49.4574
      XXYZ      -9.7635   XYYZ       2.8581   YYYZ       1.9393
      XXZZ    -132.6006   XYZZ      -3.0862   YYZZ     -56.0660
      XZZZ       2.6515   YZZZ      -1.3284   ZZZZ     -80.2981
 -----------------------------------------------------------------
 Calculating analytic gradient of the SCF energy
 Gradient of Coulomb and Exchange Energy
            1           2           3           4           5           6
    1  -3.5405545  -2.7369196  -3.3558484   0.2475764  -1.7570445  -3.6574711
    2  -0.8761997  -1.6830545   0.8101417  -3.5254173  -1.2770168   2.7040032
    3  -1.4308984  -0.1024521  -1.6642846  -1.4540769   3.1077634  -0.0592249
            7           8           9          10          11          12
    1  -3.6162662   2.1782007  -0.0393269   1.7373604   0.5753014   0.4607958
    2   1.4682233   2.8085682   1.7473124   1.9407391  -4.2965090  -1.3761606
    3  -1.1708631  -1.4785131   3.3169206  -0.0723586  -1.6495535   4.0024789
           13          14          15          16          17
    1   1.4848110  -0.0769607   0.0088391  10.4273971   1.6601099
    2  -0.6396819   1.4639053   3.7885213  -1.6492534  -1.4081212
    3  -0.0751758  -4.1196931   1.7374517  -2.9602681   4.0727474
 Gradient of SCF Energy
            1           2           3           4           5           6
    1   0.0000140  -0.0000708  -0.0000072  -0.0000012   0.0000459  -0.0001139
    2   0.0000354  -0.0000939  -0.0000141  -0.0000003   0.0000405   0.0000880
    3  -0.0000946   0.0000313  -0.0000210  -0.0000239   0.0000088   0.0001111
            7           8           9          10          11          12
[...]
 H          0.003 -0.014 -0.027    0.031 -0.028 -0.078   -0.012 -0.136  0.022
 H          0.017 -0.070 -0.027   -0.018 -0.060 -0.069   -0.123  0.187 -0.048
 H          0.018  0.038 -0.006   -0.015  0.105 -0.004   -0.168  0.076  0.017
 C         -0.041 -0.081  0.052   -0.039 -0.027  0.048   -0.088  0.017  0.045
 H         -0.574 -0.168  0.056   -0.306 -0.015 -0.038    0.630  0.176 -0.072
 H         -0.124 -0.197  0.040    0.513 -0.019 -0.011    0.312 -0.077 -0.019
 C          0.324 -0.025  0.004   -0.070  0.085 -0.010    0.023 -0.082 -0.041
 H          0.528  0.018 -0.010    0.379  0.013 -0.060    0.232  0.134 -0.001
 H          0.264  0.039 -0.060   -0.309  0.113 -0.076    0.264 -0.149  0.089
 O         -0.230  0.109 -0.027    0.022 -0.034  0.017   -0.033  0.040  0.008
 H          0.084 -0.006 -0.114    0.487 -0.209 -0.097    0.097 -0.040 -0.036
 TransDip   0.000  0.000  0.000    0.000  0.000  0.000    0.000  0.000  0.000

 Mode:                22                     23                     24
 Frequency:      1280.42                1304.90                1329.52
 Force Cnst:      1.2117                 2.6250                 1.6323
 Red. Mass:       1.2544                 2.6165                 1.5673
 IR Active:          YES                    YES                    YES
 IR Intens:        0.000                  0.000                  0.000
 Raman Active:       YES                    YES                    YES
               X      Y      Z        X      Y      Z        X      Y      Z
 C         -0.065  0.031 -0.031   -0.166  0.290  0.004    0.136  0.086  0.015
 C          0.022 -0.015  0.010    0.060 -0.086  0.000   -0.022 -0.015  0.005
 H          0.074  0.085 -0.005    0.048  0.137  0.154   -0.098 -0.167  0.002
 H         -0.020  0.009 -0.054   -0.282 -0.104 -0.123   -0.171 -0.065  0.010
 H         -0.027  0.057  0.006   -0.260  0.217 -0.030   -0.111 -0.111 -0.047
 C          0.022 -0.001  0.008    0.049 -0.069 -0.011   -0.052 -0.002 -0.006
 H         -0.002 -0.126 -0.024   -0.026 -0.390 -0.028   -0.031 -0.051 -0.062
 H         -0.023 -0.016 -0.061    0.073 -0.195 -0.102    0.150 -0.166  0.065
 H         -0.048 -0.032  0.017   -0.039 -0.259  0.053    0.206 -0.081 -0.005
 C         -0.019 -0.034 -0.056    0.079 -0.085  0.045   -0.103 -0.046 -0.012
 H         -0.216 -0.147  0.095    0.424  0.012 -0.027    0.305  0.019 -0.019
 H          0.623  0.205 -0.056   -0.090 -0.034  0.059    0.154  0.103 -0.003
 C          0.029  0.008  0.095    0.001  0.010 -0.025   -0.069 -0.016 -0.035
 H         -0.385 -0.242  0.062    0.225  0.057 -0.032    0.025  0.151 -0.006
 H          0.306  0.137 -0.086   -0.244 -0.028  0.023    0.721  0.013 -0.019
 O          0.008  0.005 -0.016   -0.007 -0.008 -0.006   -0.006  0.023  0.032
 H         -0.276  0.114  0.059    0.010 -0.003 -0.007    0.239 -0.103 -0.042
 TransDip   0.000  0.000  0.000    0.000  0.000  0.000    0.000  0.000  0.000

 Mode:                25                     26                     27
 Frequency:      1361.25                1390.24                1403.73
 Force Cnst:      1.4474                 1.6024                 1.5003
 Red. Mass:       1.3258                 1.4072                 1.2923
 IR Active:          YES                    YES                    YES
 IR Intens:        0.000                  0.000                  0.000
 Raman Active:       YES                    YES                    YES
               X      Y      Z        X      Y      Z        X      Y      Z
 C          0.076  0.005  0.004    0.027  0.073  0.006   -0.044  0.005 -0.016
 C         -0.015  0.003  0.003   -0.088 -0.089  0.014    0.084  0.057 -0.007
 H         -0.034 -0.076 -0.027    0.198  0.283 -0.151   -0.181 -0.238  0.184
 H         -0.049 -0.019  0.021    0.304  0.146 -0.208   -0.286 -0.123  0.131
 H         -0.008 -0.078 -0.015    0.270  0.312  0.190   -0.325 -0.209 -0.178
 C         -0.025  0.015  0.003    0.004 -0.112 -0.027    0.028 -0.094 -0.017
 H         -0.006 -0.005 -0.050    0.040  0.282  0.150    0.050  0.300  0.191
 H          0.059 -0.080  0.004   -0.074  0.262  0.268   -0.145  0.292  0.180
 H          0.090 -0.061  0.012    0.003  0.390 -0.143   -0.144  0.403 -0.126
 C         -0.085  0.012  0.003   -0.010 -0.021  0.001    0.034 -0.013  0.008
 H          0.245  0.067 -0.005    0.079  0.003 -0.017   -0.079  0.021 -0.069
 H          0.163  0.009 -0.007    0.024  0.041  0.011    0.014  0.076  0.019
 C         -0.006 -0.023  0.080   -0.020 -0.004  0.007   -0.039 -0.012  0.018
 H          0.596 -0.171  0.008    0.117  0.011  0.001    0.184  0.003  0.008
 H         -0.279  0.047 -0.044    0.102  0.022 -0.023    0.168  0.032 -0.035
 O          0.028 -0.001 -0.069    0.002  0.003 -0.005    0.004  0.005 -0.009
 H         -0.559  0.232  0.087   -0.041  0.016  0.005   -0.078  0.033  0.011
 TransDip   0.000  0.000  0.000    0.000  0.000  0.000    0.000  0.000  0.000

 Mode:                28                     29                     30
 Frequency:      1408.41                1446.98                1453.38
 Force Cnst:      1.7581                 1.3285                 1.3211
 Red. Mass:       1.5043                 1.0769                 1.0615
 IR Active:          YES                    YES                    YES
 IR Intens:        0.000                  0.000                  0.000
 Raman Active:       YES                    YES                    YES
               X      Y      Z        X      Y      Z        X      Y      Z
 C         -0.049 -0.031 -0.001    0.004 -0.001 -0.002    0.013  0.009 -0.003
 C         -0.014 -0.005 -0.004   -0.018  0.010  0.001   -0.020 -0.024 -0.046
 H          0.059  0.101 -0.035    0.116  0.075 -0.157   -0.081  0.399  0.404
 H          0.124  0.044 -0.022   -0.053 -0.073  0.131    0.394 -0.099  0.362
 H          0.114  0.082  0.055    0.187 -0.180  0.022   -0.198 -0.096 -0.098
 C          0.014  0.048  0.007    0.012  0.018 -0.019   -0.008 -0.012  0.026
 H         -0.034 -0.120  0.009   -0.108 -0.050  0.280    0.131  0.101 -0.313
 H          0.020 -0.118 -0.155    0.150 -0.163 -0.025   -0.207  0.118 -0.100
 H         -0.107 -0.175  0.071   -0.235  0.015  0.009    0.174 -0.113  0.029
 C          0.128  0.007 -0.004    0.000 -0.061  0.029   -0.002 -0.023  0.009
 H         -0.358 -0.076  0.023   -0.066  0.258 -0.515   -0.020  0.084 -0.178
 H         -0.214 -0.033  0.014   -0.062  0.522  0.145   -0.015  0.185  0.049
 C         -0.142 -0.029  0.033    0.015  0.012 -0.005    0.002 -0.002  0.003
 H          0.524  0.091  0.014   -0.010 -0.109 -0.032    0.009  0.008  0.005
 H          0.539  0.104 -0.121   -0.016 -0.058  0.098    0.020  0.007 -0.010
 O          0.012  0.010 -0.014   -0.003  0.001  0.000   -0.001  0.001 -0.001
 H         -0.123  0.055  0.018   -0.004  0.008  0.002   -0.010  0.005  0.002
 TransDip   0.000  0.000  0.000    0.000  0.000  0.000    0.000  0.000  0.000

 Mode:                31                     32                     33
 Frequency:      1462.64                1466.32                1473.21
 Force Cnst:      1.3623                 1.3597                 1.3772
 Red. Mass:       1.0808                 1.0733                 1.0770
 IR Active:          YES                    YES                    YES
 IR Intens:        0.000                  0.000                  0.000
 Raman Active:       YES                    YES                    YES
               X      Y      Z        X      Y      Z        X      Y      Z
 C         -0.026 -0.042  0.012    0.002 -0.037 -0.019   -0.060  0.013 -0.008
 C          0.032  0.002  0.026    0.012 -0.017 -0.016   -0.008  0.028 -0.004
 H         -0.069 -0.278 -0.054   -0.162  0.076  0.331    0.202  0.150 -0.235
 H         -0.103  0.168 -0.377    0.261  0.073 -0.029   -0.148 -0.176  0.301
 H         -0.070  0.305  0.052   -0.280  0.189 -0.053    0.282 -0.369  0.001
 C         -0.025  0.009  0.018   -0.023  0.038 -0.035   -0.025 -0.004 -0.003
 H          0.090 -0.098 -0.381   -0.212 -0.362  0.261   -0.021 -0.292 -0.201
 H         -0.095  0.204  0.120    0.412 -0.103  0.374    0.122  0.161  0.349
 H          0.401 -0.030 -0.009    0.110  0.231 -0.081    0.428  0.156 -0.076
 C          0.019 -0.027  0.015    0.005  0.010  0.001    0.028  0.003 -0.001
 H         -0.095  0.152 -0.308   -0.066 -0.005  0.006   -0.022 -0.046  0.070
 H         -0.077  0.307  0.087    0.003 -0.018 -0.006   -0.007 -0.073 -0.015
 C          0.003 -0.002  0.003   -0.003  0.013 -0.001   -0.006 -0.001  0.002
 H          0.023 -0.029 -0.002    0.016 -0.103 -0.029    0.020  0.014  0.005
 H          0.006 -0.012  0.019   -0.011 -0.040  0.080   -0.001  0.015 -0.018
 O         -0.001  0.001 -0.002    0.001 -0.001 -0.002    0.000 -0.001 -0.001
 H         -0.019  0.013  0.004   -0.006  0.005  0.002   -0.003  0.002  0.001
 TransDip   0.000  0.000  0.000    0.000  0.000  0.000    0.000  0.000  0.000

 Mode:                34                     35                     36
 Frequency:      1498.96                2854.18                2907.12
 Force Cnst:      1.4414                 5.1432                 5.2589
 Red. Mass:       1.0888                 1.0716                 1.0561
 IR Active:          YES                    YES                    YES
 IR Intens:        0.000                  0.000                  0.000
 Raman Active:       YES                    YES                    YES
               X      Y      Z        X      Y      Z        X      Y      Z
 C          0.002 -0.008 -0.002   -0.002  0.001 -0.002    0.001  0.002  0.000
 C          0.001  0.000 -0.001   -0.001 -0.001  0.002    0.027  0.021 -0.052
 H         -0.014 -0.001  0.022    0.009 -0.006  0.008   -0.142  0.076 -0.109
 H          0.019  0.009 -0.007   -0.005  0.013  0.007    0.054 -0.162 -0.103
 H         -0.019  0.016 -0.003    0.008  0.006 -0.038   -0.256 -0.182  0.835
 C         -0.002  0.009 -0.007    0.000  0.001  0.001    0.001  0.011  0.020
 H         -0.044 -0.054  0.075    0.010 -0.002  0.004    0.073 -0.015  0.030
 H          0.083 -0.040  0.052   -0.007 -0.005  0.006   -0.052 -0.042  0.050
 H         -0.015  0.032 -0.011   -0.003 -0.003 -0.025   -0.025 -0.082 -0.317
 C         -0.006 -0.008  0.005   -0.005  0.023 -0.072    0.000  0.000 -0.003
 H          0.011  0.051 -0.090    0.010 -0.078 -0.077   -0.001  0.006  0.002
 H          0.020  0.096  0.023    0.090 -0.210  0.961    0.005 -0.007  0.030
 C          0.021 -0.073  0.033   -0.001  0.001  0.003    0.000  0.000  0.000
 H         -0.111  0.632  0.206   -0.005  0.012 -0.040   -0.001  0.000  0.000
 H         -0.172  0.338 -0.591    0.004 -0.027 -0.016    0.000  0.001  0.001
 O          0.005 -0.007  0.000    0.000  0.000  0.000    0.000  0.000  0.000
 H         -0.019  0.000  0.006    0.008 -0.001  0.004    0.000  0.000  0.000
 TransDip   0.000  0.000  0.000    0.000  0.000  0.000    0.000  0.000  0.000

 Mode:                37                     38                     39
 Frequency:      2914.53                2961.89                2983.51
 Force Cnst:      5.2886                 5.5278                 5.6719
 Red. Mass:       1.0567                 1.0695                 1.0815
 IR Active:          YES                    YES                    YES
 IR Intens:        0.000                  0.000                  0.000
 Raman Active:       YES                    YES                    YES
               X      Y      Z        X      Y      Z        X      Y      Z
 C          0.001 -0.001 -0.001    0.000  0.000  0.000   -0.001 -0.001  0.000
 C          0.010  0.008 -0.020    0.000  0.001 -0.001   -0.001  0.001  0.001
 H         -0.044  0.023 -0.035    0.002 -0.003  0.001    0.008 -0.002  0.007
 H          0.016 -0.052 -0.034    0.000 -0.002 -0.001    0.006 -0.009 -0.005
 H         -0.098 -0.070  0.312   -0.003 -0.002  0.009    0.003  0.003 -0.013
 C         -0.001 -0.030 -0.054    0.003  0.002 -0.005    0.002  0.001  0.000
 H         -0.179  0.040 -0.077    0.004  0.002 -0.001   -0.011  0.004 -0.004
 H          0.126  0.106 -0.122   -0.040 -0.033  0.029   -0.008 -0.006  0.006
 H          0.066  0.233  0.857    0.002  0.010  0.034   -0.001 -0.002 -0.007
 C         -0.001  0.000 -0.003   -0.003  0.023  0.013    0.009 -0.064 -0.044
 H         -0.001  0.011  0.006    0.042 -0.276 -0.159   -0.112  0.800  0.459
 H          0.009 -0.011  0.039   -0.003  0.009 -0.007    0.010 -0.035  0.074
 C          0.000  0.001  0.001    0.002 -0.067 -0.020    0.002 -0.023  0.004
 H         -0.001  0.002 -0.003   -0.020  0.047 -0.259   -0.018  0.047 -0.211
 H          0.002 -0.018 -0.013   -0.038  0.756  0.494   -0.009  0.229  0.152
 O          0.000  0.000  0.000    0.002 -0.001  0.000    0.000  0.000  0.000
 H          0.000 -0.001  0.000    0.002  0.000  0.004    0.001 -0.002  0.003
 TransDip   0.000  0.000  0.000    0.000  0.000  0.000    0.000  0.000  0.000

 Mode:                40                     41                     42
 Frequency:      2995.26                2995.87                3035.72
 Force Cnst:      5.6822                 5.6847                 5.9630
 Red. Mass:       1.0750                 1.0750                 1.0982
 IR Active:          YES                    YES                    YES
 IR Intens:        0.000                  0.000                  0.000
 Raman Active:       YES                    YES                    YES
               X      Y      Z        X      Y      Z        X      Y      Z
 C          0.001  0.000 -0.001    0.001  0.001  0.000    0.000  0.000  0.000
 C         -0.016 -0.019 -0.049   -0.015 -0.018 -0.049   -0.001  0.001  0.000
 H          0.364 -0.179  0.210    0.361 -0.179  0.208    0.010 -0.005  0.006
 H         -0.131  0.445  0.212   -0.130  0.439  0.209    0.002 -0.007 -0.004
 H         -0.058 -0.043  0.164   -0.061 -0.046  0.174   -0.001  0.000  0.000
 C          0.008  0.030 -0.046   -0.008 -0.029  0.047    0.011 -0.001  0.002
 H          0.285 -0.067  0.083   -0.286  0.065 -0.083   -0.108  0.028 -0.036
 H         -0.400 -0.342  0.301    0.400  0.340 -0.299   -0.018 -0.020  0.016
 H          0.019  0.056  0.165   -0.020 -0.062 -0.186    0.000 -0.003 -0.009
 C          0.001 -0.002  0.000    0.000  0.001  0.000    0.001 -0.008 -0.010
 H         -0.004  0.016  0.009    0.000 -0.009 -0.005   -0.012  0.101  0.057
 H          0.000  0.001 -0.009    0.000  0.001 -0.002    0.002 -0.016  0.058
 C          0.000  0.003  0.000    0.000 -0.003  0.001   -0.004 -0.002 -0.089
 H          0.001 -0.005  0.027   -0.002  0.006 -0.030    0.060 -0.228  0.904
 H          0.002 -0.031 -0.020   -0.002  0.029  0.019   -0.008  0.253  0.148
 O          0.000  0.000  0.000    0.000  0.000  0.000   -0.001  0.000  0.001
 H          0.000  0.000 -0.001    0.000  0.000  0.000    0.006  0.001 -0.014
 TransDip   0.000  0.000  0.000    0.000  0.000  0.000    0.000  0.000  0.000

 Mode:                43                     44                     45
 Frequency:      3041.43                3046.05                3881.85
 Force Cnst:      6.0061                 6.0100                 9.4674
 Red. Mass:       1.1020                 1.0994                 1.0664
 IR Active:          YES                    YES                    YES
 IR Intens:        0.000                  0.000                  0.000
 Raman Active:       YES                    YES                    YES
               X      Y      Z        X      Y      Z        X      Y      Z
 C         -0.001  0.002  0.000   -0.002 -0.001  0.000    0.000  0.000  0.000
 C         -0.059  0.068 -0.006   -0.015  0.017 -0.001    0.000  0.000  0.000
 H          0.564 -0.269  0.349    0.146 -0.066  0.089    0.000  0.000  0.000
 H          0.156 -0.558 -0.287    0.040 -0.138 -0.070    0.000  0.000  0.000
 H         -0.019  0.017  0.008   -0.005  0.005  0.001    0.000  0.000  0.000
 C          0.022  0.001  0.002   -0.087 -0.005 -0.009    0.000  0.000  0.000
 H         -0.194  0.046 -0.066    0.779 -0.198  0.264    0.000  0.000  0.000
 H         -0.070 -0.065  0.060    0.280  0.252 -0.233    0.000  0.000  0.000
 H          0.005 -0.004 -0.020   -0.017  0.019  0.078    0.000  0.000  0.000
 C          0.000  0.001  0.001    0.001 -0.002 -0.001    0.000  0.000  0.001
 H          0.005 -0.018 -0.010   -0.001  0.016  0.009   -0.001  0.000  0.000
 H          0.000  0.001 -0.003    0.000 -0.002  0.006   -0.002  0.000 -0.003
 C          0.000  0.001  0.004    0.000 -0.002 -0.010    0.001  0.000 -0.002
 H         -0.002  0.009 -0.033    0.006 -0.024  0.094    0.001 -0.002  0.013
 H          0.000 -0.024 -0.014   -0.001  0.048  0.029    0.003 -0.001  0.000
 O          0.000  0.000  0.000    0.000  0.000  0.000   -0.009  0.019 -0.059
 H          0.000  0.000  0.001    0.001  0.000 -0.002    0.127 -0.295  0.945
 TransDip   0.000  0.000  0.000    0.000  0.000  0.000    0.000  0.000  0.000

 STANDARD THERMODYNAMIC QUANTITIES AT   298.15 K  AND     1.00 ATM

   This Molecule has  0 Imaginary Frequencies
   Zero point vibrational energy:       93.215 kcal/mol

   Atom    1 Element C  Has Mass   12.00000
   Atom    2 Element C  Has Mass   12.00000
   Atom    3 Element H  Has Mass    1.00783
   Atom    4 Element H  Has Mass    1.00783
   Atom    5 Element H  Has Mass    1.00783
   Atom    6 Element C  Has Mass   12.00000
   Atom    7 Element H  Has Mass    1.00783
   Atom    8 Element H  Has Mass    1.00783
   Atom    9 Element H  Has Mass    1.00783
   Atom   10 Element C  Has Mass   12.00000
   Atom   11 Element H  Has Mass    1.00783
   Atom   12 Element H  Has Mass    1.00783
   Atom   13 Element C  Has Mass   12.00000
   Atom   14 Element H  Has Mass    1.00783
   Atom   15 Element H  Has Mass    1.00783
   Atom   16 Element O  Has Mass   15.99491
   Atom   17 Element H  Has Mass    1.00783
   Molecular Mass:    87.081040 amu
   Principal axes and moments of inertia in atomic units:
                             1           2           3
    Eigenvalues --      259.58677  1022.09301  1220.11116
          X               0.99996     0.00646     0.00558
          Y              -0.00643     0.99996    -0.00589
          Z              -0.00562     0.00585     0.99997
   Rotational Symmetry Number is   1
   The Molecule is an Asymmetric Top
   Translational Enthalpy:        0.889 kcal/mol
   Rotational Enthalpy:           0.889 kcal/mol
   Vibrational Enthalpy:         96.966 kcal/mol
   gas constant (RT):             0.592 kcal/mol
   Translational Entropy:        39.306  cal/mol.K
   Rotational Entropy:           27.273  cal/mol.K
   Vibrational Entropy:          24.314  cal/mol.K

   Total Enthalpy:               99.336 kcal/mol
   Total Entropy:                90.892  cal/mol.K
Archival summary:
1\1\node66\FREQ\ProcedureUnspecified\BasisUnspecified\1511(2)\edames\ThuApr1011:32:152014ThuApr1011:32:152014\0\\#,FREQ,ProcedureUnspecified,BasisUnspecified,\\0,2\C\C,1,1.49458\H,2,1.09835,1,111.592\H,2,1.09865,1,111.529,3,121.402,0\H,2,1.10743,1,111.671,3,-119.355,0\C,1,1.4968,2,119.152,3,38.9886,0\H,6,1.09717,1,111.102,2,-26.271,0\H,6,1.09968,1,112.366,2,-147.193,0\H,6,1.10746,1,111.793,2,93.3204,0\C,1,1.4986,2,117.982,3,-160.792,0\H,10,1.10108,1,110.166,2,42.2029,0\H,10,1.11307,1,109.907,2,-73.7496,0\C,10,1.52973,1,114.493,2,164.625,0\H,13,1.09786,10,109.96,1,-56.8382,0\H,13,1.10265,10,110.472,1,61.5856,0\O,13,1.41742,10,112.016,1,-174.641,0\H,16,0.962981,13,109.381,10,-58.5779,0\\\@

 Total job time:  79527.94s(wall), 79028.67s(cpu) 
 Thu Apr 10 11:32:15 2014

        *************************************************************
        *                                                           *
        *  Thank you very much for using Q-Chem.  Have a nice day.  *
        *                                                           *
        *************************************************************


0 sent ACK to 0 
now end server 0 ... 
cleanup process ... done
remove work dirs /tmp/qchem32036.0 -- /tmp/qchem32036.3
rm -rf /tmp/qchem32036.0
rm -rf /tmp/qchem32036.1
rm -rf /tmp/qchem32036.2
rm -rf /tmp/qchem32036.3
rm -rf /tmp/qchem32036
