 Entering Gaussian System, Link 0=/Local/ce_dana/g09/g09
 Initial command:
 /Local/ce_dana/g09/l1.exe "/storage/ce_dana/alongd/scratch/g09/Gau-26713.inp" -scrdir="/storage/ce_dana/alongd/scratch/g09/"
 Entering Link 1 = /Local/ce_dana/g09/l1.exe PID=     26714.
  
 Copyright (c) 1988,1990,1992,1993,1995,1998,2003,2009,2013,
            Gaussian, Inc.  All Rights Reserved.
  
 This is part of the Gaussian(R) 09 program.  It is based on
 the Gaussian(R) 03 system (copyright 2003, Gaussian, Inc.),
 the Gaussian(R) 98 system (copyright 1998, Gaussian, Inc.),
 the Gaussian(R) 94 system (copyright 1995, Gaussian, Inc.),
 the Gaussian 92(TM) system (copyright 1992, Gaussian, Inc.),
 the Gaussian 90(TM) system (copyright 1990, Gaussian, Inc.),
 the Gaussian 88(TM) system (copyright 1988, Gaussian, Inc.),
 the Gaussian 86(TM) system (copyright 1986, Carnegie Mellon
 University), and the Gaussian 82(TM) system (copyright 1983,
 Carnegie Mellon University). Gaussian is a federally registered
 trademark of Gaussian, Inc.
  
 This software contains proprietary and confidential information,
 including trade secrets, belonging to Gaussian, Inc.
  
 This software is provided under written license and may be
 used, copied, transmitted, or stored only in accord with that
 written license.
  
 The following legend is applicable only to US Government
 contracts under FAR:
  
                    RESTRICTED RIGHTS LEGEND
  
 Use, reproduction and disclosure by the US Government is
 subject to restrictions as set forth in subparagraphs (a)
 and (c) of the Commercial Computer Software - Restricted
 Rights clause in FAR 52.227-19.
  
 Gaussian, Inc.
 340 Quinnipiac St., Bldg. 40, Wallingford CT 06492
  
  
 ---------------------------------------------------------------
 Warning -- This program may not be used in any manner that
 competes with the business of Gaussian, Inc. or will provide
 assistance to any competitor of Gaussian, Inc.  The licensee
 of this program is prohibited from giving any competitor of
 Gaussian, Inc. access to this program.  By using this program,
 the user acknowledges that Gaussian, Inc. is engaged in the
 business of creating and licensing software in the field of
 computational chemistry and represents and warrants to the
 licensee that it is not a competitor of Gaussian, Inc. and that
 it will not use this program in any manner prohibited above.
 ---------------------------------------------------------------
  

 Cite this work as:
 Gaussian 09, Revision D.01,
 M. J. Frisch, G. W. Trucks, H. B. Schlegel, G. E. Scuseria, 
 M. A. Robb, J. R. Cheeseman, G. Scalmani, V. Barone, B. Mennucci, 
 G. A. Petersson, H. Nakatsuji, M. Caricato, X. Li, H. P. Hratchian, 
 A. F. Izmaylov, J. Bloino, G. Zheng, J. L. Sonnenberg, M. Hada, 
 M. Ehara, K. Toyota, R. Fukuda, J. Hasegawa, M. Ishida, T. Nakajima, 
 Y. Honda, O. Kitao, H. Nakai, T. Vreven, J. A. Montgomery, Jr., 
 J. E. Peralta, F. Ogliaro, M. Bearpark, J. J. Heyd, E. Brothers, 
 K. N. Kudin, V. N. Staroverov, T. Keith, R. Kobayashi, J. Normand, 
 K. Raghavachari, A. Rendell, J. C. Burant, S. S. Iyengar, J. Tomasi, 
 M. Cossi, N. Rega, J. M. Millam, M. Klene, J. E. Knox, J. B. Cross, 
 V. Bakken, C. Adamo, J. Jaramillo, R. Gomperts, R. E. Stratmann, 
 O. Yazyev, A. J. Austin, R. Cammi, C. Pomelli, J. W. Ochterski, 
 R. L. Martin, K. Morokuma, V. G. Zakrzewski, G. A. Voth, 
 P. Salvador, J. J. Dannenberg, S. Dapprich, A. D. Daniels, 
 O. Farkas, J. B. Foresman, J. V. Ortiz, J. Cioslowski, 
 and D. J. Fox, Gaussian, Inc., Wallingford CT, 2013.
 
 ******************************************
 Gaussian 09:  ES64L-G09RevD.01 24-Apr-2013
                12-Nov-2022 
 ******************************************
 %chk=check.chk
 %mem=7168mb
 %NProcShared=10
 Will use up to   10 processors via shared memory.
 ----------------------------------------------------------------------
 #P guess=read ub2plypd3/def2tzvp freq IOp(7/33=1) scf=(tight, direct) 
 integral=(grid=ultrafine, Acc2E=12) IOp(2/9=2000) scf=xqc
 ----------------------------------------------------------------------
 1/10=4,30=1,38=1/1,3;
 2/9=2000,12=2,17=6,18=5,40=1/2;
 3/5=44,7=101,11=2,16=1,25=1,30=1,71=2,74=-60,75=-5,116=2,140=1/1,2,3;
 4/5=1/1;
 5/5=2,8=3,13=1,32=2,38=6,87=12,98=1/2,8;
 8/6=3,8=1,10=1,19=11,30=-1,87=12/1;
 9/15=3,16=-3,87=12/6;
 11/6=1,8=1,15=11,17=12,24=-1,27=1,28=-2,29=300,32=6,42=3,87=12/1,2,10;
 10/6=2,21=1,87=12/2;
 8/6=4,8=1,10=1,19=11,30=-1,87=12/11,4;
 10/5=1,20=4,87=12/2;
 11/12=2,14=11,16=1,17=2,28=-2,42=3,87=12/2,10,12;
 6/7=2,8=2,9=2,10=2/1;
 7/8=1,10=1,12=2,25=1,33=1,44=2,87=12/1,2,3,16;
 1/10=4,30=1/3;
 99//99;
 Leave Link    1 at Sat Nov 12 22:06:11 2022, MaxMem=   939524096 cpu:         0.1
 (Enter /Local/ce_dana/g09/l101.exe)
 ------------
 2-Iminoethyl
 ------------
 Symbolic Z-matrix:
 Charge =  0 Multiplicity = 2
 C                    -1.04286  -0.17328  -0.01423 
 C                     0.29857   0.21824   0.0006 
 N                     0.62355   1.48299  -0.01987 
 H                    -1.32272  -1.21565   0.00244 
 H                    -1.81478   0.58206  -0.04293 
 H                     1.05175  -0.57231   0.02971 
 H                     1.63747   1.58682  -0.00471 
 
 NAtoms=      7 NQM=        7 NQMF=       0 NMMI=      0 NMMIF=      0
                NMic=       0 NMicF=      0.
                    Isotopes and Nuclear Properties:
 (Nuclear quadrupole moments (NQMom) in fm**2, nuclear magnetic moments (NMagM)
  in nuclear magnetons)

  Atom         1           2           3           4           5           6           7
 IAtWgt=          12          12          14           1           1           1           1
 AtmWgt=  12.0000000  12.0000000  14.0030740   1.0078250   1.0078250   1.0078250   1.0078250
 NucSpn=           0           0           2           1           1           1           1
 AtZEff=   0.0000000   0.0000000   0.0000000   0.0000000   0.0000000   0.0000000   0.0000000
 NQMom=    0.0000000   0.0000000   2.0440000   0.0000000   0.0000000   0.0000000   0.0000000
 NMagM=    0.0000000   0.0000000   0.4037610   2.7928460   2.7928460   2.7928460   2.7928460
 AtZNuc=   6.0000000   6.0000000   7.0000000   1.0000000   1.0000000   1.0000000   1.0000000
 Leave Link  101 at Sat Nov 12 22:06:11 2022, MaxMem=   939524096 cpu:         0.1
 (Enter /Local/ce_dana/g09/l103.exe)

 GradGradGradGradGradGradGradGradGradGradGradGradGradGradGradGradGradGrad
 Berny optimization.
 Initialization pass.
 Trust Radius=3.00D-01 FncErr=1.00D-07 GrdErr=1.00D-07
 Number of steps in this run=      2 maximum allowed number of steps=      2.
 GradGradGradGradGradGradGradGradGradGradGradGradGradGradGradGradGradGrad

 Leave Link  103 at Sat Nov 12 22:06:11 2022, MaxMem=   939524096 cpu:         0.0
 (Enter /Local/ce_dana/g09/l202.exe)
                          Input orientation:                          
 ---------------------------------------------------------------------
 Center     Atomic      Atomic             Coordinates (Angstroms)
 Number     Number       Type             X           Y           Z
 ---------------------------------------------------------------------
      1          6           0       -1.042859   -0.173280   -0.014226
      2          6           0        0.298574    0.218244    0.000604
      3          7           0        0.623553    1.482993   -0.019865
      4          1           0       -1.322723   -1.215646    0.002439
      5          1           0       -1.814779    0.582055   -0.042928
      6          1           0        1.051753   -0.572305    0.029710
      7          1           0        1.637472    1.586820   -0.004705
 ---------------------------------------------------------------------
                    Distance matrix (angstroms):
                    1          2          3          4          5
     1  C    0.000000
     2  C    1.397481   0.000000
     3  N    2.349511   1.305994   0.000000
     4  H    1.079411   2.164405   3.327332   0.000000
     5  H    1.080377   2.144881   2.599555   1.864378   0.000000
     6  H    2.132733   1.092288   2.100015   2.460237   3.091089
     7  H    3.206590   1.914596   1.019334   4.076349   3.595699
                    6          7
     6  H    0.000000
     7  H    2.237425   0.000000
 Stoichiometry    C2H4N(2)
 Framework group  C1[X(C2H4N)]
 Deg. of freedom    15
 Full point group                 C1      NOp   1
 Largest Abelian subgroup         C1      NOp   1
 Largest concise Abelian subgroup C1      NOp   1
                         Standard orientation:                         
 ---------------------------------------------------------------------
 Center     Atomic      Atomic             Coordinates (Angstroms)
 Number     Number       Type             X           Y           Z
 ---------------------------------------------------------------------
      1          6           0       -1.198722   -0.166466    0.000000
      2          6           0        0.075048    0.408394   -0.000000
      3          7           0        1.144256   -0.341548    0.000000
      4          1           0       -2.089068    0.443791   -0.000000
      5          1           0       -1.294135   -1.242622   -0.000000
      6          1           0        0.133326    1.499126    0.000001
      7          1           0        1.982132    0.238973   -0.000000
 ---------------------------------------------------------------------
 Rotational constants (GHZ):     63.3468910     11.0544450      9.4119912
 Leave Link  202 at Sat Nov 12 22:06:11 2022, MaxMem=   939524096 cpu:         0.0
 (Enter /Local/ce_dana/g09/l301.exe)
 Standard basis: def2TZVP (5D, 7F)
 Ernie: Thresh=  0.10000D-02 Tol=  0.10000D-05 Strict=F.
 There are   132 symmetry adapted cartesian basis functions of A   symmetry.
 There are   117 symmetry adapted basis functions of A   symmetry.
   117 basis functions,   185 primitive gaussians,   132 cartesian basis functions
    12 alpha electrons       11 beta electrons
       nuclear repulsion energy        65.1009256875 Hartrees.
 IExCor=  419 DFT=T Ex+Corr=B2PLYPD3 ExCW=0 ScaHFX=  0.530000
 ScaDFX=  0.470000  0.470000  0.730000  0.730000 ScalE2=  0.270000  0.270000
 IRadAn=      5 IRanWt=     -1 IRanGd=            0 ICorTp=0 IEmpDi=141
 NAtoms=    7 NActive=    7 NUniq=    7 SFac= 1.00D+00 NAtFMM=   60 NAOKFM=F Big=F
 Integral buffers will be    131072 words long.
 Raffenetti 2 integral format.
 Two-electron integral symmetry is turned on.
 R6Disp:  Grimme-D3(BJ) Dispersion energy=       -0.0026159958 Hartrees.
 Nuclear repulsion after empirical dispersion term =       65.0983096918 Hartrees.
 Leave Link  301 at Sat Nov 12 22:06:11 2022, MaxMem=   939524096 cpu:         0.1
 (Enter /Local/ce_dana/g09/l302.exe)
 NPDir=0 NMtPBC=     1 NCelOv=     1 NCel=       1 NClECP=     1 NCelD=      1
         NCelK=      1 NCelE2=     1 NClLst=     1 CellRange=     0.0.
 One-electron integrals computed using PRISM.
   1 Symmetry operations used in ECPInt.
 ECPInt:  NShTT=    1225 NPrTT=    3648 LenC2=    1224 LenP2D=    3252.
 LDataN:  DoStor=T MaxTD1= 6 Len=  172
 NBasis=   117 RedAO= T EigKep=  2.93D-04  NBF=   117
 NBsUse=   117 1.00D-06 EigRej= -1.00D+00 NBFU=   117
 Precomputing XC quadrature grid using
 IXCGrd= 4 IRadAn=           5 IRanWt=          -1 IRanGd=           0 AccXCQ= 0.00D+00.
 Generated NRdTot=       0 NPtTot=           0 NUsed=           0 NTot=          32
 NSgBfM=   132   132   132   132   132 MxSgAt=     7 MxSgA2=     7.
 Leave Link  302 at Sat Nov 12 22:06:11 2022, MaxMem=   939524096 cpu:         1.6
 (Enter /Local/ce_dana/g09/l303.exe)
 DipDrv:  MaxL=1.
 Leave Link  303 at Sat Nov 12 22:06:11 2022, MaxMem=   939524096 cpu:         0.1
 (Enter /Local/ce_dana/g09/l401.exe)
 Initial guess from the checkpoint file:  "check.chk"
 B after Tr=     0.000000   -0.000000   -0.000000
         Rot=    1.000000    0.000000    0.000000    0.000000 Ang=   0.00 deg.
 Guess basis will be translated and rotated to current coordinates.
 JPrj=2 DoOrth=T DoCkMO=T.
 Initial guess <Sx>= 0.0000 <Sy>= 0.0000 <Sz>= 0.5000 <S**2>= 0.8277 S= 0.5381
 Leave Link  401 at Sat Nov 12 22:06:12 2022, MaxMem=   939524096 cpu:         0.4
 (Enter /Local/ce_dana/g09/l502.exe)
 UHF open shell SCF:
 Using DIIS extrapolation, IDIIS=  1040.
 Integral symmetry usage will be decided dynamically.
 Keep R1 and R2 ints in memory in canonical form, NReq=49725115.
 IVT=       60506 IEndB=       60506 NGot=   939524096 MDV=   891805279
 LenX=   891805279 LenY=   891787414
 Requested convergence on RMS density matrix=1.00D-08 within  64 cycles.
 Requested convergence on MAX density matrix=1.00D-06.
 Requested convergence on             energy=1.00D-06.
 No special actions if energy rises.
 FoFCou: FMM=F IPFlag=           0 FMFlag=           0 FMFlg1=           0
         NFxFlg=           0 DoJE=F BraDBF=F KetDBF=F FulRan=T
         wScrn=  0.000000 ICntrl=     600 IOpCl=  0 I1Cent=           0 NGrid=           0
         NMat0=    1 NMatS0=   6903 NMatT0=    0 NMatD0=    1 NMtDS0=    0 NMtDT0=    0
 Symmetry not used in FoFCou.

 Cycle   1  Pass 1  IDiag  1:
 E= -133.071739824461    
 DIIS: error= 5.33D-08 at cycle   1 NSaved=   1.
 NSaved= 1 IEnMin= 1 EnMin= -133.071739824461     IErMin= 1 ErrMin= 5.33D-08
 ErrMax= 5.33D-08  0.00D+00 EMaxC= 1.00D-01 BMatC= 1.37D-12 BMatP= 1.37D-12
 IDIUse=1 WtCom= 1.00D+00 WtEn= 0.00D+00
 Coeff-Com:  0.100D+01
 Coeff:      0.100D+01
 Gap=     0.376 Goal=   None    Shift=    0.000
 Gap=     0.303 Goal=   None    Shift=    0.000
 RMSDP=7.58D-09 MaxDP=1.34D-07              OVMax= 2.79D-07

 SCF Done:  E(UB2PLYPD3) =  -133.071739824     A.U. after    1 cycles
            NFock=  1  Conv=0.76D-08     -V/T= 2.0031
 <Sx>= 0.0000 <Sy>= 0.0000 <Sz>= 0.5000 <S**2>= 0.8277 S= 0.5381
 <L.S>=  0.00000000000    
 KE= 1.326559583336D+02 PE=-4.401592072647D+02 EE= 1.093331994149D+02
 Annihilation of the first spin contaminant:
 S**2 before annihilation     0.8277,   after     0.7509
 Leave Link  502 at Sat Nov 12 22:06:13 2022, MaxMem=   939524096 cpu:         9.5
 (Enter /Local/ce_dana/g09/l508.exe)
 QCSCF skips out because SCF is already converged.
 Leave Link  508 at Sat Nov 12 22:06:13 2022, MaxMem=   939524096 cpu:         0.0
 (Enter /Local/ce_dana/g09/l801.exe)
 DoSCS=T DFT=T ScalE2(SS,OS)=  0.270000  0.270000
 ExpMin= 9.52D-02 ExpMax= 1.97D+04 ExpMxC= 6.73D+02 IAcc=3 IRadAn=         5 AccDes= 0.00D+00
 HarFok:  IExCor=  205 AccDes= 0.00D+00 IRadAn=         5 IDoV=-2 UseB2=F ITyADJ=14
 ICtDFT= 12500011 ScaDFX=  1.000000  1.000000  1.000000  1.000000
 Largest valence mixing into a core orbital is  9.27D-05
 Largest core mixing into a valence orbital is  1.82D-05
 Largest valence mixing into a core orbital is  1.02D-04
 Largest core mixing into a valence orbital is  2.12D-05
 Range of M.O.s used for correlation:     4   117
 NBasis=   117 NAE=    12 NBE=    11 NFC=     3 NFV=     0
 NROrb=    114 NOA=     9 NOB=     8 NVA=   105 NVB=   106

 **** Warning!!: The largest alpha MO coefficient is  0.12870618D+02


 **** Warning!!: The largest beta MO coefficient is  0.12767002D+02

 Leave Link  801 at Sat Nov 12 22:06:13 2022, MaxMem=   939524096 cpu:         0.8
 (Enter /Local/ce_dana/g09/l906.exe)
 DoSCS=T DFT=T ScalE2(SS,OS)=  0.270000  0.270000
 Frozen-core derivative calculation, NFC=   3 NFV=   0.
 FulOut=F Deriv=T AODrv=T NAtomX=     7
   MMem=           0  MDisk=           9 MDiskD=           9
  W3Min=      370656 MinDsk=      774746 NBas6D=         132
 NBas2D=        9042    NTT=        8778    LW2=     7400000
    MDV=   939286968 MDiskM=       35503 NBas2p=        9038
 Disk-based method using ON**2 memory for  9 occupieds at a time.
 Permanent disk used for amplitudes=     2135595 words.
 Estimated scratch disk usage=    38045514 words.
 IMap=   1   2   3   4   5   6   7   8   9  10  11  12
 Actual    scratch disk usage=    37279050 words.
 JobTyp=2 Pass  1:  I=   4 to  12 NPSUse= 10 ParTrn=T ParDer=T DoDerP=T.
 (rs|ai) integrals will be sorted in core.
 IMap=   1   2   3   4   5   6   7   8   9  10  11
 Actual    scratch disk usage=    37279050 words.
 JobTyp=3 Pass  1:  I=   4 to  11 NPSUse= 10 ParTrn=T ParDer=T DoDerP=T.
 (rs|ai) integrals will be sorted in core.
 Spin components of T(2) and E(2):
     alpha-alpha T2 =       0.3236041796D-01 E2=     -0.2150065773D-01
     alpha-beta  T2 =       0.1763504233D+00 E2=     -0.1211639375D+00
     beta-beta   T2 =       0.2748477878D-01 E2=     -0.1710772261D-01
 The integrals were generated   2 times.
 E2(B2PLYPD3) =    -0.1597723178D+00 E(B2PLYPD3) =    -0.13323151214229D+03
 Leave Link  906 at Sat Nov 12 22:06:59 2022, MaxMem=   939524096 cpu:       430.8
 (Enter /Local/ce_dana/g09/l1101.exe)
 Using compressed Sx but separate Hx and Fx, NAtomX=     7.
 Will process      8 centers per pass.
   1 Symmetry operations used in ECPInt.
 ECPInt:  NShTT=    1225 NPrTT=    3648 LenC2=    1224 LenP2D=    3252.
 LDataN:  DoStor=T MaxTD1= 7 Len=  274
 R6Disp: Adding Grimme-D3(BJ) dispersion energy 1st derivatives to the gradient.
 Leave Link 1101 at Sat Nov 12 22:07:00 2022, MaxMem=   939524096 cpu:         3.9
 (Enter /Local/ce_dana/g09/l1102.exe)
 Leave Link 1102 at Sat Nov 12 22:07:00 2022, MaxMem=   939524096 cpu:         0.0
 (Enter /Local/ce_dana/g09/l1110.exe)
 Forming Gx(P) for the SCF density, NAtomX=     7.
 Integral derivatives from FoFJK, PRISM(SPDF).
 Do as many integral derivatives as possible in FoFJK.
 G2DrvN: MDV=     939523936.
 G2DrvN: will do     8 centers at a time, making    1 passes.
 Calling FoFCou, ICntrl=  3107 FMM=F I1Cent=   0 AccDes= 1.00D-12.
 FoFJK:  IHMeth= 1 ICntrl=    3107 DoSepK=F KAlg= 0 I1Cent=   0 FoldK=F
 IRaf=         0 NMat=   1 IRICut=       1 DoRegI=T DoRafI=F ISym2E= 0.
 FoFCou: FMM=F IPFlag=           0 FMFlag=      100000 FMFlg1=           0
         NFxFlg=           0 DoJE=F BraDBF=F KetDBF=F FulRan=T
         wScrn=  0.000000 ICntrl=    3107 IOpCl=  1 I1Cent=           0 NGrid=           0
         NMat0=    1 NMatS0=      1 NMatT0=    0 NMatD0=    1 NMtDS0=    0 NMtDT0=    0
 Symmetry not used in FoFCou.
 End of G2Drv F.D. properties file   721 does not exist.
 End of G2Drv F.D. properties file   722 does not exist.
 End of G2Drv F.D. properties file   788 does not exist.
 Leave Link 1110 at Sat Nov 12 22:07:09 2022, MaxMem=   939524096 cpu:        94.4
 (Enter /Local/ce_dana/g09/l1002.exe)
 Minotr:  UHF open shell wavefunction.
          IDoAtm=1111111
          Frozen-core window.
          Direct CPHF calculation.
          Differentiating once with respect to electric field.
                with respect to dipole field.
          Differentiating once with respect to nuclear coordinates.
          Requested convergence is 1.0D-08 RMS, and 1.0D-07 maximum.
          Secondary convergence is 1.0D-12 RMS, and 1.0D-12 maximum.
          NewPWx=T KeepS1=T KeepF1=T KeepIn=T MapXYZ=F SortEE=F KeepMc=T.
          MDV=     939523794 using IRadAn=       1.
 Generate precomputed XC quadrature information.
 Keep R1 and R2 ints in memory in canonical form, NReq=49688798.
 FoFCou: FMM=F IPFlag=           0 FMFlag=           0 FMFlg1=           0
         NFxFlg=           0 DoJE=F BraDBF=F KetDBF=F FulRan=T
         wScrn=  0.000000 ICntrl=     600 IOpCl=  0 I1Cent=           0 NGrid=           0
         NMat0=    1 NMatS0=   6903 NMatT0=    0 NMatD0=    1 NMtDS0=    0 NMtDT0=    0
 Symmetry not used in FoFCou.
          Solving linear equations simultaneously, MaxMat=       0.
          There are    24 degrees of freedom in the 1st order CPHF.  IDoFFX=6 NUNeed=    24.
     21 vectors produced by pass  0 Test12= 1.01D-14 4.17D-09 XBig12= 4.67D+01 4.08D+00.
 AX will form    21 AO Fock derivatives at one time.
     21 vectors produced by pass  1 Test12= 1.01D-14 4.17D-09 XBig12= 3.10D+00 3.81D-01.
     21 vectors produced by pass  2 Test12= 1.01D-14 4.17D-09 XBig12= 1.61D-01 1.06D-01.
     21 vectors produced by pass  3 Test12= 1.01D-14 4.17D-09 XBig12= 1.76D-03 1.08D-02.
     21 vectors produced by pass  4 Test12= 1.01D-14 4.17D-09 XBig12= 1.43D-05 8.55D-04.
     21 vectors produced by pass  5 Test12= 1.01D-14 4.17D-09 XBig12= 1.68D-07 5.94D-05.
     19 vectors produced by pass  6 Test12= 1.01D-14 4.17D-09 XBig12= 1.28D-09 7.44D-06.
     10 vectors produced by pass  7 Test12= 1.01D-14 4.17D-09 XBig12= 8.43D-12 5.92D-07.
      3 vectors produced by pass  8 Test12= 1.01D-14 4.17D-09 XBig12= 6.76D-14 4.95D-08.
 InvSVY:  IOpt=1 It=  1 EMax= 4.44D-15
 Solved reduced A of dimension   158 with    24 vectors.
 FullF1:  Do perturbations    1 to    24.
 Saving first derivative matrices.
 End of Minotr F.D. properties file   721 does not exist.
 End of Minotr F.D. properties file   722 does not exist.
 End of Minotr F.D. properties file   788 does not exist.
 Leave Link 1002 at Sat Nov 12 22:07:28 2022, MaxMem=   939524096 cpu:       186.0
 (Enter /Local/ce_dana/g09/l811.exe)
 MDV=   939524096.
 DoSCS=T DFT=T ScalE2(SS,OS)=  0.270000  0.270000
 Form MO integral derivatives with frozen-active canonical formalism.
 MOERI=1 MOERIx=1 NAtoms=     7 NAtomX=     7.
 Discarding MO integrals.
 MO basis two electron integral derivatives will not be stored on disk.
 IAlg= 3 DoFC=T DoPWx=T Debug=F.
 Frozen-core window:  NFC=   3 NFV=   0.
 Reordered first order wavefunction length =      8681875
 In DefCFB: NBatch=  1 ICI= 12 ICA=106 LFMax= 53
            Large arrays: LIAPS=   149868576 LIARS=    84623616 words.
 In StABat: MaxSiz= 36 MinSiz= 24 NAtomB=  4
 DoIAMN: NPSUse= 10.
 In DefCFB: NBatch=  1 ICI= 12 ICA=106 LFMax= 53
            Large arrays: LIAPS=   149868576 LIARS=    84623616 words.
 In StABat: MaxSiz= 36 MinSiz= 24 NAtomB=  4
 Leave Link  811 at Sat Nov 12 22:09:12 2022, MaxMem=   939524096 cpu:       445.2
 (Enter /Local/ce_dana/g09/l804.exe)
 Frozen-core window:  NFC=   3 NFV=   0.
 Open-shell transformation, MDV=   939524096 ITran=4 ISComp=1.
 Semi-Direct transformation.
 ModeAB=           2 MOrb=            12 LenV=     938795415
 LASXX=      8912931 LTotXX=     8912931 LenRXX=     8912931
 LTotAB=     9236214 MaxLAS=    12324312 LenRXY=    12324312
 NonZer=    17825862 LenScr=    27507200 LnRSAI=           0
 LnScr1=           0 LExtra=           0 Total=     48744443
 MaxDsk=          -1 SrtSym=           F ITran=            4
 DoSDTr:  NPSUse= 10
 JobTyp=1 Pass  1:  I=   1 to  12.
 (rs|ai) integrals will be sorted in core.
 Complete sort for first half transformation.
 First half transformation complete.
 Begin second half transformation for I=  10.
 Begin second half transformation for I=  10.
 Complete sort for second half transformation.
 Second half transformation complete.
 ModeAB=           2 MOrb=            11 LenV=     938795415
 LASXX=      8220091 LTotXX=     8220091 LenRXX=    11297286
 LTotAB=     6856080 MaxLAS=    11297286 LenRXY=     6856080
 NonZer=    16440182 LenScr=    25428480 LnRSAI=           0
 LnScr1=           0 LExtra=           0 Total=     43581846
 MaxDsk=          -1 SrtSym=           F ITran=            4
 DoSDTr:  NPSUse= 10
 JobTyp=2 Pass  1:  I=   1 to  11.
 (rs|ai) integrals will be sorted in core.
 Complete sort for first half transformation.
 First half transformation complete.
 Begin second half transformation for I=  10.
 Begin second half transformation for I=  10.
 Complete sort for second half transformation.
 Second half transformation complete.
 SymMOI:  orbitals are not symmetric.
 DoSCS=T DFT=T ScalE2(SS,OS)=  0.270000  0.270000
 Spin components of T(2) and E(2):
     alpha-alpha T2 =       0.3236041796D-01 E2=     -0.2150065773D-01
     alpha-beta  T2 =       0.1763504233D+00 E2=     -0.1211639375D+00
     beta-beta   T2 =       0.2748477878D-01 E2=     -0.1710772261D-01
 E2(B2PLYPD3) =    -0.1597723178D+00 E(B2PLYPD3) =    -0.13323151214229D+03
 Leave Link  804 at Sat Nov 12 22:09:21 2022, MaxMem=   939524096 cpu:        77.4
 (Enter /Local/ce_dana/g09/l1002.exe)
 Minotr:  UHF open shell wavefunction.
          Computing MP2/KS-MP2 derivatives.
          Using Z-Vector for PSCF gradient.
          Skipping F1 and S1 gradient terms here.
          IDoAtm=1111111
          Frozen-core window.
          Direct CPHF calculation.
          Differentiating once with respect to electric field.
                with respect to dipole field.
          Differentiating once with respect to nuclear coordinates.
          Requested convergence is 1.0D-10 RMS, and 1.0D-09 maximum.
          NewPWx=T KeepS1=F KeepF1=F KeepIn=T MapXYZ=F SortEE=F KeepMc=T.
          MDV=     939523794 using IRadAn=       5.
 Using stored XC quadrature information.
 Keep R1 and R2 ints in memory in canonical form, NReq=49686725.
 FoFCou: FMM=F IPFlag=           0 FMFlag=           0 FMFlg1=           0
         NFxFlg=           0 DoJE=F BraDBF=F KetDBF=F FulRan=T
         wScrn=  0.000000 ICntrl=     600 IOpCl=  0 I1Cent=           0 NGrid=           0
         NMat0=    1 NMatS0=   6903 NMatT0=    0 NMatD0=    1 NMtDS0=    0 NMtDT0=    0
 Symmetry not used in FoFCou.
          Solving linear equations separately, MaxMat=       0.
          There are     1 degrees of freedom in the 1st order CPHF.  IDoFFX=0 NUNeed=     1.
 LinEq1:  Iter=  0 NonCon=     1 RMS=1.59D-03 Max=4.64D-02 NDo=     1
 AX will form     1 AO Fock derivatives at one time.
 LinEq1:  Iter=  1 NonCon=     1 RMS=4.84D-04 Max=8.99D-03 NDo=     1
 LinEq1:  Iter=  2 NonCon=     1 RMS=2.79D-04 Max=5.04D-03 NDo=     1
 LinEq1:  Iter=  3 NonCon=     1 RMS=7.31D-05 Max=1.94D-03 NDo=     1
 LinEq1:  Iter=  4 NonCon=     1 RMS=3.47D-05 Max=6.59D-04 NDo=     1
 LinEq1:  Iter=  5 NonCon=     1 RMS=1.71D-05 Max=2.82D-04 NDo=     1
 LinEq1:  Iter=  6 NonCon=     1 RMS=7.35D-06 Max=1.47D-04 NDo=     1
 LinEq1:  Iter=  7 NonCon=     1 RMS=3.56D-06 Max=4.45D-05 NDo=     1
 LinEq1:  Iter=  8 NonCon=     1 RMS=1.62D-06 Max=2.50D-05 NDo=     1
 LinEq1:  Iter=  9 NonCon=     1 RMS=3.58D-07 Max=4.76D-06 NDo=     1
 LinEq1:  Iter= 10 NonCon=     1 RMS=7.68D-08 Max=7.56D-07 NDo=     1
 LinEq1:  Iter= 11 NonCon=     1 RMS=1.48D-08 Max=2.02D-07 NDo=     1
 LinEq1:  Iter= 12 NonCon=     1 RMS=2.90D-09 Max=2.56D-08 NDo=     1
 LinEq1:  Iter= 13 NonCon=     1 RMS=7.25D-10 Max=8.90D-09 NDo=     1
 LinEq1:  Iter= 14 NonCon=     1 RMS=1.74D-10 Max=1.94D-09 NDo=     1
 LinEq1:  Iter= 15 NonCon=     0 RMS=3.58D-11 Max=3.05D-10 NDo=     1
 Linear equations converged to 1.000D-10 1.000D-09 after    15 iterations.
 End of Minotr F.D. properties file   721 does not exist.
 End of Minotr F.D. properties file   722 does not exist.
 End of Minotr F.D. properties file   788 does not exist.
 Leave Link 1002 at Sat Nov 12 22:09:37 2022, MaxMem=   939524096 cpu:       137.6
 (Enter /Local/ce_dana/g09/l1102.exe)
 Use density number 2.
 Symmetrizing basis deriv contribution to polar:
 IMax=3 JMax=2 DiffMx= 0.00D+00
 Leave Link 1102 at Sat Nov 12 22:09:37 2022, MaxMem=   939524096 cpu:         0.1
 (Enter /Local/ce_dana/g09/l1110.exe)
 Forming Gx(P) for generalized density number  2 NAtomX=     7.
 Integral derivatives from FoFJK, PRISM(SPDF).
 Do as many integral derivatives as possible in FoFJK.
 G2DrvN: MDV=     939523936.
 G2DrvN: will do     8 centers at a time, making    1 passes.
 Calling FoFCou, ICntrl=  3107 FMM=F I1Cent=   0 AccDes= 1.00D-12.
 FoFJK:  IHMeth= 1 ICntrl=    3107 DoSepK=F KAlg= 0 I1Cent=   0 FoldK=F
 IRaf=         0 NMat=   1 IRICut=       1 DoRegI=T DoRafI=F ISym2E= 0.
 FoFCou: FMM=F IPFlag=           0 FMFlag=      100000 FMFlg1=           0
         NFxFlg=           0 DoJE=F BraDBF=F KetDBF=F FulRan=T
         wScrn=  0.000000 ICntrl=    3107 IOpCl=  1 I1Cent=           0 NGrid=           0
         NMat0=    1 NMatS0=      1 NMatT0=    0 NMatD0=    1 NMtDS0=    0 NMtDT0=    0
 Symmetry not used in FoFCou.
 End of G2Drv F.D. properties file   721 does not exist.
 End of G2Drv F.D. properties file   722 does not exist.
 End of G2Drv F.D. properties file   788 does not exist.
 Leave Link 1110 at Sat Nov 12 22:09:50 2022, MaxMem=   939524096 cpu:       127.9
 (Enter /Local/ce_dana/g09/l1112.exe)
 MP22nd: MDV=     939524096
 DoSCS=T DFT=T ScalE2(SS,OS)=  0.270000  0.270000
 Using stored XC quadrature information.
 This link is doing NAtomX=     7 total of    24 degrees of freedom.
 Using ON3 I/O method in MakUI.
 Frozen-core window:  NFC=   3 NFV=   0.
 Using Ix for Sx.
 Use MO integrals over full window.
 Using OV2 memory method for fx*t*t/D, MaxI=    11 DoOO2=F NP=  10.
 R2 and R3 integrals will be kept in memory, NReq=    79002062.
 FoFCou: FMM=F IPFlag=           0 FMFlag=           0 FMFlg1=           0
         NFxFlg=           0 DoJE=F BraDBF=F KetDBF=F FulRan=T
         wScrn=  0.000000 ICntrl=     600 IOpCl=  0 I1Cent=           0 NGrid=           0
         NMat0=    1 NMatS0=      1 NMatT0=    0 NMatD0=    1 NMtDS0=    0 NMtDT0=    0
 Symmetry not used in FoFCou.
 DD1Dir will call FoFMem   1 times, MxPair=       386
 NAB=   132 NAA=    66 NBB=    55.
 Symmetry is being used.
 FoFJK:  IHMeth= 1 ICntrl=       0 DoSepK=F KAlg= 0 I1Cent=   0 FoldK=F
 IRaf=         0 NMat=  24 IRICut=      60 DoRegI=T DoRafI=T ISym2E= 2.
 R6Disp: Adding Grimme-D3(BJ) dispersion energy 1st derivatives to the gradient.
 Discarding MO integrals.
 Leave Link 1112 at Sat Nov 12 22:11:16 2022, MaxMem=   939524096 cpu:       419.5
 (Enter /Local/ce_dana/g09/l601.exe)
 Copying SCF densities to generalized density rwf, IOpCl= 1 IROHF=0.

 **********************************************************************

            Population analysis using the SCF density.

 **********************************************************************

 Orbital symmetries:
 Alpha Orbitals:
       Occupied  (A) (A) (A) (A) (A) (A) (A) (A) (A) (A) (A) (A)
       Virtual   (A) (A) (A) (A) (A) (A) (A) (A) (A) (A) (A) (A)
                 (A) (A) (A) (A) (A) (A) (A) (A) (A) (A) (A) (A)
                 (A) (A) (A) (A) (A) (A) (A) (A) (A) (A) (A) (A)
                 (A) (A) (A) (A) (A) (A) (A) (A) (A) (A) (A) (A)
                 (A) (A) (A) (A) (A) (A) (A) (A) (A) (A) (A) (A)
                 (A) (A) (A) (A) (A) (A) (A) (A) (A) (A) (A) (A)
                 (A) (A) (A) (A) (A) (A) (A) (A) (A) (A) (A) (A)
                 (A) (A) (A) (A) (A) (A) (A) (A) (A) (A) (A) (A)
                 (A) (A) (A) (A) (A) (A) (A) (A) (A)
 Beta  Orbitals:
       Occupied  (A) (A) (A) (A) (A) (A) (A) (A) (A) (A) (A)
       Virtual   (A) (A) (A) (A) (A) (A) (A) (A) (A) (A) (A) (A)
                 (A) (A) (A) (A) (A) (A) (A) (A) (A) (A) (A) (A)
                 (A) (A) (A) (A) (A) (A) (A) (A) (A) (A) (A) (A)
                 (A) (A) (A) (A) (A) (A) (A) (A) (A) (A) (A) (A)
                 (A) (A) (A) (A) (A) (A) (A) (A) (A) (A) (A) (A)
                 (A) (A) (A) (A) (A) (A) (A) (A) (A) (A) (A) (A)
                 (A) (A) (A) (A) (A) (A) (A) (A) (A) (A) (A) (A)
                 (A) (A) (A) (A) (A) (A) (A) (A) (A) (A) (A) (A)
                 (A) (A) (A) (A) (A) (A) (A) (A) (A) (A)
 The electronic state is 2-A.
 Alpha  occ. eigenvalues --  -14.84099 -10.65474 -10.63699  -1.04226  -0.85568
 Alpha  occ. eigenvalues --   -0.65744  -0.59805  -0.49977  -0.47902  -0.43610
 Alpha  occ. eigenvalues --   -0.35316  -0.29715
 Alpha virt. eigenvalues --    0.07873   0.08444   0.11990   0.13507   0.16254
 Alpha virt. eigenvalues --    0.21026   0.23004   0.25682   0.27209   0.33094
 Alpha virt. eigenvalues --    0.33351   0.35956   0.40620   0.46009   0.47144
 Alpha virt. eigenvalues --    0.49705   0.51552   0.53038   0.54763   0.57871
 Alpha virt. eigenvalues --    0.60529   0.64270   0.69477   0.73808   0.75022
 Alpha virt. eigenvalues --    0.92623   0.93338   0.96982   1.04526   1.06298
 Alpha virt. eigenvalues --    1.17117   1.23466   1.25423   1.25533   1.35248
 Alpha virt. eigenvalues --    1.50425   1.52287   1.54208   1.56171   1.59166
 Alpha virt. eigenvalues --    1.66058   1.70328   1.71486   1.78998   1.85280
 Alpha virt. eigenvalues --    1.90174   1.90625   1.96587   2.03362   2.10168
 Alpha virt. eigenvalues --    2.13623   2.20046   2.23765   2.33349   2.36816
 Alpha virt. eigenvalues --    2.42525   2.47490   2.55279   2.61112   2.67483
 Alpha virt. eigenvalues --    2.68430   2.72143   2.83623   2.88132   2.91506
 Alpha virt. eigenvalues --    2.98777   3.06832   3.11641   3.12708   3.13117
 Alpha virt. eigenvalues --    3.15948   3.20240   3.24215   3.31206   3.39518
 Alpha virt. eigenvalues --    3.41160   3.46136   3.46692   3.56585   3.62721
 Alpha virt. eigenvalues --    3.69638   3.79973   3.83653   4.11075   4.12245
 Alpha virt. eigenvalues --    4.15241   4.25068   4.46488   4.52375   4.61650
 Alpha virt. eigenvalues --    4.65100   4.76886   4.78807   4.93240   4.95765
 Alpha virt. eigenvalues --    4.97454   5.30517   5.36753   5.37254   5.57108
 Alpha virt. eigenvalues --    5.57992   5.95448  22.56951  23.13686  32.36752
  Beta  occ. eigenvalues --  -14.82661 -10.66105 -10.62389  -1.01649  -0.81829
  Beta  occ. eigenvalues --   -0.64767  -0.59317  -0.49214  -0.47168  -0.37514
  Beta  occ. eigenvalues --   -0.33730
  Beta virt. eigenvalues --   -0.03464   0.08589   0.11167   0.12464   0.13642
  Beta virt. eigenvalues --    0.16382   0.21288   0.22987   0.26865   0.27531
  Beta virt. eigenvalues --    0.33471   0.35882   0.36498   0.40929   0.47370
  Beta virt. eigenvalues --    0.49920   0.49986   0.52723   0.53684   0.55307
  Beta virt. eigenvalues --    0.58377   0.61020   0.66223   0.70105   0.74277
  Beta virt. eigenvalues --    0.76953   0.93906   0.94393   0.97357   1.05078
  Beta virt. eigenvalues --    1.08775   1.17254   1.24104   1.26311   1.26896
  Beta virt. eigenvalues --    1.35575   1.52523   1.53491   1.55699   1.56318
  Beta virt. eigenvalues --    1.61528   1.66649   1.70654   1.72780   1.79149
  Beta virt. eigenvalues --    1.85417   1.90443   1.92030   1.96958   2.05138
  Beta virt. eigenvalues --    2.10425   2.14623   2.20807   2.24887   2.33961
  Beta virt. eigenvalues --    2.37959   2.46450   2.47866   2.55406   2.62635
  Beta virt. eigenvalues --    2.67751   2.69339   2.72999   2.84495   2.88551
  Beta virt. eigenvalues --    2.92811   2.99159   3.07730   3.12094   3.12739
  Beta virt. eigenvalues --    3.14838   3.16122   3.21048   3.26615   3.32252
  Beta virt. eigenvalues --    3.40646   3.43463   3.47196   3.47580   3.56344
  Beta virt. eigenvalues --    3.63692   3.70691   3.81156   3.84613   4.11545
  Beta virt. eigenvalues --    4.14680   4.16353   4.26178   4.48842   4.53043
  Beta virt. eigenvalues --    4.62862   4.66815   4.79617   4.81246   4.96719
  Beta virt. eigenvalues --    4.97453   5.01706   5.31342   5.38272   5.38408
  Beta virt. eigenvalues --    5.57925   5.58657   5.95833  22.57917  23.13345
  Beta virt. eigenvalues --   32.37924
          Condensed to atoms (all electrons):
               1          2          3          4          5          6
     1  C    5.191603   0.392565  -0.114715   0.405612   0.380947  -0.100861
     2  C    0.392565   4.743247   0.585223  -0.038885  -0.015293   0.446482
     3  N   -0.114715   0.585223   6.575902   0.003175   0.011293  -0.058526
     4  H    0.405612  -0.038885   0.003175   0.518996  -0.021894   0.000853
     5  H    0.380947  -0.015293   0.011293  -0.021894   0.506923   0.008702
     6  H   -0.100861   0.446482  -0.058526   0.000853   0.008702   0.646833
     7  H    0.023941  -0.071280   0.332543  -0.000636  -0.001616  -0.029173
               7
     1  C    0.023941
     2  C   -0.071280
     3  N    0.332543
     4  H   -0.000636
     5  H   -0.001616
     6  H   -0.029173
     7  H    0.539581
          Atomic-Atomic Spin Densities.
               1          2          3          4          5          6
     1  C    0.876872   0.014113  -0.040853   0.001102  -0.002002  -0.003243
     2  C    0.014113  -0.357789  -0.027146  -0.000122   0.000949   0.000922
     3  N   -0.040853  -0.027146   0.678998  -0.000276   0.000414   0.002224
     4  H    0.001102  -0.000122  -0.000276  -0.045759   0.002321   0.000027
     5  H   -0.002002   0.000949   0.000414   0.002321  -0.038928  -0.000151
     6  H   -0.003243   0.000922   0.002224   0.000027  -0.000151   0.013646
     7  H    0.000320   0.002552  -0.001100   0.000067  -0.000007   0.000675
               7
     1  C    0.000320
     2  C    0.002552
     3  N   -0.001100
     4  H    0.000067
     5  H   -0.000007
     6  H    0.000675
     7  H   -0.028610
 Mulliken charges and spin densities:
               1          2
     1  C   -0.179092   0.846307
     2  C   -0.042060  -0.366521
     3  N   -0.334894   0.612261
     4  H    0.132779  -0.042641
     5  H    0.130939  -0.037404
     6  H    0.085689   0.014101
     7  H    0.206639  -0.026103
 Sum of Mulliken charges =   0.00000   1.00000
 Mulliken charges and spin densities with hydrogens summed into heavy atoms:
               1          2
     1  C    0.084626   0.766262
     2  C    0.043629  -0.352420
     3  N   -0.128255   0.586158
 APT charges:
               1
     1  C   -0.043867
     2  C    0.164733
     3  N   -0.384295
     4  H    0.048385
     5  H    0.055309
     6  H   -0.003039
     7  H    0.162775
 Sum of APT charges =  -0.00000
 APT charges with hydrogens summed into heavy atoms:
               1
     1  C    0.059827
     2  C    0.161693
     3  N   -0.221521
 Electronic spatial extent (au):  <R**2>=            162.0638
 Charge=              0.0000 electrons
 Dipole moment (field-independent basis, Debye):
    X=             -0.7412    Y=              1.8167    Z=             -0.0000  Tot=              1.9620
 Quadrupole moment (field-independent basis, Debye-Ang):
   XX=            -16.1116   YY=            -18.8502   ZZ=            -20.5013
   XY=              2.5568   XZ=              0.0000   YZ=              0.0000
 Traceless Quadrupole moment (field-independent basis, Debye-Ang):
   XX=              2.3761   YY=             -0.3625   ZZ=             -2.0136
   XY=              2.5568   XZ=              0.0000   YZ=              0.0000
 Octapole moment (field-independent basis, Debye-Ang**2):
  XXX=              4.6380  YYY=              2.0451  ZZZ=             -0.0000  XYY=             -2.0351
  XXY=              4.0425  XXZ=             -0.0000  XZZ=              1.3598  YZZ=              0.2757
  YYZ=              0.0000  XYZ=              0.0000
 Hexadecapole moment (field-independent basis, Debye-Ang**3):
 XXXX=           -129.4694 YYYY=            -46.1826 ZZZZ=            -22.7622 XXXY=              3.7972
 XXXZ=              0.0000 YYYX=              4.7230 YYYZ=              0.0000 ZZZX=              0.0000
 ZZZY=              0.0000 XXYY=            -33.5154 XXZZ=            -30.7986 YYZZ=            -12.4714
 XXYZ=             -0.0000 YYXZ=              0.0000 ZZXY=              0.3696
 N-N= 6.509830969176D+01 E-N=-4.401592071813D+02  KE= 1.326559583336D+02
  Exact polarizability:  47.452  -0.497  30.435  -0.000   0.000  20.751
 Approx polarizability:  46.862  -1.490  33.047  -0.000  -0.000  24.222
                          Isotropic Fermi Contact Couplings
        Atom                 a.u.       MegaHertz       Gauss      10(-4) cm-1
     1  C(13)              0.04805      54.01337      19.27331      18.01692
     2  C(13)             -0.04015     -45.13674     -16.10591     -15.05600
     3  N(14)              0.04734      15.29436       5.45741       5.10165
     4  H(1)              -0.01085     -48.51709     -17.31210     -16.18356
     5  H(1)              -0.01029     -45.97657     -16.40558     -15.33613
     6  H(1)               0.00136       6.09691       2.17553       2.03371
     7  H(1)              -0.00723     -32.31932     -11.53234     -10.78057
 --------------------------------------------------------
       Center         ----  Spin Dipole Couplings  ----
                      3XX-RR        3YY-RR        3ZZ-RR
 --------------------------------------------------------
     1   Atom       -0.417479     -0.416834      0.834313
     2   Atom        0.115886      0.069603     -0.185489
     3   Atom       -0.531431     -0.552242      1.083672
     4   Atom        0.019923     -0.021152      0.001229
     5   Atom       -0.047485      0.049642     -0.002157
     6   Atom        0.010025      0.000630     -0.010655
     7   Atom        0.024292     -0.017877     -0.006415
 --------------------------------------------------------
                        XY            XZ            YZ
 --------------------------------------------------------
     1   Atom       -0.005246      0.000000      0.000000
     2   Atom       -0.009225      0.000000      0.000000
     3   Atom        0.004417     -0.000000      0.000000
     4   Atom       -0.050217      0.000000      0.000000
     5   Atom        0.009836      0.000000      0.000000
     6   Atom        0.004703     -0.000000      0.000000
     7   Atom        0.050744     -0.000000      0.000000
 --------------------------------------------------------


 ---------------------------------------------------------------------------------
              Anisotropic Spin Dipole Couplings in Principal Axis System
 ---------------------------------------------------------------------------------

       Atom             a.u.   MegaHertz   Gauss  10(-4) cm-1        Axes

              Baa    -0.4224   -56.684   -20.226   -18.908  0.7285  0.6851 -0.0000
     1 C(13)  Bbb    -0.4119   -55.273   -19.723   -18.437 -0.6851  0.7285 -0.0000
              Bcc     0.8343   111.957    39.949    37.345  0.0000  0.0000  1.0000
 
              Baa    -0.1855   -24.891    -8.882    -8.303 -0.0000 -0.0000  1.0000
     2 C(13)  Bbb     0.0678     9.102     3.248     3.036  0.1885  0.9821  0.0000
              Bcc     0.1177    15.788     5.634     5.266  0.9821 -0.1885  0.0000
 
              Baa    -0.5531   -21.333    -7.612    -7.116 -0.1994  0.9799 -0.0000
     3 N(14)  Bbb    -0.5305   -20.461    -7.301    -6.825  0.9799  0.1994  0.0000
              Bcc     1.0837    41.795    14.913    13.941 -0.0000  0.0000  1.0000
 
              Baa    -0.0549   -29.275   -10.446    -9.765  0.5574  0.8302 -0.0000
     4 H(1)   Bbb     0.0012     0.655     0.234     0.219 -0.0000  0.0000  1.0000
              Bcc     0.0536    28.620    10.212     9.546  0.8302 -0.5574  0.0000
 
              Baa    -0.0485   -25.862    -9.228    -8.627  0.9950 -0.0997 -0.0000
     5 H(1)   Bbb    -0.0022    -1.151    -0.411    -0.384  0.0000 -0.0000  1.0000
              Bcc     0.0506    27.013     9.639     9.010  0.0997  0.9950  0.0000
 
              Baa    -0.0107    -5.685    -2.029    -1.896  0.0000 -0.0000  1.0000
     6 H(1)   Bbb    -0.0013    -0.704    -0.251    -0.235 -0.3830  0.9238  0.0000
              Bcc     0.0120     6.389     2.280     2.131  0.9238  0.3830 -0.0000
 
              Baa    -0.0517   -27.607    -9.851    -9.209 -0.5551  0.8318 -0.0000
     7 H(1)   Bbb    -0.0064    -3.423    -1.221    -1.142 -0.0000  0.0000  1.0000
              Bcc     0.0582    31.030    11.072    10.351  0.8318  0.5551 -0.0000
 

 ---------------------------------------------------------------------------------

 No NMR shielding tensors so no spin-rotation constants.
 Leave Link  601 at Sat Nov 12 22:11:17 2022, MaxMem=   939524096 cpu:         2.9
 (Enter /Local/ce_dana/g09/l701.exe)
 Compute integral second derivatives.
 ... and contract with generalized density number  2.
 Use density number 2.
 R6Disp: Adding Grimme-D3(BJ) dispersion energy 2nd derivatives to the Hessian.
 Entering OneElI...
 Calculate overlap and kinetic energy integrals
    NBasis = 132  MinDer = 2  MaxDer = 2
 Requested accuracy = 0.1000D-14
 PrsmSu:  NPrtUS=  10 ThrOK=T IAlg=1 NPAlg=1 LenDen=           0.
 Prism:   IPart=     0 DynPar=F LinDyn=F Incr=           1.
 PRISM was handed    93912609 working-precision words and  1224 shell-pairs
 PRISM was handed    93912609 working-precision words and  1224 shell-pairs
 PRISM was handed    93912609 working-precision words and  1224 shell-pairs
 PRISM was handed    93912609 working-precision words and  1224 shell-pairs
 PRISM was handed    93912609 working-precision words and  1224 shell-pairs
 PRISM was handed    93912609 working-precision words and  1224 shell-pairs
 PRISM was handed    93912609 working-precision words and  1224 shell-pairs
 PRISM was handed    93912609 working-precision words and  1224 shell-pairs
 PRISM was handed    93912609 working-precision words and  1224 shell-pairs
 PRISM was handed    93912609 working-precision words and  1224 shell-pairs
 IPart=  0 NShTot=         143 NBatch=          44 AvBLen=         3.3
 IPart=  4 NShTot=         120 NBatch=          31 AvBLen=         3.9
 IPart=  3 NShTot=         125 NBatch=          35 AvBLen=         3.6
 IPart=  7 NShTot=         116 NBatch=          28 AvBLen=         4.1
 IPart=  9 NShTot=         107 NBatch=          23 AvBLen=         4.7
 IPart=  8 NShTot=         111 NBatch=          27 AvBLen=         4.1
 IPart=  6 NShTot=         116 NBatch=          28 AvBLen=         4.1
 IPart=  5 NShTot=         119 NBatch=          31 AvBLen=         3.8
 IPart=  2 NShTot=         130 NBatch=          39 AvBLen=         3.3
 IPart=  1 NShTot=         137 NBatch=          41 AvBLen=         3.3
 PrSmSu:  NxtVal=             11.
 Entering OneElI...
 Calculate potential energy integrals
    NBasis = 132  MinDer = 2  MaxDer = 2
 Requested accuracy = 0.1000D-14
 PrsmSu:  NPrtUS=  10 ThrOK=T IAlg=1 NPAlg=1 LenDen=           0.
 Prism:   IPart=     0 DynPar=F LinDyn=F Incr=           8.
 PRISM was handed    93916055 working-precision words and  1216 shell-pairs
 PRISM was handed    93916055 working-precision words and  1216 shell-pairs
 PRISM was handed    93916055 working-precision words and  1216 shell-pairs
 PRISM was handed    93916055 working-precision words and  1216 shell-pairs
 PRISM was handed    93916055 working-precision words and  1216 shell-pairs
 PRISM was handed    93916055 working-precision words and  1216 shell-pairs
 PRISM was handed    93916055 working-precision words and  1216 shell-pairs
 PRISM was handed    93916055 working-precision words and  1216 shell-pairs
 PRISM was handed    93916055 working-precision words and  1216 shell-pairs
 PRISM was handed    93916055 working-precision words and  1216 shell-pairs
 IPart=  8 NShTot=         770 NBatch=         110 AvBLen=         7.0
 IPart=  7 NShTot=         798 NBatch=         114 AvBLen=         7.0
 IPart=  6 NShTot=         805 NBatch=         115 AvBLen=         7.0
 IPart=  3 NShTot=         854 NBatch=         122 AvBLen=         7.0
 IPart=  9 NShTot=         756 NBatch=         108 AvBLen=         7.0
 IPart=  1 NShTot=         945 NBatch=         135 AvBLen=         7.0
 IPart=  2 NShTot=         917 NBatch=         131 AvBLen=         7.0
 IPart=  0 NShTot=        1001 NBatch=         143 AvBLen=         7.0
 IPart=  5 NShTot=         826 NBatch=         118 AvBLen=         7.0
 IPart=  4 NShTot=         840 NBatch=         120 AvBLen=         7.0
 PrSmSu:  NxtVal=             81.
   1 Symmetry operations used in ECPInt.
 ECPInt:  NShTT=    1225 NPrTT=    3648 LenC2=    1224 LenP2D=    3252.
 LDataN:  DoStor=F MaxTD1= 8 Len=  415
 LDataN:  DoStor=T MaxTD1= 8 Len=  415
 ECPSu:  NPrtUS=  10 ThrOK=T
 Polarizability after L701:
                1             2             3 
      1  0.474520D+02
      2 -0.497388D+00  0.304348D+02
      3  0.000000D+00  0.000000D+00  0.207513D+02
 Dipole Derivatives after L701:
                 1             2             3             4             5 
      1   0.965687D-01 -0.743893D-01  0.000000D+00  0.140862D+00  0.203479D-01
      2  -0.160137D+00  0.304242D-01  0.000000D+00  0.135696D+00  0.344740D+00
      3   0.000000D+00  0.000000D+00 -0.258594D+00  0.000000D+00  0.000000D+00
                 6             7             8             9            10 
      1   0.000000D+00 -0.422380D+00  0.178905D+00  0.000000D+00 -0.892171D-02
      2   0.000000D+00  0.492806D-01 -0.292742D+00  0.000000D+00  0.264529D-01
      3   0.859636D-02  0.000000D+00  0.000000D+00 -0.437764D+00  0.000000D+00
                11            12            13            14            15 
      1   0.700730D-01  0.000000D+00  0.419199D-01 -0.305863D-01  0.000000D+00
      2   0.107152D-01  0.000000D+00  0.276161D-01 -0.193465D-01  0.000000D+00
      3   0.000000D+00  0.143362D+00  0.000000D+00  0.000000D+00  0.143355D+00
                16            17            18            19            20 
      1   0.215619D-01  0.248619D-01  0.000000D+00  0.130389D+00 -0.189212D+00
      2   0.604543D-02 -0.188491D+00  0.000000D+00 -0.849540D-01  0.114700D+00
      3   0.000000D+00  0.000000D+00  0.157811D+00  0.000000D+00  0.000000D+00
                21 
      1   0.000000D+00
      2   0.000000D+00
      3   0.243234D+00
 Hessian after L701:
                1             2             3             4             5 
      1  0.354885D+01
      2 -0.166423D+01  0.747677D+01
      3  0.252836D-05  0.120634D-05  0.114004D+02
      4 -0.286225D+00  0.225258D+01 -0.333548D-05  0.477859D+01
      5  0.230780D+01 -0.442601D+01 -0.130658D-05  0.216614D+01  0.101613D+02
      6 -0.351818D-05 -0.138120D-05 -0.622527D+01  0.000000D+00  0.000000D+00
      7  0.320708D+00  0.188938D+00  0.000000D+00 -0.154446D+01 -0.442790D+01
      8  0.248933D+00 -0.186683D+00  0.000000D+00 -0.452786D+01 -0.530055D+01
      9  0.000000D+00  0.000000D+00 -0.606837D-01  0.302614D-05 -0.199595D-05
     10 -0.124872D+01 -0.922421D+00  0.116357D-05 -0.648978D-02  0.134255D-01
     11 -0.864829D+00 -0.204992D+01  0.000000D+00 -0.365514D-01  0.368831D-01
     12  0.000000D+00  0.000000D+00 -0.258437D+01  0.000000D+00  0.000000D+00
     13 -0.267801D+01  0.247758D+00  0.000000D+00 -0.597627D-02 -0.118353D-01
     14  0.102012D+00 -0.669813D+00  0.110168D-05  0.500161D-01  0.493303D-01
     15  0.000000D+00  0.000000D+00 -0.262451D+01  0.000000D+00  0.000000D+00
     16  0.754443D-01 -0.167910D+00  0.000000D+00 -0.288754D+01  0.120310D+00
     17 -0.189982D+00 -0.892144D-01  0.000000D+00  0.117455D+00 -0.609922D+00
     18  0.000000D+00  0.000000D+00  0.152573D+00  0.000000D+00  0.262022D-05
     19  0.267955D+00  0.652882D-01  0.000000D+00 -0.479017D-01 -0.167945D+00
     20  0.602971D-01 -0.551299D-01  0.000000D+00 -0.217847D-01  0.889299D-01
     21  0.000000D+00  0.000000D+00 -0.581436D-01  0.000000D+00  0.000000D+00
                6             7             8             9            10 
      6  0.184754D+02
      7  0.335784D-05  0.216211D+01
      8 -0.228379D-05  0.317249D+01  0.808528D+01
      9 -0.949567D+01 -0.294000D-05  0.223947D-05  0.128498D+02
     10  0.000000D+00  0.121865D+00 -0.685358D-01  0.000000D+00  0.109230D+01
     11  0.000000D+00 -0.639481D-01 -0.898446D-02  0.000000D+00  0.900801D+00
     12  0.196495D-01  0.000000D+00  0.000000D+00 -0.294617D-01 -0.101962D-05
     13  0.000000D+00  0.155717D+00  0.576835D-02  0.000000D+00  0.285173D-01
     14  0.000000D+00  0.112331D+00 -0.808106D-01  0.000000D+00  0.481309D-01
     15 -0.132779D-01  0.000000D+00  0.000000D+00 -0.810822D-01  0.000000D+00
     16  0.000000D+00  0.296011D-01  0.500863D-01  0.000000D+00  0.927184D-02
     17  0.308051D-05  0.186340D-01  0.307620D+00  0.000000D+00  0.244780D-01
     18 -0.283840D+01  0.000000D+00  0.000000D+00  0.985276D-01  0.000000D+00
     19  0.000000D+00 -0.124555D+01  0.111911D+01  0.000000D+00  0.325750D-02
     20  0.000000D+00  0.999448D+00 -0.281587D+01  0.000000D+00  0.412140D-02
     21  0.776111D-01  0.000000D+00  0.000000D+00 -0.328139D+01  0.000000D+00
               11            12            13            14            15 
     11  0.210722D+01
     12  0.000000D+00  0.256428D+01
     13  0.718326D-01  0.000000D+00  0.251015D+01
     14 -0.743945D-01  0.000000D+00 -0.363765D+00  0.683152D+00
     15  0.000000D+00  0.421853D-01  0.000000D+00 -0.102028D-05  0.269227D+01
     16 -0.145754D-02  0.000000D+00 -0.472823D-02  0.436282D-01  0.000000D+00
     17 -0.990629D-02  0.000000D+00  0.517665D-01  0.879920D-01  0.000000D+00
     18  0.000000D+00 -0.106336D-01  0.000000D+00  0.000000D+00 -0.156474D-01
     19 -0.584782D-02  0.000000D+00 -0.566270D-02  0.764656D-02  0.000000D+00
     20 -0.899663D-03  0.000000D+00 -0.152459D-02  0.454446D-02  0.000000D+00
     21  0.000000D+00 -0.165192D-02  0.000000D+00  0.000000D+00  0.547212D-04
               16            17            18            19            20 
     16  0.285518D+01
     17 -0.118413D+00  0.316033D+00
     18  0.000000D+00 -0.267993D-05  0.257241D+01
     19 -0.772339D-01  0.960617D-01  0.000000D+00  0.110513D+01
     20  0.737555D-01 -0.260301D-02  0.000000D+00 -0.111431D+01  0.278103D+01
     21  0.000000D+00  0.000000D+00  0.411736D-01  0.000000D+00  0.000000D+00
               21 
     21  0.322235D+01
 Leave Link  701 at Sat Nov 12 22:11:18 2022, MaxMem=   939524096 cpu:         5.6
 (Enter /Local/ce_dana/g09/l702.exe)
 L702 exits ... SP integral derivatives will be done elsewhere.
 Leave Link  702 at Sat Nov 12 22:11:18 2022, MaxMem=   939524096 cpu:         0.1
 (Enter /Local/ce_dana/g09/l703.exe)
 Compute integral second derivatives, UseDBF=F ICtDFT=           0.
 Integral derivatives from FoFJK, PRISM(SPDF).
 ICntrl=  10100127.
 Calling FoFJK, ICntrl=  10100127 FMM=F ISym2X=0 I1Cent= 0 IOpClX= 1 NMat=1 NMatS=1 NMatT=0.
 FoFJK:  IHMeth= 1 ICntrl=10100127 DoSepK=F KAlg= 0 I1Cent=   0 FoldK=F
 IRaf=         0 NMat=   1 IRICut=       1 DoRegI=T DoRafI=F ISym2E= 0.
 FoFCou: FMM=F IPFlag=           0 FMFlag=      100000 FMFlg1=         800
         NFxFlg=           0 DoJE=F BraDBF=F KetDBF=F FulRan=T
         wScrn=  0.000000 ICntrl=10100127 IOpCl=  1 I1Cent=           0 NGrid=           0
         NMat0=    1 NMatS0=      1 NMatT0=    0 NMatD0=    1 NMtDS0=    0 NMtDT0=    0
 Symmetry not used in FoFCou.
 FoFCou:  KetSym=F NOpSet=  1 NOpAb=1 NOp=  1.
 FoFCou:  CnvScl= 1.00D+00 Thresh= 1.00D-12 IAcrcy=      10.
 PrismS was handed   939401644 working-precision words and  1221 shell-pairs
 FoFCou: LinMIO=F DoNuc=F BraDBF=F KetDBF=F HaveP=T PDBF=F HaveZ=T HaveW=F
         NIJTC =      10 NIJTAt=       0 NIJTCD=       0 NIJTT =      10
         IJTBeg=       1 IJTEnd=      10 KLTBeg=       1 KLTEnd=      10
         IPTBeg=       1 IPTEnd=      10 IPTBCv=       1 IPTECv=      10
         IZTBeg=       1 IZTEnd=      10 IZTBCv=       1 IZTECv=      10
         IWTBeg=      11 IWTEnd=      10 IWTBCv=      11 IWTECv=      10
         INTBeg=       1 INTEnd=       0 IFTBCv=       1 IFTECv=      10
 NCel replicated for PrismC:     1
 CoulSu:  IncDef=  1024 NBBP=         746031 NTPThr=   100 NPartT=   10 Incr=         746 LDynOK=F.
 CoulSu:  NPrtUS=  10 ThrOK=T IAlg=1 NPAlg=1 LenDen=           0 LWGrdD=           0 DoCopy=F.
 Enter PrismC: JobTyp=22 DoJE=F Cont=F.
 PrismC:  IPart=     0 DynPar=T LinDyn=F Incr=         746 UseFst=F UseS4=T IGathr=2.
 PrismC was handed    93915827 working-precision words and  1221 shell-pairs
 Enter PrismC: JobTyp=22 DoJE=F Cont=F.
 Enter PrismC: JobTyp=22 DoJE=F Cont=F.
 Enter PrismC: JobTyp=22 DoJE=F Cont=F.
 PrismC was handed    93915827 working-precision words and  1221 shell-pairs
 Enter PrismC: JobTyp=22 DoJE=F Cont=F.
 PrismC was handed    93915827 working-precision words and  1221 shell-pairs
 Enter PrismC: JobTyp=22 DoJE=F Cont=F.
 Enter PrismC: JobTyp=22 DoJE=F Cont=F.
 PrismC was handed    93915827 working-precision words and  1221 shell-pairs
 PrismC was handed    93915827 working-precision words and  1221 shell-pairs
 PrismC was handed    93915827 working-precision words and  1221 shell-pairs
 Enter PrismC: JobTyp=22 DoJE=F Cont=F.
 Enter PrismC: JobTyp=22 DoJE=F Cont=F.
 PrismC was handed    93915827 working-precision words and  1221 shell-pairs
 Enter PrismC: JobTyp=22 DoJE=F Cont=F.
 PrismC was handed    93915827 working-precision words and  1221 shell-pairs
 PrismC was handed    93915827 working-precision words and  1221 shell-pairs
 PrismC was handed    93915827 working-precision words and  1221 shell-pairs
 IPart=  8 NShTot=       67150 NShNF=       67150 NShFF=           0 NBatch=        1970 AvBLen=        34.1
 IPart=  5 NShTot=       53813 NShNF=       53813 NShFF=           0 NBatch=        2084 AvBLen=        25.8
 IPart=  0 NShTot=       75943 NShNF=       75943 NShFF=           0 NBatch=        2318 AvBLen=        32.8
 IPart=  4 NShTot=       91247 NShNF=       91247 NShFF=           0 NBatch=        2813 AvBLen=        32.4
 IPart=  6 NShTot=       71056 NShNF=       71056 NShFF=           0 NBatch=        2578 AvBLen=        27.6
 IPart=  1 NShTot=       76388 NShNF=       76388 NShFF=           0 NBatch=        2596 AvBLen=        29.4
 IPart=  3 NShTot=       79047 NShNF=       79047 NShFF=           0 NBatch=        2390 AvBLen=        33.1
 IPart=  7 NShTot=       62916 NShNF=       62916 NShFF=           0 NBatch=        2201 AvBLen=        28.6
 IPart=  9 NShTot=       62705 NShNF=       62705 NShFF=           0 NBatch=        2670 AvBLen=        23.5
 IPart=  2 NShTot=       80350 NShNF=       80350 NShFF=           0 NBatch=        2679 AvBLen=        30.0
 CoulSu:  NxtVal=         800459.
 ReadGW:  IGet=0 IStart=           1 Next=           1 LGW=           0.
 Remaining memory in FofDFT      895.97 Mw
 CkSvGd:  ISavGI=        -1 IRadAn=       5 IRASav=       5 ISavGd=        -1.
 CalDSu:  NPrtUS=  10 ThrOK=T IAlg=1 NPAlg=2 DoDPD=T LenP=        8778 LenD1P=             0.
 IPart=  0 IRanGd=          0 ScrnBf=T ScrnGd=T RCrit=4.00D+00 DoMicB=T.
 IPart=  1        12395 of        12874 points in       9 batches and       58 microbatches, Max-NSigAt=       7 Max-NSgAt2=       7
 IPart=  8        14488 of        15572 points in      15 batches and       86 microbatches, Max-NSigAt=       7 Max-NSgAt2=       7
 IPart=  2        15839 of        17284 points in      18 batches and      123 microbatches, Max-NSigAt=       7 Max-NSgAt2=       7
 IPart=  6        16651 of        17890 points in      15 batches and       88 microbatches, Max-NSigAt=       7 Max-NSgAt2=       7
 IPart=  7        13079 of        14088 points in      14 batches and       85 microbatches, Max-NSigAt=       7 Max-NSgAt2=       7
 IPart=  0        15081 of        15690 points in      12 batches and       78 microbatches, Max-NSigAt=       7 Max-NSgAt2=       7
 IPart=  3        12524 of        13422 points in      14 batches and      114 microbatches, Max-NSigAt=       7 Max-NSgAt2=       7
 IPart=  4        15008 of        15550 points in      12 batches and       64 microbatches, Max-NSigAt=       7 Max-NSgAt2=       7
 IPart=  9        16064 of        17616 points in      17 batches and      113 microbatches, Max-NSigAt=       7 Max-NSgAt2=       7
 IPart=  5        14293 of        15368 points in      15 batches and       90 microbatches, Max-NSigAt=       7 Max-NSgAt2=       7
 Polarizability after L703:
                1             2             3 
      1  0.474520D+02
      2 -0.497388D+00  0.304348D+02
      3  0.000000D+00  0.000000D+00  0.207513D+02
 Dipole Derivatives after L703:
                 1             2             3             4             5 
      1   0.965687D-01 -0.743893D-01  0.000000D+00  0.140862D+00  0.203479D-01
      2  -0.160137D+00  0.304242D-01  0.000000D+00  0.135696D+00  0.344740D+00
      3   0.000000D+00  0.000000D+00 -0.258594D+00  0.000000D+00  0.000000D+00
                 6             7             8             9            10 
      1   0.000000D+00 -0.422380D+00  0.178905D+00  0.000000D+00 -0.892171D-02
      2   0.000000D+00  0.492806D-01 -0.292742D+00  0.000000D+00  0.264529D-01
      3   0.859636D-02  0.000000D+00  0.000000D+00 -0.437764D+00  0.000000D+00
                11            12            13            14            15 
      1   0.700730D-01  0.000000D+00  0.419199D-01 -0.305863D-01  0.000000D+00
      2   0.107152D-01  0.000000D+00  0.276161D-01 -0.193465D-01  0.000000D+00
      3   0.000000D+00  0.143362D+00  0.000000D+00  0.000000D+00  0.143355D+00
                16            17            18            19            20 
      1   0.215619D-01  0.248619D-01  0.000000D+00  0.130389D+00 -0.189212D+00
      2   0.604543D-02 -0.188491D+00  0.000000D+00 -0.849540D-01  0.114700D+00
      3   0.000000D+00  0.000000D+00  0.157811D+00  0.000000D+00  0.000000D+00
                21 
      1   0.000000D+00
      2   0.000000D+00
      3   0.243234D+00
 Hessian after L703:
                1             2             3             4             5 
      1  0.637112D+00
      2 -0.262810D-01  0.657038D+00
      3  0.000000D+00  0.000000D+00  0.844834D-01
      4 -0.195243D+00 -0.567882D-01  0.000000D+00  0.558738D+00
      5 -0.134985D+00 -0.180389D+00  0.000000D+00 -0.405579D-02  0.717883D+00
      6  0.000000D+00  0.000000D+00 -0.508747D-01  0.000000D+00  0.000000D+00
      7 -0.119580D+00 -0.555550D-02  0.000000D+00 -0.256558D+00  0.202464D+00
      8  0.418400D-01  0.409125D-01  0.000000D+00  0.680694D-01 -0.235839D+00
      9  0.000000D+00  0.000000D+00 -0.260492D-03  0.000000D+00  0.000000D+00
     10 -0.256861D+00  0.134684D+00  0.000000D+00 -0.118537D-01  0.213235D-01
     11  0.140094D+00 -0.157731D+00  0.000000D+00 -0.120033D-01  0.112466D-01
     12  0.000000D+00  0.000000D+00 -0.234305D-01  0.000000D+00  0.000000D+00
     13 -0.602725D-01 -0.211822D-01  0.000000D+00  0.278033D-02 -0.312343D-01
     14 -0.255727D-01 -0.348348D+00  0.000000D+00  0.180761D-03 -0.114749D-01
     15  0.000000D+00  0.000000D+00 -0.267590D-01  0.000000D+00  0.000000D+00
     16  0.725690D-03 -0.306935D-01  0.000000D+00 -0.657818D-01 -0.241939D-01
     17  0.203607D-02 -0.115424D-01  0.000000D+00 -0.290459D-01 -0.304259D+00
     18  0.000000D+00  0.000000D+00  0.625084D-02  0.000000D+00  0.000000D+00
     19 -0.588148D-02  0.581604D-02  0.000000D+00 -0.320825D-01 -0.293188D-01
     20  0.286883D-02  0.596464D-04  0.000000D+00  0.336431D-01  0.283245D-02
     21  0.000000D+00  0.000000D+00  0.105905D-01  0.000000D+00  0.000000D+00
                6             7             8             9            10 
      6  0.141157D+00
      7  0.000000D+00  0.662357D+00
      8  0.000000D+00  0.369448D-02  0.386377D+00
      9 -0.521838D-01  0.000000D+00  0.000000D+00  0.509788D-01
     10  0.000000D+00 -0.553797D-02 -0.350659D-02  0.000000D+00  0.268704D+00
     11  0.000000D+00 -0.253007D-02 -0.565977D-03  0.000000D+00 -0.148136D+00
     12  0.374387D-02  0.000000D+00  0.000000D+00  0.599776D-02  0.000000D+00
     13  0.000000D+00  0.252189D-02  0.134172D-02  0.000000D+00  0.616126D-02
     14  0.000000D+00  0.185218D-02  0.115912D-02  0.000000D+00 -0.435273D-02
     15  0.587711D-02  0.000000D+00  0.000000D+00 -0.389067D-02  0.000000D+00
     16  0.000000D+00 -0.155779D-02  0.357776D-01  0.000000D+00  0.687930D-03
     17  0.000000D+00  0.102862D-01 -0.218468D-01  0.000000D+00 -0.495597D-03
     18 -0.530850D-01  0.000000D+00  0.000000D+00  0.248688D-01  0.000000D+00
     19  0.000000D+00 -0.281646D+00 -0.147217D+00  0.000000D+00 -0.130073D-02
     20  0.000000D+00 -0.210211D+00 -0.170196D+00  0.000000D+00  0.482629D-03
     21  0.536546D-02  0.000000D+00  0.000000D+00 -0.255103D-01  0.000000D+00
               11            12            13            14            15 
     11  0.153787D+00
     12  0.000000D+00  0.130899D-01
     13  0.227300D-01  0.000000D+00  0.531651D-01
     14 -0.795756D-02  0.000000D+00  0.296190D-01  0.365843D+00
     15  0.000000D+00  0.417526D-02  0.000000D+00  0.000000D+00  0.150636D-01
     16  0.793262D-03  0.000000D+00 -0.482137D-02 -0.200963D-02  0.000000D+00
     17  0.589712D-03  0.000000D+00 -0.195263D-02  0.395585D-03  0.000000D+00
     18  0.000000D+00 -0.249885D-02  0.000000D+00  0.000000D+00  0.584621D-02
     19 -0.948013D-03  0.000000D+00  0.465326D-03  0.283130D-03  0.000000D+00
     20  0.631353D-03  0.000000D+00  0.678332D-03  0.382772D-03  0.000000D+00
     21  0.000000D+00 -0.107740D-02  0.000000D+00  0.000000D+00 -0.312465D-03
               16            17            18            19            20 
     16  0.674293D-01
     17  0.191587D-01  0.333380D+00
     18  0.000000D+00  0.000000D+00  0.278783D-01
     19  0.331799D-02  0.132120D-04  0.000000D+00  0.317127D+00
     20  0.116748D-02  0.328303D-02  0.000000D+00  0.171371D+00  0.163007D+00
     21  0.000000D+00  0.000000D+00 -0.926027D-02  0.000000D+00  0.000000D+00
               21 
     21  0.202045D-01
 Leave Link  703 at Sat Nov 12 22:11:43 2022, MaxMem=   939524096 cpu:       256.1
 (Enter /Local/ce_dana/g09/l716.exe)
 FrcOut:
 IF    =    49 IFX   =    70 IFXYZ =    91
 IFFX  =   112 IFFFX =   343 IFLen =    21
 IFFLen=   231 IFFFLn=     0 IEDerv=   343
 LEDerv=  1061 IFroze=  1655 ICStrt= 29353
 Dipole        =-3.25265130D-01 7.11040867D-01-1.07812516D-07
 DipoleDeriv   = 9.65687423D-02-1.60137305D-01 3.80658084D-08
                -7.43892667D-02 3.04242045D-02-4.32020870D-08
                 6.96806459D-07-7.54253346D-08-2.58594080D-01
                 1.40862120D-01 1.35696283D-01-1.84575997D-07
                 2.03478521D-02 3.44740030D-01 3.22995022D-07
                -1.27991115D-07 4.80447408D-07 8.59635845D-03
                -4.22380409D-01 4.92805634D-02 1.79856539D-07
                 1.78905013D-01-2.92742205D-01-1.92871425D-07
                -6.84651079D-08-4.55479650D-08-4.37763738D-01
                -8.92170956D-03 2.64529050D-02 3.98774943D-09
                 7.00729745D-02 1.07151552D-02-1.99473907D-09
                -3.11408097D-07 8.11424888D-08 1.43361746D-01
                 4.19199056D-02 2.76160757D-02-1.86146999D-08
                -3.05862675D-02-1.93464582D-02 7.93944377D-09
                -2.23617081D-07-6.48222403D-08 1.43354671D-01
                 2.15619327D-02 6.04543005D-03-1.38281741D-08
                 2.48618660D-02-1.88491055D-01-1.04120098D-07
                 2.10216178D-08-3.68512140D-07 1.57810755D-01
                 1.30389417D-01-8.49539525D-02-4.89164897D-09
                -1.89212171D-01 1.14700328D-01 1.12481220D-08
                 1.36509220D-08-7.28164896D-09 2.43234288D-01
 Polarizability= 4.74519669D+01-4.97387551D-01 3.04348297D+01
                -8.39182143D-07 7.27327894D-07 2.07513140D+01
 VibFq2-Diag1:  N=     21 IV=           8 MDV=   939492891 NE2=    44737756
 Full mass-weighted force constant matrix:
 Low frequencies ---   -9.7923   -7.8307   -6.6325   -0.0007    0.0007    0.0011
 Low frequencies ---  494.4471  525.5277  688.6588
 OrtVCM:  Ph=1 IPass= 1 DotMx1= 0.00D+00
 OrtVCM:  IS=    1 I=    1 IndO=    1 Dot= 1.00D+00 DotN= 1.00D+00 ElMax1= 5.77D-01 ElMax1N= 5.77D-01
 OrtVCM:  Ph=2 NNew=    0 IAdd=    2 IPass= 1 DotMx2= 0.00D+00
 OrtVCM:  IS=    1 I=    2 IndO=    2 Dot= 1.00D+00 DotN= 1.00D+00 ElMax1= 5.77D-01 ElMax1N= 5.77D-01
 OrtVCM:  Ph=2 NNew=    0 IAdd=    3 IPass= 1 DotMx2= 0.00D+00
 OrtVCM:  IS=    1 I=    3 IndO=    3 Dot= 1.00D+00 DotN= 1.00D+00 ElMax1= 5.77D-01 ElMax1N= 5.77D-01
 OrtVCM:  Ph=2 NNew=    0 IAdd=    4 IPass= 1 DotMx2= 8.67D-17
 OrtVCM:  IS=    1 I=    4 IndO=    4 Dot= 1.00D+00 DotN= 1.00D+00 ElMax1= 5.42D-01 ElMax1N= 5.42D-01
 OrtVCM:  Ph=2 NNew=    0 IAdd=    5 IPass= 1 DotMx2= 3.34D-16
 OrtVCM:  IS=    1 I=    5 IndO=    5 Dot= 1.00D+00 DotN= 1.00D+00 ElMax1= 6.27D-01 ElMax1N= 6.27D-01
 OrtVCM:  Ph=2 NNew=    0 IAdd=    6 IPass= 1 DotMx2= 1.53D-16
 OrtVCM:  IS=    1 I=    6 IndO=    6 Dot= 1.00D+00 DotN= 1.00D+00 ElMax1= 5.81D-01 ElMax1N= 5.81D-01
 OrtVCM:  Ph=1 IPass= 1 DotMx1= 6.27D-01
 OrtVCM:  Ph=1 IPass= 2 DotMx1= 1.32D-16
 OrtVCM:  IS=    1 I=    1 IndO=    7 Dot= 7.10D-01 DotN= 7.10D-01 ElMax1= 7.10D-01 ElMax1N= 7.10D-01
 OrtVCM:  Ph=2 NNew=    0 IAdd=    2 IPass= 1 DotMx2= 4.70D-02
 OrtVCM:  Ph=2 NNew=    0 IAdd=    2 IPass= 2 DotMx2= 2.95D-18
 OrtVCM:  IS=    1 I=    2 IndO=    8 Dot= 3.75D-01 DotN= 3.75D-01 ElMax1= 3.75D-01 ElMax1N= 3.75D-01
 OrtVCM:  Ph=2 NNew=    0 IAdd=    3 IPass= 1 DotMx2= 7.81D-08
 OrtVCM:  Ph=2 NNew=    0 IAdd=    3 IPass= 2 DotMx2= 1.65D-23
 OrtVCM:  IS=    1 I=    3 IndO=    9 Dot= 2.69D-01 DotN= 2.69D-01 ElMax1= 3.05D-01 ElMax1N= 3.05D-01
 OrtVCM:  Ph=2 NNew=    0 IAdd=    4 IPass= 1 DotMx2= 3.22D-01
 OrtVCM:  Ph=2 NNew=    0 IAdd=    4 IPass= 2 DotMx2= 1.98D-17
 OrtVCM:  IS=    1 I=    4 IndO=   10 Dot= 5.41D-01 DotN= 5.41D-01 ElMax1= 5.41D-01 ElMax1N= 5.41D-01
 OrtVCM:  Ph=2 NNew=    0 IAdd=    5 IPass= 1 DotMx2= 4.46D-01
 OrtVCM:  Ph=2 NNew=    0 IAdd=    5 IPass= 2 DotMx2= 9.71D-17
 OrtVCM:  IS=    1 I=    5 IndO=   11 Dot= 5.06D-01 DotN= 5.06D-01 ElMax1= 5.06D-01 ElMax1N= 5.06D-01
 OrtVCM:  Ph=2 NNew=    0 IAdd=    6 IPass= 1 DotMx2= 2.97D-01
 OrtVCM:  Ph=2 NNew=    0 IAdd=    6 IPass= 2 DotMx2= 2.95D-17
 OrtVCM:  IS=    1 I=    6 IndO=   12 Dot= 3.45D-01 DotN= 3.45D-01 ElMax1= 3.45D-01 ElMax1N= 3.45D-01
 OrtVCM:  Ph=2 NNew=    0 IAdd=    7 IPass= 1 DotMx2= 4.98D-01
 OrtVCM:  Ph=2 NNew=    0 IAdd=    7 IPass= 2 DotMx2= 2.78D-17
 OrtVCM:  IS=    1 I=    7 IndO=   13 Dot= 2.13D-01 DotN= 2.13D-01 ElMax1= 2.32D-01 ElMax1N= 2.32D-01
 OrtVCM:  Ph=2 NNew=    0 IAdd=    8 IPass= 1 DotMx2= 4.06D-01
 OrtVCM:  Ph=2 NNew=    0 IAdd=    8 IPass= 2 DotMx2= 5.90D-17
 OrtVCM:  IS=    1 I=    8 IndO=   14 Dot= 1.50D-01 DotN= 1.50D-01 ElMax1= 2.79D-01 ElMax1N= 2.79D-01
 OrtVCM:  Ph=2 NNew=    0 IAdd=    9 IPass= 1 DotMx2= 2.10D-01
 OrtVCM:  Ph=2 NNew=    0 IAdd=    9 IPass= 2 DotMx2= 1.39D-17
 OrtVCM:  IS=    1 I=    9 IndO=   15 Dot= 9.75D-02 DotN= 9.75D-02 ElMax1= 2.51D-01 ElMax1N= 2.51D-01
 OrtVCM:  Ph=2 NNew=    0 IAdd=   10 IPass= 1 DotMx2= 4.19D-01
 OrtVCM:  Ph=2 NNew=    0 IAdd=   10 IPass= 2 DotMx2= 1.11D-16
 OrtVCM:  IS=    1 I=   10 IndO=   16 Dot= 7.47D-01 DotN= 7.47D-01 ElMax1= 7.47D-01 ElMax1N= 7.47D-01
 OrtVCM:  Ph=2 NNew=    0 IAdd=   11 IPass= 1 DotMx2= 4.12D-01
 OrtVCM:  Ph=2 NNew=    0 IAdd=   11 IPass= 2 DotMx2= 1.39D-16
 OrtVCM:  IS=    1 I=   11 IndO=   17 Dot= 5.15D-01 DotN= 5.15D-01 ElMax1= 5.15D-01 ElMax1N= 5.15D-01
 OrtVCM:  Ph=2 NNew=    0 IAdd=   12 IPass= 1 DotMx2= 5.01D-01
 OrtVCM:  Ph=2 NNew=    0 IAdd=   12 IPass= 2 DotMx2= 1.94D-16
 OrtVCM:  IS=    1 I=   12 IndO=   18 Dot= 3.48D-01 DotN= 3.48D-01 ElMax1= 3.48D-01 ElMax1N= 3.48D-01
 OrtVCM:  Ph=2 NNew=    0 IAdd=   13 IPass= 1 DotMx2= 5.03D-01
 OrtVCM:  Ph=2 NNew=    0 IAdd=   13 IPass= 2 DotMx2= 1.46D-16
 OrtVCM:  IS=    1 I=   13 IndO=   19 Dot= 4.50D-01 DotN= 4.50D-01 ElMax1= 4.50D-01 ElMax1N= 4.50D-01
 OrtVCM:  Ph=2 NNew=    0 IAdd=   14 IPass= 1 DotMx2= 5.29D-01
 OrtVCM:  Ph=2 NNew=    0 IAdd=   14 IPass= 2 DotMx2= 1.53D-16
 OrtVCM:  IS=    1 I=   14 IndO=   20 Dot= 2.70D-01 DotN= 2.70D-01 ElMax1= 3.69D-01 ElMax1N= 3.69D-01
 OrtVCM:  Ph=2 NNew=    0 IAdd=   15 IPass= 1 DotMx2= 5.88D-01
 OrtVCM:  Ph=2 NNew=    0 IAdd=   15 IPass= 2 DotMx2= 1.46D-16
 OrtVCM:  IS=    1 I=   15 IndO=    0 Dot= 1.52D-32 DotN= 1.52D-32 ElMax1= 7.26D-17 ElMax1N= 7.26D-17
 SchOr2:  IPass= 1 Test2A= 1.00D-01 IOff=     0 NDo=    15 NNew=    14
 OrtVCM:  Ph=1 IPass= 1 DotMx1= 3.67D-01
 OrtVCM:  Ph=1 IPass= 2 DotMx1= 1.20D-16
 OrtVCM:  IS=    1 I=    1 IndO=   21 Dot= 3.41D-01 DotN= 3.41D-01 ElMax1= 3.41D-01 ElMax1N= 3.41D-01
 SchOr2:  IPass= 1 Test2A= 1.00D-01 IOff=    15 NDo=     1 NNew=     1
 VibFq2-Diag2:  N=     15 IV=           8 MDV=   939492891 NE2=    62632858
 Dipole derivatives wrt mode   1:  3.56399D+00 -2.08567D-01 -1.94208D-06
 Vibrational polarizability contributions from mode   1       1.3981933       0.0047883       0.0000000
 Vibrational hyperpolarizability contributions from mode   1       0.0000000      -0.0000000      -0.0000000
 Dipole derivatives wrt mode   2: -8.03597D-07  1.16731D-06  2.19540D+00
 Vibrational polarizability contributions from mode   2       0.0000000       0.0000000       0.4696447
 Vibrational hyperpolarizability contributions from mode   2      -0.0000000       0.0000000       0.0000000
 Dipole derivatives wrt mode   3:  3.95527D-06  2.95078D-06 -1.02821D+01
 Vibrational polarizability contributions from mode   3       0.0000000       0.0000000       5.9991090
 Vibrational hyperpolarizability contributions from mode   3       0.0000000       0.0000000      -0.0000000
 Dipole derivatives wrt mode   4:  1.28970D-05 -1.14453D-06 -3.43917D+00
 Vibrational polarizability contributions from mode   4       0.0000000       0.0000000       0.4620641
 Vibrational hyperpolarizability contributions from mode   4       0.0000000      -0.0000000      -0.0000000
 Dipole derivatives wrt mode   5:  2.87843D+00 -1.64167D+00 -5.47327D-07
 Vibrational polarizability contributions from mode   5       0.2194409       0.0713805       0.0000000
 Vibrational hyperpolarizability contributions from mode   5       0.0000000      -0.0000000      -0.0000000
 Dipole derivatives wrt mode   6:  3.21324D-06  6.38816D-06 -1.66580D-01
 Vibrational polarizability contributions from mode   6       0.0000000       0.0000000       0.0006478
 Vibrational hyperpolarizability contributions from mode   6       0.0000000       0.0000000      -0.0000000
 Dipole derivatives wrt mode   7: -4.32273D+00  1.89917D+00 -8.87530D-07
 Vibrational polarizability contributions from mode   7       0.4154905       0.0801996       0.0000000
 Vibrational hyperpolarizability contributions from mode   7      -0.0000000       0.0000000      -0.0000000
 Dipole derivatives wrt mode   8: -1.47830D+00  2.56085D+00 -1.27648D-06
 Vibrational polarizability contributions from mode   8       0.0373843       0.1121842       0.0000000
 Vibrational hyperpolarizability contributions from mode   8      -0.0000000       0.0000000      -0.0000000
 Dipole derivatives wrt mode   9: -5.12462D+00  2.96850D+00  1.02602D-06
 Vibrational polarizability contributions from mode   9       0.3756564       0.1260500       0.0000000
 Vibrational hyperpolarizability contributions from mode   9      -0.0000000       0.0000000       0.0000000
 Dipole derivatives wrt mode  10: -1.23070D+00 -4.61202D-01 -2.16400D-06
 Vibrational polarizability contributions from mode  10       0.0186913       0.0026249       0.0000000
 Vibrational hyperpolarizability contributions from mode  10      -0.0000000      -0.0000000      -0.0000000
 Dipole derivatives wrt mode  11: -5.74353D-01  3.07552D+00 -5.49760D-07
 Vibrational polarizability contributions from mode  11       0.0038589       0.1106482       0.0000000
 Vibrational hyperpolarizability contributions from mode  11      -0.0000000       0.0000000      -0.0000000
 Dipole derivatives wrt mode  12: -5.43774D-01  6.44972D+00  3.12758D-07
 Vibrational polarizability contributions from mode  12       0.0008412       0.1183375       0.0000000
 Vibrational hyperpolarizability contributions from mode  12      -0.0000000       0.0000000       0.0000000
 Dipole derivatives wrt mode  13:  1.71461D+00 -4.93875D-01 -2.47085D-06
 Vibrational polarizability contributions from mode  13       0.0078271       0.0006494       0.0000000
 Vibrational hyperpolarizability contributions from mode  13       0.0000000      -0.0000000      -0.0000000
 Dipole derivatives wrt mode  14: -8.35213D-01  1.25790D+00  4.68896D-07
 Vibrational polarizability contributions from mode  14       0.0017341       0.0039335       0.0000000
 Vibrational hyperpolarizability contributions from mode  14      -0.0000000       0.0000000       0.0000000
 Dipole derivatives wrt mode  15: -7.67192D-01  3.04605D-01  5.16650D-07
 Vibrational polarizability contributions from mode  15       0.0013198       0.0002081       0.0000000
 Vibrational hyperpolarizability contributions from mode  15      -0.0000000       0.0000000       0.0000000
 Diagonal vibrational polarizability:
        2.4804379       0.6310041       6.9314656
 NorSel:  MapVib=      1      2      3      4      5      6      7      8      9     10
 NorSel:  MapVib=     11     12     13     14     15
 Harmonic frequencies (cm**-1), IR intensities (KM/Mole), Raman scattering
 activities (A**4/AMU), depolarization ratios for plane and unpolarized
 incident light, reduced masses (AMU), force constants (mDyne/A),
 and normal coordinates:
                      1                      2                      3
                      A                      A                      A
 Frequencies --    494.4470               525.5277               688.6588
 Red. masses --      2.2544                 1.2192                 1.0954
 Frc consts  --      0.3247                 0.1984                 0.3061
 IR Inten    --     12.7455                 4.8198               105.7212
  Atom  AN      X      Y      Z        X      Y      Z        X      Y      Z
     1   6     0.15  -0.05   0.00     0.00  -0.00   0.01    -0.00  -0.00   0.01
     2   6     0.01   0.20   0.00    -0.00   0.00  -0.12    -0.00  -0.00   0.06
     3   7    -0.19  -0.08  -0.00    -0.00  -0.00   0.06     0.00   0.00   0.06
     4   1    -0.12  -0.45  -0.00    -0.00   0.00   0.85     0.00   0.00  -0.02
     5   1     0.68  -0.09   0.00     0.00   0.00  -0.44     0.00   0.00  -0.51
     6   1     0.12   0.19   0.00     0.00   0.00  -0.06     0.00   0.00  -0.29
     7   1     0.02  -0.38  -0.00    -0.00  -0.00   0.24     0.00  -0.00  -0.80
                      4                      5                      6
                      A                      A                      A
 Frequencies --    829.9821              1008.0051              1073.6771
 Red. masses --      1.4576                 1.5124                 1.2813
 Frc consts  --      0.5916                 0.9054                 0.8702
 IR Inten    --     11.8279                10.9804                 0.0277
  Atom  AN      X      Y      Z        X      Y      Z        X      Y      Z
     1   6    -0.00  -0.00   0.18     0.15  -0.09   0.00    -0.00  -0.00  -0.01
     2   6     0.00   0.00  -0.09    -0.01   0.02  -0.00     0.00  -0.00   0.14
     3   7    -0.00   0.00  -0.01    -0.10   0.04   0.00    -0.00   0.00  -0.07
     4   1     0.00  -0.00  -0.61     0.56   0.50  -0.00     0.00   0.00   0.05
     5   1     0.00   0.00  -0.68    -0.51  -0.02   0.00    -0.00  -0.00  -0.12
     6   1     0.00  -0.00   0.05    -0.31   0.04   0.00     0.00   0.00  -0.87
     7   1    -0.00   0.00   0.35     0.04  -0.18  -0.00     0.00  -0.00   0.44
                      7                      8                      9
                      A                      A                      A
 Frequencies --   1100.1298              1254.2500              1371.6161
 Red. masses --      2.0398                 1.4131                 2.2407
 Frc consts  --      1.4545                 1.3097                 2.4837
 IR Inten    --     22.2928                 8.7433                35.0737
  Atom  AN      X      Y      Z        X      Y      Z        X      Y      Z
     1   6     0.18   0.12   0.00    -0.01  -0.06  -0.00     0.01  -0.07   0.00
     2   6    -0.18  -0.10   0.00     0.12  -0.02   0.00    -0.04   0.23  -0.00
     3   7    -0.00  -0.07  -0.00    -0.12   0.04   0.00     0.11  -0.18   0.00
     4   1     0.19   0.10  -0.00     0.06   0.04   0.00    -0.12  -0.22  -0.00
     5   1     0.43   0.11  -0.00    -0.14  -0.05   0.00    -0.66  -0.01   0.00
     6   1    -0.14  -0.12  -0.00     0.73  -0.06   0.00    -0.09   0.24  -0.00
     7   1    -0.47   0.64   0.00    -0.42   0.48  -0.00    -0.30   0.50   0.00
                     10                     11                     12
                      A                      A                      A
 Frequencies --   1476.7265              1516.7470              3075.7142
 Red. masses --      1.5692                 1.4696                 1.0874
 Frc consts  --      2.0161                 1.9919                 6.0606
 IR Inten    --      1.7273                 9.7887                41.8945
  Atom  AN      X      Y      Z        X      Y      Z        X      Y      Z
     1   6     0.06   0.08   0.00    -0.13  -0.05   0.00     0.00  -0.00   0.00
     2   6     0.16  -0.08   0.00     0.14   0.05  -0.00     0.01   0.08   0.00
     3   7    -0.09   0.02  -0.00    -0.01  -0.05   0.00    -0.00  -0.00   0.00
     4   1    -0.34  -0.50   0.00     0.22   0.47   0.00    -0.05   0.04  -0.00
     5   1    -0.32   0.11  -0.00     0.53  -0.11   0.00     0.00  -0.00   0.00
[...]
 Zero-point vibrational energy     145641.2 (Joules/Mol)
                                   34.80909 (Kcal/Mol)
 Warning -- explicit consideration of   2 degrees of freedom as
           vibrations may cause significant error
 Vibrational temperatures:    711.40   756.12   990.83  1194.16  1450.29
          (Kelvin)           1544.78  1582.84  1804.58  1973.45  2124.68
                             2182.26  4425.26  4574.29  4733.88  4984.38
 
 Zero-point correction=                           0.055472 (Hartree/Particle)
 Thermal correction to Energy=                    0.059046
 Thermal correction to Enthalpy=                  0.059990
 Thermal correction to Gibbs Free Energy=         0.030531
 Sum of electronic and zero-point Energies=           -133.176040
 Sum of electronic and thermal Energies=              -133.172466
 Sum of electronic and thermal Enthalpies=            -133.171522
 Sum of electronic and thermal Free Energies=         -133.200981
 
                     E (Thermal)             CV                S
                      KCal/Mol        Cal/Mol-Kelvin    Cal/Mol-Kelvin
 Total                   37.052             11.264             62.001
 Electronic               0.000              0.000              1.377
 Translational            0.889              2.981             37.135
 Rotational               0.889              2.981             21.416
 Vibrational             35.275              5.302              2.073
 Vibration     1          0.850              1.262              0.672
 Vibration     2          0.880              1.193              0.597
                       Q            Log10(Q)             Ln(Q)
 Total Bot       0.904794D-14        -14.043450        -32.336239
 Total V=0       0.296317D+12         11.471757         26.414697
 Vib (Bot)       0.395058D-25        -25.403339        -58.493350
 Vib (Bot)    1  0.334032D+00         -0.476211         -1.096517
 Vib (Bot)    2  0.305587D+00         -0.514866         -1.185522
 Vib (V=0)       0.129380D+01          0.111868          0.257586
 Vib (V=0)    1  0.110131D+01          0.041911          0.096503
 Vib (V=0)    2  0.108599D+01          0.035825          0.082491
 Electronic      0.200000D+01          0.301030          0.693147
 Translational   0.107118D+08          7.029862         16.186856
 Rotational      0.106905D+05          4.028997          9.277108
 
                                                             2-Iminoethyl
                                                             IR Spectrum
 
     3      3   3   3                                                        11   1    1    11  1                                    
     4      2   1   0                                                        54   3    2    10  0     8    6     54                  
     6      9   7   7                                                        17   7    5    07  0     3    8     29                  
     4      0   9   6                                                        77   2    4    04  8     0    9     64                  
 
     X      X   X   X                                                        XX   X    X    X   X     X    X     XX                  
                    X                                                        X    X    X    X   X     X    X      X                  
                    X                                                             X         X              X                         
                    X                                                             X         X              X                         
                    X                                                             X                        X                         
                    X                                                             X                        X                         
                    X                                                             X                        X                         
                    X                                                                                      X                         
                                                                                                           X                         
                                                                                                           X                         
                                                                                                           X                         
                                                                                                           X                         
                                                                                                           X                         
                                                                                                           X                         
                                                                                                           X                         
                                                                                                           X                         
                                                                                                           X                         
                                                                                                           X                         
                                                                                                           X                         
                                                                                                           X                         
 
 Forces in standard orientation:
 -------------------------------------------------------------------
 Center     Atomic                   Forces (Hartrees/Bohr)
 Number     Number              X              Y              Z
 -------------------------------------------------------------------
      1        6           0.000000641    0.000000208    0.000000113
      2        6          -0.000001148    0.000000280   -0.000000201
      3        7           0.000000446    0.000000131    0.000000079
      4        1           0.000000167   -0.000000190   -0.000000032
      5        1          -0.000000017    0.000000123   -0.000000018
      6        1           0.000000018   -0.000000446    0.000000072
      7        1          -0.000000107   -0.000000106   -0.000000013
 -------------------------------------------------------------------
 ***** Axes restored to original set *****
 Rotating derivatives, DoTrsp=F IDiff=-2 LEDeriv=   1060 LFDPrp=       0 LDFDPr=       0.
 -------------------------------------------------------------------
 Center     Atomic                   Forces (Hartrees/Bohr)
 Number     Number              X              Y              Z
 -------------------------------------------------------------------
      1        6          -0.000000624   -0.000000257    0.000000108
      2        6           0.000000694    0.000000955   -0.000000209
      3        7          -0.000000425   -0.000000189    0.000000075
      4        1          -0.000000003   -0.000000254   -0.000000027
      5        1          -0.000000067    0.000000104   -0.000000021
      6        1           0.000000275   -0.000000349    0.000000084
      7        1           0.000000151   -0.000000011   -0.000000010
 -------------------------------------------------------------------
 Cartesian Forces:  Max     0.000000955 RMS     0.000000340
 Z-matrix is all fixed cartesians, so copy forces.
 Force constants in Cartesian coordinates: 
                1             2             3             4             5 
      1  0.619412D+00
      2 -0.558106D-02  0.674329D+00
      3  0.923946D-02 -0.122266D-01  0.848924D-01
      4 -0.283628D+00 -0.316496D-01 -0.331935D-02  0.621835D+00
      5  0.465191D-01 -0.919139D-01  0.163761D-02 -0.777865D-01  0.654374D+00
      6 -0.492711D-02  0.304145D-03 -0.509650D-01  0.979911D-02 -0.118821D-01
      7 -0.338340D-01 -0.583813D-01  0.628030D-03 -0.114152D+00 -0.983761D-01
      8 -0.105760D+00 -0.448623D-01 -0.886758D-03  0.359706D-01 -0.378111D+00
      9  0.160251D-02 -0.785305D-04 -0.231540D-03 -0.179690D-02  0.502528D-02
     10 -0.792292D-01 -0.675438D-01  0.437397D-03  0.251109D-02 -0.287862D-01
     11 -0.729512D-01 -0.335264D+00  0.516921D-02  0.452868D-02 -0.312341D-02
     12  0.548643D-03  0.526149D-02 -0.235293D-01 -0.114199D-03 -0.349825D-03
     13 -0.205036D+00  0.143611D+00 -0.599464D-02 -0.185751D-01  0.251372D-01
     14  0.148000D+00 -0.203355D+00  0.615657D-02 -0.626664D-02  0.989257D-02
     15 -0.608488D-02  0.608168D-02 -0.269879D-01 -0.288231D-03  0.346214D-03
     16 -0.186064D-01  0.246273D-01 -0.930504D-03 -0.192804D+00  0.119406D+00
     17 -0.809059D-02  0.780210D-02 -0.169915D-03  0.124256D+00 -0.177059D+00
     18 -0.257627D-03  0.388189D-03  0.623846D-02 -0.493872D-02  0.458642D-02
     19  0.921639D-03 -0.508268D-02 -0.603918D-04 -0.151878D-01  0.138871D-01
     20 -0.213653D-02 -0.673586D-02  0.319908D-03 -0.490523D-01 -0.140603D-01
     21 -0.120995D-03  0.269650D-03  0.105829D-01  0.658292D-03  0.636434D-03
                6             7             8             9            10 
      6  0.141569D+00
      7  0.966280D-03  0.549252D+00
      8  0.731697D-02  0.135878D+00  0.499243D+00
      9 -0.523179D-01  0.570490D-02 -0.690168D-02  0.512181D-01
     10  0.571028D-03 -0.641542D-02 -0.150388D-02 -0.180813D-03  0.737835D-01
     11  0.218499D-03 -0.248005D-02  0.316089D-03  0.745530D-04  0.797092D-01
     12  0.374912D-02 -0.160732D-03  0.912162D-04  0.599314D-02 -0.604109D-03
     13 -0.934085D-03  0.352159D-02  0.683314D-03  0.112382D-03  0.927183D-02
     14 -0.189483D-03  0.173037D-03  0.155852D-03 -0.802722D-04  0.190868D-01
     15  0.586507D-02  0.122879D-03 -0.715706D-04 -0.388710D-02 -0.305628D-03
     16 -0.483901D-02  0.126268D-01 -0.629427D-02 -0.793528D-04  0.792508D-03
     17  0.466919D-02  0.191880D-01 -0.359976D-01  0.157913D-02  0.670801D-03
     18 -0.532635D-01 -0.603462D-03  0.114449D-02  0.248349D-01  0.423479D-04
     19 -0.636218D-03 -0.410999D+00 -0.589736D-01 -0.536273D-02 -0.714352D-03
     20 -0.437194D-03  0.399878D-02 -0.407440D-01  0.381522D-03 -0.163293D-02
     21  0.536360D-02 -0.665790D-02 -0.692668D-03 -0.256097D-01  0.397772D-04
               11            12            13            14            15 
     11  0.348604D+00
     12 -0.554099D-02  0.131935D-01
     13 -0.798625D-02  0.251191D-03  0.214484D+00
     14 -0.110593D-01  0.638901D-03 -0.158913D+00  0.204274D+00
     15  0.177111D-03  0.416640D-02  0.667001D-02 -0.660216D-02  0.153131D-01
     16 -0.617599D-03  0.688441D-04 -0.457122D-02 -0.224438D-02 -0.131540D-03
     17  0.482934D-03 -0.498817D-04 -0.230136D-02  0.149282D-03  0.779066D-04
     18 -0.718634D-04 -0.249665D-02 -0.130371D-03  0.788845D-04  0.584236D-02
     19 -0.202801D-03  0.103627D-04  0.905016D-03  0.164264D-03  0.173884D-04
     20  0.437535D-04 -0.509132D-04 -0.230797D-03 -0.574035D-04 -0.918260D-05
     21 -0.265189D-04 -0.107618D-02  0.255149D-04 -0.244397D-05 -0.311979D-03
               16            17            18            19            20 
     16  0.198679D+00
     17 -0.134230D+00  0.201912D+00
     18  0.567408D-02 -0.586891D-02  0.280958D-01
     19  0.388261D-02  0.507364D-03  0.213755D-03  0.421192D+00
     20 -0.646494D-03  0.270947D-02 -0.257210D-03  0.497003D-01  0.588444D-01
     21  0.237477D-03 -0.237523D-03 -0.925133D-02  0.581783D-02  0.530700D-04
               21 
     21  0.203027D-01
 Final forces over variables, Energy=-1.33231512D+02:
 -6.23935339D-07 6.93542835D-07-4.24993905D-07-3.14458556D-09
 -6.71686629D-08 2.74872348D-07 1.50827228D-07-2.56511231D-07
  9.54603888D-07-1.88692035D-07-2.53632884D-07 1.04229160D-07
 -3.48686958D-07-1.13099669D-08 1.07882669D-07-2.08726602D-07
  7.52342158D-08-2.66939066D-08-2.13914832D-08 8.38792827D-08
 -1.01841769D-08
 Leave Link  716 at Sat Nov 12 22:11:43 2022, MaxMem=   939524096 cpu:         0.1
 (Enter /Local/ce_dana/g09/l103.exe)

 GradGradGradGradGradGradGradGradGradGradGradGradGradGradGradGradGradGrad
 Berny optimization.
 Search for a local minimum.
 Step number   1 out of a maximum of    2
 All quantities printed in internal units (Hartrees-Bohrs-Radians)
 Second derivative matrix not updated -- analytic derivatives used.
 ITU=  0
     Eigenvalues ---    0.01474   0.02097   0.02926   0.05660   0.07712
     Eigenvalues ---    0.07967   0.13816   0.17451   0.18719   0.31949
     Eigenvalues ---    0.51748   0.72356   0.89656   0.97691   1.16500
 Angle between quadratic step and forces=  38.11 degrees.
 Linear search not attempted -- first point.
 TrRot=  0.000000  0.000000  0.000000  0.000000  0.000000  0.000000
 Variable       Old X    -DE/DX   Delta X   Delta X   Delta X     New X
                                 (Linear)    (Quad)   (Total)
    X1       -1.97072  -0.00000   0.00000  -0.00000  -0.00000  -1.97072
    Y1       -0.32745  -0.00000   0.00000  -0.00000  -0.00000  -0.32745
    Z1       -0.02688   0.00000   0.00000   0.00000   0.00000  -0.02688
    X2        0.56422   0.00000   0.00000   0.00000   0.00000   0.56422
    Y2        0.41242   0.00000   0.00000   0.00000   0.00000   0.41242
    Z2        0.00114  -0.00000   0.00000  -0.00000  -0.00000   0.00114
    X3        1.17834  -0.00000   0.00000   0.00000  -0.00000   1.17834
    Y3        2.80245  -0.00000   0.00000   0.00000   0.00000   2.80245
    Z3       -0.03754   0.00000   0.00000   0.00000   0.00000  -0.03754
    X4       -2.49958  -0.00000   0.00000  -0.00000  -0.00000  -2.49958
    Y4       -2.29724  -0.00000   0.00000  -0.00000  -0.00000  -2.29724
    Z4        0.00461  -0.00000   0.00000  -0.00000  -0.00000   0.00461
    X5       -3.42944  -0.00000   0.00000  -0.00000  -0.00000  -3.42944
    Y5        1.09992   0.00000   0.00000   0.00000   0.00000   1.09993
    Z5       -0.08112  -0.00000   0.00000  -0.00000   0.00000  -0.08112
    X6        1.98753   0.00000   0.00000   0.00000   0.00000   1.98753
    Y6       -1.08150  -0.00000   0.00000  -0.00000  -0.00000  -1.08150
    Z6        0.05614   0.00000   0.00000   0.00000   0.00000   0.05614
    X7        3.09437   0.00000   0.00000   0.00000   0.00000   3.09437
    Y7        2.99866  -0.00000   0.00000  -0.00000   0.00000   2.99866
    Z7       -0.00889  -0.00000   0.00000  -0.00000  -0.00000  -0.00889
         Item               Value     Threshold  Converged?
 Maximum Force            0.000001     0.000450     YES
 RMS     Force            0.000000     0.000300     YES
 Maximum Displacement     0.000001     0.001800     YES
 RMS     Displacement     0.000001     0.001200     YES
 Predicted change in Energy=-2.100608D-12
 Optimization completed.
    -- Stationary point found.
 GradGradGradGradGradGradGradGradGradGradGradGradGradGradGradGradGradGrad

 Leave Link  103 at Sat Nov 12 22:11:43 2022, MaxMem=   939524096 cpu:         0.0
 (Enter /Local/ce_dana/g09/l9999.exe)

 Test job not archived.
 1\1\GINC-TECH-WN164\Freq\UB2PLYPD3-FC\def2TZVP\C2H4N1(2)\ALONGD\12-Nov
 -2022\0\\#P guess=read ub2plypd3/def2tzvp freq IOp(7/33=1) scf=(tight,
  direct) integral=(grid=ultrafine, Acc2E=12) IOp(2/9=2000) scf=xqc\\2-
 Iminoethyl\\0,2\C,-1.042859,-0.17328,-0.014226\C,0.298574,0.218244,0.0
 00604\N,0.623553,1.482993,-0.019865\H,-1.322723,-1.215646,0.002439\H,-
 1.814779,0.582055,-0.042928\H,1.051753,-0.572305,0.02971\H,1.637472,1.
 58682,-0.004705\\Version=ES64L-G09RevD.01\State=2-A\HF=-133.0717398\MP
 2=-133.2315121\S2=0.82767\S2-1=0.\S2A=0.750898\RMSD=7.577e-09\RMSF=3.4
 03e-07\ZeroPoint=0.0554718\Thermal=0.0590461\Dipole=0.2149885,-0.75152
 56,0.019124\DipoleDeriv=-0.047288,0.0937562,0.0016762,0.0080387,0.1740
 722,-0.0087616,0.0034386,-0.0072999,-0.2583853,0.3040008,-0.1703064,0.
 0085416,-0.0549991,0.1813633,-0.0044911,0.0061699,-0.0064579,0.0088344
 ,-0.2549425,-0.0168314,0.0034647,-0.1464096,-0.4602811,-0.0020346,0.00
 61298,0.000176,-0.4376628,0.0470836,0.004597,-0.0017369,-0.0390075,-0.
 0451944,0.0032126,-0.0008399,0.0039567,0.143266,0.0146033,0.0013465,-0
 .0022239,0.0595281,0.0080862,0.0037975,-0.0034203,0.0028051,0.1432386,
 -0.0518639,0.110659,-0.0058525,0.0918493,-0.1148179,0.0071738,-0.00546
 55,0.0074945,0.1575634,-0.0115932,-0.0232209,-0.0038692,0.0810001,0.25
 67717,0.0011033,-0.0060128,-0.0006745,0.2431456\Polar=39.7647935,8.486
 5255,38.1150804,0.1497876,-0.2123577,20.7582366\PG=C01 [X(C2H4N1)]\NIm
 ag=0\\0.61941197,-0.00558106,0.67432853,0.00923946,-0.01222662,0.08489
 244,-0.28362759,-0.03164965,-0.00331935,0.62183516,0.04651908,-0.09191
 389,0.00163761,-0.07778653,0.65437450,-0.00492711,0.00030414,-0.050965
 01,0.00979911,-0.01188213,0.14156861,-0.03383401,-0.05838132,0.0006280
 3,-0.11415221,-0.09837613,0.00096628,0.54925187,-0.10575986,-0.0448622
 9,-0.00088676,0.03597059,-0.37811073,0.00731697,0.13587766,0.49924269,
 0.00160251,-0.00007853,-0.00023154,-0.00179690,0.00502528,-0.05231786,
 0.00570490,-0.00690168,0.05121811,-0.07922920,-0.06754376,0.00043740,0
 .00251109,-0.02878624,0.00057103,-0.00641542,-0.00150388,-0.00018081,0
 .07378355,-0.07295116,-0.33526373,0.00516921,0.00452868,-0.00312341,0.
 00021850,-0.00248005,0.00031609,0.00007455,0.07970918,0.34860363,0.000
 54864,0.00526149,-0.02352935,-0.00011420,-0.00034983,0.00374912,-0.000
 16073,0.00009122,0.00599314,-0.00060411,-0.00554099,0.01319351,-0.2050
 3639,0.14361113,-0.00599464,-0.01857508,0.02513719,-0.00093409,0.00352
 159,0.00068331,0.00011238,0.00927183,-0.00798625,0.00025119,0.21448425
 ,0.14800012,-0.20335485,0.00615657,-0.00626664,0.00989257,-0.00018948,
 0.00017304,0.00015585,-0.00008027,0.01908683,-0.01105927,0.00063890,-0
 .15891324,0.20427382,-0.00608488,0.00608168,-0.02698789,-0.00028823,0.
 00034621,0.00586507,0.00012288,-0.00007157,-0.00388710,-0.00030563,0.0
 0017711,0.00416640,0.00667001,-0.00660216,0.01531313,-0.01860642,0.024
 62733,-0.00093050,-0.19280352,0.11940550,-0.00483901,0.01262682,-0.006
 29427,-0.00007935,0.00079251,-0.00061760,0.00006884,-0.00457122,-0.002
 24438,-0.00013154,0.19867923,-0.00809059,0.00780210,-0.00016991,0.1242
 5586,-0.17705869,0.00466919,0.01918801,-0.03599758,0.00157913,0.000670
 80,0.00048293,-0.00004988,-0.00230136,0.00014928,0.00007791,-0.1342300
 9,0.20191249,-0.00025763,0.00038819,0.00623846,-0.00493872,0.00458642,
 -0.05326353,-0.00060346,0.00114449,0.02483492,0.00004235,-0.00007186,-
 0.00249665,-0.00013037,0.00007888,0.00584236,0.00567408,-0.00586891,0.
 02809577,0.00092164,-0.00508268,-0.00006039,-0.01518784,0.01388712,-0.
 00063622,-0.41099864,-0.05897355,-0.00536273,-0.00071435,-0.00020280,0
 .00001036,0.00090502,0.00016426,0.00001739,0.00388261,0.00050736,0.000
 21375,0.42119156,-0.00213653,-0.00673586,0.00031991,-0.04905231,-0.014
 06035,-0.00043719,0.00399878,-0.04074403,0.00038152,-0.00163293,0.0000
 4375,-0.00005091,-0.00023080,-0.00005740,-0.00000918,-0.00064649,0.002
 70947,-0.00025721,0.04970028,0.05884442,-0.00012100,0.00026965,0.01058
 288,0.00065829,0.00063643,0.00536360,-0.00665790,-0.00069267,-0.025609
 67,0.00003978,-0.00002652,-0.00107618,0.00002551,-0.00000244,-0.000311
 98,0.00023748,-0.00023752,-0.00925133,0.00581783,0.00005307,0.02030268
 \\0.00000062,0.00000026,-0.00000011,-0.00000069,-0.00000095,0.00000021
 ,0.00000042,0.00000019,-0.00000008,0.,0.00000025,0.00000003,0.00000007
 ,-0.00000010,0.00000002,-0.00000027,0.00000035,-0.00000008,-0.00000015
 ,0.00000001,0.00000001\\\@


 THE WORLD IS MADE UP OF THE WILLS, THE WON'TS, AND THE CANT'S:
 THE WILLS DO EVERYTHING,
 THE WON'TS DO NOTHING,
 THE CAN'TS CAN'T DO ANYTHING.

                               -- FROM WALT DISNEY'S "BLACK HOLE"
 Job cpu time:       0 days  0 hours 36 minutes 42.1 seconds.
 File lengths (MBytes):  RWF=   1934 Int=      0 D2E=      0 Chk=      3 Scr=      1
 Normal termination of Gaussian 09 at Sat Nov 12 22:11:44 2022.
