
 Working directory              : /var/lib/condor/execute/dir_183930/molpro.Rnor80VpYo/
 Global scratch directory       : /var/lib/condor/execute/dir_183930/molpro.Rnor80VpYo/
 Wavefunction directory         : /srv01/technion/alongd/wfu/
 Main file repository           : /var/lib/condor/execute/dir_183930/molpro.Rnor80VpYo/

 id        : dana

 Nodes     nprocs
 tech-wn208    9
 Distribution of processes:   nprocs(total)=   10   nprocs(compute)=    9   nprocs(helper)=    1
 GA implementation: MPI file
 GA implementation (serial work in mppx): MPI file

 Using customized tuning parameters: mindgm=1; mindgv=20; mindgc=4; mindgr=1; noblas=0; minvec=7
 default implementation of scratch files=sf  


 Variables initialized (1009), CPU time= 0.01 sec
 ***,2-Iminoethyl
 memory,90,m;
 file,1,file1.int                                                                !allocate permanent integral file
 file,2,file2.wfu                                                                !allocate permanent wave-function (dump) file
 
 geometry={angstrom;
 C      -1.04285900   -0.17328000   -0.01422600
 C       0.29857400    0.21824400    0.00060400
 N       0.62355300    1.48299300   -0.01986500
 H      -1.32272300   -1.21564600    0.00243900
 H      -1.81477900    0.58205500   -0.04292800
 H       1.05175300   -0.57230500    0.02971000
 H       1.63747200    1.58682000   -0.00470500}
 
 basis=cc-pvtz-f12
 
 
 
 int;
 {hf;
 maxit,1000;
 wf,spin=1,charge=0;}
 
 uccsd(t)-f12;
 
 
 
 Commands initialized (810), CPU time= 0.02 sec, 661 directives.
 Default parameters read. Elapsed time= 0.40 sec

 Checking input...
 Passed
1


                                         ***  PROGRAM SYSTEM MOLPRO  ***
                                       Copyright, TTI GmbH Stuttgart, 2015
                                    Version 2021.2 linked Jul 16 2021 12:17:16


 **********************************************************************************************************************************
 LABEL *   2-Iminoethyl                                                                  
  64 bit mpp version                                                                     DATE: 12-Nov-22          TIME: 22:06:24  
 **********************************************************************************************************************************

 SHA1:             dade016a989826d9d859d6207854b99675d53db3
 **********************************************************************************************************************************

 Memory per process:        90 MW
 Total memory per node:    810 MW

 GA preallocation disabled
 GA check disabled

 Variable memory set to 90.0 MW



 Permanent file  1  file1.int        assigned.  Implementation=df  
 Permanent file  2  file2.wfu        assigned.  Implementation=df    Size= 26.78 MB


 PROGRAM * RESTART 


 Reading variables from file 2

 _FNUC           =      0.00000000
 _BASIS          =    CC-PVTZ-F12
 _NELEC          =     23.00000000
 _PROGRAM        =    UCCSD(T)-F12
 _DMX_SCF        =     -0.18726881
 _DMY_SCF        =     -0.03330868
 _DMZ_SCF        =      0.14918982
 _HOMO           =     12.10000000
 _EHOMO          =     -0.42459511
 _LUMO           =     13.10000000
 _ELUMO          =      0.05774179
 _EMP2           =   -168.87426980
 _EMP2_SING      =     -0.37679338
 _EMP2_TRIP      =     -0.22733740
 _EMP2_SINGLES   =     -0.00289537
 _EMP2_SCS       =   -168.86403614
 _ECSING(1:2)    =     -0.45051168    -0.44227948
 _ECTRIP(1:2)    =     -0.20672291    -0.20608128
 _ECTRIPAB(1:2)  =     -0.06967028    -0.06945639
 _ECTRIPAA(1:2)  =     -0.07416794    -0.07394117
 _ECTRIPBB(1:2)  =     -0.06288469    -0.06268373
 _ECSINGLES      =     -0.00416776
 _EF12           =     -0.05078624
 _EF12_SING      =     -0.04513251
 _EF12_TRIP      =     -0.00565372
 _ECSING_F12(1:2)=     -0.04461845    -0.03638625
 _ECTRIP_F12(1:2)=     -0.00542126    -0.00477963
 _ECTRIPAB_F12(1:2)   =     -0.00180839    -0.00159449
 _ECTRIPAA_F12(1:2)   =     -0.00198828    -0.00176151
 _ECTRIPBB_F12(1:2)   =     -0.00162459    -0.00142363
 _EF12_RHFRELAX  =     -0.00151050
 _EF12_CONVSUPPRS=     -0.00049061
 _EF12_CONVSUPPRT=     -0.00022555
 _EF12_SINGLES   =     -0.00151539
 _EF12_SCS       =     -0.05767734
 _EF12S          =     -0.05056793
 _EF12S_SING     =     -0.04512159
 _EF12S_TRIP     =     -0.00544633
 _EF12S_SCS      =     -0.05753533
 _EF12D          =     -0.05073898
 _EF12D_SING     =     -0.04526972
 _EF12D_TRIP     =     -0.00546925
 _EF12D_SCS      =     -0.05772730
 _EF12F          =     -0.05359399
 _EF12F_SING     =     -0.04780458
 _EF12F_TRIP     =     -0.00578941
 _EF12F_SCS      =     -0.06096817
 _ENERGC(1:2)    =   -168.92864621  -168.91977238
 _ENERG_CC(1:2)  =      0.00000000     0.00000000
 _ENERG_CV(1:2)  =      0.00000000     0.00000000
 _ENERG_VV(1:2)  =     -0.66140235    -0.65252853
 _ENERGR         =   -168.26724385
 _ENERGT(1:6)    =   -168.95842997  -168.96051522  -168.95791134  -168.94955614  -168.95164140  -168.94903751
 _ENERGY(1:2)    =   -168.95842997  -168.94955614
 _ENERGY_METHOD  =    UCCSD(T)-F12
 _ENERGY_BASIS   =    cc-pVTZ-F12
 _ENUC           =     63.37181514
 _IPROC_MPP      =      0.00000000
 _IPROC_MPPX     =      0.00000000
 _ORBITAL        =   2103.20000000
 _ECDIAG(1:2)    =     -0.12763462    -0.12536254
 _EPDIAG(1:2)    =     -0.12763462    -0.12536254
 _STATUS         =      1.00000000
 _T1DIAG         =      0.03137318
 _D1DIAG         =      0.09998198
 _D2DIAG         =      0.18722006
 !DFBASIS_MP2    =    CC-PVTZ-F12-MP2FIT
 !DFBASIS_F12K   =    VTZ-F12-JKFIT
 !RIBASIS_MP2    =    CC-PVTZ-F12_OPT
 !RIBASIS_EXCH   =     
 _METHODC        =    UCCSD-F12a
 _METHODC        =    UCCSD-F12b
 _METHODT        =    UCCSD(T)-F12a
 _METHODT        =    UCCSD[T]-F12a
 _METHODT        =    UCCSD-T-F12a
 _METHODT        =    UCCSD(T)-F12b
 _METHODT        =    UCCSD[T]-F12b
 _METHODT        =    UCCSD-T-F12b
 _OUTPUT         =    /storage/ce_dana/alongd/runs/ARC/arkane_examples/thermo3/calcs/Species/Ethynol/sp_a48600/input.out
 _PGROUP         =    C1  
 _TIME           =    20:17:33
 _ANSATZ         =    F12/3C(FIX)
 _SVDDEL         =      0.00000000
 _SYM_CATION     =      1.00000000

 Geometry written to block  1 of record 702


 **********************************************************************************************************************************
 DATASETS  * FILE   NREC   LENGTH (MB)   RECORD NAMES
              1       2       11.48       500      702   
                                          VAR     GEOM   

              2      17       26.78       500      610      700     1000      520     2100     7360     7350      701     1001   
                                          VAR    BASINP    GEOM     BASIS   MCVARS     RHF    F12ABS    EF12     GEOM     BASIS   
                                         2101      701(1)  1002     2102      702     1003     2103   
                                          RHF     GEOM     BASIS     RHF     GEOM     BASIS     RHF  

 PROGRAMS   *        TOTAL   RESTART
 CPU TIMES  *         0.59      0.32
 REAL TIME  *         1.90 SEC
 DISK USED  *        38.26 MB (local),      344.35 MB (total)
 **********************************************************************************************************************************

 Geometry recognized as XYZ

 SETTING BASIS          =    CC-PVTZ-F12


 Using spherical harmonics

 Library entry C      S cc-pVTZ-F12          selected for orbital group  1
 Library entry C      P cc-pVTZ-F12          selected for orbital group  1
 Library entry C      D cc-pVTZ-F12          selected for orbital group  1
 Library entry C      F cc-pVTZ-F12          selected for orbital group  1
 Library entry N      S cc-pVTZ-F12          selected for orbital group  2
 Library entry N      P cc-pVTZ-F12          selected for orbital group  2
 Library entry N      D cc-pVTZ-F12          selected for orbital group  2
 Library entry N      F cc-pVTZ-F12          selected for orbital group  2
 Library entry H      S cc-pVTZ-F12          selected for orbital group  3
 Library entry H      P cc-pVTZ-F12          selected for orbital group  3
 Library entry H      D cc-pVTZ-F12          selected for orbital group  3


 PROGRAM * SEWARD (Integral evaluation for generally contracted gaussian basis sets)     Author: Roland Lindh, 1990

 Geometry written to block  1 of record 703


 Point group  C1  



 ATOMIC COORDINATES

 NR  ATOM    CHARGE       X              Y              Z

   1  C       6.00   -1.970717897   -0.327451743   -0.026883244
   2  C       6.00    0.564223088    0.412421388    0.001141395
   3  N       7.00    1.178344394    2.802450615   -0.037539409
   4  H       1.00   -2.499584209   -2.297238004    0.004609042
   5  H       1.00   -3.429435287    1.099924539   -0.081122163
   6  H       1.00    1.987525121   -1.081499710    0.056143763
   7  H       1.00    3.094373617    2.998655209   -0.008891161

 Bond lengths in Bohr (Angstrom)

 1-2  2.640856570  1-4  2.039791474  1-5  2.041617333  2-3  2.467971006  2-6  2.064125525
     ( 1.397481114)     ( 1.079411163)     ( 1.080377366)     ( 1.305994014)     ( 1.092288188)

 3-7  1.926261910
     ( 1.019333905)

 Bond angles

  1-2-3  120.66425247   1-2-6  117.34838889   2-1-4  121.28270396   2-1-5  119.35657781

  2-3-7  110.23811519   3-2-6  121.98735864   4-1-5  119.36071823

 NUCLEAR CHARGE:                   23
 NUMBER OF PRIMITIVE AOS:         300
 NUMBER OF SYMMETRY AOS:          269
 NUMBER OF CONTRACTIONS:          231   (  231A   )
 NUMBER OF INNER CORE ORBITALS:     0   (    0A   )
 NUMBER OF OUTER CORE ORBITALS:     3   (    3A   )
 NUMBER OF VALENCE ORBITALS:       16   (   16A   )

 MOLECULE CHANGED: INITIALIZING OCCUPATION AND DUMP RECORDS


 NUCLEAR REPULSION ENERGY   65.10092597


 Eigenvalues of metric

         1 0.707E-04 0.110E-03 0.117E-03 0.157E-03 0.174E-03 0.185E-03 0.218E-03 0.248E-03


 Contracted 2-electron integrals neglected if value below      1.0D-11
 AO integral compression algorithm  1   Integral accuracy      1.0D-11

     1592.787 MB (compressed) written to integral file ( 48.2%)

     Node minimum: 172.753 MB, node maximum: 181.142 MB


 NUMBER OF SORTED TWO-ELECTRON INTEGRALS:   39894777.     BUFFER LENGTH:  32768
 NUMBER OF SEGMENTS:   3  SEGMENT LENGTH:   15998004      RECORD LENGTH: 524288

 Memory used in sort:      16.56 MW

 SORT1 READ   412715637. AND WROTE    38425745. INTEGRALS IN    111 RECORDS. CPU TIME:     8.94 SEC, REAL TIME:     9.73 SEC
 SORT2 READ   346635107. AND WROTE   359026206. INTEGRALS IN   6057 RECORDS. CPU TIME:     0.78 SEC, REAL TIME:     3.20 SEC

 Node minimum:    39879892.  Node maximum:    39903711. integrals

 OPERATOR DM      FOR CENTER  0  COORDINATES:    0.000000    0.000000    0.000000


 **********************************************************************************************************************************
 DATASETS  * FILE   NREC   LENGTH (MB)   RECORD NAMES
              1      19       30.81       500      702      610      703      900      950      970     1004      129      960   
                                          VAR     GEOM    BASINP    GEOM    SYMINP    ZMAT    AOBASIS   BASIS     P2S    ABASIS    
                                         1100     1400     1410     1200     1210     1080     1600     1650     1700   
                                           S        T        V       H0       H01     AOSYM     SMH    MOLCAS    OPER   

              2      19       27.38       500      610      700     1000      520     2100     7360     7350      701     1001   
                                          VAR    BASINP    GEOM     BASIS   MCVARS     RHF    F12ABS    EF12     GEOM     BASIS   
                                         2101      701(1)  1002     2102      702     1003     2103      703     1004   
                                          RHF     GEOM     BASIS     RHF     GEOM     BASIS     RHF     GEOM     BASIS   

 PROGRAMS   *        TOTAL       INT   RESTART
 CPU TIMES  *        12.25     11.66      0.32
 REAL TIME  *        18.76 SEC
 DISK USED  *        58.26 MB (local),        5.80 GB (total)
 GA USED    *         0.00 MB       (max)       0.00 MB       (current)
 **********************************************************************************************************************************


 Program * Restricted Hartree-Fock

 Orbital guess generated from atomic densities. Full valence occupancy:   19

 Initial alpha occupancy:  12
 Initial beta  occupancy:  11

 NELEC=   23   SYM=1   MS2= 1   THRE=1.0D-08   THRD=3.2D-06   THRG=3.2D-06  HFMA2=F  DIIS_START=2   DIIS_MAX=10   DIIS_INCORE=F

 Level shifts:    0.00 (CLOSED)    0.00 (OPEN)    0.30 (GAP_MIN)

 ITER           ETOT              DE          GRAD        DDIFF     DIIS  NEXP   TIME(IT)  TIME(TOT)  DIAG
   1     -132.46888821    -132.46888821     0.00D+00     0.41D-01     0     0       0.47      0.95    start
   2     -132.49569267      -0.02680446     0.30D-02     0.31D-02     1     0       0.44      1.39    diag2
   3     -132.49978843      -0.00409576     0.13D-02     0.11D-02     2     0       0.41      1.80    diag2
   4     -132.50113403      -0.00134561     0.53D-03     0.44D-03     3     0       0.45      2.25    diag2
   5     -132.50168550      -0.00055146     0.15D-03     0.17D-03     4     0       0.45      2.70    diag2
   6     -132.50222763      -0.00054213     0.12D-03     0.15D-03     5     0       0.44      3.14    diag2
   7     -132.50320643      -0.00097880     0.10D-03     0.33D-03     6     0       0.45      3.59    diag2
   8     -132.50360298      -0.00039655     0.69D-04     0.35D-03     7     0       0.44      4.03    diag2
   9     -132.50354501       0.00005797     0.38D-04     0.15D-03     8     0       0.40      4.43    diag2
  10     -132.50359900      -0.00005399     0.60D-04     0.21D-03     9     0       0.44      4.87    diag2/orth
  11     -132.50361657      -0.00001758     0.33D-04     0.82D-04     9     0       0.45      5.32    diag2
  12     -132.50361768      -0.00000111     0.85D-05     0.16D-04     9     0       0.48      5.80    diag2
  13     -132.50361769      -0.00000001     0.11D-05     0.19D-05     9     0       0.44      6.24    diag2
  14     -132.50361770      -0.00000000     0.66D-06     0.86D-06     9     0       0.55      6.79    diag2
  15     -132.50361770      -0.00000000     0.12D-06     0.12D-06     0     0       0.46      7.25    diag

 Final alpha occupancy:  12
 Final beta  occupancy:  11

 !RHF STATE 1.1 Energy               -132.503617697601
  RHF One-electron energy            -307.228360288993
  RHF Two-electron energy             109.623816619312
  RHF Kinetic energy                  132.357975499750
  RHF Nuclear energy                   65.100925972080
  RHF Virial quotient                  -1.001100365862

 !RHF STATE 1.1 Dipole moment           0.15168036    -0.91233193     0.02135144
 Dipole moment /Debye                   0.38553302    -2.31891645     0.05426996

 Orbital energies:

           1.1          2.1          3.1          4.1          5.1          6.1          7.1          8.1          9.1         10.1
    -15.555264   -11.284329   -11.248226    -1.200495    -0.987585    -0.774921    -0.700272    -0.594681    -0.569871    -0.460527

          11.1         12.1         13.1         14.1
     -0.433002    -0.362372     0.049029     0.050807


 HOMO     12.1    -0.362372 =      -9.8606eV
 LUMO     13.1     0.049029 =       1.3341eV
 LUMO-HOMO         0.411401 =      11.1948eV

 Orbitals saved in record  2104.2


 **********************************************************************************************************************************
 DATASETS  * FILE   NREC   LENGTH (MB)   RECORD NAMES
              1      19       30.81       500      702      610      703      900      950      970     1004      129      960   
                                          VAR     GEOM    BASINP    GEOM    SYMINP    ZMAT    AOBASIS   BASIS     P2S    ABASIS    
                                         1100     1400     1410     1200     1210     1080     1600     1650     1700   
                                           S        T        V       H0       H01     AOSYM     SMH    MOLCAS    OPER   

              2      20       31.39       500      610      700     1000      520     2100     7360     7350      701     1001   
                                          VAR    BASINP    GEOM     BASIS   MCVARS     RHF    F12ABS    EF12     GEOM     BASIS   
                                         2101      701(1)  1002     2102      702     1003     2103      703     1004     2104   
                                          RHF     GEOM     BASIS     RHF     GEOM     BASIS     RHF     GEOM     BASIS     RHF  

 PROGRAMS   *        TOTAL    HF-SCF       INT   RESTART
 CPU TIMES  *        19.59      7.28     11.66      0.32
 REAL TIME  *        26.72 SEC
 DISK USED  *        69.63 MB (local),        5.90 GB (total)
 GA USED    *         0.00 MB       (max)       0.00 MB       (current)
 **********************************************************************************************************************************


 PROGRAM * CCSD (Unrestricted open-shell coupled cluster)     Authors: C. Hampel, H.-J. Werner, 1991, M. Deegan, P.J. Knowles, 1992

                           UCCSD-F12 implementation by G. Knizia and H.-J. Werner, 2008

                   Density fitting integral evaluation by F.R. Manby, 2003,2007, G. Knizia, 2010


 Basis set VTZ-F12/JKFIT generated.      Number of basis functions:   496 
 Basis set CC-PVTZ-F12/OPTRI generated.  Number of basis functions:   389 
 Basis set CC-PVTZ-F12/MP2FIT generated. Number of basis functions:   502 

 Convergence thresholds:  THRVAR = 1.00D-08  THRDEN = 1.00D-06

 CCSD(T)     terms to be evaluated (factor= 1.000)


 Number of core orbitals:           3 (   3 )
 Number of closed-shell orbitals:   8 (   8 )
 Number of active  orbitals:        1 (   1 )
 Number of external orbitals:     219 ( 219 )

 For full I/O caching in triples, increase memory by 89.66 Mwords to 179.71 Mwords.

 Number of N-1 electron functions:              17
 Number of N-2 electron functions:             136
 Number of singly external CSFs:              3740
 Number of doubly external CSFs:           5026560
 Total number of CSFs:                     5030300

 Molecular orbitals read from record     2104.2  Type=RHF/CANONICAL  

 Integral transformation finished. Total CPU:   7.20 sec, npass=  1  Memory used:  67.09 MW

 Geminal basis:    OPTFULL  GEM_TYPE=SLATER  BETA=1.0  NGEM=6

 Optimizing Gaussian exponents for each gem_beta

 Geminal optimization for beta= 1.0000
 Weight function:   m=0, omega= 1.4646

 Augmented Hessian optimization of geminal fit. Trust ratio= 0.40000
 Convergence reached after   2 iterations. Final gradient= 8.66D-16, Step= 4.23D-06, Delta= 1.28D-09

 Alpha:                 0.19532     0.81920     2.85917     9.50073    35.69989   197.79328
 Coeff:                 0.27070     0.30552     0.18297     0.10986     0.06810     0.04224


 WFN_F12=FIX,EG    DECOUPLE_EXPL=F   HYBRID=0    NOX=F   SEMIINT_F12=T   CORE_SINGLES=F


 AO(A)-basis ORBITAL           loaded. Number of functions:     231
 RI(R)-basis CC-PVTZ-F12/OPTRI loaded. Number of functions:     389
 DF-basis VTZ-F12/JKFIT        loaded. Number of functions:     496

 Screening thresholds:   THRAO=  1.00D-10  THRMO=  1.00D-09  THRPROD=  1.00D-09
                         THRSW=  1.00D-05  THROV=  1.00D-12  THRAOF12= 1.00D-08

 CPU time for one-electron matrices               0.73 sec

 Construction of ABS:
 Pseudo-inverse stability          1.02E-11
 Smallest eigenvalue of S          8.67E-05  (threshold= 1.00E-08)
 Ratio eigmin/eigmax               1.07E-05  (threshold= 1.00E-09)
 Smallest eigenvalue of S kept     8.67E-05  (threshold= 8.67E-05, 0 functions deleted, 389 kept)

 Construction of CABS:
 Pseudo-inverse stability          4.00E-10
 Smallest eigenvalue of S          4.07E-07  (threshold= 1.00E-08)
 Ratio eigmin/eigmax               4.07E-07  (threshold= 1.00E-09)
 Smallest eigenvalue of S kept     4.07E-07  (threshold= 4.07E-07, 0 functions deleted, 389 kept)

 CPU time for basis constructions                 0.05 sec
 Fock operators(MO) rebuilt from dump record.
 CPU time for Fock operator transformation        0.10 sec

                                      TOTAL          ALPHA          BETA    
  Singles Contributions MO        -0.004578004   -0.002308099   -0.002269905
  Singles Contributions CABS      -0.001210695   -0.000664471   -0.000546224
  Pure DF-RHF relaxation          -0.001203155

 CPU time for RHF CABS relaxation                 0.12 sec
 CPU time for singles (tot)                       0.27 sec

 AO(A)-basis ORBITAL           loaded. Number of functions:     231
 RI(R)-basis CC-PVTZ-F12/OPTRI loaded. Number of functions:     389
 DF-basis CC-PVTZ-F12/MP2FIT   loaded. Number of functions:     502

 Screening thresholds:   THRAO=  1.00D-10  THRMO=  1.00D-09  THRPROD=  1.00D-09
                         THRSW=  1.00D-05  THROV=  1.00D-12  THRAOF12= 1.00D-08

 CPU time for transformed integrals               3.41 sec
 CPU time for F12 matrices                        2.55 sec

 Diagonal F12 ansatz with fixed amplitudes:   TS= 0.5000  TT= 0.2500  TN= 0.3750

 ITER.     SQ.NORM      CORR.ENERGY   TOTAL ENERGY  ENERGY CHANGE      VAR         CPU   MICRO    DIIS
   1      1.17189889    -0.58026162  -133.08508248    -5.8146E-01   1.67E-01      0.19  1  1  1   0  0
   2      1.17201521    -0.57968700  -133.08450785     5.7462E-04   1.46E-04      0.65  0  0  0   1  1
   3      1.17232540    -0.57993989  -133.08476074    -2.5289E-04   1.53E-06      1.34  0  0  0   2  2
   4      1.17233655    -0.57994193  -133.08476278    -2.0396E-06   1.02E-08      2.02  0  0  0   3  3
   5      1.17233797    -0.57994194  -133.08476279    -1.4125E-08   4.25E-11      2.92  0  0  0   4  4

 - - Continuing with F12/conv. amplitude coupling turned on.

   6      1.17228365    -0.58006227  -133.08488312    -1.2034E-04   4.57E-05      3.53  1  1  1   1  1
   7      1.17228330    -0.58006231  -133.08488316    -4.2333E-08   1.26E-09      4.28  1  1  1   2  2

 CPU time for iterative RMP2-F12                  4.28 sec


 DF-RMP2-F12 doubles corrections:
 - - - - - - - - - - - - - - - - 
  Approx.                             TOTAL           A-B            A-A            B-B    
  RMP2-F12/3C(FIX)                -0.042503992   -0.039890528   -0.001509796   -0.001103668
  RMP2-F12/3*C(FIX)               -0.042383623   -0.039838437   -0.001472579   -0.001072607
  RMP2-F12/3*C(DX)                -0.042427686   -0.039881069   -0.001473429   -0.001073188
  RMP2-F12/3*C(FIX,DX)            -0.043598614   -0.041028578   -0.001483149   -0.001086886

 DF-RMP2-F12 doubles energies:
 - - - - - - - - - - - - - - -
  Approx.                             TOTAL           A-B            A-A            B-B    
  RMP2                            -0.532980313   -0.408322529   -0.069784090   -0.054873695
  RMP2-F12/3C(FIX)                -0.575484305   -0.448213057   -0.071293885   -0.055977363
  RMP2-F12/3*C(FIX)               -0.575363936   -0.448160965   -0.071256669   -0.055946302
  RMP2-F12/3*C(DX)                -0.575408000   -0.448203598   -0.071257519   -0.055946883
  RMP2-F12/3*C(FIX,DX)            -0.576578927   -0.449351107   -0.071267239   -0.055960581


  Reference energy                   -132.503617697601
  CABS relaxation correction to RHF    -0.001203155244
  New reference energy               -132.504820852844

  RMP2-F12 singles (MO) energy         -0.004578003823
  RMP2-F12 pair energy                 -0.575484304939
  RMP2-F12 correlation energy          -0.580062308762

 !RMP2-F12/3C(FIX) energy            -133.084883161607

 Starting RMP2 calculation, locsing= 0

 ITER.      SQ.NORM     CORR.ENERGY   TOTAL ENERGY   ENERGY CHANGE        DEN1      VAR(S)    VAR(P)  DIIS     TIME
   1      1.16945535    -0.53504082  -133.03865852    -0.53504082    -0.00228413  0.89D-04  0.98D-03  1  1    20.05
   2      1.17213319    -0.53753051  -133.04114821    -0.00248969    -0.00001302  0.33D-05  0.69D-05  2  2    20.76
   3      1.17233180    -0.53761839  -133.04123609    -0.00008788    -0.00000013  0.86D-07  0.45D-07  3  3    21.47
   4      1.17234196    -0.53762042  -133.04123812    -0.00000203    -0.00000000  0.15D-08  0.18D-09  4  4    22.14
   5      1.17234252    -0.53762055  -133.04123825    -0.00000013    -0.00000000  0.23D-10  0.34D-11  5  5    22.83

 Norm of t1 vector:      0.06884179      S-energy:    -0.00457798      T1 diagnostic:  0.00134708
 Norm of t2 vector:      0.40939385      P-energy:    -0.53304257
                                         Alpha-Beta:  -0.40853608
                                         Alpha-Alpha: -0.06969012
                                         Beta-Beta:   -0.05481637

 Spin contamination <S**2-Sz**2-Sz>     0.00073447
  Reference energy                   -132.503617697601
  CABS singles correction              -0.001203155244
  New reference energy               -132.504820852844
  RHF-RMP2 correlation energy          -0.537620547879
 !RHF-RMP2 energy                    -133.042441400724

  F12/3C(FIX) correction               -0.042503991640
  RHF-RMP2-F12 correlation energy      -0.580124539519
 !RHF-RMP2-F12 total energy          -133.084945392363

 Starting UCCSD calculation

 ITER.      SQ.NORM     CORR.ENERGY   TOTAL ENERGY   ENERGY CHANGE        DEN1      VAR(S)    VAR(P)  DIIS     TIME
   1      1.17219321    -0.53212734  -133.03574504    -0.53212734    -0.01552276  0.31D-02  0.32D-02  1  1    30.39
   2      1.18994700    -0.54678136  -133.05039906    -0.01465402    -0.00179537  0.46D-03  0.58D-03  2  2    37.23
   3      1.20021239    -0.55036054  -133.05397824    -0.00357918    -0.00041081  0.31D-03  0.88D-04  3  3    44.35
   4      1.20834360    -0.55215863  -133.05577633    -0.00179809    -0.00015487  0.13D-03  0.32D-04  4  4    51.53
   5      1.21627295    -0.55296451  -133.05658221    -0.00080588    -0.00005885  0.60D-04  0.84D-05  5  5    59.07
   6      1.22286719    -0.55342361  -133.05704131    -0.00045910    -0.00001689  0.12D-04  0.45D-05  6  6    66.53
   7      1.22627978    -0.55360621  -133.05722390    -0.00018260    -0.00000362  0.21D-05  0.11D-05  6  2    74.28
   8      1.22775582    -0.55370127  -133.05731897    -0.00009506    -0.00000044  0.22D-06  0.13D-06  6  1    82.18
   9      1.22798797    -0.55370500  -133.05732269    -0.00000373    -0.00000008  0.42D-07  0.22D-07  6  4    90.75
  10      1.22798650    -0.55370523  -133.05732293    -0.00000024    -0.00000002  0.11D-07  0.37D-08  6  3    98.27
  11      1.22802146    -0.55370705  -133.05732475    -0.00000182    -0.00000000  0.29D-08  0.72D-09  6  5   106.20
  12      1.22801615    -0.55370681  -133.05732451     0.00000024    -0.00000000  0.34D-09  0.26D-09  6  6   113.33

 Norm of t1 vector:      0.18969379      S-energy:    -0.00687389      T1 diagnostic:  0.02557435
                                                                       D1 diagnostic:  0.08447535
                                                                       D2 diagnostic:  0.20120964 (internal)
 Norm of t2 vector:      0.43821503      P-energy:    -0.54683293
                                         Alpha-Beta:  -0.43476057
                                         Alpha-Alpha: -0.06343747
                                         Beta-Beta:   -0.04863489

 Singles amplitudes (print threshold =  0.500E-01):

         I         SYM. A    A   T(IA) [Alpha-Alpha]

         7         1        13     -0.05220788

         I         SYM. A    A   T(IA) [Beta-Beta]

         7         1         1      0.11946618
         7         1         9     -0.05411237
         7         1        13      0.05960349

 Doubles amplitudes (print threshold =  0.500E-01):

         I         J         SYM. A    SYM. B    A         B      T(IJ, AB) [Alpha-Beta]

         9         7         1         1        13         1      0.07206014

 Spin contamination <S**2-Sz**2-Sz>     0.00304998

 For minimal I/O algorithm in triples, increase memory by 2.06 Mwords to 92.11 Mwords.

 For full I/O caching in triples, increase memory by 98.40 Mwords to 188.45 Mwords.


 RESULTS
 =======

  Reference energy                   -132.503617697601
  CABS relaxation correction to RHF    -0.001203155244
  New reference energy               -132.504820852844

  F12 corrections for ansatz 3C(FIX) added to UCCSD energy. Coupling mode: 15

  UCCSD-F12a singles energy            -0.006873886889
  UCCSD-F12a pair energy               -0.588908828779
  UCCSD-F12a correlation energy        -0.595782715667
  Triples (T) contribution             -0.025393820535
  Total correlation energy             -0.621176536203

  RHF-UCCSD-F12a energy              -133.100603568512
  RHF-UCCSD[T]-F12a energy           -133.126791882774
  RHF-UCCSD-T-F12a energy            -133.125981507554
 !RHF-UCCSD(T)-F12a energy           -133.125997389047

  F12 corrections for ansatz 3C(FIX) added to UCCSD energy. Coupling mode: 15

  UCCSD-F12b singles energy            -0.006873886889
  UCCSD-F12b pair energy               -0.580722317753
  UCCSD-F12b correlation energy        -0.587596204641
  Triples (T) contribution             -0.025393820535
  Total correlation energy             -0.612990025177

  RHF-UCCSD-F12b energy              -133.092417057485
  RHF-UCCSD[T]-F12b energy           -133.118605371748
  RHF-UCCSD-T-F12b energy            -133.117794996527
 !RHF-UCCSD(T)-F12b energy           -133.117810878021

 Program statistics:

 Available memory in ccsd:                89998450
 Min. memory needed in ccsd:              15025448
 Max. memory used in ccsd:                21131559
 Max. memory used in cckext:              15613131 (13 integral passes)
 Max. memory used in cckint:              67089524 ( 1 integral passes)



 **********************************************************************************************************************************
 DATASETS  * FILE   NREC   LENGTH (MB)   RECORD NAMES
              1      19       30.81       500      702      610      703      900      950      970     1004      129      960   
                                          VAR     GEOM    BASINP    GEOM    SYMINP    ZMAT    AOBASIS   BASIS     P2S    ABASIS    
                                         1100     1400     1410     1200     1210     1080     1600     1650     1700   
                                           S        T        V       H0       H01     AOSYM     SMH    MOLCAS    OPER   

              2      20       31.39       500      610      700     1000      520     2100     7360     7350      701     1001   
                                          VAR    BASINP    GEOM     BASIS   MCVARS     RHF    F12ABS    EF12     GEOM     BASIS   
                                         2101      701(1)  1002     2102      702     1003     2103      703     1004     2104   
                                          RHF     GEOM     BASIS     RHF     GEOM     BASIS     RHF     GEOM     BASIS     RHF  

 PROGRAMS   *        TOTAL  UCCSD(T)    HF-SCF       INT   RESTART
 CPU TIMES  *       221.68    202.06      7.28     11.66      0.32
 REAL TIME  *       280.17 SEC
 DISK USED  *       665.27 MB (local),       11.14 GB (total)
 SF USED    *         5.01 GB
 GA USED    *         3.05 MB       (max)       0.00 MB       (current)
 **********************************************************************************************************************************

 UCCSD(T)-F12/cc-pVTZ-F12 energy=   -133.117810878021

    UCCSD(T)-F12          HF-SCF
   -133.11781088   -132.50361770
 **********************************************************************************************************************************
 Molpro calculation terminated
