
                                 *****************
                                 * O   R   C   A *
                                 *****************

           --- An Ab Initio, DFT and Semiempirical electronic structure package ---

                  #######################################################
                  #                        -***-                        #
                  #  Department of molecular theory and spectroscopy    #
                  #              Directorship: Frank Neese              #
                  # Max Planck Institute for Chemical Energy Conversion #
                  #                  D-45470 Muelheim/Ruhr              #
                  #                       Germany                       #
                  #                                                     #
                  #                  All rights reserved                #
                  #                        -***-                        #
                  #######################################################


                         Program Version 4.0.1.2 - RELEASE -


 With contributions from (in alphabetic order):
   Daniel Aravena         : Magnetic Properties
   Michael Atanasov       : Ab Initio Ligand Field Theory
   Ute Becker             : Parallelization
   Martin Brehm           : Molecular dynamics
   Dmytro Bykov           : SCF Hessian
   Vijay G. Chilkuri      : MRCI spin determinant printing
   Dipayan Datta          : RHF DLPNO-CCSD density
   Achintya Kumar Dutta   : EOM-CC, STEOM-CC
   Dmitry Ganyushin       : Spin-Orbit,Spin-Spin,Magnetic field MRCI
   Yang Guo               : DLPNO-NEVPT2, CIM, IAO-localization
   Andreas Hansen         : Spin unrestricted coupled pair/coupled cluster methods
   Lee Huntington         : MR-EOM, pCC
   Robert Izsak           : Overlap fitted RIJCOSX, COSX-SCS-MP3, EOM
   Christian Kollmar      : KDIIS, OOCD, Brueckner-CCSD(T), CCSD density
   Simone Kossmann        : Meta GGA functionals, TD-DFT gradient, OOMP2, MP2 Hessian
   Martin Krupicka        : AUTO-CI
   Dagmar Lenk            : GEPOL surface
   Dimitrios Liakos       : Extrapolation schemes; parallel MDCI
   Dimitrios Manganas     : ROCIS; embedding schemes
   Dimitrios Pantazis     : SARC Basis sets
   Taras Petrenko         : DFT Hessian,TD-DFT gradient, ASA, ECA, R-Raman, ABS, FL, XAS/XES, NRVS
   Peter Pinski           : DLPNO-MP2
   Christoph Reimann      : Effective Core Potentials
   Marius Retegan         : Local ZFS, SOC
   Christoph Riplinger    : Optimizer, TS searches, QM/MM, DLPNO-CCSD(T), (RO)-DLPNO pert. Triples
   Tobias Risthaus        : Range-separated hybrids, TD-DFT gradient, RPA, STAB
   Michael Roemelt        : Restricted open shell CIS
   Masaaki Saitow         : Open-shell DLPNO
   Barbara Sandhoefer     : DKH picture change effects
   Kantharuban Sivalingam : CASSCF convergence, NEVPT2, FIC-MRCI
   Georgi Stoychev        : AutoAux
   Boris Wezisla          : Elementary symmetry handling
   Frank Wennmohs         : Technical directorship


 We gratefully acknowledge several colleagues who have allowed us to
 interface, adapt or use parts of their codes:
   Stefan Grimme, W. Hujo, H. Kruse,             : VdW corrections, initial TS optimization,
                  C. Bannwarth                     DFT functionals, gCP, sTDA/sTD-DF
   Ed Valeev                                     : LibInt (2-el integral package), F12 methods
   Garnet Chan, S. Sharma, J. Yang, R. Olivares  : DMRG
   Ulf Ekstrom                                   : XCFun DFT Library
   Mihaly Kallay                                 : mrcc  (arbitrary order and MRCC methods)
   Andreas Klamt, Michael Diedenhofen            : otool_cosmo (COSMO solvation model)
   Jiri Pittner, Ondrej Demel                    : Mk-CCSD
   Frank Weinhold                                : gennbo (NPA and NBO analysis)
   Christopher J. Cramer and Donald G. Truhlar   : smd solvation model


 Your calculation uses the libint2 library for the computation of 2-el integrals
 For citations please refer to: http://libint.valeyev.net

 This ORCA versions uses:
   CBLAS   interface :  Fast vector & matrix operations
   LAPACKE interface :  Fast linear algebra routines
   SCALAPACK package :  Parallel linear algebra routines


leaving
Your calculation utilizes the basis: def2-SVP
   F. Weigend and R. Ahlrichs, Phys. Chem. Chem. Phys. 7, 3297 (2005).

================================================================================
                                        WARNINGS
                       Please study these warnings very carefully!
================================================================================

Warning: TCutStore was < 0. Adjusted to Thresh (uncritical)

WARNING: Direct SCF is incompatible with Method<>HF and Method<>DFT
  ===> : conventional SCF is chosen

WARNING: The NDO methods need Guess=HUECKEL or Guess=HCORE or Guess=MOREAD
  ===> : Guess is set to Hueckel

WARNING: The NDO methods need %rel::SOCType==1
  ===> : %rel::SOCType is set to 1

WARNING: The NDO methods cannot have frozencore=1
  ===> : %method FrozenCore=0 end

WARNING: Geometry Optimization
  ===> : Switching off AutoStart
         For restart on a previous wavefunction, please use MOREAD

INFO   : the flag for use of LIBINT has been found!

================================================================================
                                       INPUT FILE
================================================================================
NAME = TS_test.inp
|  1> ! PM3 OptTS NumFreq
|  2> 
|  3> *xyz -1 1
|  4>   C   -1.99283303076949     -0.43906204115263    0.01309547131865
|  5>   Cl  0.08654162182067     -0.43514846620583     -0.01623959206210
|  6>   H   -2.09531444966205     -1.26265127699215    0.70686814906647
|  7>   H   -2.12108831451492     -0.62708960496606     -1.04443065188875
|  8>   H   -2.10329090994441      0.57197871671963    0.38153156676382
|  9>   F   -4.09261491692978     -0.44315732740297    0.04308505680191
| 10> *
| 11> 
| 12> 
| 13>                          ****END OF INPUT****
================================================================================

                       *****************************
                       * Geometry Optimization Run *
                       *****************************

Geometry optimization settings:
Update method            Update   .... Bofill
Choice of coordinates    CoordSys .... Redundant Internals
Initial Hessian          InHess   .... Almoef's Model

Convergence Tolerances:
Energy Change            TolE     ....  5.0000e-06 Eh
Max. Gradient            TolMAXG  ....  3.0000e-04 Eh/bohr
RMS Gradient             TolRMSG  ....  1.0000e-04 Eh/bohr
Max. Displacement        TolMAXD  ....  4.0000e-03 bohr
RMS Displacement         TolRMSD  ....  2.0000e-03 bohr

------------------------------------------------------------------------------
                        ORCA OPTIMIZATION COORDINATE SETUP
------------------------------------------------------------------------------

The optimization will be done in new redundant internal coordinates
Making redundant internal coordinates   ...  (new redundants) done
Following TS mode number                ...     0
Evaluating the initial hessian          ...  (Almloef) done
Evaluating the coordinates              ...  done
Calculating the B-matrix                .... done
Calculating the G-matrix                .... done
Diagonalizing the G-matrix              .... done
The first mode is                       ....    5
The number of degrees of freedom        ....   12

    -----------------------------------------------------------------
                    Redundant Internal Coordinates


    -----------------------------------------------------------------
         Definition                    Initial Value    Approx d2E/dq
    -----------------------------------------------------------------
      1. B(Cl  1,C   0)                  2.0796         0.111313   
      2. B(H   2,C   0)                  1.0817         0.371219   
      3. B(H   3,C   0)                  1.0817         0.371192   
      4. B(H   4,C   0)                  1.0817         0.371202   
      5. B(F   5,H   2)                  2.2586         0.004094   
      6. B(F   5,H   3)                  2.2591         0.004088   
      7. B(F   5,C   0)                  2.1000         0.038301   
      8. B(F   5,H   4)                  2.2589         0.004091   
      9. A(Cl  1,C   0,H   3)           96.0323         0.279537   
     10. A(H   2,C   0,H   3)          118.9096         0.293634   
     11. A(Cl  1,C   0,H   4)           96.0356         0.279538   
     12. A(H   2,C   0,H   4)          118.9137         0.293635   
     13. A(H   3,C   0,H   4)          118.9029         0.293632   
     14. A(H   2,C   0,F   5)           83.9513         0.228553   
     15. A(H   3,C   0,F   5)           83.9769         0.228551   
     16. A(H   4,C   0,F   5)           83.9646         0.228552   
     17. A(Cl  1,C   0,H   2)           96.0392         0.279540   
    -----------------------------------------------------------------

Number of atoms                         .... 6
Number of degrees of freedom            .... 17

         *************************************************************
         *                GEOMETRY OPTIMIZATION CYCLE   1            *
         *************************************************************
---------------------------------
CARTESIAN COORDINATES (ANGSTROEM)
---------------------------------
  C     -1.992833   -0.439062    0.013095
  Cl     0.086542   -0.435148   -0.016240
  H     -2.095314   -1.262651    0.706868
  H     -2.121088   -0.627090   -1.044431
  H     -2.103291    0.571979    0.381532
  F     -4.092615   -0.443157    0.043085

----------------------------
CARTESIAN COORDINATES (A.U.)
----------------------------
  NO LB      ZA    FRAG     MASS         X           Y           Z
   0 C     4.0000    0    12.011   -3.765909   -0.829707    0.024747
   1 Cl    7.0000    0    35.453    0.163540   -0.822311   -0.030688
   2 H     1.0000    0     1.008   -3.959570   -2.386065    1.335787
   3 H     1.0000    0     1.008   -4.008276   -1.185028   -1.973688
   4 H     1.0000    0     1.008   -3.974644    1.080883    0.720990
   5 F     7.0000    0    18.998   -7.733921   -0.837446    0.081419

--------------------------------
INTERNAL COORDINATES (ANGSTROEM)
--------------------------------
 C      0   0   0     0.000000000000     0.00000000     0.00000000
 Cl     1   0   0     2.079585248997     0.00000000     0.00000000
 H      1   2   0     1.081721867671    96.03923901     0.00000000
 H      1   2   3     1.081741782418    96.03225690   239.99909738
 H      1   2   3     1.081734493107    96.03564198   120.00574515
 F      1   2   3     2.100000027632   179.98926119    28.59468781

---------------------------
INTERNAL COORDINATES (A.U.)
---------------------------
 C      0   0   0     0.000000000000     0.00000000     0.00000000
 Cl     1   0   0     3.929846592747     0.00000000     0.00000000
 H      1   2   0     2.044158082973    96.03923901     0.00000000
 H      1   2   3     2.044195716389    96.03225690   239.99909738
 H      1   2   3     2.044181941588    96.03564198   120.00574515
 F      1   2   3     3.968424933451   179.98926119    28.59468781

----------------------------
SLATER BASIS SET DIM=  15
----------------------------
  0 C     2 shells
 l=0 nsto= 1
    2       1.565085000000        1.000000000000
 l=1 nsto= 1
    2       1.842345000000        1.000000000000
  1 Cl    2 shells
 l=0 nsto= 1
    3       2.246210000000        1.000000000000
 l=1 nsto= 1
    3       2.151010000000        1.000000000000
  2 H     1 shells
 l=0 nsto= 1
    1       0.967807000000        1.000000000000
  3 H     1 shells
 l=0 nsto= 1
    1       0.967807000000        1.000000000000
  4 H     1 shells
 l=0 nsto= 1
    1       0.967807000000        1.000000000000
  5 F     2 shells
 l=0 nsto= 1
    2       4.708555000000        1.000000000000
 l=1 nsto= 1
    2       2.491178000000        1.000000000000
------------------------------------------------------------------------------
                           ORCA NDO INTEGRAL CALCULATION
------------------------------------------------------------------------------

--------------
NDO PARAMETERS
--------------

Gamma integral treatment              ... MOPAC
Nuclear repulsuion treatment          ... AM1-style
Interaction factors:
s-s (sigma) =    1.0000
s-p (sigma) =    1.0000
s-d (sigma) =    1.0000
p-p (sigma) =    1.0000  p-p(pi) =    1.0000
p-d (sigma) =    1.0000  p-d(pi) =    1.0000
d-d (sigma) =    1.0000  d-d(pi) =    1.0000 d-d (delta) =    1.0000

--------------------------
Parameters for Element H :
--------------------------
 One-electron parameters (in eV)
  U(s)  =   -13.073321 Beta(s) =     5.626512 Neff(s) =     1.000000
 One-center electron repulsion parameters (in eV)
  G(s,s)=    14.794208
--------------------------
Parameters for Element C :
--------------------------
 One-electron parameters (in eV)
  U(s)  =   -47.270320 Beta(s) =    11.910015 Neff(s) =     2.000000
  U(p)  =   -36.266918 Beta(p) =     9.802755 Neff(p) =     2.000000 
 One-center electron repulsion parameters (in eV)
  G(s,s)=    11.200708
  G(s,p)=    10.265027 G(p,p)  =     9.627141
 Slater-Condon parameters (in eV)
 F2(p,p)=     7.3072 G1(s,p)=    6.8729
--------------------------
Parameters for Element F :
--------------------------
 One-electron parameters (in eV)
  U(s)  =  -110.435303 Beta(s) =    48.405939 Neff(s) =     2.000000
  U(p)  =  -105.685047 Beta(p) =    27.744660 Neff(p) =     5.000000 
 One-center electron repulsion parameters (in eV)
  G(s,s)=    10.496667
  G(s,p)=    16.073689 G(p,p)  =    14.551347
 Slater-Condon parameters (in eV)
 F2(p,p)=     1.6619 G1(s,p)=    2.1833
--------------------------
Parameters for Element Cl:
--------------------------
 One-electron parameters (in eV)
  U(s)  =  -100.626747 Beta(s) =    27.528560 Neff(s) =     2.000000
  U(p)  =   -53.614396 Beta(p) =    11.593922 Neff(p) =     5.000000 
 One-center electron repulsion parameters (in eV)
  G(s,s)=    16.013601
  G(s,p)=     8.048115 G(p,p)  =     7.510174
 Slater-Condon parameters (in eV)
 F2(p,p)=     0.0753 G1(s,p)=   10.4435

 Number of atoms                    ....    6
 Number of basis functions          ....   15

 Overlap integrals                  .... done
 One electron matrix                .... done
 Nuclear repulsion                  .... done
 Integral list                      .... done
 Electron-electron repulsion        .... done
-------------------------------------------------------------------------------
                                 ORCA SCF
-------------------------------------------------------------------------------

------------
SCF SETTINGS
------------
Hamiltonian:
 ZDO-Hamiltonian        Method          .... NDDO


General Settings:
 Integral files         IntName         .... TS_test
 Hartree-Fock type      HFTyp           .... RHF
 Total Charge           Charge          ....   -1
 Multiplicity           Mult            ....    1
 Number of Electrons    NEL             ....   22
 Basis Dimension        Dim             ....   15
 Nuclear Repulsion      ENuc            ....     32.1958375736 Eh

Convergence Acceleration:
 DIIS                   CNVDIIS         .... on
   Start iteration      DIISMaxIt       ....    12
   Startup error        DIISStart       ....  0.200000
   # of expansion vecs  DIISMaxEq       ....     5
   Bias factor          DIISBfac        ....   1.050
   Max. coefficient     DIISMaxC        ....  10.000
 Newton-Raphson         CNVNR           .... off
 SOSCF                  CNVSOSCF        .... on
   Start iteration      SOSCFMaxIt      ....   150
   Startup grad/error   SOSCFStart      ....  0.003300
 Level Shifting         CNVShift        .... on
   Level shift para.    LevelShift      ....    0.2500
   Turn off err/grad.   ShiftErr        ....    0.0010
 Zerner damping         CNVZerner       .... off
 Static damping         CNVDamp         .... on
   Fraction old density DampFac         ....    0.7000
   Max. Damping (<1)    DampMax         ....    0.9800
   Min. Damping (>=0)   DampMin         ....    0.0000
   Turn off err/grad.   DampErr         ....    0.1000
 Fernandez-Rico         CNVRico         .... off

SCF Procedure:
 Maximum # iterations   MaxIter         ....   125
 SCF integral mode      SCFMode         .... Conventional
 Integral Buffer length BufferLength    .... 1048576
 Integral index format  IndFormat       ....     0
 Integral value format  ValFormat       ....     0
 Integral Storage       Thresh          ....  2.500e-11 Eh

Convergence Tolerance:
 Convergence Check Mode ConvCheckMode   .... Total+1el-Energy
 Convergence forced     ConvForced      .... 0
 Energy Change          TolE            ....  1.000e-08 Eh
 1-El. energy change                    ....  1.000e-05 Eh
 Orbital Gradient       TolG            ....  1.000e-05
 Orbital Rotation angle TolX            ....  1.000e-05
 DIIS Error             TolErr          ....  5.000e-07


Diagonalization of the overlap matrix:
Smallest eigenvalue                        ... 2.028e-01
Time for diagonalization                   ...    0.000 sec
Threshold for overlap eigenvalues          ... 1.000e-08
Number of eigenvalues below threshold      ... 0
Time for construction of square roots      ...    0.006 sec
Total time needed                          ...    0.006 sec

-------------------------------
INITIAL GUESS: EXTENDED HUECKEL
-------------------------------
EHT matrix was read from disk
EHT matrix was diagonalized
Initial density was built
                      ------------------
                      INITIAL GUESS DONE
                      ------------------

 InCore treatment chosen:
   Memory dedicated               ...    1024 MB
   Memory needed                  ...      0 MB
   Number of tiny    integrals    ...       0
   Number of small   integrals    ...      61
   Number of regular integrals    ...     383

--------------
SCF ITERATIONS
--------------
ITER       Energy         Delta-E        Max-DP      RMS-DP      [F,P]     Damp
  0    -33.8034163655   0.000000000000 0.04678624  0.00465114  0.3469338 0.7000
  1    -33.8184142649  -0.014997899370 0.03960933  0.00459088  0.2615279 0.7000
                               ***Turning on DIIS***
  2    -33.8303740683  -0.011959803437 0.03446439  0.00395026  0.1902981 0.7000
  3    -33.8425333707  -0.012159302378 0.03416851  0.00364999  0.1376724 0.7000
  4    -33.8527480094  -0.010214638639 0.10423088  0.01072709  0.0978136 0.0000
  5    -33.8658449949  -0.013096985585 0.01955374  0.00200201  0.0125753 0.0000
  6    -33.8729201712  -0.007075176227 0.01652469  0.00178225  0.0078507 0.0000
  7    -33.8701833303   0.002736840843 0.00867338  0.00094170  0.0037713 0.0000
                      *** Initiating the SOSCF procedure ***
                           *** Shutting down DIIS ***
                      *** Re-Reading the Fockian *** 
                      *** Removing any level shift *** 
ITER      Energy       Delta-E        Grad      Rot      Max-DP    RMS-DP
  8    -33.86761403   0.0025692979  0.001460  0.001460  0.003908  0.000408
  9    -33.86552568   0.0020883535  0.000527  0.001568  0.002294  0.000234
 10    -33.86552843  -0.0000027462  0.000207  0.001168  0.001726  0.000192
 11    -33.86552919  -0.0000007666  0.000027  0.000059  0.000101  0.000019
 12    -33.86552921  -0.0000000196  0.000010  0.000032  0.000056  0.000010
                 **** Energy Check signals convergence ****
              ***Rediagonalizing the Fockian in SOSCF/NRSCF***

               *****************************************************
               *                     SUCCESS                       *
               *           SCF CONVERGED AFTER  13 CYCLES          *
               *****************************************************


----------------
TOTAL SCF ENERGY
----------------

Total Energy       :          -33.86552921 Eh            -921.52790 eV

Components:
Nuclear Repulsion  :           32.19583757 Eh             876.09328 eV
Electronic Energy  :          -66.06136679 Eh           -1797.62118 eV
One Electron Energy:         -121.92723760 Eh           -3317.80881 eV
Two Electron Energy:           55.86587081 Eh            1520.18763 eV


---------------
SCF CONVERGENCE
---------------

  Last Energy change         ...   -3.2418e-09  Tolerance :   1.0000e-08
  Last MAX-Density change    ...    6.4462e-06  Tolerance :   1.0000e-07
  Last RMS-Density change    ...    1.2570e-06  Tolerance :   5.0000e-09
  Last Orbital Gradient      ...    1.6816e-06  Tolerance :   1.0000e-05
  Last Orbital Rotation      ...    3.8050e-06  Tolerance :   1.0000e-05

             **** THE GBW FILE WAS UPDATED (TS_test.gbw) ****
             **** DENSITY FILE WAS UPDATED (TS_test.scfp.tmp) ****
             **** ENERGY FILE WAS UPDATED (TS_test.en.tmp) ****
----------------
ORBITAL ENERGIES
----------------

  NO   OCC          E(Eh)            E(eV) 
   0   2.0000      -1.843823       -50.1730 
   1   2.0000      -0.867997       -23.6194 
   2   2.0000      -0.380254       -10.3472 
   3   2.0000      -0.380240       -10.3468 
   4   2.0000      -0.339591        -9.2407 
   5   2.0000      -0.276646        -7.5279 
   6   2.0000      -0.228275        -6.2117 
   7   2.0000      -0.228274        -6.2117 
   8   2.0000      -0.196954        -5.3594 
   9   2.0000      -0.196952        -5.3593 
  10   2.0000      -0.158743        -4.3196 
  11   0.0000       0.177582         4.8322 
  12   0.0000       0.284775         7.7491 
  13   0.0000       0.323299         8.7974 
  14   0.0000       0.323316         8.7979 

                    ********************************
                    * MULLIKEN POPULATION ANALYSIS *
                    ********************************

-----------------------
MULLIKEN ATOMIC CHARGES
-----------------------
   0 C :    0.124749
   1 Cl:   -0.653931
   2 H :    0.117103
   3 H :    0.117026
   4 H :    0.117061
   5 F :   -0.822008
Sum of atomic charges:   -1.0000000

--------------------------------
MULLIKEN REDUCED ORBITAL CHARGES
--------------------------------
  0 C s       :     1.559894  s :     1.559894
      pz      :     0.906759  p :     2.315358
      px      :     0.501741
      py      :     0.906857
  1 Cls       :     2.004029  s :     2.004029
      pz      :     2.000121  p :     5.649902
      px      :     1.649591
      py      :     2.000190
  2 H s       :     0.882897  s :     0.882897
  3 H s       :     0.882974  s :     0.882974
  4 H s       :     0.882939  s :     0.882939
  5 F s       :     1.990048  s :     1.990048
      pz      :     1.999345  p :     5.831959
      px      :     1.833237
      py      :     1.999377


                     *******************************
                     * LOEWDIN POPULATION ANALYSIS *
                     *******************************

----------------------
LOEWDIN ATOMIC CHARGES
----------------------
   0 C :    0.329639
   1 Cl:   -0.639830
   2 H :    0.043686
   3 H :    0.043629
   4 H :    0.043654
   5 F :   -0.820777

-------------------------------
LOEWDIN REDUCED ORBITAL CHARGES
-------------------------------
  0 C s       :     1.194666  s :     1.194666
      pz      :     0.975528  p :     2.475695
      px      :     0.524537
      py      :     0.975631
  1 Cls       :     1.993608  s :     1.993608
      pz      :     1.999907  p :     5.646223
      px      :     1.646340
      py      :     1.999976
  2 H s       :     0.956314  s :     0.956314
  3 H s       :     0.956371  s :     0.956371
  4 H s       :     0.956346  s :     0.956346
  5 F s       :     1.989961  s :     1.989961
      pz      :     1.999373  p :     5.830816
      px      :     1.832037
      py      :     1.999406


                      *****************************
                      * MAYER POPULATION ANALYSIS *
                      *****************************

  NA   - Mulliken gross atomic population
  ZA   - Total nuclear charge
  QA   - Mulliken gross atomic charge
  VA   - Mayer's total valence
  BVA  - Mayer's bonded valence
  FA   - Mayer's free valence

  ATOM       NA         ZA         QA         VA         BVA        FA
  0 C      3.8753     4.0000     0.1247     3.4198     3.4198    -0.0000
  1 Cl     7.6539     7.0000    -0.6539     0.5715     0.5715     0.0000
  2 H      0.8829     1.0000     0.1171     0.9863     0.9863    -0.0000
  3 H      0.8830     1.0000     0.1170     0.9863     0.9863     0.0000
  4 H      0.8829     1.0000     0.1171     0.9863     0.9863    -0.0000
  5 F      7.8220     7.0000    -0.8220     0.3253     0.3253    -0.0000

  Mayer bond orders larger than 0.1
B(  0-C ,  1-Cl) :   0.4902 B(  0-C ,  2-H ) :   0.8886 B(  0-C ,  3-H ) :   0.8887 
B(  0-C ,  4-H ) :   0.8886 B(  0-C ,  5-F ) :   0.2636 

-------
TIMINGS
-------

Total SCF time: 0 days 0 hours 0 min 0 sec 

Total time                  ....       0.443 sec
Sum of individual times     ....       0.195 sec  ( 44.1%)

Fock matrix formation       ....       0.091 sec  ( 20.6%)
Diagonalization             ....       0.003 sec  (  0.7%)
Density matrix formation    ....       0.000 sec  (  0.0%)
Population analysis         ....       0.020 sec  (  4.4%)
Initial guess               ....       0.003 sec  (  0.7%)
Orbital Transformation      ....       0.000 sec  (  0.0%)
Orbital Orthonormalization  ....       0.000 sec  (  0.0%)
DIIS solution               ....       0.073 sec  ( 16.4%)
SOSCF solution              ....       0.006 sec  (  1.3%)

-------------------------   --------------------
FINAL SINGLE POINT ENERGY       -33.865529214590
-------------------------   --------------------

------------------------------------------------------------------------------
                          SCF GRADIENT FOR NDO METHODS
------------------------------------------------------------------------------

The cartesian gradient:
   1   C   :    0.005109514    0.000009860   -0.000072593
   2   Cl  :   -0.000001000    0.000000669   -0.000001713
   3   H   :   -0.000004978   -0.000000063   -0.000000362
   4   H   :    0.000005362    0.000000074   -0.000001689
   5   H   :    0.000000186    0.000000867   -0.000000412
   6   F   :   -0.005109084   -0.000011407    0.000076768

Norm of the cartesian gradient     ...    0.007226432
RMS gradient                       ...    0.001703286
MAX gradient                       ...    0.005109514
------------------------------------------------------------------------------
                         ORCA GEOMETRY RELAXATION STEP
------------------------------------------------------------------------------

Reading the OPT-File                    .... done
Getting information on internals        .... done
Copying old internal coords+grads       .... done
Making the new internal coordinates     .... (new redundants).... done
Validating the new internal coordinates .... (new redundants).... done
Calculating the B-matrix                .... done
Calculating the G,G- and P matrices     .... done
Transforming gradient to internals      .... done
Projecting the internal gradient        .... done
Number of atoms                         ....   6
Number of internal coordinates          ....  17
Current Energy                          ....   -33.865529215 Eh
Current gradient norm                   ....     0.007226432 Eh/bohr
Maximum allowed component of the step   ....  0.300
Current trust radius                    ....  0.300
Evaluating the initial hessian          ....  (Almloef) done
Projecting the Hessian                  .... done
Diagonalizing the Hessian               .... done
Dimension of the hessian                ....  17
Lowest eigenvalues of the Hessian:
  0.013869133  0.052341127  0.052342641  0.111312836  0.178483070
Hessian has   0 negative eigenvalues
Taking P-RFO step
Searching for lambda that maximizes along the lowest mode
TS mode is mode number   0 with eigenvalue   0.01386913 and components:
   1.    0.00000000
   2.   -0.00513137
   3.   -0.00514089
   4.   -0.00513639
   5.   -0.49242961
   6.   -0.49251550
   7.   -0.51994867
   8.   -0.49247505
   9.    0.01762678
  10.   -0.00631694
  11.    0.01762756
  12.   -0.00631875
  13.   -0.00631498
  14.   -0.01760962
  15.   -0.01764499
  16.   -0.01762850
  17.    0.01762877

Lambda that maximizes along the TS mode:       0.01436066
Searching for lambda that minimizes along all other modes
In cycle   1: lambdaN =  -0.00004037   step =   0.00004037
In cycle   2: lambdaN =  -0.00004037   step =   0.00000000
Lambda that minimizes along all other modes:  -0.00004037
Calculated stepsize too large (   0.6530 >    0.3000). Scaled with    0.4595.
The final length of the internal step   ....       0.3000
Converting the step to cartesian space:
 Initial RMS(Int)=    0.0727606875
Transforming coordinates:
 Iter   0:  RMS(Cart)=    0.0349499659 RMS(Int)=    0.0715479050
 Iter   1:  RMS(Cart)=    0.0004850679 RMS(Int)=    0.0005426299
 Iter   2:  RMS(Cart)=    0.0000095736 RMS(Int)=    0.0000127106
 Iter   3:  RMS(Cart)=    0.0000003428 RMS(Int)=    0.0000004040
 Iter   4:  RMS(Cart)=    0.0000000118 RMS(Int)=    0.0000000132
done
Storing new coordinates                 .... done

                                .--------------------.
          ----------------------|Geometry convergence|-------------------------
          Item                value                   Tolerance       Converged
          ---------------------------------------------------------------------
          RMS gradient        0.0009180921            0.0001000000      NO
          MAX gradient        0.0028046942            0.0003000000      NO
          RMS step            0.0727606875            0.0020000000      NO
          MAX step            0.1378356815            0.0040000000      NO
          ........................................................
          Max(Bonds)      0.0729      Max(Angles)    2.63
          Max(Dihed)        0.00      Max(Improp)    0.00
          ---------------------------------------------------------------------

The optimization has not yet converged - more geometry cycles are needed


    ---------------------------------------------------------------------------
                         Redundant Internal Coordinates
                            (Angstroem and degrees)

        Definition                    Value    dE/dq     Step     New-Value  comp.(TS mode)
    ----------------------------------------------------------------------------
     1. B(Cl  1,C   0)                2.0796 -0.000001  0.0000    2.0796   
     2. B(H   2,C   0)                1.0817 -0.000331  0.0071    1.0888   
     3. B(H   3,C   0)                1.0817 -0.000333  0.0071    1.0888   
     4. B(H   4,C   0)                1.0817 -0.000332  0.0071    1.0888   
     5. B(F   5,H   2)                2.2586  0.000870  0.0729    2.3316          0.49
     6. B(F   5,H   3)                2.2591  0.000877  0.0729    2.3320          0.49
     7. B(F   5,C   0)                2.1000  0.002805  0.0729    2.1729          0.52
     8. B(F   5,H   4)                2.2589  0.000874  0.0729    2.3318          0.49
     9. A(Cl  1,C   0,H   3)           96.03  0.000772   -2.63     93.40   
    10. A(H   2,C   0,H   3)          118.91 -0.000278    0.94    119.85   
    11. A(Cl  1,C   0,H   4)           96.04  0.000776   -2.63     93.40   
    12. A(H   2,C   0,H   4)          118.91 -0.000277    0.94    119.86   
    13. A(H   3,C   0,H   4)          118.90 -0.000279    0.94    119.85   
    14. A(H   2,C   0,F   5)           83.95 -0.000778    2.63     86.58   
    15. A(H   3,C   0,F   5)           83.98 -0.000774    2.63     86.61   
    16. A(H   4,C   0,F   5)           83.96 -0.000776    2.63     86.60   
    17. A(Cl  1,C   0,H   2)           96.04  0.000779   -2.63     93.41   
    ----------------------------------------------------------------------------

         *************************************************************
         *                GEOMETRY OPTIMIZATION CYCLE   2            *
         *************************************************************
---------------------------------
CARTESIAN COORDINATES (ANGSTROEM)
---------------------------------
  C     -2.001796   -0.439076    0.013215
  Cl     0.077581   -0.435168   -0.016107
  H     -2.068853   -1.268155    0.711161
  H     -2.094802   -0.628306   -1.051957
  H     -2.076884    0.578855    0.383630
  F     -4.153845   -0.443280    0.043968

----------------------------
CARTESIAN COORDINATES (A.U.)
----------------------------
  NO LB      ZA    FRAG     MASS         X           Y           Z
   0 C     4.0000    0    12.011   -3.782847   -0.829734    0.024973
   1 Cl    7.0000    0    35.453    0.146606   -0.822348   -0.030437
   2 H     1.0000    0     1.008   -3.909565   -2.396465    1.343899
   3 H     1.0000    0     1.008   -3.958603   -1.187326   -1.987911
   4 H     1.0000    0     1.008   -3.924742    1.093877    0.724956
   5 F     7.0000    0    18.998   -7.849629   -0.837678    0.083087

--------------------------------
INTERNAL COORDINATES (ANGSTROEM)
--------------------------------
 C      0   0   0     0.000000000000     0.00000000     0.00000000
 Cl     1   0   0     2.079587377141     0.00000000     0.00000000
 H      1   2   0     1.085815962446    94.14315911     0.00000000
 H      1   2   3     1.085840787787    94.13696134   239.99910717
 H      1   2   3     1.085831101984    94.13997400   120.00556396
 F      1   2   3     2.152272464787   179.98839423    28.52655910

---------------------------
INTERNAL COORDINATES (A.U.)
---------------------------
 C      0   0   0     0.000000000000     0.00000000     0.00000000
 Cl     1   0   0     3.929850614356     0.00000000     0.00000000
 H      1   2   0     2.051894800863    94.14315911     0.00000000
 H      1   2   3     2.051941713958    94.13696134   239.99910717
 H      1   2   3     2.051923410444    94.13997400   120.00556396
 F      1   2   3     4.067205524028   179.98839423    28.52655910

------------------------------------------------------------------------------
                           ORCA NDO INTEGRAL CALCULATION
------------------------------------------------------------------------------

--------------
NDO PARAMETERS
--------------

Gamma integral treatment              ... MOPAC
Nuclear repulsuion treatment          ... AM1-style
Interaction factors:
s-s (sigma) =    1.0000
s-p (sigma) =    1.0000
s-d (sigma) =    1.0000
p-p (sigma) =    1.0000  p-p(pi) =    1.0000
p-d (sigma) =    1.0000  p-d(pi) =    1.0000
d-d (sigma) =    1.0000  d-d(pi) =    1.0000 d-d (delta) =    1.0000

--------------------------
Parameters for Element H :
--------------------------
 One-electron parameters (in eV)
  U(s)  =   -13.073321 Beta(s) =     5.626512 Neff(s) =     1.000000
 One-center electron repulsion parameters (in eV)
  G(s,s)=    14.794208
--------------------------
Parameters for Element C :
--------------------------
 One-electron parameters (in eV)
  U(s)  =   -47.270320 Beta(s) =    11.910015 Neff(s) =     2.000000
  U(p)  =   -36.266918 Beta(p) =     9.802755 Neff(p) =     2.000000 
 One-center electron repulsion parameters (in eV)
  G(s,s)=    11.200708
  G(s,p)=    10.265027 G(p,p)  =     9.627141
 Slater-Condon parameters (in eV)
 F2(p,p)=     7.3072 G1(s,p)=    6.8729
--------------------------
Parameters for Element F :
--------------------------
 One-electron parameters (in eV)
  U(s)  =  -110.435303 Beta(s) =    48.405939 Neff(s) =     2.000000
  U(p)  =  -105.685047 Beta(p) =    27.744660 Neff(p) =     5.000000 
 One-center electron repulsion parameters (in eV)
  G(s,s)=    10.496667
  G(s,p)=    16.073689 G(p,p)  =    14.551347
 Slater-Condon parameters (in eV)
 F2(p,p)=     1.6619 G1(s,p)=    2.1833
--------------------------
Parameters for Element Cl:
--------------------------
 One-electron parameters (in eV)
  U(s)  =  -100.626747 Beta(s) =    27.528560 Neff(s) =     2.000000
  U(p)  =   -53.614396 Beta(p) =    11.593922 Neff(p) =     5.000000 
 One-center electron repulsion parameters (in eV)
  G(s,s)=    16.013601
  G(s,p)=     8.048115 G(p,p)  =     7.510174
 Slater-Condon parameters (in eV)
 F2(p,p)=     0.0753 G1(s,p)=   10.4435

 Number of atoms                    ....    6
 Number of basis functions          ....   15

 Overlap integrals                  .... done
 One electron matrix                .... done
 Nuclear repulsion                  .... done
 Integral list                      .... done
 Electron-electron repulsion        .... done

Diagonalization of the overlap matrix:
Smallest eigenvalue                        ... 2.050e-01
Time for diagonalization                   ...    0.000 sec
Threshold for overlap eigenvalues          ... 1.000e-08
Number of eigenvalues below threshold      ... 0
Time for construction of square roots      ...    0.002 sec
Total time needed                          ...    0.002 sec


 InCore treatment chosen:
   Memory dedicated               ...    1024 MB
   Memory needed                  ...      0 MB
   Number of tiny    integrals    ...       0
   Number of small   integrals    ...      61
   Number of regular integrals    ...     383

--------------
SCF ITERATIONS
--------------
ITER       Energy         Delta-E        Max-DP      RMS-DP      [F,P]     Damp
  0    -33.8639909006   0.000000000000 0.00267761  0.00039403  0.0061006 0.7000
                      *** Initiating the SOSCF procedure ***
                      *** Re-Reading the Fockian *** 
                      *** Removing any level shift *** 
ITER      Energy       Delta-E        Grad      Rot      Max-DP    RMS-DP
  1    -33.86405218  -0.0000612835  0.001690  0.001690  0.010428  0.001458
  2    -33.86426414  -0.0002119589  0.001463  0.003827  0.005574  0.000732
  3    -33.86429901  -0.0000348658  0.000494  0.001434  0.002131  0.000314
  4    -33.86430277  -0.0000037618  0.000036  0.000087  0.000124  0.000020
  5    -33.86430280  -0.0000000283  0.000019  0.000093  0.000131  0.000017
  6    -33.86430281  -0.0000000068  0.000004  0.000007  0.000011  0.000001
                 **** Energy Check signals convergence ****
              ***Rediagonalizing the Fockian in SOSCF/NRSCF***

               *****************************************************
               *                     SUCCESS                       *
               *           SCF CONVERGED AFTER   7 CYCLES          *
               *****************************************************

Total Energy       :          -33.86430281 Eh            -921.49453 eV
  Last Energy change         ...   -1.1005e-10  Tolerance :   1.0000e-08
  Last MAX-Density change    ...    3.8711e-06  Tolerance :   1.0000e-07
             **** THE GBW FILE WAS UPDATED (TS_test.gbw) ****
             **** DENSITY FILE WAS UPDATED (TS_test.scfp.tmp) ****
             **** ENERGY FILE WAS UPDATED (TS_test.en.tmp) ****
Total SCF time: 0 days 0 hours 0 min 0 sec 

-------------------------   --------------------
FINAL SINGLE POINT ENERGY       -33.864302805737
-------------------------   --------------------

------------------------------------------------------------------------------
                          SCF GRADIENT FOR NDO METHODS
------------------------------------------------------------------------------

The cartesian gradient:
   1   C   :   -0.002325337   -0.000004543    0.000033329
   2   Cl  :   -0.001272040   -0.000001774    0.000016353
   3   H   :    0.004450273   -0.002573764    0.002107960
   4   H   :    0.004382353   -0.000581368   -0.003389258
   5   H   :    0.004431844    0.003182265    0.001088445
   6   F   :   -0.009667093   -0.000020816    0.000143171

Norm of the cartesian gradient     ...    0.013905245
RMS gradient                       ...    0.003277498
MAX gradient                       ...    0.009667093
------------------------------------------------------------------------------
                         ORCA GEOMETRY RELAXATION STEP
------------------------------------------------------------------------------

Reading the OPT-File                    .... done
Getting information on internals        .... done
Copying old internal coords+grads       .... done
Making the new internal coordinates     .... (new redundants).... done
Validating the new internal coordinates .... (new redundants).... done
Calculating the B-matrix                .... done
Calculating the G,G- and P matrices     .... done
Transforming gradient to internals      .... done
Projecting the internal gradient        .... done
Number of atoms                         ....   6
Number of internal coordinates          ....  17
Current Energy                          ....   -33.864302806 Eh
Current gradient norm                   ....     0.013905245 Eh/bohr
Maximum allowed component of the step   ....  0.300
Current trust radius                    ....  0.300
Updating the Hessian (Bofill)          .... Diagonalizing the Hessian               .... done
Dimension of the hessian                ....  17
Lowest eigenvalues of the Hessian:
  0.013628306  0.052341128  0.052342642  0.111493535  0.166318937
Hessian has   0 negative eigenvalues
Taking P-RFO step
Searching for lambda that maximizes along the lowest mode
TS mode is mode number   0 with eigenvalue   0.01362831 and components:
   1.    0.04373807
   2.    0.00429448
   3.    0.00428656
   4.    0.00429003
   5.    0.51199395
   6.    0.51184464
   7.    0.42312345
   8.    0.51191733
   9.   -0.07258092
  10.    0.01992220
  11.   -0.07260006
  12.    0.01993781
  13.    0.01990403
  14.    0.07263947
  15.    0.07256362
  16.    0.07260061
  17.   -0.07262273

Lambda that maximizes along the TS mode:       0.01598662
Searching for lambda that minimizes along all other modes
In cycle   1: lambdaN =  -0.00011622   step =   0.00011622
In cycle   2: lambdaN =  -0.00011622   step =   0.00000000
Lambda that minimizes along all other modes:  -0.00011622
Calculated stepsize too large (   0.7643 >    0.3000). Scaled with    0.3925.
The final length of the internal step   ....       0.3000
Converting the step to cartesian space:
 Initial RMS(Int)=    0.0727606875
Transforming coordinates:
 Iter   0:  RMS(Cart)=    0.0351647026 RMS(Int)=    0.0692545954
 Iter   1:  RMS(Cart)=    0.0010840087 RMS(Int)=    0.0011402029
 Iter   2:  RMS(Cart)=    0.0000276741 RMS(Int)=    0.0000399537
 Iter   3:  RMS(Cart)=    0.0000019938 RMS(Int)=    0.0000020933
 Iter   4:  RMS(Cart)=    0.0000000701 RMS(Int)=    0.0000000877
done
Storing new coordinates                 .... done

                                .--------------------.
          ----------------------|Geometry convergence|-------------------------
          Item                value                   Tolerance       Converged
          ---------------------------------------------------------------------
          Energy change       0.0012264089            0.0000050000      NO
          RMS gradient        0.0018702452            0.0001000000      NO
          MAX gradient        0.0035396405            0.0003000000      NO
          RMS step            0.0727606875            0.0020000000      NO
          MAX step            0.1177488619            0.0040000000      NO
          ........................................................
          Max(Bonds)      0.0623      Max(Angles)    4.11
          Max(Dihed)        0.00      Max(Improp)    0.00
          ---------------------------------------------------------------------

The optimization has not yet converged - more geometry cycles are needed


    ---------------------------------------------------------------------------
                         Redundant Internal Coordinates
                            (Angstroem and degrees)

        Definition                    Value    dE/dq     Step     New-Value  comp.(TS mode)
    ----------------------------------------------------------------------------
     1. B(Cl  1,C   0)                2.0796 -0.001272  0.0265    2.1061   
     2. B(H   2,C   0)                1.0858  0.001642  0.0013    1.0871   
     3. B(H   3,C   0)                1.0858  0.001642  0.0013    1.0871   
     4. B(H   4,C   0)                1.0858  0.001642  0.0013    1.0871   
     5. B(F   5,H   2)                2.3394  0.003530  0.0623    2.4017          0.51
     6. B(F   5,H   3)                2.3399  0.003540  0.0623    2.4022          0.51
     7. B(F   5,C   0)                2.1523  0.000268  0.0623    2.2146          0.42
     8. B(F   5,H   4)                2.3396  0.003535  0.0623    2.4019          0.51
     9. A(Cl  1,C   0,H   3)           94.14 -0.001407   -4.11     90.03   
    10. A(H   2,C   0,H   3)          119.48  0.000348    1.12    120.60   
    11. A(Cl  1,C   0,H   4)           94.14 -0.001404   -4.11     90.03   
    12. A(H   2,C   0,H   4)          119.49  0.000348    1.12    120.61   
    13. A(H   3,C   0,H   4)          119.48  0.000349    1.12    120.59   
    14. A(H   2,C   0,F   5)           85.85  0.001402    4.11     89.96   
    15. A(H   3,C   0,F   5)           85.87  0.001407    4.11     89.98   
    16. A(H   4,C   0,F   5)           85.86  0.001404    4.11     89.97   
    17. A(Cl  1,C   0,H   2)           94.14 -0.001401   -4.11     90.03   
    ----------------------------------------------------------------------------

         *************************************************************
         *                GEOMETRY OPTIMIZATION CYCLE   3            *
         *************************************************************
---------------------------------
CARTESIAN COORDINATES (ANGSTROEM)
---------------------------------
  C     -2.029026   -0.439125    0.013593
  Cl     0.076842   -0.435175   -0.016083
  H     -2.040722   -1.267269    0.710056
  H     -2.066678   -0.628056   -1.051282
  H     -2.048762    0.577887    0.382849
  F     -4.210253   -0.443392    0.044776

----------------------------
CARTESIAN COORDINATES (A.U.)
----------------------------
  NO LB      ZA    FRAG     MASS         X           Y           Z
   0 C     4.0000    0    12.011   -3.834304   -0.829826    0.025688
   1 Cl    7.0000    0    35.453    0.145211   -0.822361   -0.030392
   2 H     1.0000    0     1.008   -3.856406   -2.394791    1.341812
   3 H     1.0000    0     1.008   -3.905456   -1.186854   -1.986636
   4 H     1.0000    0     1.008   -3.871600    1.092047    0.723480
   5 F     7.0000    0    18.998   -7.956226   -0.837889    0.084615

--------------------------------
INTERNAL COORDINATES (ANGSTROEM)
--------------------------------
 C      0   0   0     0.000000000000     0.00000000     0.00000000
 Cl     1   0   0     2.106081588442     0.00000000     0.00000000
 H      1   2   0     1.082136737116    91.22111842     0.00000000
 H      1   2   3     1.082161210671    91.21770841   239.99907223
 H      1   2   3     1.082151445729    91.21941825   120.00603358
 F      1   2   3     2.181453957136   179.98743030    28.39918020

---------------------------
INTERNAL COORDINATES (A.U.)
---------------------------
 C      0   0   0     0.000000000000     0.00000000     0.00000000
 Cl     1   0   0     3.979917417849     0.00000000     0.00000000
 H      1   2   0     2.044942072605    91.22111842     0.00000000
 H      1   2   3     2.044988320922    91.21770841   239.99907223
 H      1   2   3     2.044969867854    91.21941825   120.00603358
 F      1   2   3     4.122350552746   179.98743030    28.39918020

------------------------------------------------------------------------------
                           ORCA NDO INTEGRAL CALCULATION
------------------------------------------------------------------------------

--------------
NDO PARAMETERS
--------------

Gamma integral treatment              ... MOPAC
Nuclear repulsuion treatment          ... AM1-style
Interaction factors:
s-s (sigma) =    1.0000
s-p (sigma) =    1.0000
s-d (sigma) =    1.0000
p-p (sigma) =    1.0000  p-p(pi) =    1.0000
p-d (sigma) =    1.0000  p-d(pi) =    1.0000
d-d (sigma) =    1.0000  d-d(pi) =    1.0000 d-d (delta) =    1.0000

--------------------------
Parameters for Element H :
--------------------------
 One-electron parameters (in eV)
  U(s)  =   -13.073321 Beta(s) =     5.626512 Neff(s) =     1.000000
 One-center electron repulsion parameters (in eV)
  G(s,s)=    14.794208
--------------------------
Parameters for Element C :
--------------------------
 One-electron parameters (in eV)
  U(s)  =   -47.270320 Beta(s) =    11.910015 Neff(s) =     2.000000
  U(p)  =   -36.266918 Beta(p) =     9.802755 Neff(p) =     2.000000 
 One-center electron repulsion parameters (in eV)
  G(s,s)=    11.200708
  G(s,p)=    10.265027 G(p,p)  =     9.627141
 Slater-Condon parameters (in eV)
 F2(p,p)=     7.3072 G1(s,p)=    6.8729
--------------------------
Parameters for Element F :
--------------------------
 One-electron parameters (in eV)
  U(s)  =  -110.435303 Beta(s) =    48.405939 Neff(s) =     2.000000
  U(p)  =  -105.685047 Beta(p) =    27.744660 Neff(p) =     5.000000 
 One-center electron repulsion parameters (in eV)
  G(s,s)=    10.496667
  G(s,p)=    16.073689 G(p,p)  =    14.551347
 Slater-Condon parameters (in eV)
 F2(p,p)=     1.6619 G1(s,p)=    2.1833
--------------------------
Parameters for Element Cl:
--------------------------
 One-electron parameters (in eV)
  U(s)  =  -100.626747 Beta(s) =    27.528560 Neff(s) =     2.000000
  U(p)  =   -53.614396 Beta(p) =    11.593922 Neff(p) =     5.000000 
 One-center electron repulsion parameters (in eV)
  G(s,s)=    16.013601
  G(s,p)=     8.048115 G(p,p)  =     7.510174
 Slater-Condon parameters (in eV)
 F2(p,p)=     0.0753 G1(s,p)=   10.4435

 Number of atoms                    ....    6
 Number of basis functions          ....   15

 Overlap integrals                  .... done
 One electron matrix                .... done
 Nuclear repulsion                  .... done
 Integral list                      .... done
 Electron-electron repulsion        .... done

Diagonalization of the overlap matrix:
Smallest eigenvalue                        ... 2.038e-01
Time for diagonalization                   ...    0.000 sec
Threshold for overlap eigenvalues          ... 1.000e-08
Number of eigenvalues below threshold      ... 0
Time for construction of square roots      ...    0.004 sec
Total time needed                          ...    0.005 sec


 InCore treatment chosen:
   Memory dedicated               ...    1024 MB
   Memory needed                  ...      0 MB
   Number of tiny    integrals    ...       0
   Number of small   integrals    ...      61
   Number of regular integrals    ...     383

--------------
SCF ITERATIONS
--------------
ITER       Energy         Delta-E        Max-DP      RMS-DP      [F,P]     Damp
  0    -33.8607509190   0.000000000000 0.00381754  0.00051922  0.0147047 0.7000
                      *** Initiating the SOSCF procedure ***
                      *** Re-Reading the Fockian *** 
                      *** Removing any level shift *** 
ITER      Energy       Delta-E        Grad      Rot      Max-DP    RMS-DP
  1    -33.86088582  -0.0001348993  0.002836  0.002836  0.013657  0.001867
  2    -33.86137744  -0.0004916176  0.003365  0.006188  0.007881  0.001187
  3    -33.86149854  -0.0001210995  0.001569  0.005585  0.007236  0.001156
  4    -33.86153549  -0.0000369538  0.000182  0.000613  0.000871  0.000099
  5    -33.86153593  -0.0000004395  0.000067  0.000302  0.000437  0.000051
  6    -33.86153600  -0.0000000686  0.000006  0.000013  0.000015  0.000003
                 **** Energy Check signals convergence ****
              ***Rediagonalizing the Fockian in SOSCF/NRSCF***

               *****************************************************
               *                     SUCCESS                       *
               *           SCF CONVERGED AFTER   7 CYCLES          *
               *****************************************************

Total Energy       :          -33.86153600 Eh            -921.41924 eV
  Last Energy change         ...   -5.6153e-10  Tolerance :   1.0000e-08
  Last MAX-Density change    ...    1.2414e-05  Tolerance :   1.0000e-07
             **** THE GBW FILE WAS UPDATED (TS_test.gbw) ****
             **** DENSITY FILE WAS UPDATED (TS_test.scfp.tmp) ****
             **** ENERGY FILE WAS UPDATED (TS_test.en.tmp) ****
Total SCF time: 0 days 0 hours 0 min 0 sec 

-------------------------   --------------------
FINAL SINGLE POINT ENERGY       -33.861535997822
-------------------------   --------------------

------------------------------------------------------------------------------
                          SCF GRADIENT FOR NDO METHODS
------------------------------------------------------------------------------

The cartesian gradient:
   1   C   :   -0.006941157   -0.000012231    0.000096357
   2   Cl  :   -0.002992275   -0.000005433    0.000041668
   3   H   :    0.009163963   -0.000985731    0.000713107
   4   H   :    0.009144320   -0.000211640   -0.001424142
   5   H   :    0.009160279    0.001251397    0.000316994
   6   F   :   -0.017535129   -0.000036362    0.000256016

Norm of the cartesian gradient     ...    0.024928284
RMS gradient                       ...    0.005875653
MAX gradient                       ...    0.017535129
------------------------------------------------------------------------------
                         ORCA GEOMETRY RELAXATION STEP
------------------------------------------------------------------------------

Reading the OPT-File                    .... done
Getting information on internals        .... done
Copying old internal coords+grads       .... done
Making the new internal coordinates     .... (new redundants).... done
Validating the new internal coordinates .... (new redundants).... done
Calculating the B-matrix                .... done
Calculating the G,G- and P matrices     .... done
Transforming gradient to internals      .... done
Projecting the internal gradient        .... done
Number of atoms                         ....   6
Number of internal coordinates          ....  17
Current Energy                          ....   -33.861535998 Eh
Current gradient norm                   ....     0.024928284 Eh/bohr
Maximum allowed component of the step   ....  0.300
Current trust radius                    ....  0.300
Updating the Hessian (Bofill)          .... Diagonalizing the Hessian               .... done
Dimension of the hessian                ....  17
Lowest eigenvalues of the Hessian:
  0.020044132  0.052341128  0.052342642  0.109582239  0.150915428
Hessian has   0 negative eigenvalues
Taking P-RFO step
Searching for lambda that maximizes along the lowest mode
TS mode is mode number   0 with eigenvalue   0.02004413 and components:
   1.   -0.27699019
   2.   -0.00569982
   3.   -0.00569752
   4.   -0.00569870
   5.   -0.49105525
   6.   -0.49066989
   7.   -0.21776800
   8.   -0.49085409
   9.    0.15883046
  10.   -0.02202438
  11.    0.15888404
  12.   -0.02207264
  13.   -0.02196708
  14.   -0.15898194
  15.   -0.15879581
  16.   -0.15888459
  17.    0.15894784

Lambda that maximizes along the TS mode:       0.02563585
Searching for lambda that minimizes along all other modes
In cycle   1: lambdaN =  -0.00048752   step =   0.00048752
In cycle   2: lambdaN =  -0.00048753   step =   0.00000001
Lambda that minimizes along all other modes:  -0.00048753
Calculated stepsize too large (   0.9983 >    0.3000). Scaled with    0.3005.
The final length of the internal step   ....       0.3000
Converting the step to cartesian space:
 Initial RMS(Int)=    0.0727606875
Transforming coordinates:
 Iter   0:  RMS(Cart)=    0.0345286890 RMS(Int)=    0.0667274029
 Iter   1:  RMS(Cart)=    0.0016198667 RMS(Int)=    0.0016749392
 Iter   2:  RMS(Cart)=    0.0000479178 RMS(Int)=    0.0000703935
 Iter   3:  RMS(Cart)=    0.0000046372 RMS(Int)=    0.0000047111
 Iter   4:  RMS(Cart)=    0.0000001515 RMS(Int)=    0.0000002160
 Iter   5:  RMS(Cart)=    0.0000000130 RMS(Int)=    0.0000000132
done
Storing new coordinates                 .... done

                                .--------------------.
          ----------------------|Geometry convergence|-------------------------
          Item                value                   Tolerance       Converged
          ---------------------------------------------------------------------
          Energy change       0.0027668079            0.0000050000      NO
          RMS gradient        0.0035334478            0.0001000000      NO
          MAX gradient        0.0063375106            0.0003000000      NO
          RMS step            0.0727606875            0.0020000000      NO
          MAX step            0.0901530148            0.0040000000      NO
          ........................................................
          Max(Bonds)      0.0477      Max(Angles)    5.17
          Max(Dihed)        0.00      Max(Improp)    0.00
          ---------------------------------------------------------------------

The optimization has not yet converged - more geometry cycles are needed


    ---------------------------------------------------------------------------
                         Redundant Internal Coordinates
                            (Angstroem and degrees)

        Definition                    Value    dE/dq     Step     New-Value  comp.(TS mode)
    ----------------------------------------------------------------------------
     1. B(Cl  1,C   0)                2.1061 -0.002993  0.0477    2.1538          0.28
     2. B(H   2,C   0)                1.0821 -0.001599  0.0026    1.0847   
     3. B(H   3,C   0)                1.0822 -0.001600  0.0026    1.0847   
     4. B(H   4,C   0)                1.0822 -0.001599  0.0026    1.0847   
     5. B(F   5,H   2)                2.4142  0.006327  0.0477    2.4619          0.49
     6. B(F   5,H   3)                2.4146  0.006338  0.0477    2.4623          0.49
     7. B(F   5,C   0)                2.1815  0.000554  0.0477    2.2292   
     8. B(F   5,H   4)                2.4144  0.006332  0.0477    2.4621          0.49
     9. A(Cl  1,C   0,H   3)           91.22 -0.003532   -5.17     86.05   
    10. A(H   2,C   0,H   3)          119.96  0.000260    0.76    120.72   
    11. A(Cl  1,C   0,H   4)           91.22 -0.003531   -5.17     86.05   
    12. A(H   2,C   0,H   4)          119.96  0.000260    0.76    120.72   
    13. A(H   3,C   0,H   4)          119.95  0.000260    0.76    120.71   
    14. A(H   2,C   0,F   5)           88.77  0.003528    5.17     93.93   
    15. A(H   3,C   0,F   5)           88.79  0.003534    5.17     93.96   
    16. A(H   4,C   0,F   5)           88.78  0.003531    5.17     93.95   
    17. A(Cl  1,C   0,H   2)           91.22 -0.003531   -5.17     86.06   
    ----------------------------------------------------------------------------

         *************************************************************
         *                GEOMETRY OPTIMIZATION CYCLE   4            *
         *************************************************************
---------------------------------
CARTESIAN COORDINATES (ANGSTROEM)
---------------------------------
  C     -2.070132   -0.439203    0.014174
  Cl     0.083439   -0.435163   -0.016175
  H     -2.013837   -1.263447    0.706494
  H     -2.039670   -0.627131   -1.046792
  H     -2.021838    0.573297    0.380766
  F     -4.256562   -0.443484    0.045442

----------------------------
CARTESIAN COORDINATES (A.U.)
----------------------------
  NO LB      ZA    FRAG     MASS         X           Y           Z
   0 C     4.0000    0    12.011   -3.911982   -0.829973    0.026784
   1 Cl    7.0000    0    35.453    0.157677   -0.822338   -0.030566
   2 H     1.0000    0     1.008   -3.805600   -2.387568    1.335081
   3 H     1.0000    0     1.008   -3.854417   -1.185106   -1.978150
   4 H     1.0000    0     1.008   -3.820721    1.083375    0.719544
   5 F     7.0000    0    18.998   -8.043737   -0.838064    0.085874

--------------------------------
INTERNAL COORDINATES (ANGSTROEM)
--------------------------------
 C      0   0   0     0.000000000000     0.00000000     0.00000000
 Cl     1   0   0     2.153788509128     0.00000000     0.00000000
 H      1   2   0     1.077893683009    87.60797902     0.00000000
 H      1   2   3     1.077911137416    87.60436577   239.99896067
 H      1   2   3     1.077904855926    87.60615547   120.00760133
 F      1   2   3     2.186658336927   179.98713482    28.49270216

---------------------------
INTERNAL COORDINATES (A.U.)
---------------------------
 C      0   0   0     0.000000000000     0.00000000     0.00000000
 Cl     1   0   0     4.070070432638     0.00000000     0.00000000
 H      1   2   0     2.036923862370    87.60797902     0.00000000
 H      1   2   3     2.036956846420    87.60436577   239.99896067
 H      1   2   3     2.036944976124    87.60615547   120.00760133
 F      1   2   3     4.132185405247   179.98713482    28.49270216

------------------------------------------------------------------------------
                           ORCA NDO INTEGRAL CALCULATION
------------------------------------------------------------------------------

--------------
NDO PARAMETERS
--------------

Gamma integral treatment              ... MOPAC
Nuclear repulsuion treatment          ... AM1-style
Interaction factors:
s-s (sigma) =    1.0000
s-p (sigma) =    1.0000
s-d (sigma) =    1.0000
p-p (sigma) =    1.0000  p-p(pi) =    1.0000
p-d (sigma) =    1.0000  p-d(pi) =    1.0000
d-d (sigma) =    1.0000  d-d(pi) =    1.0000 d-d (delta) =    1.0000

--------------------------
Parameters for Element H :
--------------------------
 One-electron parameters (in eV)
  U(s)  =   -13.073321 Beta(s) =     5.626512 Neff(s) =     1.000000
 One-center electron repulsion parameters (in eV)
  G(s,s)=    14.794208
--------------------------
Parameters for Element C :
--------------------------
 One-electron parameters (in eV)
  U(s)  =   -47.270320 Beta(s) =    11.910015 Neff(s) =     2.000000
  U(p)  =   -36.266918 Beta(p) =     9.802755 Neff(p) =     2.000000 
 One-center electron repulsion parameters (in eV)
  G(s,s)=    11.200708
  G(s,p)=    10.265027 G(p,p)  =     9.627141
 Slater-Condon parameters (in eV)
 F2(p,p)=     7.3072 G1(s,p)=    6.8729
--------------------------
Parameters for Element F :
--------------------------
 One-electron parameters (in eV)
  U(s)  =  -110.435303 Beta(s) =    48.405939 Neff(s) =     2.000000
  U(p)  =  -105.685047 Beta(p) =    27.744660 Neff(p) =     5.000000 
 One-center electron repulsion parameters (in eV)
  G(s,s)=    10.496667
  G(s,p)=    16.073689 G(p,p)  =    14.551347
 Slater-Condon parameters (in eV)
 F2(p,p)=     1.6619 G1(s,p)=    2.1833
--------------------------
Parameters for Element Cl:
--------------------------
 One-electron parameters (in eV)
  U(s)  =  -100.626747 Beta(s) =    27.528560 Neff(s) =     2.000000
  U(p)  =   -53.614396 Beta(p) =    11.593922 Neff(p) =     5.000000 
 One-center electron repulsion parameters (in eV)
  G(s,s)=    16.013601
  G(s,p)=     8.048115 G(p,p)  =     7.510174
 Slater-Condon parameters (in eV)
 F2(p,p)=     0.0753 G1(s,p)=   10.4435

 Number of atoms                    ....    6
 Number of basis functions          ....   15

 Overlap integrals                  .... done
 One electron matrix                .... done
 Nuclear repulsion                  .... done
 Integral list                      .... done
 Electron-electron repulsion        .... done

Diagonalization of the overlap matrix:
Smallest eigenvalue                        ... 2.021e-01
Time for diagonalization                   ...    0.000 sec
Threshold for overlap eigenvalues          ... 1.000e-08
Number of eigenvalues below threshold      ... 0
Time for construction of square roots      ...    0.005 sec
Total time needed                          ...    0.005 sec


 InCore treatment chosen:
   Memory dedicated               ...    1024 MB
   Memory needed                  ...      0 MB
   Number of tiny    integrals    ...       0
   Number of small   integrals    ...      61
   Number of regular integrals    ...     383

--------------
SCF ITERATIONS
--------------
ITER       Energy         Delta-E        Max-DP      RMS-DP      [F,P]     Damp
  0    -33.8556474387   0.000000000000 0.00545550  0.00077023  0.0216944 0.7000
  1    -33.8559263238  -0.000278885149 0.00588598  0.00085441  0.0183782 0.7000
                               ***Turning on DIIS***
  2    -33.8561920978  -0.000265773992 0.01761760  0.00263082  0.0150826 0.0000
  3    -33.8621321957  -0.005940097837 0.00950942  0.00152286  0.0058512 0.0000
  4    -33.8615004563   0.000631739348 0.00585818  0.00094151  0.0028079 0.0000
                      *** Initiating the SOSCF procedure ***
                           *** Shutting down DIIS ***
                      *** Re-Reading the Fockian *** 
                      *** Removing any level shift *** 
ITER      Energy       Delta-E        Grad      Rot      Max-DP    RMS-DP
  5    -33.86087450   0.0006259534  0.001940  0.001940  0.003846  0.000570
  6    -33.85737650   0.0034979993  0.000621  0.001926  0.002472  0.000301
  7    -33.85738110  -0.0000045941  0.000271  0.001660  0.002088  0.000276
  8    -33.85738255  -0.0000014562  0.000036  0.000080  0.000075  0.000014
  9    -33.85738257  -0.0000000130  0.000011  0.000034  0.000047  0.000007
                 **** Energy Check signals convergence ****
              ***Rediagonalizing the Fockian in SOSCF/NRSCF***

               *****************************************************
               *                     SUCCESS                       *
               *           SCF CONVERGED AFTER  10 CYCLES          *
               *****************************************************

Total Energy       :          -33.85738257 Eh            -921.30622 eV
  Last Energy change         ...   -1.6087e-09  Tolerance :   1.0000e-08
  Last MAX-Density change    ...    1.2148e-06  Tolerance :   1.0000e-07
             **** THE GBW FILE WAS UPDATED (TS_test.gbw) ****
             **** DENSITY FILE WAS UPDATED (TS_test.scfp.tmp) ****
             **** ENERGY FILE WAS UPDATED (TS_test.en.tmp) ****
Total SCF time: 0 days 0 hours 0 min 0 sec 

-------------------------   --------------------
FINAL SINGLE POINT ENERGY       -33.857382568539
-------------------------   --------------------

------------------------------------------------------------------------------
                          SCF GRADIENT FOR NDO METHODS
------------------------------------------------------------------------------

The cartesian gradient:
   1   C   :   -0.006410116   -0.000009689    0.000084476
   2   Cl  :   -0.004959677   -0.000009033    0.000069214
   3   H   :    0.012917723    0.001444770   -0.001378958
   4   H   :    0.012976186    0.000350880    0.001646757
   5   H   :    0.012938727   -0.001720978   -0.000819866
   6   F   :   -0.027462843   -0.000055949    0.000398378

Norm of the cartesian gradient     ...    0.036512834
RMS gradient                       ...    0.008606158
MAX gradient                       ...    0.027462843
------------------------------------------------------------------------------
                         ORCA GEOMETRY RELAXATION STEP
------------------------------------------------------------------------------

Reading the OPT-File                    .... done
Getting information on internals        .... done
Copying old internal coords+grads       .... done
Making the new internal coordinates     .... (new redundants).... done
Validating the new internal coordinates .... (new redundants).... done
Calculating the B-matrix                .... done
Calculating the G,G- and P matrices     .... done
Transforming gradient to internals      .... done
Projecting the internal gradient        .... done
Number of atoms                         ....   6
Number of internal coordinates          ....  17
Current Energy                          ....   -33.857382569 Eh
Current gradient norm                   ....     0.036512834 Eh/bohr
Maximum allowed component of the step   ....  0.300
Current trust radius                    ....  0.300
Updating the Hessian (Bofill)          .... Diagonalizing the Hessian               .... done
Dimension of the hessian                ....  17
Lowest eigenvalues of the Hessian:
  0.015723863  0.052341127  0.052342641  0.110689092  0.144326789
Hessian has   0 negative eigenvalues
Taking P-RFO step
Searching for lambda that maximizes along the lowest mode
TS mode is mode number   0 with eigenvalue   0.01572386 and components:
   1.   -0.46201694
   2.   -0.01158364
   3.   -0.01160416
   4.   -0.01159490
   5.   -0.39686877
   6.   -0.39676919
   7.    0.02570723
   8.   -0.39681528
   9.    0.22839353
  10.    0.00557257
  11.    0.22839546
  12.    0.00548563
  13.    0.00567583
  14.   -0.22840678
  15.   -0.22838749
  16.   -0.22839535
  17.    0.22840062

Lambda that maximizes along the TS mode:       0.02495233
Searching for lambda that minimizes along all other modes
In cycle   1: lambdaN =  -0.00196104   step =   0.00196104
In cycle   2: lambdaN =  -0.00196156   step =   0.00000052
In cycle   3: lambdaN =  -0.00196156   step =   0.00000000
Lambda that minimizes along all other modes:  -0.00196156
Calculated stepsize too large (   0.9531 >    0.3000). Scaled with    0.3148.
The final length of the internal step   ....       0.3000
Converting the step to cartesian space:
 Initial RMS(Int)=    0.0727606875
Transforming coordinates:
 Iter   0:  RMS(Cart)=    0.0384552442 RMS(Int)=    0.0723649263
 Iter   1:  RMS(Cart)=    0.0027928640 RMS(Int)=    0.0028887283
 Iter   2:  RMS(Cart)=    0.0001084082 RMS(Int)=    0.0001574481
 Iter   3:  RMS(Cart)=    0.0000137766 RMS(Int)=    0.0000142073
 Iter   4:  RMS(Cart)=    0.0000005385 RMS(Int)=    0.0000007859
 Iter   5:  RMS(Cart)=    0.0000000683 RMS(Int)=    0.0000000703
done
Storing new coordinates                 .... done

                                .--------------------.
          ----------------------|Geometry convergence|-------------------------
          Item                value                   Tolerance       Converged
          ---------------------------------------------------------------------
          Energy change       0.0041534293            0.0000050000      NO
          RMS gradient        0.0055783231            0.0001000000      NO
          MAX gradient        0.0090817331            0.0003000000      NO
          RMS step            0.0727606875            0.0020000000      NO
          MAX step            0.0944284900            0.0040000000      NO
          ........................................................
          Max(Bonds)      0.0500      Max(Angles)    5.41
          Max(Dihed)        0.00      Max(Improp)    0.00
          ---------------------------------------------------------------------

The optimization has not yet converged - more geometry cycles are needed


    ---------------------------------------------------------------------------
                         Redundant Internal Coordinates
                            (Angstroem and degrees)

        Definition                    Value    dE/dq     Step     New-Value  comp.(TS mode)
    ----------------------------------------------------------------------------
     1. B(Cl  1,C   0)                2.1538 -0.004960  0.0500    2.2038          0.46
     2. B(H   2,C   0)                1.0779 -0.005595  0.0057    1.0836   
     3. B(H   3,C   0)                1.0779 -0.005602  0.0057    1.0836   
     4. B(H   4,C   0)                1.0779 -0.005599  0.0057    1.0836   
     5. B(F   5,H   2)                2.4777  0.009071  0.0500    2.5277          0.40
     6. B(F   5,H   3)                2.4782  0.009082  0.0500    2.5281          0.40
     7. B(F   5,C   0)                2.1867  0.002942 -0.0113    2.1754   
     8. B(F   5,H   4)                2.4780  0.009077  0.0500    2.5279          0.40
     9. A(Cl  1,C   0,H   3)           87.60 -0.005051   -5.41     82.19   
    10. A(H   2,C   0,H   3)          119.83 -0.000729   -0.17    119.66   
    11. A(Cl  1,C   0,H   4)           87.61 -0.005049   -5.41     82.20   
    12. A(H   2,C   0,H   4)          119.83 -0.000727   -0.16    119.67   
    13. A(H   3,C   0,H   4)          119.82 -0.000731   -0.17    119.65   
    14. A(H   2,C   0,F   5)           92.38  0.005044    5.41     97.79   
    15. A(H   3,C   0,F   5)           92.41  0.005054    5.41     97.82   
    16. A(H   4,C   0,F   5)           92.39  0.005049    5.41     97.80   
    17. A(Cl  1,C   0,H   2)           87.61 -0.005048   -5.41     82.20   
    ----------------------------------------------------------------------------

         *************************************************************
         *                GEOMETRY OPTIMIZATION CYCLE   5            *
         *************************************************************
---------------------------------
CARTESIAN COORDINATES (ANGSTROEM)
---------------------------------
  C     -2.127849   -0.439314    0.014994
  Cl     0.075686   -0.435179   -0.016061
  H     -1.981617   -1.260004    0.703181
  H     -2.007342   -0.626281   -1.042876
  H     -1.989585    0.569197    0.378774
  F     -4.287893   -0.443549    0.045898

----------------------------
CARTESIAN COORDINATES (A.U.)
----------------------------
  NO LB      ZA    FRAG     MASS         X           Y           Z
   0 C     4.0000    0    12.011   -4.021052   -0.830184    0.028335
   1 Cl    7.0000    0    35.453    0.143026   -0.822369   -0.030351
   2 H     1.0000    0     1.008   -3.744714   -2.381063    1.328820
   3 H     1.0000    0     1.008   -3.793326   -1.183500   -1.970751
   4 H     1.0000    0     1.008   -3.759771    1.075627    0.715779
   5 F     7.0000    0    18.998   -8.102943   -0.838185    0.086734

--------------------------------
INTERNAL COORDINATES (ANGSTROEM)
--------------------------------
 C      0   0   0     0.000000000000     0.00000000     0.00000000
 Cl     1   0   0     2.203757913868     0.00000000     0.00000000
 H      1   2   0     1.080979534747    82.82691111     0.00000000
 H      1   2   3     1.081003625770    82.82319489   239.99877343
 H      1   2   3     1.080994374463    82.82502620   120.01026333
 F      1   2   3     2.160269136901   179.98685974    28.55895708

---------------------------
INTERNAL COORDINATES (A.U.)
---------------------------
 C      0   0   0     0.000000000000     0.00000000     0.00000000
 Cl     1   0   0     4.164498922672     0.00000000     0.00000000
 H      1   2   0     2.042755277046    82.82691111     0.00000000
 H      1   2   3     2.042800802482    82.82319489   239.99877343
 H      1   2   3     2.042783320045    82.82502620   120.01026333
 F      1   2   3     4.082317044306   179.98685974    28.55895708

------------------------------------------------------------------------------
                           ORCA NDO INTEGRAL CALCULATION
------------------------------------------------------------------------------

--------------
NDO PARAMETERS
--------------

Gamma integral treatment              ... MOPAC
Nuclear repulsuion treatment          ... AM1-style
Interaction factors:
s-s (sigma) =    1.0000
s-p (sigma) =    1.0000
s-d (sigma) =    1.0000
p-p (sigma) =    1.0000  p-p(pi) =    1.0000
p-d (sigma) =    1.0000  p-d(pi) =    1.0000
d-d (sigma) =    1.0000  d-d(pi) =    1.0000 d-d (delta) =    1.0000

--------------------------
Parameters for Element H :
--------------------------
 One-electron parameters (in eV)
  U(s)  =   -13.073321 Beta(s) =     5.626512 Neff(s) =     1.000000
 One-center electron repulsion parameters (in eV)
  G(s,s)=    14.794208
--------------------------
Parameters for Element C :
--------------------------
 One-electron parameters (in eV)
  U(s)  =   -47.270320 Beta(s) =    11.910015 Neff(s) =     2.000000
  U(p)  =   -36.266918 Beta(p) =     9.802755 Neff(p) =     2.000000 
 One-center electron repulsion parameters (in eV)
  G(s,s)=    11.200708
  G(s,p)=    10.265027 G(p,p)  =     9.627141
 Slater-Condon parameters (in eV)
 F2(p,p)=     7.3072 G1(s,p)=    6.8729
--------------------------
Parameters for Element F :
--------------------------
 One-electron parameters (in eV)
  U(s)  =  -110.435303 Beta(s) =    48.405939 Neff(s) =     2.000000
  U(p)  =  -105.685047 Beta(p) =    27.744660 Neff(p) =     5.000000 
 One-center electron repulsion parameters (in eV)
  G(s,s)=    10.496667
  G(s,p)=    16.073689 G(p,p)  =    14.551347
 Slater-Condon parameters (in eV)
 F2(p,p)=     1.6619 G1(s,p)=    2.1833
--------------------------
Parameters for Element Cl:
--------------------------
 One-electron parameters (in eV)
  U(s)  =  -100.626747 Beta(s) =    27.528560 Neff(s) =     2.000000
  U(p)  =   -53.614396 Beta(p) =    11.593922 Neff(p) =     5.000000 
 One-center electron repulsion parameters (in eV)
  G(s,s)=    16.013601
  G(s,p)=     8.048115 G(p,p)  =     7.510174
 Slater-Condon parameters (in eV)
 F2(p,p)=     0.0753 G1(s,p)=   10.4435

 Number of atoms                    ....    6
 Number of basis functions          ....   15

 Overlap integrals                  .... done
 One electron matrix                .... done
 Nuclear repulsion                  .... done
 Integral list                      .... done
 Electron-electron repulsion        .... done

Diagonalization of the overlap matrix:
Smallest eigenvalue                        ... 2.034e-01
Time for diagonalization                   ...    0.000 sec
Threshold for overlap eigenvalues          ... 1.000e-08
Number of eigenvalues below threshold      ... 0
Time for construction of square roots      ...    0.004 sec
Total time needed                          ...    0.005 sec


 InCore treatment chosen:
   Memory dedicated               ...    1024 MB
   Memory needed                  ...      0 MB
   Number of tiny    integrals    ...       0
   Number of small   integrals    ...      61
   Number of regular integrals    ...     383

--------------
SCF ITERATIONS
--------------
ITER       Energy         Delta-E        Max-DP      RMS-DP      [F,P]     Damp
  0    -33.8488308275   0.000000000000 0.00689849  0.00106210  0.0289396 0.7000
  1    -33.8493378504  -0.000507022906 0.00744139  0.00119644  0.0245277 0.7000
                               ***Turning on DIIS***
  2    -33.8498285600  -0.000490709656 0.02230378  0.00371282  0.0201429 0.0000
  3    -33.8596599946  -0.009831434612 0.01255756  0.00215750  0.0078539 0.0000
  4    -33.8578422488   0.001817745837 0.00851154  0.00130206  0.0037624 0.0000
                      *** Initiating the SOSCF procedure ***
                           *** Shutting down DIIS ***
                      *** Re-Reading the Fockian *** 
                      *** Removing any level shift *** 
ITER      Energy       Delta-E        Grad      Rot      Max-DP    RMS-DP
  5    -33.85649112   0.0013511329  0.002651  0.002651  0.005626  0.000759
  6    -33.85205435   0.0044367697  0.000854  0.002644  0.003468  0.000404
  7    -33.85206250  -0.0000081506  0.000359  0.002145  0.003030  0.000352
  8    -33.85206493  -0.0000024318  0.000053  0.000122  0.000150  0.000023
  9    -33.85206496  -0.0000000316  0.000016  0.000051  0.000074  0.000012
                 **** Energy Check signals convergence ****
              ***Rediagonalizing the Fockian in SOSCF/NRSCF***

               *****************************************************
               *                     SUCCESS                       *
[...]
                     *******************************

----------------------
LOEWDIN ATOMIC CHARGES
----------------------
   0 C :    0.308059
   1 Cl:   -0.596225
   2 H :    0.045079
   3 H :    0.045076
   4 H :    0.045075
   5 F :   -0.847064

-------------------------------
LOEWDIN REDUCED ORBITAL CHARGES
-------------------------------
  0 C s       :     1.194814  s :     1.194814
      pz      :     0.980388  p :     2.497127
      px      :     0.536269
      py      :     0.980470
  1 Cls       :     1.992555  s :     1.992555
      pz      :     1.999833  p :     5.603670
      px      :     1.603926
      py      :     1.999911
  2 H s       :     0.954921  s :     0.954921
  3 H s       :     0.954924  s :     0.954924
  4 H s       :     0.954925  s :     0.954925
  5 F s       :     1.991042  s :     1.991042
      pz      :     1.999116  p :     5.856022
      px      :     1.857762
      py      :     1.999144


                      *****************************
                      * MAYER POPULATION ANALYSIS *
                      *****************************

  NA   - Mulliken gross atomic population
  ZA   - Total nuclear charge
  QA   - Mulliken gross atomic charge
  VA   - Mayer's total valence
  BVA  - Mayer's bonded valence
  FA   - Mayer's free valence

  ATOM       NA         ZA         QA         VA         BVA        FA
  0 C      3.8969     4.0000     0.1031     3.4288     3.4288    -0.0000
  1 Cl     7.6114     7.0000    -0.6114     0.6255     0.6255    -0.0000
  2 H      0.8812     1.0000     0.1188     0.9859     0.9859    -0.0000
  3 H      0.8812     1.0000     0.1188     0.9859     0.9859    -0.0000
  4 H      0.8812     1.0000     0.1188     0.9859     0.9859    -0.0000
  5 F      7.8482     7.0000    -0.8482     0.2817     0.2817     0.0000

  Mayer bond orders larger than 0.1
B(  0-C ,  1-Cl) :   0.5408 B(  0-C ,  2-H ) :   0.8891 B(  0-C ,  3-H ) :   0.8891 
B(  0-C ,  4-H ) :   0.8891 B(  0-C ,  5-F ) :   0.2208 

-------
TIMINGS
-------

Total SCF time: 0 days 0 hours 0 min 0 sec 

Total time                  ....       0.218 sec
Sum of individual times     ....       0.070 sec  ( 32.0%)

Fock matrix formation       ....       0.044 sec  ( 20.4%)
Diagonalization             ....       0.000 sec  (  0.1%)
Density matrix formation    ....       0.000 sec  (  0.0%)
Population analysis         ....       0.016 sec  (  7.2%)
Initial guess               ....       0.004 sec  (  1.7%)
Orbital Transformation      ....       0.000 sec  (  0.0%)
Orbital Orthonormalization  ....       0.000 sec  (  0.0%)
DIIS solution               ....       0.000 sec  (  0.0%)
SOSCF solution              ....       0.006 sec  (  2.6%)

-------------------------   --------------------
FINAL SINGLE POINT ENERGY       -33.865407694733
-------------------------   --------------------

                                *** OPTIMIZATION RUN DONE ***

                            ***************************************
                            *     ORCA property calculations      *
                            ***************************************

                                    ---------------------
                                    Active property flags
                                    ---------------------
   (+) Dipole Moment


------------------------------------------------------------------------------
                       ORCA ELECTRIC PROPERTIES CALCULATION
------------------------------------------------------------------------------

Dipole Moment Calculation                       ... on
Quadrupole Moment Calculation                   ... off
Polarizability Calculation                      ... off
GBWName                                         ... TS_test.gbw
Electron density file                           ... TS_test.scfp.tmp
The origin for moment calculation is the CENTER OF MASS  = (-2.855722, -0.827998  0.011907)

-------------
DIPOLE MOMENT
-------------
                                X             Y             Z
Electronic contribution:     25.75803       0.04913      -0.36521
Nuclear contribution   :    -19.98040      -0.03810       0.28323
                        -----------------------------------------
Total Dipole Moment    :      5.77764       0.01102      -0.08198
                        -----------------------------------------
Magnitude (a.u.)       :      5.77823
Magnitude (Debye)      :     14.68709


----------------------------------------------------------------------------
                           ORCA NUMERICAL FREQUENCIES
----------------------------------------------------------------------------

Number of atoms                ... 6
Central differences            ... used
Number of displacements        ... 36
Numerical increment            ...  0.005 bohr
IR-spectrum generation         ... on
Raman-spectrum generation      ... off
Surface Crossing Hessian       ... off

The output will be reduced. Please look at the following files:
SCF program output             ... >TS_test.lastscf
Integral program output        ... >TS_test.lastint
Gradient program output        ... >TS_test.lastgrad
Dipole moment program output   ... >TS_test.lastmom


         <<<Energy and Gradient at the input geometry>>>
             <<<Displacing   1/coordinate 1 (+)>>>
             <<<Displacing   1/coordinate 1 (-)>>>
             <<<Displacing   1/coordinate 2 (+)>>>
             <<<Displacing   1/coordinate 2 (-)>>>
             <<<Displacing   1/coordinate 3 (+)>>>
             <<<Displacing   1/coordinate 3 (-)>>>
             <<<Displacing   2/coordinate 1 (+)>>>
             <<<Displacing   2/coordinate 1 (-)>>>
             <<<Displacing   2/coordinate 2 (+)>>>
             <<<Displacing   2/coordinate 2 (-)>>>
             <<<Displacing   2/coordinate 3 (+)>>>
             <<<Displacing   2/coordinate 3 (-)>>>
             <<<Displacing   3/coordinate 1 (+)>>>
             <<<Displacing   3/coordinate 1 (-)>>>
             <<<Displacing   3/coordinate 2 (+)>>>
             <<<Displacing   3/coordinate 2 (-)>>>
             <<<Displacing   3/coordinate 3 (+)>>>
             <<<Displacing   3/coordinate 3 (-)>>>
             <<<Displacing   4/coordinate 1 (+)>>>
             <<<Displacing   4/coordinate 1 (-)>>>
             <<<Displacing   4/coordinate 2 (+)>>>
             <<<Displacing   4/coordinate 2 (-)>>>
             <<<Displacing   4/coordinate 3 (+)>>>
             <<<Displacing   4/coordinate 3 (-)>>>
             <<<Displacing   5/coordinate 1 (+)>>>
             <<<Displacing   5/coordinate 1 (-)>>>
             <<<Displacing   5/coordinate 2 (+)>>>
             <<<Displacing   5/coordinate 2 (-)>>>
             <<<Displacing   5/coordinate 3 (+)>>>
             <<<Displacing   5/coordinate 3 (-)>>>
             <<<Displacing   6/coordinate 1 (+)>>>
             <<<Displacing   6/coordinate 1 (-)>>>
             <<<Displacing   6/coordinate 2 (+)>>>
             <<<Displacing   6/coordinate 2 (-)>>>
             <<<Displacing   6/coordinate 3 (+)>>>
             <<<Displacing   6/coordinate 3 (-)>>>

-----------------------
VIBRATIONAL FREQUENCIES
-----------------------

   0:         0.00 cm**-1
   1:         0.00 cm**-1
   2:         0.00 cm**-1
   3:         0.00 cm**-1
   4:         0.00 cm**-1
   5:         0.00 cm**-1
   6:      -503.24 cm**-1 ***imaginary mode***
   7:       173.47 cm**-1
   8:       173.53 cm**-1
   9:       331.23 cm**-1
  10:       929.12 cm**-1
  11:       929.15 cm**-1
  12:      1074.81 cm**-1
  13:      1269.59 cm**-1
  14:      1269.95 cm**-1
  15:      3107.08 cm**-1
  16:      3186.99 cm**-1
  17:      3187.08 cm**-1


------------
NORMAL MODES
------------

These modes are the cartesian displacements weighted by the diagonal matrix
M(i,i)=1/sqrt(m[i]) where m[i] is the mass of the displaced atom
Thus, these vectors are normalized but *not* orthogonal

                  0          1          2          3          4          5    
      0       0.000000   0.000000   0.000000   0.000000   0.000000   0.000000
      1       0.000000   0.000000   0.000000   0.000000   0.000000   0.000000
      2       0.000000   0.000000   0.000000   0.000000   0.000000   0.000000
      3       0.000000   0.000000   0.000000   0.000000   0.000000   0.000000
      4       0.000000   0.000000   0.000000   0.000000   0.000000   0.000000
      5       0.000000   0.000000   0.000000   0.000000   0.000000   0.000000
      6       0.000000   0.000000   0.000000   0.000000   0.000000   0.000000
      7       0.000000   0.000000   0.000000   0.000000   0.000000   0.000000
      8       0.000000   0.000000   0.000000   0.000000   0.000000   0.000000
      9       0.000000   0.000000   0.000000   0.000000   0.000000   0.000000
     10       0.000000   0.000000   0.000000   0.000000   0.000000   0.000000
     11       0.000000   0.000000   0.000000   0.000000   0.000000   0.000000
     12       0.000000   0.000000   0.000000   0.000000   0.000000   0.000000
     13       0.000000   0.000000   0.000000   0.000000   0.000000   0.000000
     14       0.000000   0.000000   0.000000   0.000000   0.000000   0.000000
     15       0.000000   0.000000   0.000000   0.000000   0.000000   0.000000
     16       0.000000   0.000000   0.000000   0.000000   0.000000   0.000000
     17       0.000000   0.000000   0.000000   0.000000   0.000000   0.000000
                  6          7          8          9         10         11    
      0      -0.875088   0.006553   0.000023   0.351921  -0.000385  -0.000774
      1      -0.001834  -0.063162   0.430397   0.000468  -0.051776   0.034350
      2       0.012973   0.430444   0.063152  -0.004377  -0.034372  -0.051725
      3       0.087127  -0.001243  -0.000030  -0.519205   0.000102   0.000195
      4       0.000205   0.013429  -0.091513  -0.000949   0.013775  -0.009146
      5      -0.001364  -0.091522  -0.013428   0.007232   0.009143   0.013769
      6       0.130605   0.163255  -0.138405  -0.090081  -0.226755   0.775848
      7      -0.087795  -0.050282   0.478248   0.025403   0.068340  -0.027237
      8       0.072826   0.477322   0.091964  -0.019758   0.058227   0.046274
      9       0.126940  -0.191348  -0.066081  -0.089689  -0.556920  -0.583238
     10      -0.020222  -0.080022   0.496331   0.005541   0.070378  -0.054269
     11      -0.114079   0.464495   0.061810   0.035034   0.038114   0.062642
     12       0.129297   0.049309   0.204651  -0.089996   0.785137  -0.189040
     13       0.107855  -0.080533   0.462590  -0.032014   0.050155  -0.043635
     14       0.038321   0.495172   0.057127  -0.009609   0.029168   0.079735
     15       0.370135  -0.002948   0.000032   0.760732  -0.000025  -0.000064
     16       0.000785   0.026058  -0.177584   0.001532  -0.002993   0.001989
     17      -0.005500  -0.177588  -0.026058  -0.011029  -0.001991  -0.003002
                 12         13         14         15         16         17    
      0       0.004507   0.000272   0.001276   0.016143   0.000843   0.001130
      1      -0.000012   0.088043  -0.030490   0.000082  -0.086299   0.047328
      2      -0.000023   0.030475   0.088016  -0.000281   0.047327   0.086289
      3       0.032077   0.000001  -0.000010   0.001387   0.000004   0.000004
      4       0.000061  -0.000361   0.000127   0.000003  -0.000198   0.000109
      5      -0.000457  -0.000122  -0.000359  -0.000020   0.000109   0.000199
      6      -0.571776  -0.077996   0.115718  -0.071987   0.108339   0.021834
      7       0.059416  -0.402652  -0.324241  -0.438422   0.600823   0.131328
      8      -0.042788  -0.552818  -0.261743   0.369569  -0.510935  -0.088888
      9      -0.570522  -0.064004  -0.121134  -0.085613  -0.041642  -0.123173
     10       0.012892  -0.676157   0.395770  -0.099936  -0.060993  -0.127731
     11       0.086043   0.167447   0.015121  -0.561694  -0.250599  -0.748959
     12      -0.571617   0.138802  -0.008759  -0.076135  -0.076872   0.087732
     13      -0.075435   0.084877   0.272668   0.537309   0.494623  -0.570906
     14      -0.019053   0.041240  -0.747211   0.196078   0.194211  -0.196548
     15       0.028228  -0.000005  -0.000036  -0.000393   0.000000   0.000001
     16       0.000060  -0.002253   0.000777  -0.000001   0.000045  -0.000024
     17      -0.000417  -0.000781  -0.002245   0.000006  -0.000024  -0.000042


-----------
IR SPECTRUM
-----------

 Mode    freq (cm**-1)   T**2         TX         TY         TZ
-------------------------------------------------------------------
   7:       173.47  573.889339  ( -0.347388   3.476384 -23.699861)
   8:       173.53  573.576028  ( -0.003072 -23.695211  -3.480373)
   9:       331.23    4.167889  (  2.041079   0.008076  -0.042648)
  10:       929.12   12.587324  ( -0.024410  -2.953194  -1.966056)
  11:       929.15   12.557748  ( -0.066978   1.955920  -2.954258)
  12:      1074.81  1942.810822  ( 44.072835   0.081282  -0.624077)
  13:      1269.59  259.183468  (  0.048361  15.215036   5.261540)
  14:      1269.95  260.083508  (  0.219335  -5.280404  15.236559)
  15:      3107.08  740.134705  (-27.202686  -0.053462   0.381749)
  16:      3186.99  553.867544  ( -0.204494  20.631501 -11.321082)
  17:      3187.08  552.452278  ( -0.259370 -11.306016 -20.604830)

The first frequency considered to be a vibration is 7
The total number of vibrations considered is 11


--------------------------
THERMOCHEMISTRY AT 298.15K
--------------------------

Temperature         ... 298.15 K
Pressure            ... 1.00 atm
Total Mass          ... 69.49 AMU

Throughout the following assumptions are being made:
  (1) The electronic state is orbitally nondegenerate
  (2) There are no thermally accessible electronically excited states
  (3) Hindered rotations indicated by low frequency modes are not
      treated as such but are treated as vibrations and this may
      cause some error
  (4) All equations used are the standard statistical mechanics
      equations for an ideal gas
  (5) All vibrations are strictly harmonic

freq.     173.47  E(vib)   ...       0.38 
freq.     173.53  E(vib)   ...       0.38 
freq.     331.23  E(vib)   ...       0.24 
freq.     929.12  E(vib)   ...       0.03 
freq.     929.15  E(vib)   ...       0.03 
freq.    1074.81  E(vib)   ...       0.02 
freq.    1269.59  E(vib)   ...       0.01 
freq.    1269.95  E(vib)   ...       0.01 
freq.    3107.08  E(vib)   ...       0.00 
freq.    3186.99  E(vib)   ...       0.00 
freq.    3187.08  E(vib)   ...       0.00 

------------
INNER ENERGY
------------

The inner energy is: U= E(el) + E(ZPE) + E(vib) + E(rot) + E(trans)
    E(el)   - is the total energy from the electronic structure calculation
              = E(kin-el) + E(nuc-el) + E(el-el) + E(nuc-nuc)
    E(ZPE)  - the the zero temperature vibrational energy from the frequency calculation
    E(vib)  - the the finite temperature correction to E(ZPE) due to population
              of excited vibrational states
    E(rot)  - is the rotational thermal energy
    E(trans)- is the translational thermal energy

Summary of contributions to the inner energy U:
Electronic energy                ...    -33.86540769 Eh
Zero point energy                ...      0.03561230 Eh      22.35 kcal/mol
Thermal vibrational correction   ...      0.00173906 Eh       1.09 kcal/mol
Thermal rotational correction    ...      0.00141627 Eh       0.89 kcal/mol
Thermal translational correction ...      0.00141627 Eh       0.89 kcal/mol
-----------------------------------------------------------------------
Total thermal energy                    -33.82522379 Eh


Summary of corrections to the electronic energy:
(perhaps to be used in another calculation)
Total thermal correction                  0.00457160 Eh       2.87 kcal/mol
Non-thermal (ZPE) correction              0.03561230 Eh      22.35 kcal/mol
-----------------------------------------------------------------------
Total correction                          0.04018390 Eh      25.22 kcal/mol


--------
ENTHALPY
--------

The enthalpy is H = U + kB*T
                kB is Boltzmann's constant
Total free energy                 ...    -33.82522379 Eh 
Thermal Enthalpy correction       ...      0.00094421 Eh       0.59 kcal/mol
-----------------------------------------------------------------------
Total Enthalpy                    ...    -33.82427958 Eh


Vibrational entropy computed according to the QRRHO of S. Grimme
Chem.Eur.J. 2012 18 9955


-------
ENTROPY
-------

The entropy contributions are T*S = T*(S(el)+S(vib)+S(rot)+S(trans)
     S(el)   - electronic entropy
     S(vib)  - vibrational entropy
     S(rot)  - rotational entropy
     S(trans)- translational entropy
The entropies will be listed as mutliplied by the temperature to get
units of energy

Electronic entropy                ...      0.00000000 Eh      0.00 kcal/mol
Vibrational entropy               ...      0.00304757 Eh      1.91 kcal/mol
Rotational entropy                ...      0.01016026 Eh      6.38 kcal/mol
Translational entropy             ...      0.01835566 Eh     11.52 kcal/mol
-----------------------------------------------------------------------
Final entropy term                ...      0.03156349 Eh     19.81 kcal/mol


CAUTION: The rotational entropy is not quite correctly treated here
         because it includes a symmetry number that is not yet correctly
         implemented in ORCA!
For a nonlinear molecule the correct rotational entropy is:
    S(rot) = R*(ln(qrot/sn)+1.5)
    R    = 8.31441 J/mol/K = 1.987191683e-3 kcal/mol/K
    qrot = 31556.7272165
    sn is the rotational symmetry number. We have assumed 3 here
       if it is different for your molecule then you should correct
       the printed rotational entropy by manually evaluating the equation
       as given above

For convenience we print out the resulting values for sn=1 - 12:
 sn= 1  qrot/sn=   31556.7272 T*S(rot)=     7.03 kcal/mol T*S(tot)=    20.46 kcal/mol
 sn= 2  qrot/sn=   15778.3636 T*S(rot)=     6.62 kcal/mol T*S(tot)=    20.05 kcal/mol
 sn= 3  qrot/sn=   10518.9091 T*S(rot)=     6.38 kcal/mol T*S(tot)=    19.81 kcal/mol
 sn= 4  qrot/sn=    7889.1818 T*S(rot)=     6.21 kcal/mol T*S(tot)=    19.64 kcal/mol
 sn= 5  qrot/sn=    6311.3454 T*S(rot)=     6.07 kcal/mol T*S(tot)=    19.50 kcal/mol
 sn= 6  qrot/sn=    5259.4545 T*S(rot)=     5.96 kcal/mol T*S(tot)=    19.40 kcal/mol
 sn= 7  qrot/sn=    4508.1039 T*S(rot)=     5.87 kcal/mol T*S(tot)=    19.30 kcal/mol
 sn= 8  qrot/sn=    3944.5909 T*S(rot)=     5.79 kcal/mol T*S(tot)=    19.23 kcal/mol
 sn= 9  qrot/sn=    3506.3030 T*S(rot)=     5.72 kcal/mol T*S(tot)=    19.16 kcal/mol
 sn=10  qrot/sn=    3155.6727 T*S(rot)=     5.66 kcal/mol T*S(tot)=    19.09 kcal/mol
 sn=11  qrot/sn=    2868.7934 T*S(rot)=     5.61 kcal/mol T*S(tot)=    19.04 kcal/mol
 sn=12  qrot/sn=    2629.7273 T*S(rot)=     5.55 kcal/mol T*S(tot)=    18.98 kcal/mol


-------------------
GIBBS FREE ENTHALPY
-------------------

The Gibbs free enthalpy is G = H - T*S

Total enthalpy                    ...    -33.82427958 Eh 
Total entropy correction          ...     -0.03156349 Eh    -19.81 kcal/mol
-----------------------------------------------------------------------
Final Gibbs free enthalpy         ...    -33.85584307 Eh

For completeness - the Gibbs free enthalpy minus the electronic energy
G-E(el)                           ...      0.00956462 Eh      6.00 kcal/mol


Total Time for Numerical Frequencies  :        18.913 sec

Timings for individual modules:

Sum of individual times         ...        6.739 sec (=   0.112 min)
STO integral calculation        ...        0.747 sec (=   0.012 min)  11.1 %
SCF iterations                  ...        4.850 sec (=   0.081 min)  72.0 %
SCF Gradient evaluation         ...        0.391 sec (=   0.007 min)   5.8 %
Geometry relaxation             ...        0.751 sec (=   0.013 min)  11.2 %
                             ****ORCA TERMINATED NORMALLY****
TOTAL RUN TIME: 0 days 0 hours 0 minutes 26 seconds 770 msec
