 Entering Gaussian System, Link 0=g03
 Input=BenzylFreq.com
 Output=BenzylFreq.log
 Initial command:
 /opt/g03/l1.exe /scratch/laitcl/Gau-32548.inp -scrdir=/scratch/laitcl/
 Entering Link 1 = /opt/g03/l1.exe PID=     32550.
  
 Copyright (c) 1988,1990,1992,1993,1995,1998,2003,2004, Gaussian, Inc.
                  All Rights Reserved.
  
 This is the Gaussian(R) 03 program.  It is based on the
 the Gaussian(R) 98 system (copyright 1998, Gaussian, Inc.),
 the Gaussian(R) 94 system (copyright 1995, Gaussian, Inc.),
 the Gaussian 92(TM) system (copyright 1992, Gaussian, Inc.),
 the Gaussian 90(TM) system (copyright 1990, Gaussian, Inc.),
 the Gaussian 88(TM) system (copyright 1988, Gaussian, Inc.),
 the Gaussian 86(TM) system (copyright 1986, Carnegie Mellon
 University), and the Gaussian 82(TM) system (copyright 1983,
 Carnegie Mellon University). Gaussian is a federally registered
 trademark of Gaussian, Inc.
  
 This software contains proprietary and confidential information,
 including trade secrets, belonging to Gaussian, Inc.
  
 This software is provided under written license and may be
 used, copied, transmitted, or stored only in accord with that
 written license.
  
 The following legend is applicable only to US Government
 contracts under FAR:
  
                    RESTRICTED RIGHTS LEGEND
  
 Use, reproduction and disclosure by the US Government is
 subject to restrictions as set forth in subparagraphs (a)
 and (c) of the Commercial Computer Software - Restricted
 Rights clause in FAR 52.227-19.
  
 Gaussian, Inc.
 340 Quinnipiac St., Bldg. 40, Wallingford CT 06492
  
  
 ---------------------------------------------------------------
 Warning -- This program may not be used in any manner that
 competes with the business of Gaussian, Inc. or will provide
 assistance to any competitor of Gaussian, Inc.  The licensee
 of this program is prohibited from giving any competitor of
 Gaussian, Inc. access to this program.  By using this program,
 the user acknowledges that Gaussian, Inc. is engaged in the
 business of creating and licensing software in the field of
 computational chemistry and represents and warrants to the
 licensee that it is not a competitor of Gaussian, Inc. and that
 it will not use this program in any manner prohibited above.
 ---------------------------------------------------------------
  

 Cite this work as:
 Gaussian 03, Revision D.01,
 M. J. Frisch, G. W. Trucks, H. B. Schlegel, G. E. Scuseria, 
 M. A. Robb, J. R. Cheeseman, J. A. Montgomery, Jr., T. Vreven, 
 K. N. Kudin, J. C. Burant, J. M. Millam, S. S. Iyengar, J. Tomasi, 
 V. Barone, B. Mennucci, M. Cossi, G. Scalmani, N. Rega, 
 G. A. Petersson, H. Nakatsuji, M. Hada, M. Ehara, K. Toyota, 
 R. Fukuda, J. Hasegawa, M. Ishida, T. Nakajima, Y. Honda, O. Kitao, 
 H. Nakai, M. Klene, X. Li, J. E. Knox, H. P. Hratchian, J. B. Cross, 
 V. Bakken, C. Adamo, J. Jaramillo, R. Gomperts, R. E. Stratmann, 
 O. Yazyev, A. J. Austin, R. Cammi, C. Pomelli, J. W. Ochterski, 
 P. Y. Ayala, K. Morokuma, G. A. Voth, P. Salvador, J. J. Dannenberg, 
 V. G. Zakrzewski, S. Dapprich, A. D. Daniels, M. C. Strain, 
 O. Farkas, D. K. Malick, A. D. Rabuck, K. Raghavachari, 
 J. B. Foresman, J. V. Ortiz, Q. Cui, A. G. Baboul, S. Clifford, 
 J. Cioslowski, B. B. Stefanov, G. Liu, A. Liashenko, P. Piskorz, 
 I. Komaromi, R. L. Martin, D. J. Fox, T. Keith, M. A. Al-Laham, 
 C. Y. Peng, A. Nanayakkara, M. Challacombe, P. M. W. Gill, 
 B. Johnson, W. Chen, M. W. Wong, C. Gonzalez, and J. A. Pople, 
 Gaussian, Inc., Wallingford CT, 2004.
 
 ******************************************
 Gaussian 03:  AM64L-G03RevD.01 13-Oct-2005
                 7-Mar-2017 
 ******************************************
 %chk=BenzylFreq.chk
 %mem=1000mb
 %nproc=8
 Will use up to    8 processors via shared memory.
 -------------------------------------
 # freq nosymm b3lyp/cbsb7 iop(7/33=1)
 -------------------------------------
 1/10=4,30=1,38=1/1,3;
 2/15=1,17=6,18=5,40=1/2;
 3/5=4,6=6,7=700,11=2,16=1,25=1,30=1,74=-5/1,2,3;
 4//1;
 5/5=2,38=5/2;
 8/6=4,10=90,11=11/1;
 11/6=1,8=1,9=11,15=111,16=1,31=1/1,2,10;
 10/6=1,31=1/2;
 6/7=2,8=2,9=2,10=2,18=1,28=1/1;
 7/8=1,10=1,25=1,30=1,33=1/1,2,3,16;
 1/10=4,30=1/3;
 99//99;
 -----------
 Benzyl Freq
 -----------
 Symbolic Z-matrix:
 Charge =  0 Multiplicity = 2
 C                     0.        0.       -1.90931 
 C                     0.        1.20973  -1.20462 
 C                     0.        1.21637   0.17817 
 C                     0.        0.        0.92089 
 C                     0.       -1.21637   0.17817 
 C                     0.       -1.20973  -1.20462 
 H                     0.        0.       -2.99302 
 H                     0.        2.14897  -1.74692 
 H                     0.        2.15757   0.71765 
 H                     0.       -2.15757   0.71765 
 H                     0.       -2.14897  -1.74692 
 C                     0.        0.        2.32493 
 H                     0.        0.92727   2.88399 
 H                     0.       -0.92727   2.88399 
 

 GradGradGradGradGradGradGradGradGradGradGradGradGradGradGradGradGradGrad
 Berny optimization.
 Initialization pass.
 Trust Radius=3.00D-01 FncErr=1.00D-07 GrdErr=1.00D-07
 Number of steps in this run=   2 maximum allowed number of steps=   2.
 GradGradGradGradGradGradGradGradGradGradGradGradGradGradGradGradGradGrad

                          Input orientation:                          
 ---------------------------------------------------------------------
 Center     Atomic     Atomic              Coordinates (Angstroms)
 Number     Number      Type              X           Y           Z
 ---------------------------------------------------------------------
    1          6             0        0.000000    0.000000   -1.909310
    2          6             0        0.000000    1.209730   -1.204620
    3          6             0        0.000000    1.216370    0.178170
    4          6             0        0.000000    0.000000    0.920890
    5          6             0        0.000000   -1.216370    0.178170
    6          6             0        0.000000   -1.209730   -1.204620
    7          1             0        0.000000    0.000000   -2.993020
    8          1             0        0.000000    2.148970   -1.746920
    9          1             0        0.000000    2.157570    0.717650
   10          1             0        0.000000   -2.157570    0.717650
   11          1             0        0.000000   -2.148970   -1.746920
   12          6             0        0.000000    0.000000    2.324930
   13          1             0        0.000000    0.927270    2.883990
   14          1             0        0.000000   -0.927270    2.883990
 ---------------------------------------------------------------------
                    Distance matrix (angstroms):
                    1          2          3          4          5
     1  C    0.000000
     2  C    1.400012   0.000000
     3  C    2.416015   1.382806   0.000000
     4  C    2.830200   2.445657   1.425198   0.000000
     5  C    2.416015   2.792502   2.432740   1.425198   0.000000
     6  C    1.400012   2.419460   2.792502   2.445657   1.382806
     7  H    1.083710   2.159125   3.396469   3.913910   3.396469
     8  H    2.155097   1.084556   2.139092   3.425680   3.877046
     9  H    3.399416   2.143250   1.084848   2.167121   3.416798
    10  H    3.399416   3.877348   3.416798   2.167121   1.084848
    11  H    2.155097   3.402199   3.877046   3.425680   2.139092
    12  C    4.234240   3.731108   2.467415   1.404040   2.467415
    13  H    4.882167   4.098355   2.721220   2.171081   3.452051
    14  H    4.882167   4.613404   3.452051   2.171081   2.721220
                    6          7          8          9         10
     6  C    0.000000
     7  H    2.159125   0.000000
     8  H    3.402199   2.484117   0.000000
     9  H    3.877348   4.292340   2.464585   0.000000
    10  H    2.143250   4.292340   4.961894   4.315140   0.000000
    11  H    1.084556   2.484117   4.297940   4.961894   2.464585
    12  C    3.731108   5.317950   4.604132   2.690438   2.690438
    13  H    4.613404   5.949712   4.789351   2.491318   3.769518
    14  H    4.098355   5.949712   5.559549   3.769518   2.491318
                   11         12         13         14
    11  H    0.000000
    12  C    4.604132   0.000000
    13  H    5.559549   1.082764   0.000000
    14  H    4.789351   1.082764   1.854540   0.000000
 Symmetry turned off by external request.
 Stoichiometry    C7H7(2)
 Framework group  C2V[C2(HCCC),SGV(C4H6)]
 Deg. of freedom    13
 Full point group                 C2V
 Rotational constants (GHZ):      5.5501593      2.7072571      1.8196622
 Standard basis: CBSB7 (5D, 7F)
 Integral buffers will be    131072 words long.
 Raffenetti 2 integral format.
 Two-electron integral symmetry is turned off.
   168 basis functions,   280 primitive gaussians,   175 cartesian basis functions
    25 alpha electrons       24 beta electrons
       nuclear repulsion energy       260.1086041667 Hartrees.
 NAtoms=   14 NActive=   14 NUniq=   14 SFac= 7.50D-01 NAtFMM=   80 NAOKFM=F Big=F
 One-electron integrals computed using PRISM.
 NBasis=   168 RedAO= T  NBF=   168
 NBsUse=   168 1.00D-06 NBFU=   168
 Harris functional with IExCor=  402 diagonalized for initial guess.
 ExpMin= 1.03D-01 ExpMax= 4.56D+03 ExpMxC= 6.82D+02 IAcc=1 IRadAn=         1 AccDes= 1.00D-06
 HarFok:  IExCor= 402 AccDes= 1.00D-06 IRadAn=         1 IDoV=1
 ScaDFX=  1.000000  1.000000  1.000000  1.000000
 <S**2> of initial guess= 0.7500
 Requested convergence on RMS density matrix=1.00D-08 within 128 cycles.
 Requested convergence on MAX density matrix=1.00D-06.
 Requested convergence on             energy=1.00D-06.
 No special actions if energy rises.
 Integral accuracy reduced to 1.0D-05 until final iterations.
 Initial convergence to 1.0D-05 achieved.  Increase integral accuracy.
 SCF Done:  E(UB+HF-LYP) =  -270.983927995     A.U. after   18 cycles
             Convg  =    0.9337D-08             -V/T =  2.0045
             S**2   =   0.7812
 Annihilation of the first spin contaminant:
 S**2 before annihilation     0.7812,   after     0.7507
 Range of M.O.s used for correlation:     1   168
 NBasis=   168 NAE=    25 NBE=    24 NFC=     0 NFV=     0
 NROrb=    168 NOA=    25 NOB=    24 NVA=   143 NVB=   144

 **** Warning!!: The largest alpha MO coefficient is  0.18623378D+02


 **** Warning!!: The largest beta MO coefficient is  0.18607029D+02

 Symmetrizing basis deriv contribution to polar:
 IMax=3 JMax=2 DiffMx= 0.00D+00
 G2DrvN: will do   15 centers at a time, making    1 passes doing MaxLOS=2.
 FoFDir/FoFCou used for L=0 through L=2.
 DoAtom=TTTTTTTTTTTTTT
          Differentiating once with respect to electric field.
                with respect to dipole field.
          Differentiating once with respect to nuclear coordinates.
 Symmetry not used in FoFDir.
 MinBra= 0 MaxBra= 2 Meth= 1.
 IRaf=       0 NMat=  45 IRICut=      45 DoRegI=T DoRafI=T ISym2E= 0 JSym2E=0.
          There are  45 degrees of freedom in the 1st order CPHF.
    42 vectors were produced by pass  0.
 AX will form  42 AO Fock derivatives at one time.
    42 vectors were produced by pass  1.
    42 vectors were produced by pass  2.
    42 vectors were produced by pass  3.
    42 vectors were produced by pass  4.
    42 vectors were produced by pass  5.
    33 vectors were produced by pass  6.
    10 vectors were produced by pass  7.
     2 vectors were produced by pass  8.
 Inv2:  IOpt= 1 Iter= 1 AM= 2.37D-15 Conv= 1.00D-12.
 Inverted reduced A of dimension  297 with in-core refinement.
 Isotropic polarizability for W=    0.000000       75.52 Bohr**3.
 End of Minotr Frequency-dependent properties file   721 does not exist.

 **********************************************************************

            Population analysis using the SCF density.

 **********************************************************************

 Alpha  occ. eigenvalues --  -10.18557 -10.17781 -10.17751 -10.17749 -10.17719
 Alpha  occ. eigenvalues --  -10.17492 -10.17487  -0.86252  -0.77981  -0.75266
 Alpha  occ. eigenvalues --   -0.68160  -0.60953  -0.58488  -0.51631  -0.47264
 Alpha  occ. eigenvalues --   -0.46557  -0.42692  -0.42156  -0.40065  -0.38230
 Alpha  occ. eigenvalues --   -0.35959  -0.34192  -0.29891  -0.26527  -0.18781
 Alpha virt. eigenvalues --   -0.01207   0.01155   0.04541   0.06751   0.07082
 Alpha virt. eigenvalues --    0.09985   0.10569   0.13574   0.13958   0.14722
 Alpha virt. eigenvalues --    0.21803   0.27187   0.27651   0.29076   0.30266
 Alpha virt. eigenvalues --    0.32980   0.33114   0.36444   0.37737   0.39527
 Alpha virt. eigenvalues --    0.41184   0.41557   0.43165   0.44075   0.44148
 Alpha virt. eigenvalues --    0.44397   0.47830   0.48802   0.49192   0.52067
 Alpha virt. eigenvalues --    0.55942   0.59345   0.59527   0.60413   0.61986
 Alpha virt. eigenvalues --    0.62530   0.62908   0.64764   0.68645   0.72561
 Alpha virt. eigenvalues --    0.73281   0.75166   0.75764   0.80220   0.80945
 Alpha virt. eigenvalues --    0.83894   0.88117   0.91958   0.94674   0.95538
 Alpha virt. eigenvalues --    0.98450   1.02950   1.04122   1.05322   1.06780
 Alpha virt. eigenvalues --    1.07970   1.13471   1.14724   1.23993   1.31716
 Alpha virt. eigenvalues --    1.38001   1.39995   1.42574   1.46603   1.47361
 Alpha virt. eigenvalues --    1.49169   1.52375   1.54212   1.54792   1.56062
 Alpha virt. eigenvalues --    1.58756   1.64151   1.64332   1.65700   1.72889
 Alpha virt. eigenvalues --    1.74087   1.74348   1.76862   1.82101   1.82473
 Alpha virt. eigenvalues --    1.83634   1.84764   1.89442   1.90851   1.91153
 Alpha virt. eigenvalues --    1.92173   1.96051   2.01555   2.08139   2.08692
 Alpha virt. eigenvalues --    2.08764   2.09925   2.18747   2.23818   2.27132
 Alpha virt. eigenvalues --    2.29867   2.31243   2.36028   2.36916   2.45092
 Alpha virt. eigenvalues --    2.46972   2.54614   2.54985   2.59732   2.61046
 Alpha virt. eigenvalues --    2.61596   2.63138   2.64787   2.65168   2.65254
 Alpha virt. eigenvalues --    2.67196   2.69823   2.71044   2.75070   2.77134
 Alpha virt. eigenvalues --    2.83903   2.84944   2.88530   2.91285   3.03890
 Alpha virt. eigenvalues --    3.09412   3.13401   3.30445   3.30656   3.35967
 Alpha virt. eigenvalues --    3.46168   3.47275   3.54898   3.62823   3.75702
 Alpha virt. eigenvalues --    3.96508   4.01857   4.10869   4.12034   4.35678
 Alpha virt. eigenvalues --    4.81388  23.52834  23.85694  23.89867  24.01034
 Alpha virt. eigenvalues --   24.04317  24.11147  24.18416
  Beta  occ. eigenvalues --  -10.18803 -10.17666 -10.17663 -10.17408 -10.17408
  Beta  occ. eigenvalues --  -10.17394 -10.16688  -0.85858  -0.77170  -0.74955
  Beta  occ. eigenvalues --   -0.66350  -0.60744  -0.57965  -0.51286  -0.46959
  Beta  occ. eigenvalues --   -0.46301  -0.42609  -0.41828  -0.39558  -0.37094
  Beta  occ. eigenvalues --   -0.35699  -0.34095  -0.27400  -0.25622
  Beta virt. eigenvalues --   -0.08840  -0.00407   0.03195   0.04635   0.07068
  Beta virt. eigenvalues --    0.07139   0.10208   0.10640   0.13726   0.14139
  Beta virt. eigenvalues --    0.15546   0.21866   0.27236   0.27885   0.29192
  Beta virt. eigenvalues --    0.30692   0.33186   0.33210   0.38026   0.38984
  Beta virt. eigenvalues --    0.39758   0.41690   0.43704   0.43958   0.44205
  Beta virt. eigenvalues --    0.44526   0.44632   0.48064   0.49450   0.51022
  Beta virt. eigenvalues --    0.52439   0.56169   0.59698   0.59731   0.60422
  Beta virt. eigenvalues --    0.62260   0.63006   0.63084   0.65168   0.69418
  Beta virt. eigenvalues --    0.72571   0.73727   0.75627   0.76008   0.80617
  Beta virt. eigenvalues --    0.81478   0.84014   0.88467   0.92447   0.95324
  Beta virt. eigenvalues --    0.95632   0.99368   1.03206   1.04388   1.06886
  Beta virt. eigenvalues --    1.07857   1.08322   1.14267   1.15309   1.24242
  Beta virt. eigenvalues --    1.32305   1.38947   1.40020   1.42666   1.47058
  Beta virt. eigenvalues --    1.47488   1.50318   1.53425   1.54448   1.55033
  Beta virt. eigenvalues --    1.56234   1.59008   1.64443   1.64686   1.65624
  Beta virt. eigenvalues --    1.73122   1.74320   1.75965   1.77115   1.82731
  Beta virt. eigenvalues --    1.83158   1.84026   1.86281   1.89997   1.90888
  Beta virt. eigenvalues --    1.91071   1.92632   1.96238   2.02985   2.08057
  Beta virt. eigenvalues --    2.08915   2.09235   2.11064   2.19567   2.23863
  Beta virt. eigenvalues --    2.27276   2.30036   2.32121   2.36639   2.37155
  Beta virt. eigenvalues --    2.45142   2.47292   2.55285   2.55432   2.59777
  Beta virt. eigenvalues --    2.61134   2.61639   2.63376   2.64807   2.65326
  Beta virt. eigenvalues --    2.67335   2.67860   2.70207   2.71492   2.75271
  Beta virt. eigenvalues --    2.79746   2.84484   2.85157   2.89381   2.91346
  Beta virt. eigenvalues --    3.04387   3.09737   3.13509   3.30542   3.30882
  Beta virt. eigenvalues --    3.36191   3.46313   3.47419   3.55401   3.63062
  Beta virt. eigenvalues --    3.77126   3.96695   4.02200   4.11155   4.12280
  Beta virt. eigenvalues --    4.36585   4.81682  23.52981  23.86147  23.90009
  Beta virt. eigenvalues --   24.01575  24.04628  24.11214  24.18514
          Condensed to atoms (all electrons):
              1          2          3          4          5          6
     1  C    4.903976   0.503327  -0.063679  -0.035520  -0.063679   0.503327
     2  C    0.503327   4.838222   0.543805  -0.047714  -0.033326  -0.055841
     3  C   -0.063679   0.543805   4.885804   0.480322  -0.060749  -0.033326
     4  C   -0.035520  -0.047714   0.480322   4.902375   0.480322  -0.047714
     5  C   -0.063679  -0.033326  -0.060749   0.480322   4.885804   0.543805
     6  C    0.503327  -0.055841  -0.033326  -0.047714   0.543805   4.838222
     7  H    0.415267  -0.041618   0.007448  -0.000355   0.007448  -0.041618
     8  H   -0.043377   0.414840  -0.041047   0.008021  -0.000354   0.007326
     9  H    0.007930  -0.039049   0.414897  -0.046276   0.007657  -0.000719
    10  H    0.007930  -0.000719   0.007657  -0.046276   0.414897  -0.039049
    11  H   -0.043377   0.007326  -0.000354   0.008021  -0.041047   0.414840
    12  C    0.000550   0.005437  -0.068854   0.494822  -0.068854   0.005437
    13  H    0.000007   0.000405  -0.008711  -0.033629   0.006831  -0.000435
    14  H    0.000007  -0.000435   0.006831  -0.033629  -0.008711   0.000405
              7          8          9         10         11         12
     1  C    0.415267  -0.043377   0.007930   0.007930  -0.043377   0.000550
     2  C   -0.041618   0.414840  -0.039049  -0.000719   0.007326   0.005437
     3  C    0.007448  -0.041047   0.414897   0.007657  -0.000354  -0.068854
     4  C   -0.000355   0.008021  -0.046276  -0.046276   0.008021   0.494822
     5  C    0.007448  -0.000354   0.007657   0.414897  -0.041047  -0.068854
     6  C   -0.041618   0.007326  -0.000719  -0.039049   0.414840   0.005437
     7  H    0.573333  -0.007760  -0.000344  -0.000344  -0.007760   0.000033
     8  H   -0.007760   0.577784  -0.008999   0.000079  -0.000388  -0.000347
     9  H   -0.000344  -0.008999   0.580842  -0.000352   0.000079  -0.007397
    10  H   -0.000344   0.000079  -0.000352   0.580842  -0.008999  -0.007397
    11  H   -0.007760  -0.000388   0.000079  -0.008999   0.577784  -0.000347
    12  C    0.000033  -0.000347  -0.007397  -0.007397  -0.000347   5.003527
    13  H   -0.000002  -0.000025   0.003633  -0.000031   0.000020   0.405080
    14  H   -0.000002   0.000020  -0.000031   0.003633  -0.000025   0.405080
             13         14
     1  C    0.000007   0.000007
     2  C    0.000405  -0.000435
     3  C   -0.008711   0.006831
     4  C   -0.033629  -0.033629
     5  C    0.006831  -0.008711
     6  C   -0.000435   0.000405
     7  H   -0.000002  -0.000002
     8  H   -0.000025   0.000020
     9  H    0.003633  -0.000031
    10  H   -0.000031   0.003633
    11  H    0.000020  -0.000025
    12  C    0.405080   0.405080
    13  H    0.559765  -0.038231
    14  H   -0.038231   0.559765
 Mulliken atomic charges:
              1
     1  C   -0.092690
     2  C   -0.094660
     3  C   -0.070043
     4  C   -0.082770
     5  C   -0.070043
     6  C   -0.094660
     7  H    0.096276
     8  H    0.094228
     9  H    0.088130
    10  H    0.088130
    11  H    0.094228
    12  C   -0.166770
    13  H    0.105322
    14  H    0.105322
 Sum of Mulliken charges=   0.00000
 Atomic charges with hydrogens summed into heavy atoms:
              1
     1  C    0.003585
     2  C   -0.000432
     3  C    0.018087
     4  C   -0.082770
     5  C    0.018087
     6  C   -0.000432
     7  H    0.000000
     8  H    0.000000
     9  H    0.000000
    10  H    0.000000
    11  H    0.000000
    12  C    0.043873
    13  H    0.000000
    14  H    0.000000
 Sum of Mulliken charges=   0.00000
          Atomic-Atomic Spin Densities.
              1          2          3          4          5          6
     1  C    0.315257  -0.001780  -0.015136  -0.001120  -0.015136  -0.001780
     2  C   -0.001780  -0.136841   0.004292   0.001658   0.001157  -0.000077
     3  C   -0.015136   0.004292   0.262133   0.005840   0.009041   0.001157
     4  C   -0.001120   0.001658   0.005840  -0.166490   0.005840   0.001658
     5  C   -0.015136   0.001157   0.009041   0.005840   0.262133   0.004292
     6  C   -0.001780  -0.000077   0.001157   0.001658   0.004292  -0.136841
     7  H    0.002262   0.000187  -0.000144  -0.000065  -0.000144   0.000187
     8  H   -0.000392   0.000192  -0.000587   0.000142  -0.000042   0.000049
     9  H   -0.000145   0.000758   0.001617   0.000831  -0.000199  -0.000003
    10  H   -0.000145  -0.000003  -0.000199   0.000831   0.001617   0.000758
    11  H   -0.000392   0.000049  -0.000042   0.000142  -0.000587   0.000192
    12  C    0.000896  -0.000577  -0.022655  -0.034130  -0.022655  -0.000577
    13  H   -0.000003  -0.000100   0.001065  -0.004840  -0.000642   0.000064
    14  H   -0.000003   0.000064  -0.000642  -0.004840   0.001065  -0.000100
              7          8          9         10         11         12
     1  C    0.002262  -0.000392  -0.000145  -0.000145  -0.000392   0.000896
     2  C    0.000187   0.000192   0.000758  -0.000003   0.000049  -0.000577
     3  C   -0.000144  -0.000587   0.001617  -0.000199  -0.000042  -0.022655
     4  C   -0.000065   0.000142   0.000831   0.000831   0.000142  -0.034130
     5  C   -0.000144  -0.000042  -0.000199   0.001617  -0.000587  -0.022655
     6  C    0.000187   0.000049  -0.000003   0.000758   0.000192  -0.000577
     7  H   -0.018629   0.000162   0.000010   0.000010   0.000162   0.000001
     8  H    0.000162   0.006393   0.000058  -0.000002  -0.000002  -0.000005
     9  H    0.000010   0.000058  -0.016010   0.000006  -0.000002   0.000358
    10  H    0.000010  -0.000002   0.000006  -0.016010   0.000058   0.000358
    11  H    0.000162  -0.000002  -0.000002   0.000058   0.006393  -0.000005
    12  C    0.000001  -0.000005   0.000358   0.000358  -0.000005   0.853420
    13  H    0.000000  -0.000001  -0.000133  -0.000044   0.000000   0.007301
    14  H    0.000000   0.000000  -0.000044  -0.000133  -0.000001   0.007301
             13         14
     1  C   -0.000003  -0.000003
     2  C   -0.000100   0.000064
     3  C    0.001065  -0.000642
     4  C   -0.004840  -0.004840
     5  C   -0.000642   0.001065
     6  C    0.000064  -0.000100
     7  H    0.000000   0.000000
     8  H   -0.000001   0.000000
     9  H   -0.000133  -0.000044
    10  H   -0.000044  -0.000133
    11  H    0.000000  -0.000001
    12  C    0.007301   0.007301
    13  H   -0.044985   0.004093
    14  H    0.004093  -0.044985
 Mulliken atomic spin densities:
              1
     1  C    0.282384
     2  C   -0.131020
     3  C    0.245741
     4  C   -0.194543
     5  C    0.245741
     6  C   -0.131020
     7  H   -0.015999
     8  H    0.005965
     9  H   -0.012897
    10  H   -0.012897
    11  H    0.005965
    12  C    0.789031
    13  H   -0.038225
    14  H   -0.038225
 Sum of Mulliken spin densities=   1.00000
 APT atomic charges:
              1
     1  C   -0.052475
     2  C   -0.019672
     3  C   -0.019817
     4  C   -0.019487
     5  C   -0.019817
     6  C   -0.019672
     7  H    0.030346
     8  H    0.026716
     9  H    0.025144
    10  H    0.025144
    11  H    0.026716
    12  C   -0.039606
    13  H    0.028240
    14  H    0.028240
 Sum of APT charges=   0.00000
 APT Atomic charges with hydrogens summed into heavy atoms:
              1
     1  C   -0.022129
     2  C    0.007045
     3  C    0.005327
     4  C   -0.019487
     5  C    0.005327
     6  C    0.007045
     7  H    0.000000
     8  H    0.000000
     9  H    0.000000
    10  H    0.000000
    11  H    0.000000
    12  C    0.016873
    13  H    0.000000
    14  H    0.000000
 Sum of APT charges=   0.00000
 Electronic spatial extent (au):  <R**2>=   681.1141
 Charge=     0.0000 electrons
 Dipole moment (field-independent basis, Debye):
    X=     0.0000    Y=     0.0000    Z=    -0.1321  Tot=     0.1321
 Quadrupole moment (field-independent basis, Debye-Ang):
   XX=   -46.2860   YY=   -37.2493   ZZ=   -37.6774
   XY=     0.0000   XZ=     0.0000   YZ=     0.0000
 Traceless Quadrupole moment (field-independent basis, Debye-Ang):
   XX=    -5.8818   YY=     3.1549   ZZ=     2.7269
   XY=     0.0000   XZ=     0.0000   YZ=     0.0000
 Octapole moment (field-independent basis, Debye-Ang**2):
  XXX=     0.0000  YYY=     0.0000  ZZZ=     4.2031  XYY=     0.0000
  XXY=     0.0000  XXZ=     2.9291  XZZ=     0.0000  YZZ=     0.0000
  YYZ=     3.0476  XYZ=     0.0000
 Hexadecapole moment (field-independent basis, Debye-Ang**3):
 XXXX=   -52.5204 YYYY=  -288.5239 ZZZZ=  -553.4920 XXXY=     0.0000
 XXXZ=     0.0000 YYYX=     0.0000 YYYZ=     0.0000 ZZZX=     0.0000
 ZZZY=     0.0000 XXYY=   -67.2902 XXZZ=  -119.6861 YYZZ=  -134.7096
 XXYZ=     0.0000 YYXZ=     0.0000 ZZXY=     0.0000
 N-N= 2.601086041667D+02 E-N=-1.148509757910D+03  KE= 2.697752030781D+02
  Exact polarizability:  32.997   0.000  80.727   0.000   0.000 112.834
 Approx polarizability:  50.486   0.000 129.319   0.000   0.000 184.895
                          Isotropic Fermi Contact Couplings
        Atom                 a.u.       MegaHertz       Gauss      10(-4) cm-1
     1  C(13)              0.01854      20.84772       7.43899       6.95405
     2  C(13)             -0.01762     -19.80497      -7.06691      -6.60623
     3  C(13)              0.01774      19.94841       7.11809       6.65407
     4  C(13)             -0.03581     -40.25639     -14.36448     -13.42809
     5  C(13)              0.01774      19.94841       7.11809       6.65407
     6  C(13)             -0.01762     -19.80497      -7.06691      -6.60623
     7  H(1)              -0.00383     -17.14103      -6.11635      -5.71763
     8  H(1)               0.00140       6.27345       2.23852       2.09260
     9  H(1)              -0.00332     -14.85623      -5.30107      -4.95551
    10  H(1)              -0.00332     -14.85623      -5.30107      -4.95551
    11  H(1)               0.00140       6.27345       2.23852       2.09260
    12  C(13)              0.04536      50.99487      18.19624      17.01006
    13  H(1)              -0.01013     -45.27536     -16.15537     -15.10223
    14  H(1)              -0.01013     -45.27536     -16.15537     -15.10223
 --------------------------------------------------------
       Center         ----  Spin Dipole Couplings  ----
                      3XX-RR        3YY-RR        3ZZ-RR
 --------------------------------------------------------
     1   Atom        0.297829     -0.155339     -0.142489
     2   Atom       -0.113683      0.052003      0.061680
     3   Atom        0.261113     -0.130830     -0.130284
     4   Atom       -0.149598      0.058833      0.090765
     5   Atom        0.261113     -0.130830     -0.130284
     6   Atom       -0.113683      0.052003      0.061680
     7   Atom       -0.000612     -0.020341      0.020953
     8   Atom       -0.004138     -0.000725      0.004862
     9   Atom       -0.004448      0.011938     -0.007490
    10   Atom       -0.004448      0.011938     -0.007490
    11   Atom       -0.004138     -0.000725      0.004862
    12   Atom        0.840591     -0.416290     -0.424301
    13   Atom       -0.002572      0.026950     -0.024378
    14   Atom       -0.002572      0.026950     -0.024378
 --------------------------------------------------------
                        XY            XZ            YZ
 --------------------------------------------------------
     1   Atom        0.000000      0.000000      0.000000
     2   Atom        0.000000      0.000000      0.004485
     3   Atom        0.000000      0.000000     -0.001045
     4   Atom        0.000000      0.000000      0.000000
     5   Atom        0.000000      0.000000      0.001045
     6   Atom        0.000000      0.000000     -0.004485
     7   Atom        0.000000      0.000000      0.000000
     8   Atom        0.000000      0.000000      0.003493
     9   Atom        0.000000      0.000000      0.009473
    10   Atom        0.000000      0.000000     -0.009473
    11   Atom        0.000000      0.000000     -0.003493
    12   Atom        0.000000      0.000000      0.000000
    13   Atom        0.000000      0.000000      0.047072
    14   Atom        0.000000      0.000000     -0.047072
 --------------------------------------------------------


 ---------------------------------------------------------------------------------
              Anisotropic Spin Dipole Couplings in Principal Axis System
 ---------------------------------------------------------------------------------

       Atom             a.u.   MegaHertz   Gauss  10(-4) cm-1        Axes

              Baa    -0.1553   -20.845    -7.438    -6.953  0.0000  1.0000  0.0000
     1 C(13)  Bbb    -0.1425   -19.121    -6.823    -6.378  0.0000  0.0000  1.0000
              Bcc     0.2978    39.966    14.261    13.331  1.0000  0.0000  0.0000
 
              Baa    -0.1137   -15.255    -5.443    -5.089  1.0000  0.0000  0.0000
     2 C(13)  Bbb     0.0502     6.742     2.406     2.249  0.0000  0.9310 -0.3651
              Bcc     0.0634     8.513     3.038     2.840  0.0000  0.3651  0.9310
 
              Baa    -0.1316   -17.664    -6.303    -5.892  0.0000  0.7914  0.6113
     3 C(13)  Bbb    -0.1295   -17.375    -6.200    -5.796  0.0000 -0.6113  0.7914
              Bcc     0.2611    35.039    12.503    11.688  1.0000  0.0000  0.0000
 
              Baa    -0.1496   -20.075    -7.163    -6.696  1.0000  0.0000  0.0000
     4 C(13)  Bbb     0.0588     7.895     2.817     2.633  0.0000  1.0000  0.0000
              Bcc     0.0908    12.180     4.346     4.063  0.0000  0.0000  1.0000
 
              Baa    -0.1316   -17.664    -6.303    -5.892  0.0000  0.7914 -0.6113
     5 C(13)  Bbb    -0.1295   -17.375    -6.200    -5.796  0.0000  0.6113  0.7914
              Bcc     0.2611    35.039    12.503    11.688  1.0000  0.0000  0.0000
 
              Baa    -0.1137   -15.255    -5.443    -5.089  1.0000  0.0000  0.0000
     6 C(13)  Bbb     0.0502     6.742     2.406     2.249  0.0000  0.9310  0.3651
              Bcc     0.0634     8.513     3.038     2.840  0.0000 -0.3651  0.9310
 
              Baa    -0.0203   -10.853    -3.873    -3.620  0.0000  1.0000  0.0000
     7 H(1)   Bbb    -0.0006    -0.326    -0.116    -0.109  1.0000  0.0000  0.0000
              Bcc     0.0210    11.180     3.989     3.729  0.0000  0.0000  1.0000
 
              Baa    -0.0041    -2.208    -0.788    -0.736  1.0000  0.0000  0.0000
     8 H(1)   Bbb    -0.0024    -1.283    -0.458    -0.428  0.0000  0.9012 -0.4333
              Bcc     0.0065     3.490     1.245     1.164  0.0000  0.4333  0.9012
 
              Baa    -0.0113    -6.053    -2.160    -2.019  0.0000 -0.3769  0.9263
     9 H(1)   Bbb    -0.0044    -2.373    -0.847    -0.792  1.0000  0.0000  0.0000
              Bcc     0.0158     8.426     3.007     2.811  0.0000  0.9263  0.3769
 
              Baa    -0.0113    -6.053    -2.160    -2.019  0.0000  0.3769  0.9263
    10 H(1)   Bbb    -0.0044    -2.373    -0.847    -0.792  1.0000  0.0000  0.0000
              Bcc     0.0158     8.426     3.007     2.811  0.0000  0.9263 -0.3769
 
              Baa    -0.0041    -2.208    -0.788    -0.736  1.0000  0.0000  0.0000
    11 H(1)   Bbb    -0.0024    -1.283    -0.458    -0.428  0.0000  0.9012  0.4333
              Bcc     0.0065     3.490     1.245     1.164  0.0000 -0.4333  0.9012
 
              Baa    -0.4243   -56.937   -20.317   -18.992  0.0000  0.0000  1.0000
    12 C(13)  Bbb    -0.4163   -55.862   -19.933   -18.634  0.0000  1.0000  0.0000
              Bcc     0.8406   112.799    40.250    37.626  1.0000  0.0000  0.0000
 
              Baa    -0.0523   -27.919    -9.962    -9.313  0.0000 -0.5105  0.8599
    13 H(1)   Bbb    -0.0026    -1.372    -0.490    -0.458  1.0000  0.0000  0.0000
              Bcc     0.0549    29.292    10.452     9.771  0.0000  0.8599  0.5105
 
              Baa    -0.0523   -27.919    -9.962    -9.313  0.0000  0.5105  0.8599
    14 H(1)   Bbb    -0.0026    -1.372    -0.490    -0.458  1.0000  0.0000  0.0000
              Bcc     0.0549    29.292    10.452     9.771  0.0000  0.8599 -0.5105
 

 ---------------------------------------------------------------------------------

 Use density number 0.
 Entering OneElI...
 Calculate overlap and kinetic energy integrals
    NBasis = 175  MinDer = 2  MaxDer = 2
 Requested accuracy = 0.1000D-12
 PrsmSu:  NPrtUS=   1 ThrOK=F
 PRISM was handed   130805174 working-precision words and  2013 shell-pairs
 Entering OneElI...
 Calculate potential energy integrals
    NBasis = 175  MinDer = 2  MaxDer = 2
 Requested accuracy = 0.1000D-12
 PrsmSu:  NPrtUS=   8 ThrOK=T
 PRISM was handed    16313044 working-precision words and  1873 shell-pairs
 PRISM was handed    16313044 working-precision words and  1873 shell-pairs
 PRISM was handed    16313044 working-precision words and  1873 shell-pairs
 PRISM was handed    16313044 working-precision words and  1873 shell-pairs
 PRISM was handed    16313044 working-precision words and  1873 shell-pairs
 PRISM was handed    16313044 working-precision words and  1873 shell-pairs
 PRISM was handed    16313044 working-precision words and  1873 shell-pairs
 PRISM was handed    16313044 working-precision words and  1873 shell-pairs
 Polarizability after L701:
                1             2             3
      1  0.329972D+02
      2  0.000000D+00  0.807266D+02
      3  0.000000D+00  0.000000D+00  0.112834D+03
 Dipole Derivatives after L701:
               1            2            3            4            5
      1-0.135303D+00 0.000000D+00 0.000000D+00-0.129588D+00 0.000000D+00
      2 0.000000D+00-0.659065D-01 0.000000D+00 0.000000D+00 0.962302D-01
      3 0.000000D+00 0.000000D+00 0.437842D-01 0.000000D+00-0.133508D+00
               6            7            8            9           10
      1 0.000000D+00-0.127274D+00 0.000000D+00 0.000000D+00 0.173858D-01
      2-0.886823D-01 0.000000D+00 0.567792D-01 0.767623D-01 0.000000D+00
      3-0.256578D-01 0.000000D+00 0.995630D-01 0.110449D-01 0.000000D+00
              11           12           13           14           15
      1 0.000000D+00 0.000000D+00-0.127274D+00 0.000000D+00 0.000000D+00
      2-0.120729D+00 0.000000D+00 0.000000D+00 0.567792D-01-0.767623D-01
      3 0.000000D+00 0.448816D-01 0.000000D+00-0.995630D-01 0.110449D-01
              16           17           18           19           20
      1-0.129588D+00 0.000000D+00 0.000000D+00 0.135386D+00 0.000000D+00
      2 0.000000D+00 0.962302D-01 0.886823D-01 0.000000D+00 0.659563D-01
      3 0.000000D+00 0.133508D+00-0.256578D-01 0.000000D+00 0.000000D+00
              21           22           23           24           25
      1 0.000000D+00 0.130319D+00 0.000000D+00 0.000000D+00 0.128359D+00
      2 0.000000D+00 0.000000D+00-0.712422D-01 0.795105D-01 0.000000D+00
      3-0.110305D+00 0.000000D+00 0.909591D-01 0.210725D-01 0.000000D+00
              26           27           28           29           30
      1 0.000000D+00 0.000000D+00 0.128359D+00 0.000000D+00 0.000000D+00
      2-0.609805D-01-0.875845D-01 0.000000D+00-0.609805D-01 0.875845D-01
      3-0.563043D-01 0.805295D-02 0.000000D+00 0.563043D-01 0.805295D-02
              31           32           33           34           35
      1 0.130319D+00 0.000000D+00 0.000000D+00-0.301444D+00 0.000000D+00
      2 0.000000D+00-0.712422D-01-0.795105D-01 0.000000D+00 0.202301D+00
      3 0.000000D+00-0.909591D-01 0.210725D-01 0.000000D+00 0.000000D+00
              36           37           38           39           40
      1 0.000000D+00 0.140172D+00 0.000000D+00 0.000000D+00 0.140172D+00
      2 0.000000D+00 0.000000D+00-0.615975D-01-0.142999D-01 0.000000D+00
      3-0.196766D-01 0.000000D+00-0.810396D-01 0.614531D-02 0.000000D+00
              41           42
      1 0.000000D+00 0.000000D+00
      2-0.615975D-01 0.142999D-01
      3 0.810396D-01 0.614531D-02
 Hessian after L701:
                1             2             3             4             5
      1  0.223762D+02
      2  0.000000D+00  0.870535D+01
      3  0.000000D+00  0.000000D+00  0.119882D+02
      4 -0.932903D+01  0.000000D+00  0.000000D+00  0.236082D+02
      5  0.000000D+00 -0.230765D+01  0.350145D+01  0.000000D+00  0.119593D+02
      6  0.000000D+00  0.313055D+01 -0.606535D+01  0.000000D+00 -0.149447D+01
      7  0.109861D+00  0.000000D+00  0.000000D+00 -0.102840D+02  0.000000D+00
      8  0.000000D+00  0.941609D-01  0.201579D+00  0.000000D+00 -0.853678D+01
      9  0.000000D+00  0.297101D+00  0.418529D+00  0.000000D+00 -0.137082D+00
     10  0.300543D-01  0.000000D+00  0.000000D+00 -0.333087D-01  0.000000D+00
     11  0.000000D+00 -0.123990D+00  0.000000D+00  0.000000D+00  0.124059D+00
     12  0.000000D+00  0.000000D+00 -0.776269D-01  0.000000D+00 -0.311365D+00
     13  0.109861D+00  0.000000D+00  0.000000D+00  0.539544D-01  0.000000D+00
     14  0.000000D+00  0.941609D-01 -0.201579D+00  0.000000D+00 -0.929025D-01
     15  0.000000D+00 -0.297101D+00  0.418529D+00  0.000000D+00 -0.392556D-01
     16 -0.932903D+01  0.000000D+00  0.000000D+00  0.158235D-01  0.000000D+00
     17  0.000000D+00 -0.230765D+01 -0.350145D+01  0.000000D+00  0.585666D+00
     18  0.000000D+00 -0.313055D+01 -0.606535D+01  0.000000D+00 -0.258325D-01
     19 -0.396609D+01  0.000000D+00  0.000000D+00  0.803585D-01  0.000000D+00
     20  0.000000D+00 -0.405141D+01  0.000000D+00  0.000000D+00  0.320512D-01
     21  0.000000D+00  0.000000D+00 -0.124479D+01  0.000000D+00 -0.814841D-01
     22  0.865452D-01  0.000000D+00  0.000000D+00 -0.400208D+01  0.000000D+00
     23  0.000000D+00 -0.690616D-01 -0.268995D-01  0.000000D+00 -0.196484D+01
     24  0.000000D+00 -0.463183D-01  0.112546D+00  0.000000D+00 -0.123257D+01
     25 -0.425877D-01  0.000000D+00  0.000000D+00  0.755720D-01  0.000000D+00
     26  0.000000D+00  0.627755D-01  0.144898D+00  0.000000D+00  0.856495D-01
     27  0.000000D+00  0.122474D+00  0.103133D+00  0.000000D+00 -0.704731D-01
     28 -0.425877D-01  0.000000D+00  0.000000D+00 -0.134330D-01  0.000000D+00
     29  0.000000D+00  0.627755D-01 -0.144898D+00  0.000000D+00  0.299230D-01
     30  0.000000D+00 -0.122474D+00  0.103133D+00  0.000000D+00 -0.243269D-01
     31  0.865452D-01  0.000000D+00  0.000000D+00 -0.410043D-01  0.000000D+00
     32  0.000000D+00 -0.690616D-01  0.268995D-01  0.000000D+00  0.196728D+00
     33  0.000000D+00  0.463183D-01  0.112546D+00  0.000000D+00  0.571522D-01
     34 -0.750716D-01  0.000000D+00  0.000000D+00 -0.110059D+00  0.000000D+00
     35  0.000000D+00 -0.841259D-01  0.000000D+00  0.000000D+00 -0.100042D+00
     36  0.000000D+00  0.000000D+00  0.150528D+00  0.000000D+00 -0.132241D+00
     37 -0.732402D-02  0.000000D+00  0.000000D+00 -0.136230D-01  0.000000D+00
     38  0.000000D+00 -0.313603D-02  0.184730D-01  0.000000D+00 -0.137942D-01
     39  0.000000D+00  0.638169D-02  0.229839D-01  0.000000D+00 -0.217728D-02
     40 -0.732402D-02  0.000000D+00  0.000000D+00 -0.733164D-02  0.000000D+00
     41  0.000000D+00 -0.313603D-02 -0.184730D-01  0.000000D+00  0.263636D-02
     42  0.000000D+00 -0.638169D-02  0.229839D-01  0.000000D+00 -0.733020D-02
                6             7             8             9            10
      6  0.953497D+01
      7  0.000000D+00  0.232440D+02
      8  0.215782D+00  0.000000D+00  0.121536D+02
      9 -0.420975D+00  0.000000D+00  0.203149D+01  0.908307D+01
     10  0.000000D+00 -0.899088D+01  0.000000D+00  0.000000D+00  0.265048D+02
     11 -0.376219D+00  0.000000D+00 -0.258002D+01 -0.330460D+01  0.000000D+00
     12  0.296700D+00  0.000000D+00 -0.361542D+01 -0.568093D+01  0.000000D+00
     13  0.000000D+00  0.182349D-01  0.000000D+00  0.000000D+00 -0.899088D+01
     14 -0.109223D-01  0.000000D+00  0.569185D+00 -0.484836D-01  0.000000D+00
     15 -0.152053D+00  0.000000D+00  0.484836D-01 -0.499201D-01  0.000000D+00
     16  0.000000D+00  0.539544D-01  0.000000D+00  0.000000D+00 -0.333087D-01
     17  0.258325D-01  0.000000D+00 -0.929025D-01  0.392556D-01  0.000000D+00
     18 -0.794603D-01  0.000000D+00  0.109223D-01 -0.152053D+00  0.000000D+00
     19  0.000000D+00 -0.418378D-01  0.000000D+00  0.000000D+00 -0.146698D-01
     20 -0.106069D+00  0.000000D+00 -0.209100D-01  0.722069D-01  0.000000D+00
     21 -0.212592D-02  0.000000D+00  0.894346D-01  0.181849D+00  0.000000D+00
     22  0.000000D+00  0.764618D-01  0.000000D+00  0.000000D+00 -0.415550D-01
     23 -0.120701D+01  0.000000D+00  0.923619D-01  0.361932D-01  0.000000D+00
     24 -0.339454D+01  0.000000D+00  0.679653D-01 -0.514587D-01  0.000000D+00
     25  0.000000D+00 -0.416760D+01  0.000000D+00  0.000000D+00  0.108158D+00
     26 -0.428328D-01  0.000000D+00 -0.199863D+01  0.130813D+01  0.000000D+00
     27 -0.512431D-01  0.000000D+00  0.123415D+01 -0.356693D+01  0.000000D+00
     28  0.000000D+00 -0.451549D-01  0.000000D+00  0.000000D+00  0.108158D+00
     29 -0.265958D-01  0.000000D+00  0.211260D+00 -0.414335D-01  0.000000D+00
     30  0.101274D-02  0.000000D+00 -0.538857D-01 -0.458090D-01  0.000000D+00
     31  0.000000D+00 -0.146338D-01  0.000000D+00  0.000000D+00 -0.415550D-01
     32  0.339246D-01  0.000000D+00  0.335853D-01  0.316293D-01  0.000000D+00
     33 -0.417264D-01  0.000000D+00  0.283405D-01  0.335224D-02  0.000000D+00
     34  0.000000D+00  0.926646D-01  0.000000D+00  0.000000D+00 -0.870282D+01
     35 -0.141242D+00  0.000000D+00  0.306026D-01 -0.192582D+00  0.000000D+00
     36  0.309301D+00  0.000000D+00 -0.129761D+00  0.191532D+00  0.000000D+00
     37  0.000000D+00 -0.125214D-01  0.000000D+00  0.000000D+00  0.489284D-01
     38  0.215100D-01  0.000000D+00 -0.800244D-02  0.276468D-01  0.000000D+00
     39  0.512292D-01  0.000000D+00 -0.975220D-02 -0.510813D-02  0.000000D+00
     40  0.000000D+00 -0.385513D-01  0.000000D+00  0.000000D+00  0.489284D-01
     41 -0.222358D-01  0.000000D+00  0.525348D-01 -0.119467D+00  0.000000D+00
     42  0.142626D-01  0.000000D+00 -0.119331D+00  0.948602D-01  0.000000D+00
               11            12            13            14            15
     11  0.126592D+02
     12  0.000000D+00  0.105795D+02
     13  0.000000D+00  0.000000D+00  0.232440D+02
     14 -0.258002D+01  0.361542D+01  0.000000D+00  0.121536D+02
     15  0.330460D+01 -0.568093D+01  0.000000D+00 -0.203149D+01  0.908307D+01
     16  0.000000D+00  0.000000D+00 -0.102840D+02  0.000000D+00  0.000000D+00
     17  0.124059D+00  0.311365D+00  0.000000D+00 -0.853678D+01  0.137082D+00
     18  0.376219D+00  0.296700D+00  0.000000D+00 -0.215782D+00 -0.420975D+00
     19  0.000000D+00  0.000000D+00 -0.418378D-01  0.000000D+00  0.000000D+00
     20 -0.142454D-01  0.000000D+00  0.000000D+00 -0.209100D-01 -0.722069D-01
     21  0.000000D+00  0.520874D-01  0.000000D+00 -0.894346D-01  0.181849D+00
     22  0.000000D+00  0.000000D+00 -0.146337D-01  0.000000D+00  0.000000D+00
     23  0.540449D-01 -0.144590D+00  0.000000D+00  0.335853D-01 -0.316293D-01
     24 -0.120248D+00  0.113108D+00  0.000000D+00 -0.283405D-01  0.335224D-02
     25  0.000000D+00  0.000000D+00 -0.451549D-01  0.000000D+00  0.000000D+00
     26 -0.104841D+00 -0.348834D-01  0.000000D+00  0.211260D+00  0.414335D-01
     27  0.112590D-01  0.140850D+00  0.000000D+00  0.538857D-01 -0.458090D-01
     28  0.000000D+00  0.000000D+00 -0.416760D+01  0.000000D+00  0.000000D+00
     29 -0.104841D+00  0.348834D-01  0.000000D+00 -0.199863D+01 -0.130813D+01
     30 -0.112590D-01  0.140850D+00  0.000000D+00 -0.123415D+01 -0.356693D+01
     31  0.000000D+00  0.000000D+00  0.764618D-01  0.000000D+00  0.000000D+00
     32  0.540449D-01  0.144590D+00  0.000000D+00  0.923619D-01 -0.361932D-01
     33  0.120248D+00  0.113108D+00  0.000000D+00 -0.679653D-01 -0.514587D-01
     34  0.000000D+00  0.000000D+00  0.926646D-01  0.000000D+00  0.000000D+00
     35 -0.761110D+01  0.000000D+00  0.000000D+00  0.306026D-01  0.192582D+00
     36  0.000000D+00 -0.346907D+00  0.000000D+00  0.129761D+00  0.191532D+00
     37  0.000000D+00  0.000000D+00 -0.385513D-01  0.000000D+00  0.000000D+00
     38  0.518304D-01  0.918123D-02  0.000000D+00  0.525348D-01  0.119467D+00
     39 -0.745324D-01  0.267390D-01  0.000000D+00  0.119331D+00  0.948602D-01
     40  0.000000D+00  0.000000D+00 -0.125214D-01  0.000000D+00  0.000000D+00
     41  0.518304D-01 -0.918123D-02  0.000000D+00 -0.800244D-02 -0.276468D-01
     42  0.745324D-01  0.267390D-01  0.000000D+00  0.975220D-02 -0.510813D-02
               16            17            18            19            20
     16  0.236082D+02
     17  0.000000D+00  0.119593D+02
     18  0.000000D+00  0.149447D+01  0.953497D+01
     19  0.803585D-01  0.000000D+00  0.000000D+00  0.389173D+01
     20  0.000000D+00  0.320512D-01  0.106069D+00  0.000000D+00  0.411677D+01
     21  0.000000D+00  0.814841D-01 -0.212592D-02  0.000000D+00  0.000000D+00
     22 -0.410043D-01  0.000000D+00  0.000000D+00  0.106599D-01  0.000000D+00
     23  0.000000D+00  0.196728D+00 -0.339246D-01  0.000000D+00 -0.338229D-01
     24  0.000000D+00 -0.571522D-01 -0.417264D-01  0.000000D+00 -0.293414D-01
     25 -0.134330D-01  0.000000D+00  0.000000D+00 -0.792913D-03  0.000000D+00
     26  0.000000D+00  0.299230D-01  0.265958D-01  0.000000D+00  0.117908D-03
     27  0.000000D+00  0.243269D-01  0.101274D-02  0.000000D+00 -0.194432D-02
     28  0.755720D-01  0.000000D+00  0.000000D+00 -0.792913D-03  0.000000D+00
     29  0.000000D+00  0.856495D-01  0.428328D-01  0.000000D+00  0.117908D-03
     30  0.000000D+00  0.704731D-01 -0.512431D-01  0.000000D+00  0.194432D-02
     31 -0.400208D+01  0.000000D+00  0.000000D+00  0.106599D-01  0.000000D+00
     32  0.000000D+00 -0.196484D+01  0.120701D+01  0.000000D+00 -0.338229D-01
     33  0.000000D+00  0.123257D+01 -0.339454D+01  0.000000D+00  0.293414D-01
     34 -0.110059D+00  0.000000D+00  0.000000D+00 -0.644476D-02  0.000000D+00
     35  0.000000D+00 -0.100042D+00  0.141242D+00  0.000000D+00 -0.553895D-02
     36  0.000000D+00  0.132241D+00  0.309301D+00  0.000000D+00  0.000000D+00
     37 -0.733164D-02  0.000000D+00  0.000000D+00 -0.650405D-03  0.000000D+00
     38  0.000000D+00  0.263636D-02  0.222358D-01  0.000000D+00 -0.225396D-03
     39  0.000000D+00  0.733020D-02  0.142626D-01  0.000000D+00  0.480876D-03
     40 -0.136230D-01  0.000000D+00  0.000000D+00 -0.650405D-03  0.000000D+00
     41  0.000000D+00 -0.137942D-01 -0.215100D-01  0.000000D+00 -0.225396D-03
     42  0.000000D+00  0.217728D-02  0.512292D-01  0.000000D+00 -0.480876D-03
               21            22            23            24            25
     21  0.795167D+00
     22  0.000000D+00  0.392532D+01
     23 -0.175348D-01  0.000000D+00  0.165490D+01
     24 -0.706246D-02  0.000000D+00  0.146785D+01  0.329852D+01
     25  0.000000D+00  0.135717D-01  0.000000D+00  0.000000D+00  0.411183D+01
     26  0.107599D-01  0.000000D+00  0.107472D-01  0.440212D-02  0.000000D+00
     27  0.486327D-02  0.000000D+00 -0.497721D-02 -0.581583D-01  0.000000D+00
     28  0.000000D+00 -0.247474D-02  0.000000D+00  0.000000D+00 -0.570317D-03
     29 -0.107599D-01  0.000000D+00  0.128540D-01 -0.799975D-02  0.000000D+00
     30  0.486327D-02  0.000000D+00 -0.761986D-02  0.331509D-02  0.000000D+00
     31  0.000000D+00 -0.630169D-03  0.000000D+00  0.000000D+00 -0.247474D-02
     32  0.175348D-01  0.000000D+00  0.678149D-02 -0.623813D-02  0.000000D+00
     33 -0.706246D-02  0.000000D+00  0.623813D-02 -0.226391D-02  0.000000D+00
     34  0.000000D+00 -0.772471D-02  0.000000D+00  0.000000D+00 -0.157872D-01
     35  0.000000D+00  0.000000D+00  0.517963D-02 -0.104412D-01  0.000000D+00
     36  0.276206D-01  0.000000D+00 -0.219491D-01  0.133720D-01  0.000000D+00
     37  0.000000D+00 -0.114580D-02  0.000000D+00  0.000000D+00 -0.179019D-01
     38  0.729892D-02  0.000000D+00 -0.649235D-02  0.446594D-02  0.000000D+00
     39  0.743450D-02  0.000000D+00 -0.733777D-02  0.656147D-02  0.000000D+00
     40  0.000000D+00 -0.131093D-02  0.000000D+00  0.000000D+00 -0.282832D-02
     41 -0.729892D-02  0.000000D+00  0.703248D-02 -0.603149D-02  0.000000D+00
     42  0.743450D-02  0.000000D+00 -0.680384D-02  0.443004D-02  0.000000D+00
               26            27            28            29            30
     26  0.166668D+01
     27 -0.137906D+01  0.347154D+01
     28  0.000000D+00  0.000000D+00  0.411183D+01
     29  0.738814D-02  0.597542D-02  0.000000D+00  0.166668D+01
     30 -0.597542D-02 -0.185289D-02  0.000000D+00  0.137906D+01  0.347154D+01
     31  0.000000D+00  0.000000D+00  0.135717D-01  0.000000D+00  0.000000D+00
     32  0.128540D-01  0.761986D-02  0.000000D+00  0.107472D-01  0.497721D-02
     33  0.799975D-02  0.331509D-02  0.000000D+00 -0.440212D-02 -0.581583D-01
     34  0.000000D+00  0.000000D+00 -0.157872D-01  0.000000D+00  0.000000D+00
     35  0.140280D-01  0.140120D-01  0.000000D+00  0.140280D-01 -0.140120D-01
     36 -0.223457D-01 -0.206164D-01  0.000000D+00  0.223457D-01 -0.206164D-01
     37  0.000000D+00  0.000000D+00 -0.282832D-02  0.000000D+00  0.000000D+00
     38 -0.145522D-01 -0.172450D-01  0.000000D+00  0.166000D-01  0.650568D-05
     39 -0.464874D-01  0.222020D-01  0.000000D+00  0.126290D-01 -0.230257D-02
     40  0.000000D+00  0.000000D+00 -0.179019D-01  0.000000D+00  0.000000D+00
     41  0.166000D-01 -0.650560D-05  0.000000D+00 -0.145522D-01  0.172450D-01
     42 -0.126290D-01 -0.230257D-02  0.000000D+00  0.464874D-01  0.222020D-01
               31            32            33            34            35
     31  0.392532D+01
     32  0.000000D+00  0.165490D+01
     33  0.000000D+00 -0.146785D+01  0.329852D+01
     34 -0.772471D-02  0.000000D+00  0.000000D+00  0.162961D+02
     35  0.000000D+00  0.517963D-02  0.104412D-01  0.000000D+00  0.114846D+02
     36  0.000000D+00  0.219491D-01  0.133720D-01  0.000000D+00  0.000000D+00
     37 -0.131093D-02  0.000000D+00  0.000000D+00 -0.371496D+01  0.000000D+00
     38  0.000000D+00  0.703248D-02  0.603149D-02  0.000000D+00 -0.184171D+01
     39  0.000000D+00  0.680384D-02  0.443004D-02  0.000000D+00  0.134504D+01
     40 -0.114580D-02  0.000000D+00  0.000000D+00 -0.371496D+01  0.000000D+00
     41  0.000000D+00 -0.649235D-02 -0.446594D-02  0.000000D+00 -0.184171D+01
     42  0.000000D+00  0.733777D-02  0.656147D-02  0.000000D+00 -0.134504D+01
               36            37            38            39            40
     36  0.527049D+01
     37  0.000000D+00  0.366369D+01
     38  0.112714D+01  0.000000D+00  0.195165D+01
     39 -0.304446D+01  0.000000D+00 -0.135196D+01  0.267657D+01
     40  0.000000D+00  0.105537D+00  0.000000D+00  0.000000D+00  0.366369D+01
     41 -0.112714D+01  0.000000D+00 -0.194372D+00 -0.574603D-02  0.000000D+00
     42 -0.304446D+01  0.000000D+00  0.574603D-02  0.124590D+00  0.000000D+00
               41            42
     41  0.195165D+01
     42  0.135196D+01  0.267657D+01
 ReadGW:  IGet=0 IStart=         102 Next=        6318 LGW=        6216.
 ICntrl=12127.
 Symmetry not used in FoFDir.
 MinBra= 0 MaxBra= 2 Meth= 1.
 IRaf=       0 NMat=   1 IRICut=       1 DoRegI=T DoRafI=F ISym2E= 0 JSym2E=0.
 PrsmSu:  NPrtUS=   8 ThrOK=T
 PRISM was handed    16301453 working-precision words and  1936 shell-pairs
 PRISM was handed    16301453 working-precision words and  1936 shell-pairs
 PRISM was handed    16301453 working-precision words and  1936 shell-pairs
 PRISM was handed    16301453 working-precision words and  1936 shell-pairs
 PRISM was handed    16301453 working-precision words and  1936 shell-pairs
 PRISM was handed    16301453 working-precision words and  1936 shell-pairs
 PRISM was handed    16301453 working-precision words and  1936 shell-pairs
 PRISM was handed    16301453 working-precision words and  1936 shell-pairs
 Pruned (  75, 302) grid will be used in CalDFT.
 CkSvGd:  ISavGI=        -1 IRadAn=       4 IRASav=       4 ISavGd=        -1.
 CalDSu:  NPrtUS=   8 ThrOK=T
 IPart= 0 IRanGd=          0 ScrnBf=T ScrnGd=T RCrit=4.00D+00 DoMicB=T.
 IPart= 4 IRanGd=          0 ScrnBf=T ScrnGd=T RCrit=4.00D+00 DoMicB=T.
 IPart= 2 IRanGd=          0 ScrnBf=T ScrnGd=T RCrit=4.00D+00 DoMicB=T.
 IPart= 6 IRanGd=          0 ScrnBf=T ScrnGd=T RCrit=4.00D+00 DoMicB=T.
 IPart= 1 IRanGd=          0 ScrnBf=T ScrnGd=T RCrit=4.00D+00 DoMicB=T.
 CutRad = 1000.00    CtRdIn =    0.00    XCrit =  15.00   ICut = 0
 IPart= 7 IRanGd=          0 ScrnBf=T ScrnGd=T RCrit=4.00D+00 DoMicB=T.
 CutRad = 1000.00    CtRdIn =    0.00    XCrit =  15.00   ICut = 0
 CutRad = 1000.00    CtRdIn =    0.00    XCrit =  15.00   ICut = 0
 CutRad = 1000.00    CtRdIn =    0.00    XCrit =  15.00   ICut = 0
 CutRad = 1000.00    CtRdIn =    0.00    XCrit =  15.00   ICut = 0
 IPart= 5 IRanGd=          0 ScrnBf=T ScrnGd=T RCrit=4.00D+00 DoMicB=T.
 CutRad = 1000.00    CtRdIn =    0.00    XCrit =  15.00   ICut = 0
 IPart= 3 IRanGd=          0 ScrnBf=T ScrnGd=T RCrit=4.00D+00 DoMicB=T.
 CutRad = 1000.00    CtRdIn =    0.00    XCrit =  15.00   ICut = 0
 CutRad = 1000.00    CtRdIn =    0.00    XCrit =  15.00   ICut = 0
 IPart= 5        12419 of        14084 points in      30 batches and      102 microbatches, Max-NSigAt=      14 Max-NSgAt2=      14
 IPart= 2        12778 of        14412 points in      30 batches and       88 microbatches, Max-NSigAt=      14 Max-NSgAt2=      14
 IPart= 3        12021 of        13340 points in      26 batches and       72 microbatches, Max-NSigAt=      14 Max-NSgAt2=      14
 IPart= 6        12663 of        13794 points in      27 batches and       75 microbatches, Max-NSigAt=      14 Max-NSgAt2=      14
 IPart= 7        12708 of        14546 points in      30 batches and       79 microbatches, Max-NSigAt=      14 Max-NSgAt2=      14
 IPart= 0        12329 of        13920 points in      29 batches and       89 microbatches, Max-NSigAt=      14 Max-NSgAt2=      14
 IPart= 1        12017 of        13524 points in      29 batches and       97 microbatches, Max-NSigAt=      14 Max-NSgAt2=      14
 IPart= 4        12216 of        13834 points in      30 batches and       94 microbatches, Max-NSigAt=      14 Max-NSgAt2=      14
 Polarizability after L703:
                1             2             3
      1  0.329972D+02
      2  0.000000D+00  0.807266D+02
      3  0.000000D+00  0.000000D+00  0.112834D+03
 Dipole Derivatives after L703:
               1            2            3            4            5
      1-0.135303D+00 0.000000D+00 0.000000D+00-0.129588D+00 0.000000D+00
      2 0.000000D+00-0.659065D-01 0.000000D+00 0.000000D+00 0.962302D-01
      3 0.000000D+00 0.000000D+00 0.437842D-01 0.000000D+00-0.133508D+00
               6            7            8            9           10
      1 0.000000D+00-0.127274D+00 0.000000D+00 0.000000D+00 0.173858D-01
      2-0.886823D-01 0.000000D+00 0.567792D-01 0.767623D-01 0.000000D+00
      3-0.256578D-01 0.000000D+00 0.995630D-01 0.110449D-01 0.000000D+00
              11           12           13           14           15
      1 0.000000D+00 0.000000D+00-0.127274D+00 0.000000D+00 0.000000D+00
      2-0.120729D+00 0.000000D+00 0.000000D+00 0.567792D-01-0.767623D-01
      3 0.000000D+00 0.448816D-01 0.000000D+00-0.995630D-01 0.110449D-01
              16           17           18           19           20
      1-0.129588D+00 0.000000D+00 0.000000D+00 0.135386D+00 0.000000D+00
      2 0.000000D+00 0.962302D-01 0.886823D-01 0.000000D+00 0.659563D-01
      3 0.000000D+00 0.133508D+00-0.256578D-01 0.000000D+00 0.000000D+00
              21           22           23           24           25
      1 0.000000D+00 0.130319D+00 0.000000D+00 0.000000D+00 0.128359D+00
      2 0.000000D+00 0.000000D+00-0.712422D-01 0.795105D-01 0.000000D+00
      3-0.110305D+00 0.000000D+00 0.909591D-01 0.210725D-01 0.000000D+00
              26           27           28           29           30
      1 0.000000D+00 0.000000D+00 0.128359D+00 0.000000D+00 0.000000D+00
      2-0.609805D-01-0.875845D-01 0.000000D+00-0.609805D-01 0.875845D-01
      3-0.563043D-01 0.805295D-02 0.000000D+00 0.563043D-01 0.805295D-02
              31           32           33           34           35
      1 0.130319D+00 0.000000D+00 0.000000D+00-0.301444D+00 0.000000D+00
      2 0.000000D+00-0.712422D-01-0.795105D-01 0.000000D+00 0.202301D+00
      3 0.000000D+00-0.909591D-01 0.210725D-01 0.000000D+00 0.000000D+00
              36           37           38           39           40
      1 0.000000D+00 0.140172D+00 0.000000D+00 0.000000D+00 0.140172D+00
      2 0.000000D+00 0.000000D+00-0.615975D-01-0.142999D-01 0.000000D+00
      3-0.196766D-01 0.000000D+00-0.810396D-01 0.614531D-02 0.000000D+00
              41           42
      1 0.000000D+00 0.000000D+00
      2-0.615975D-01 0.142999D-01
      3 0.810396D-01 0.614531D-02
 Hessian after L703:
                1             2             3             4             5
      1  0.125263D+00
      2  0.000000D+00  0.619196D+00
      3  0.000000D+00  0.000000D+00  0.725335D+00
      4 -0.604401D-01  0.000000D+00  0.000000D+00  0.130179D+00
      5  0.000000D+00 -0.262893D+00 -0.110517D+00  0.000000D+00  0.698291D+00
      6  0.000000D+00 -0.363196D-01 -0.167333D+00  0.000000D+00 -0.496557D-01
      7  0.828546D-02  0.000000D+00  0.000000D+00 -0.584014D-01  0.000000D+00
      8  0.000000D+00  0.240780D-01 -0.268360D-01  0.000000D+00 -0.129361D+00
      9  0.000000D+00 -0.798983D-01 -0.356948D-01  0.000000D+00  0.389826D-01
     10 -0.833406D-02  0.000000D+00  0.000000D+00  0.740338D-02  0.000000D+00
     11  0.000000D+00 -0.503244D-01  0.000000D+00  0.000000D+00  0.277001D-01
     12  0.000000D+00  0.000000D+00  0.170731D-01  0.000000D+00  0.155601D-01
     13  0.828546D-02  0.000000D+00  0.000000D+00 -0.553842D-02  0.000000D+00
     14  0.000000D+00  0.240780D-01  0.268360D-01  0.000000D+00 -0.922780D-02
     15  0.000000D+00  0.798983D-01 -0.356948D-01  0.000000D+00 -0.241011D-01
     16 -0.604401D-01  0.000000D+00  0.000000D+00  0.750179D-02  0.000000D+00
     17  0.000000D+00 -0.262893D+00  0.110517D+00  0.000000D+00 -0.580396D-01
     18  0.000000D+00  0.363196D-01 -0.167333D+00  0.000000D+00  0.222869D-01
     19 -0.330621D-01  0.000000D+00  0.000000D+00  0.306147D-02  0.000000D+00
     20  0.000000D+00 -0.593208D-01  0.000000D+00  0.000000D+00  0.477303D-02
     21  0.000000D+00  0.000000D+00 -0.336438D+00  0.000000D+00  0.303863D-02
     22  0.298693D-02  0.000000D+00  0.000000D+00 -0.369901D-01  0.000000D+00
     23  0.000000D+00 -0.184798D-01  0.163085D-01  0.000000D+00 -0.265345D+00
     24  0.000000D+00 -0.148467D-01  0.117717D-01  0.000000D+00  0.118431D+00
     25  0.746222D-02  0.000000D+00  0.000000D+00  0.380976D-02  0.000000D+00
     26  0.000000D+00  0.197252D-02  0.526718D-03  0.000000D+00  0.338776D-02
     27  0.000000D+00  0.161067D-02 -0.546147D-02  0.000000D+00 -0.291874D-01
     28  0.746222D-02  0.000000D+00  0.000000D+00 -0.590882D-03  0.000000D+00
     29  0.000000D+00  0.197252D-02 -0.526718D-03  0.000000D+00  0.505986D-04
     30  0.000000D+00 -0.161067D-02 -0.546147D-02  0.000000D+00 -0.562659D-03
     31  0.298693D-02  0.000000D+00  0.000000D+00  0.636074D-02  0.000000D+00
     32  0.000000D+00 -0.184798D-01 -0.163085D-01  0.000000D+00 -0.301692D-02
     33  0.000000D+00  0.148467D-01  0.117717D-01  0.000000D+00  0.317202D-02
     34 -0.631350D-03  0.000000D+00  0.000000D+00  0.350775D-02  0.000000D+00
     35  0.000000D+00  0.666439D-03  0.000000D+00  0.000000D+00 -0.651226D-02
     36  0.000000D+00  0.000000D+00 -0.128085D-01  0.000000D+00  0.102821D-01
     37  0.875794D-04  0.000000D+00  0.000000D+00 -0.207567D-05  0.000000D+00
     38  0.000000D+00  0.214074D-03  0.180407D-03  0.000000D+00  0.158180D-03
     39  0.000000D+00  0.648741D-04  0.136986D-03  0.000000D+00  0.437411D-03
     40  0.875794D-04  0.000000D+00  0.000000D+00  0.138748D-03  0.000000D+00
     41  0.000000D+00  0.214073D-03 -0.180407D-03  0.000000D+00  0.351782D-04
     42  0.000000D+00 -0.648741D-04  0.136986D-03  0.000000D+00  0.183329D-02
                6             7             8             9            10
      6  0.669530D+00
      7  0.000000D+00  0.128310D+00
      8 -0.304878D-01  0.000000D+00  0.661051D+00
      9 -0.343431D+00  0.000000D+00  0.557108D-01  0.691820D+00
     10  0.000000D+00 -0.673593D-01  0.000000D+00  0.000000D+00  0.146014D+00
     11  0.558485D-01  0.000000D+00 -0.243135D+00  0.467031D-01  0.000000D+00
     12 -0.494529D-01  0.000000D+00  0.528184D-01 -0.120586D+00  0.000000D+00
     13  0.000000D+00  0.672282D-02  0.000000D+00  0.000000D+00 -0.673593D-01
     14 -0.135945D-01  0.000000D+00 -0.381828D-01  0.238100D-02  0.000000D+00
     15 -0.410191D-01  0.000000D+00 -0.238100D-02  0.439982D-01  0.000000D+00
     16  0.000000D+00 -0.553842D-02  0.000000D+00  0.000000D+00  0.740338D-02
     17 -0.222869D-01  0.000000D+00 -0.922780D-02  0.241011D-01  0.000000D+00
     18  0.634595D-01  0.000000D+00  0.135945D-01 -0.410191D-01  0.000000D+00
     19  0.000000D+00  0.609409D-02  0.000000D+00  0.000000D+00 -0.101874D-02
     20 -0.280333D-01  0.000000D+00 -0.461684D-02 -0.216798D-02  0.000000D+00
     21 -0.112724D-01  0.000000D+00 -0.311227D-02  0.781822D-03  0.000000D+00
     22  0.000000D+00  0.329952D-02  0.000000D+00  0.000000D+00  0.824845D-02
     23  0.118688D+00  0.000000D+00  0.340832D-02 -0.191619D-02  0.000000D+00
     24 -0.127852D+00  0.000000D+00  0.293502D-01 -0.111033D-01  0.000000D+00
     25  0.000000D+00 -0.341516D-01  0.000000D+00  0.000000D+00  0.255954D-02
     26  0.227992D-02  0.000000D+00 -0.265565D+00 -0.118094D+00  0.000000D+00
     27 -0.107198D-01  0.000000D+00 -0.117740D+00 -0.125450D+00  0.000000D+00
     28  0.000000D+00  0.496515D-02  0.000000D+00  0.000000D+00  0.255954D-02
     29 -0.855125D-03  0.000000D+00 -0.283119D-02 -0.404301D-02  0.000000D+00
     30 -0.452016D-03  0.000000D+00 -0.305663D-02 -0.140232D-02  0.000000D+00
     31  0.000000D+00 -0.569591D-03  0.000000D+00  0.000000D+00  0.824845D-02
     32  0.407400D-02  0.000000D+00  0.402457D-03  0.854497D-03  0.000000D+00
     33 -0.903100D-03  0.000000D+00  0.615145D-03 -0.619004D-03  0.000000D+00
     34  0.000000D+00  0.618609D-02  0.000000D+00  0.000000D+00 -0.440447D-01
     35  0.944781D-03  0.000000D+00  0.255028D-02  0.361785D-01  0.000000D+00
     36  0.193204D-01  0.000000D+00  0.356341D-01 -0.534209D-01  0.000000D+00
     37  0.000000D+00 -0.300384D-02  0.000000D+00  0.000000D+00  0.283982D-02
     38 -0.447083D-03  0.000000D+00  0.589000D-03  0.144501D-02  0.000000D+00
     39  0.135189D-03  0.000000D+00 -0.177919D-02  0.132335D-02  0.000000D+00
     40  0.000000D+00  0.516053D-02  0.000000D+00  0.000000D+00  0.283982D-02
     41 -0.155117D-03  0.000000D+00  0.840720D-03 -0.236938D-03  0.000000D+00
     42 -0.104131D-04  0.000000D+00 -0.232999D-02 -0.519672D-02  0.000000D+00
               11            12            13            14            15
     11  0.617257D+00
     12  0.000000D+00  0.610021D+00
     13  0.000000D+00  0.000000D+00  0.128310D+00
     14 -0.243135D+00 -0.528184D-01  0.000000D+00  0.661051D+00
     15 -0.467031D-01 -0.120586D+00  0.000000D+00 -0.557108D-01  0.691820D+00
     16  0.000000D+00  0.000000D+00 -0.584014D-01  0.000000D+00  0.000000D+00
     17  0.277001D-01 -0.155601D-01  0.000000D+00 -0.129361D+00 -0.389826D-01
     18 -0.558485D-01 -0.494529D-01  0.000000D+00  0.304878D-01 -0.343431D+00
     19  0.000000D+00  0.000000D+00  0.609409D-02  0.000000D+00  0.000000D+00
     20 -0.104228D-02  0.000000D+00  0.000000D+00 -0.461684D-02  0.216798D-02
     21  0.000000D+00  0.543239D-03  0.000000D+00  0.311227D-02  0.781821D-03
     22  0.000000D+00  0.000000D+00 -0.569591D-03  0.000000D+00  0.000000D+00
     23  0.178567D-02 -0.856868D-03  0.000000D+00  0.402457D-03 -0.854497D-03
     24 -0.185984D-02 -0.548093D-02  0.000000D+00 -0.615144D-03 -0.619003D-03
     25  0.000000D+00  0.000000D+00  0.496515D-02  0.000000D+00  0.000000D+00
     26 -0.191217D-01 -0.153154D-01  0.000000D+00 -0.283119D-02  0.404301D-02
     27  0.141142D-01  0.102941D-01  0.000000D+00  0.305663D-02 -0.140231D-02
     28  0.000000D+00  0.000000D+00 -0.341516D-01  0.000000D+00  0.000000D+00
     29 -0.191217D-01  0.153154D-01  0.000000D+00 -0.265565D+00  0.118094D+00
     30 -0.141142D-01  0.102941D-01  0.000000D+00  0.117740D+00 -0.125450D+00
     31  0.000000D+00  0.000000D+00  0.329952D-02  0.000000D+00  0.000000D+00
     32  0.178567D-02  0.856868D-03  0.000000D+00  0.340832D-02  0.191619D-02
     33  0.185984D-02 -0.548093D-02  0.000000D+00 -0.293502D-01 -0.111033D-01
     34  0.000000D+00  0.000000D+00  0.618609D-02  0.000000D+00  0.000000D+00
     35 -0.105208D+00  0.000000D+00  0.000000D+00  0.255028D-02 -0.361785D-01
     36  0.000000D+00 -0.278365D+00  0.000000D+00 -0.356341D-01 -0.534209D-01
     37  0.000000D+00  0.000000D+00  0.516053D-02  0.000000D+00  0.000000D+00
     38  0.243016D-02  0.243790D-02  0.000000D+00  0.840721D-03  0.236938D-03
     39 -0.275702D-01 -0.941004D-02  0.000000D+00  0.232999D-02 -0.519672D-02
     40  0.000000D+00  0.000000D+00 -0.300384D-02  0.000000D+00  0.000000D+00
     41  0.243016D-02 -0.243790D-02  0.000000D+00  0.588999D-03 -0.144501D-02
     42  0.275702D-01 -0.941004D-02  0.000000D+00  0.177919D-02  0.132335D-02
               16            17            18            19            20
     16  0.130179D+00
     17  0.000000D+00  0.698291D+00
     18  0.000000D+00  0.496557D-01  0.669530D+00
     19  0.306147D-02  0.000000D+00  0.000000D+00  0.229116D-01
     20  0.000000D+00  0.477303D-02  0.280333D-01  0.000000D+00  0.578384D-01
     21  0.000000D+00 -0.303863D-02 -0.112723D-01  0.000000D+00  0.000000D+00
     22  0.636074D-02  0.000000D+00  0.000000D+00 -0.352078D-02  0.000000D+00
     23  0.000000D+00 -0.301692D-02 -0.407400D-02  0.000000D+00  0.951852D-03
     24  0.000000D+00 -0.317202D-02 -0.903099D-03  0.000000D+00  0.569352D-03
     25 -0.590882D-03  0.000000D+00  0.000000D+00  0.188897D-03  0.000000D+00
     26  0.000000D+00  0.505987D-04  0.855124D-03  0.000000D+00  0.516646D-05
     27  0.000000D+00  0.562659D-03 -0.452016D-03  0.000000D+00 -0.139933D-02
     28  0.380976D-02  0.000000D+00  0.000000D+00  0.188897D-03  0.000000D+00
     29  0.000000D+00  0.338775D-02 -0.227992D-02  0.000000D+00  0.516642D-05
     30  0.000000D+00  0.291874D-01 -0.107198D-01  0.000000D+00  0.139933D-02
     31 -0.369901D-01  0.000000D+00  0.000000D+00 -0.352078D-02  0.000000D+00
     32  0.000000D+00 -0.265345D+00 -0.118688D+00  0.000000D+00  0.951852D-03
     33  0.000000D+00 -0.118431D+00 -0.127852D+00  0.000000D+00 -0.569352D-03
     34  0.350775D-02  0.000000D+00  0.000000D+00 -0.515332D-03  0.000000D+00
     35  0.000000D+00 -0.651226D-02 -0.944780D-03  0.000000D+00  0.227264D-03
     36  0.000000D+00 -0.102821D-01  0.193204D-01  0.000000D+00  0.000000D+00
     37  0.138748D-03  0.000000D+00  0.000000D+00  0.185865D-04  0.000000D+00
     38  0.000000D+00  0.351782D-04  0.155117D-03  0.000000D+00  0.354938D-04
     39  0.000000D+00 -0.183329D-02 -0.104130D-04  0.000000D+00  0.755313D-04
     40 -0.207567D-05  0.000000D+00  0.000000D+00  0.185865D-04  0.000000D+00
     41  0.000000D+00  0.158180D-03  0.447082D-03  0.000000D+00  0.354938D-04
     42  0.000000D+00 -0.437411D-03  0.135189D-03  0.000000D+00 -0.755312D-04
               21            22            23            24            25
     21  0.356612D+00
     22  0.000000D+00  0.256493D-01
     23 -0.327552D-03  0.000000D+00  0.280533D+00
     24  0.761475D-03  0.000000D+00 -0.128259D+00  0.132447D+00
     25  0.000000D+00 -0.448821D-02  0.000000D+00  0.000000D+00  0.231737D-01
     26  0.171919D-03  0.000000D+00  0.844073D-03 -0.394701D-03  0.000000D+00
     27 -0.680883D-03  0.000000D+00  0.346742D-03  0.965567D-03  0.000000D+00
     28  0.000000D+00 -0.106187D-02  0.000000D+00  0.000000D+00  0.346272D-03
     29 -0.171919D-03  0.000000D+00 -0.205817D-04  0.111450D-03  0.000000D+00
     30 -0.680883D-03  0.000000D+00  0.104379D-03  0.551641D-04  0.000000D+00
     31  0.000000D+00  0.239247D-03  0.000000D+00  0.000000D+00 -0.106187D-02
     32  0.327552D-03  0.000000D+00 -0.105764D-02 -0.789996D-03  0.000000D+00
     33  0.761475D-03  0.000000D+00  0.789996D-03  0.382383D-03  0.000000D+00
     34  0.000000D+00  0.199332D-03  0.000000D+00  0.000000D+00 -0.222746D-02
     35  0.000000D+00  0.000000D+00 -0.266143D-04  0.151541D-02  0.000000D+00
     36  0.110720D-03  0.000000D+00  0.483758D-04  0.962527D-04  0.000000D+00
     37  0.000000D+00  0.744913D-04  0.000000D+00  0.000000D+00  0.158648D-03
     38 -0.383319D-04  0.000000D+00  0.726693D-05 -0.683813D-04  0.000000D+00
     39 -0.371747D-05  0.000000D+00  0.133138D-04 -0.289112D-04  0.000000D+00
     40  0.000000D+00 -0.427477D-03  0.000000D+00  0.000000D+00 -0.144238D-03
     41  0.383319D-04  0.000000D+00  0.139748D-04  0.279988D-04  0.000000D+00
     42 -0.371746D-05  0.000000D+00 -0.111968D-04 -0.492716D-03  0.000000D+00
               26            27            28            29            30
     26  0.280783D+00
     27  0.127365D+00  0.131235D+00
     28  0.000000D+00  0.000000D+00  0.231737D-01
     29 -0.111019D-02  0.789066D-03  0.000000D+00  0.280783D+00
     30 -0.789066D-03  0.543089D-03  0.000000D+00 -0.127365D+00  0.131235D+00
     31  0.000000D+00  0.000000D+00 -0.448821D-02  0.000000D+00  0.000000D+00
     32 -0.205815D-04 -0.104379D-03  0.000000D+00  0.844073D-03 -0.346742D-03
     33 -0.111449D-03  0.551641D-04  0.000000D+00  0.394701D-03  0.965567D-03
     34  0.000000D+00  0.000000D+00 -0.222746D-02  0.000000D+00  0.000000D+00
     35  0.846321D-03  0.119023D-02  0.000000D+00  0.846321D-03 -0.119023D-02
     36 -0.195212D-02  0.103398D-02  0.000000D+00  0.195212D-02  0.103398D-02
     37  0.000000D+00  0.000000D+00 -0.144238D-03  0.000000D+00  0.000000D+00
     38  0.360129D-03 -0.369180D-03  0.000000D+00  0.398787D-03  0.234511D-03
     39  0.118269D-02 -0.256650D-04  0.000000D+00 -0.232660D-03  0.654840D-04
     40  0.000000D+00  0.000000D+00  0.158648D-03  0.000000D+00  0.000000D+00
     41  0.398788D-03 -0.234511D-03  0.000000D+00  0.360129D-03  0.369180D-03
     42  0.232660D-03  0.654839D-04  0.000000D+00 -0.118269D-02 -0.256649D-04
               31            32            33            34            35
     31  0.256493D-01
     32  0.000000D+00  0.280533D+00
     33  0.000000D+00  0.128259D+00  0.132447D+00
     34  0.199332D-03  0.000000D+00  0.000000D+00  0.683885D-01
     35  0.000000D+00 -0.266142D-04 -0.151541D-02  0.000000D+00  0.648710D+00
     36  0.000000D+00 -0.483759D-04  0.962527D-04  0.000000D+00  0.000000D+00
     37 -0.427477D-03  0.000000D+00  0.000000D+00 -0.192643D-01  0.000000D+00
     38  0.000000D+00  0.139747D-04 -0.279988D-04  0.000000D+00 -0.269056D+00
     39  0.000000D+00  0.111968D-04 -0.492716D-03  0.000000D+00 -0.122218D+00
     40  0.744913D-04  0.000000D+00  0.000000D+00 -0.192643D-01  0.000000D+00
     41  0.000000D+00  0.726688D-05  0.683812D-04  0.000000D+00 -0.269056D+00
     42  0.000000D+00 -0.133137D-04 -0.289111D-04  0.000000D+00  0.122218D+00
               36            37            38            39            40
     36  0.617451D+00
     37  0.000000D+00  0.116297D-01
     38 -0.126292D+00  0.000000D+00  0.278288D+00
     39 -0.130224D+00  0.000000D+00  0.136036D+00  0.133882D+00
     40  0.000000D+00  0.273378D-02  0.000000D+00  0.000000D+00  0.116297D-01
     41  0.126292D+00  0.000000D+00 -0.143152D-01  0.134828D-01  0.000000D+00
     42 -0.130224D+00  0.000000D+00 -0.134828D-01  0.984896D-02  0.000000D+00
               41            42
     41  0.278288D+00
     42 -0.136036D+00  0.133882D+00
 FrcOut:
 IF    =  1040 IFX   =  1082 IFXYZ =  1124
 IFFX  =  1166 IFFFX =  2069 IFLen =    42
 IFFLen=   903 IFFFLn=     0 IEDerv=  2069
 LEDerv=  2069 IFroze=  4142 ICStrt= 61075
 DipoleDeriv   =-1.35302761D-01 4.12015238D-11 1.81553493D-10
                 5.18006459D-10-6.59065494D-02 1.40169803D-09
                 8.31838069D-10-9.72486041D-10 4.37841998D-02
                -1.29587624D-01 1.26853570D-10-1.01091333D-10
                -6.22749547D-10 9.62301680D-02-1.33507608D-01
                -1.64891971D-09-8.86823001D-02-2.56578127D-02
                -1.27273831D-01-2.37440223D-10-4.02394604D-10
                -1.09878550D-09 5.67792391D-02 9.95629680D-02
                 1.67676312D-09 7.67623047D-02 1.10448785D-02
                 1.73857860D-02 1.14607149D-10 7.25661592D-10
                 3.02762504D-10-1.20729224D-01 3.02163082D-09
                -2.53079048D-09-8.36695781D-11 4.48815838D-02
                -1.27273832D-01-4.16827842D-11-1.88866279D-10
                 6.07771543D-10 5.67792384D-02-9.95629728D-02
                 1.50542679D-10-7.67623072D-02 1.10448722D-02
                -1.29587624D-01 3.92092153D-11 9.10110397D-11
                 2.58465616D-10 9.62301672D-02 1.33507611D-01
                 1.01556336D-10 8.86823037D-02-2.56578053D-02
                 1.35385553D-01-1.43150628D-10 2.47164371D-10
                 3.99875436D-11 6.59562741D-02 7.61162021D-11
                -8.10391391D-11-1.20410100D-09-1.10304911D-01
                 1.30318673D-01 1.71508119D-11-1.71634756D-10
                -1.46146920D-10-7.12421576D-02 9.09590714D-02
                 1.32082042D-10 7.95104642D-02 2.10725303D-02
                 1.28358572D-01 1.77587022D-10 4.03534140D-10
                -9.61200933D-11-6.09804639D-02-5.63043437D-02
                -1.64863163D-10-8.75845020D-02 8.05294615D-03
                 1.28358572D-01-7.89215414D-11-7.52220113D-10
                 1.75546314D-10-6.09804647D-02 5.63043449D-02
                -1.71980423D-10 8.75845023D-02 8.05294535D-03
                 1.30318673D-01 1.74800314D-10 2.34032156D-10
                 8.12479223D-11-7.12421581D-02-9.09590731D-02
                 1.36184803D-10-7.95104644D-02 2.10725309D-02
                -3.01443528D-01 6.35072700D-11 6.10653590D-12
                -1.27006710D-10 2.02300940D-01-1.81458589D-09
                 1.56266499D-09 1.49930039D-09-1.96765793D-02
                 1.40171687D-01-2.50162633D-10 2.02324233D-10
                -2.01398053D-10-6.15975048D-02-8.10396152D-02
                 2.08269204D-10-1.42998803D-02 6.14531101D-03
                 1.40171686D-01 8.16055583D-11-3.51365345D-10
                 3.27596759D-10-6.15975045D-02 8.10396150D-02
                -2.10017193D-10 1.42998798D-02 6.14531097D-03
 Full mass-weighted force constant matrix:
 Low frequencies ---  -11.5459   -0.0008    0.0004    0.0006    5.0420   13.2854
 Low frequencies ---  198.6170  359.1574  390.2560
 Dipole derivatives wrt mode   1:  1.15977D+00 -1.59212D-09  3.90223D-09
 Vibrational polarizability contributions from mode   1       0.9175948       0.0000000       0.0000000
 Vibrational hyperpolarizability contributions from mode   1       0.0000000       0.0000000       0.0000000
 Dipole derivatives wrt mode   2:  3.70424D-09 -3.84702D-01  1.61022D-08
 Vibrational polarizability contributions from mode   2       0.0000000       0.0308754       0.0000000
 Vibrational hyperpolarizability contributions from mode   2       0.0000000       0.0000000       0.0000000
 Dipole derivatives wrt mode   3: -1.28839D-08  8.88731D-10 -1.62370D-08
 Vibrational polarizability contributions from mode   3       0.0000000       0.0000000       0.0000000
 Vibrational hyperpolarizability contributions from mode   3       0.0000000       0.0000000       0.0000000
 Dipole derivatives wrt mode   4: -3.93912D+00 -1.93020D-09  8.45913D-09
 Vibrational polarizability contributions from mode   4       1.8237531       0.0000000       0.0000000
 Vibrational hyperpolarizability contributions from mode   4       0.0000000       0.0000000       0.0000000
 Dipole derivatives wrt mode   5:  3.16793D-08 -7.66916D-09  3.59655D-09
 Vibrational polarizability contributions from mode   5       0.0000000       0.0000000       0.0000000
 Vibrational hyperpolarizability contributions from mode   5       0.0000000       0.0000000       0.0000000
 Dipole derivatives wrt mode   6: -4.72086D-09 -3.74409D-09 -4.95218D-01
 Vibrational polarizability contributions from mode   6       0.0000000       0.0000000       0.0231251
 Vibrational hyperpolarizability contributions from mode   6       0.0000000       0.0000000       0.0000000
 Dipole derivatives wrt mode   7:  4.56573D-10  4.85171D-02  1.32046D-08
 Vibrational polarizability contributions from mode   7       0.0000000       0.0001605       0.0000000
 Vibrational hyperpolarizability contributions from mode   7       0.0000000       0.0000000       0.0000000
 Dipole derivatives wrt mode   8: -7.31597D+00  2.43379D-09  3.13130D-09
 Vibrational polarizability contributions from mode   8       3.0743960       0.0000000       0.0000000
 Vibrational hyperpolarizability contributions from mode   8       0.0000000       0.0000000       0.0000000
 Dipole derivatives wrt mode   9:  1.47118D+00 -4.11806D-09 -3.45507D-09
 Vibrational polarizability contributions from mode   9       0.1165642       0.0000000       0.0000000
 Vibrational hyperpolarizability contributions from mode   9       0.0000000       0.0000000       0.0000000
 Dipole derivatives wrt mode  10: -7.56629D+00 -4.43073D-10 -7.10960D-09
 Vibrational polarizability contributions from mode  10       2.5738399       0.0000000       0.0000000
 Vibrational hyperpolarizability contributions from mode  10       0.0000000       0.0000000       0.0000000
 Dipole derivatives wrt mode  11:  1.98897D-09 -1.81172D-09 -5.58824D-09
[...]
     39  0.317202D-02  0.615145D-03  0.185984D-02 -0.293502D-01 -0.118431D+00
     40  0.102821D-01  0.356341D-01  0.000000D+00 -0.356341D-01 -0.102821D-01
     41  0.437411D-03 -0.177919D-02 -0.275702D-01  0.232999D-02 -0.183329D-02
     42  0.183329D-02 -0.232999D-02  0.275702D-01  0.177919D-02 -0.437411D-03
               21            22            23            24            25
     21  0.578384D-01
     22  0.951852D-03  0.280533D+00
     23  0.516646D-05  0.844073D-03  0.280783D+00
     24  0.516642D-05 -0.205817D-04 -0.111019D-02  0.280783D+00
     25  0.951852D-03 -0.105764D-02 -0.205815D-04  0.844073D-03  0.280533D+00
     26  0.227264D-03 -0.266143D-04  0.846321D-03  0.846321D-03 -0.266142D-04
     27  0.354938D-04  0.726693D-05  0.360129D-03  0.398787D-03  0.139747D-04
     28  0.354938D-04  0.139748D-04  0.398788D-03  0.360129D-03  0.726688D-05
     29  0.000000D+00  0.163085D-01  0.526718D-03 -0.526718D-03 -0.163085D-01
     30 -0.280333D-01  0.118688D+00  0.227992D-02 -0.855125D-03  0.407400D-02
     31 -0.216798D-02 -0.191619D-02 -0.118094D+00 -0.404301D-02  0.854497D-03
     32  0.000000D+00 -0.856868D-03 -0.153154D-01  0.153154D-01  0.856868D-03
     33  0.216798D-02 -0.854497D-03  0.404301D-02  0.118094D+00  0.191619D-02
     34  0.280333D-01 -0.407400D-02  0.855124D-03 -0.227992D-02 -0.118688D+00
     35  0.000000D+00 -0.327552D-03  0.171919D-03 -0.171919D-03  0.327552D-03
     36  0.569352D-03 -0.128259D+00 -0.394701D-03  0.111450D-03 -0.789996D-03
     37 -0.139933D-02  0.346742D-03  0.127365D+00  0.789066D-03 -0.104379D-03
     38  0.139933D-02  0.104379D-03 -0.789066D-03 -0.127365D+00 -0.346742D-03
     39 -0.569352D-03  0.789996D-03 -0.111449D-03  0.394701D-03  0.128259D+00
     40  0.000000D+00  0.483758D-04 -0.195212D-02  0.195212D-02 -0.483759D-04
     41  0.755313D-04  0.133138D-04  0.118269D-02 -0.232660D-03  0.111968D-04
     42 -0.755312D-04 -0.111968D-04  0.232660D-03 -0.118269D-02 -0.133137D-04
               26            27            28            29            30
     26  0.648710D+00
     27 -0.269056D+00  0.278288D+00
     28 -0.269056D+00 -0.143152D-01  0.278288D+00
     29  0.000000D+00  0.180407D-03 -0.180407D-03  0.725335D+00
     30  0.944781D-03 -0.447083D-03 -0.155117D-03 -0.167333D+00  0.669530D+00
     31  0.361785D-01  0.144501D-02 -0.236938D-03 -0.356948D-01 -0.343431D+00
     32  0.000000D+00  0.243790D-02 -0.243790D-02  0.170731D-01 -0.494529D-01
     33 -0.361785D-01  0.236938D-03 -0.144501D-02 -0.356948D-01 -0.410191D-01
     34 -0.944780D-03  0.155117D-03  0.447082D-03 -0.167333D+00  0.634595D-01
     35  0.000000D+00 -0.383319D-04  0.383319D-04 -0.336438D+00 -0.112724D-01
     36  0.151541D-02 -0.683813D-04  0.279988D-04  0.117717D-01 -0.127852D+00
     37  0.119023D-02 -0.369180D-03 -0.234511D-03 -0.546147D-02 -0.107198D-01
     38 -0.119023D-02  0.234511D-03  0.369180D-03 -0.546147D-02 -0.452016D-03
     39 -0.151541D-02 -0.279988D-04  0.683812D-04  0.117717D-01 -0.903100D-03
     40  0.000000D+00 -0.126292D+00  0.126292D+00 -0.128085D-01  0.193204D-01
     41 -0.122218D+00  0.136036D+00  0.134828D-01  0.136986D-03  0.135189D-03
     42  0.122218D+00 -0.134828D-01 -0.136036D+00  0.136986D-03 -0.104131D-04
               31            32            33            34            35
     31  0.691820D+00
     32 -0.120586D+00  0.610021D+00
     33  0.439982D-01 -0.120586D+00  0.691820D+00
     34 -0.410191D-01 -0.494529D-01 -0.343431D+00  0.669530D+00
     35  0.781822D-03  0.543239D-03  0.781821D-03 -0.112723D-01  0.356612D+00
     36 -0.111033D-01 -0.548093D-02 -0.619003D-03 -0.903099D-03  0.761475D-03
     37 -0.125450D+00  0.102941D-01 -0.140231D-02 -0.452016D-03 -0.680883D-03
     38 -0.140232D-02  0.102941D-01 -0.125450D+00 -0.107198D-01 -0.680883D-03
     39 -0.619004D-03 -0.548093D-02 -0.111033D-01 -0.127852D+00  0.761475D-03
     40 -0.534209D-01 -0.278365D+00 -0.534209D-01  0.193204D-01  0.110720D-03
     41  0.132335D-02 -0.941004D-02 -0.519672D-02 -0.104130D-04 -0.371747D-05
     42 -0.519672D-02 -0.941004D-02  0.132335D-02  0.135189D-03 -0.371746D-05
               36            37            38            39            40
     36  0.132447D+00
     37  0.965567D-03  0.131235D+00
     38  0.551641D-04  0.543089D-03  0.131235D+00
     39  0.382383D-03  0.551641D-04  0.965567D-03  0.132447D+00
     40  0.962527D-04  0.103398D-02  0.103398D-02  0.962527D-04  0.617451D+00
     41 -0.289112D-04 -0.256650D-04  0.654840D-04 -0.492716D-03 -0.130224D+00
     42 -0.492716D-03  0.654839D-04 -0.256649D-04 -0.289111D-04 -0.130224D+00
               41            42
     41  0.133882D+00
     42  0.984896D-02  0.133882D+00
 Final forces over variables, Energy=-2.70983928D+02:
 -2.54297607D-13-1.29876476D-12-1.33197687D-12-6.58104959D-12
 -3.31660665D-11-2.17487918D-11-4.12102742D-14 1.51424838D-12
 -2.05712106D-13 3.05101875D-11 2.43037496D-11 4.00138071D-12
  2.34339398D-12 2.23695636D-12 3.82812786D-13 4.58152091D-05
  9.05708174D-05 1.63751363D-12-9.05709186D-05-4.58152182D-05
  2.85403305D-12 9.01572131D-06-2.46233596D-06 2.46242736D-06
 -9.01571563D-06 6.71013174D-12-1.26816569D-05 1.26816586D-05
 -5.73797506D-05 2.37465224D-05-9.05131601D-05 1.86351039D-04
 -9.05131331D-05 2.37465228D-05-8.62858931D-06-1.47292871D-05
  2.67172967D-05 2.67172590D-05-1.47292823D-05-9.70105126D-05
  4.31125411D-05 4.31125340D-05

 GradGradGradGradGradGradGradGradGradGradGradGradGradGradGradGradGradGrad
 Berny optimization.
 Search for a local minimum.
 Step number   1 out of a maximum of   2
 All quantities printed in internal units (Hartrees-Bohrs-Radians)
 Second derivative matrix not updated -- analytic derivatives used.
     Eigenvalues ---    0.00467   0.00855   0.01104   0.01503   0.02060
     Eigenvalues ---    0.02776   0.04414   0.05183   0.05219   0.05435
     Eigenvalues ---    0.05788   0.06999   0.07428   0.07819   0.09689
     Eigenvalues ---    0.10113   0.11876   0.17393   0.18593   0.18804
     Eigenvalues ---    0.19803   0.22223   0.28318   0.33723   0.39786
     Eigenvalues ---    0.53651   0.65330   0.74927   0.78431   0.89126
     Eigenvalues ---    0.93283   0.97022   1.05446   1.09159   1.18749
     Eigenvalues ---    1.22018
 Angle between quadratic step and forces=  56.73 degrees.
 Linear search not attempted -- first point.
 TrRot=  0.000000  0.000000 -0.000036  0.000000  0.000000  0.000000
 Variable       Old X    -DE/DX   Delta X   Delta X   Delta X     New X
                                 (Linear)    (Quad)   (Total)
    X1        0.00000   0.00000   0.00000   0.00000   0.00000   0.00000
    Y1        0.00000   0.00000   0.00000   0.00000   0.00000   0.00000
    Z1       -3.60807  -0.00006   0.00000  -0.00015  -0.00019  -3.60826
    X2        0.00000   0.00000   0.00000   0.00000   0.00000   0.00000
    Y2        2.28606   0.00005   0.00000   0.00015   0.00015   2.28621
    Z2       -2.27640   0.00002   0.00000  -0.00010  -0.00014  -2.27654
    X3        0.00000   0.00000   0.00000   0.00000   0.00000   0.00000
    Y3        2.29861   0.00009   0.00000   0.00021   0.00021   2.29882
    Z3        0.33669  -0.00009   0.00000  -0.00012  -0.00015   0.33654
    X4        0.00000   0.00000   0.00000   0.00000   0.00000   0.00000
    Y4        0.00000   0.00000   0.00000   0.00000   0.00000   0.00000
    Z4        1.74023   0.00019   0.00000   0.00022   0.00018   1.74041
    X5        0.00000   0.00000   0.00000   0.00000   0.00000   0.00000
    Y5       -2.29861  -0.00009   0.00000  -0.00021  -0.00021  -2.29882
    Z5        0.33669  -0.00009   0.00000  -0.00012  -0.00015   0.33654
    X6        0.00000   0.00000   0.00000   0.00000   0.00000   0.00000
    Y6       -2.28606  -0.00005   0.00000  -0.00015  -0.00015  -2.28621
    Z6       -2.27640   0.00002   0.00000  -0.00010  -0.00014  -2.27654
    X7        0.00000   0.00000   0.00000   0.00000   0.00000   0.00000
    Y7        0.00000   0.00000   0.00000   0.00000   0.00000   0.00000
    Z7       -5.65599  -0.00001   0.00000  -0.00017  -0.00020  -5.65619
    X8        0.00000   0.00000   0.00000   0.00000   0.00000   0.00000
    Y8        4.06096   0.00001   0.00000   0.00008   0.00008   4.06105
    Z8       -3.30120  -0.00001   0.00000  -0.00031  -0.00034  -3.30154
    X9        0.00000   0.00000   0.00000   0.00000   0.00000   0.00000
    Y9        4.07722   0.00000   0.00000   0.00004   0.00004   4.07725
    Z9        1.35616   0.00003   0.00000   0.00025   0.00022   1.35638
   X10        0.00000   0.00000   0.00000   0.00000   0.00000   0.00000
   Y10       -4.07722   0.00000   0.00000  -0.00004  -0.00004  -4.07725
   Z10        1.35616   0.00003   0.00000   0.00025   0.00022   1.35638
   X11        0.00000   0.00000   0.00000   0.00000   0.00000   0.00000
   Y11       -4.06096  -0.00001   0.00000  -0.00008  -0.00008  -4.06105
   Z11       -3.30120  -0.00001   0.00000  -0.00031  -0.00034  -3.30154
   X12        0.00000   0.00000   0.00000   0.00000   0.00000   0.00000
   Y12        0.00000   0.00000   0.00000   0.00000   0.00000   0.00000
   Z12        4.39348  -0.00010   0.00000   0.00002  -0.00001   4.39347
   X13        0.00000   0.00000   0.00000   0.00000   0.00000   0.00000
   Y13        1.75229  -0.00001   0.00000  -0.00027  -0.00027   1.75201
   Z13        5.44995   0.00004   0.00000   0.00057   0.00053   5.45048
   X14        0.00000   0.00000   0.00000   0.00000   0.00000   0.00000
   Y14       -1.75229   0.00001   0.00000   0.00027   0.00027  -1.75201
   Z14        5.44995   0.00004   0.00000   0.00057   0.00053   5.45048
         Item               Value     Threshold  Converged?
 Maximum Force            0.000186     0.000450     YES
 RMS     Force            0.000047     0.000300     YES
 Maximum Displacement     0.000530     0.001800     YES
 RMS     Displacement     0.000182     0.001200     YES
 Predicted change in Energy=-9.840094D-08
 Optimization completed.
    -- Stationary point found.
 GradGradGradGradGradGradGradGradGradGradGradGradGradGradGradGradGradGrad


 Test job not archived.
 1\1\GINC-NODE33\Freq\UB3LYP\CBSB7\C7H7(2)\LAITCL\07-Mar-2017\0\\# freq
  nosymm b3lyp/cbsb7 iop(7/33=1)\\Benzyl Freq\\0,2\C,0.,0.,-1.90931\C,0
 .,1.20973,-1.20462\C,0.,1.21637,0.17817\C,0.,0.,0.92089\C,0.,-1.21637,
 0.17817\C,0.,-1.20973,-1.20462\H,0.,0.,-2.99302\H,0.,2.14897,-1.74692\
 H,0.,2.15757,0.71765\H,0.,-2.15757,0.71765\H,0.,-2.14897,-1.74692\C,0.
 ,0.,2.32493\H,0.,0.92727,2.88399\H,0.,-0.92727,2.88399\\Version=AM64L-
 G03RevD.01\HF=-270.983928\S2=0.781169\S2-1=0.\S2A=0.750656\RMSD=9.337e
 -09\RMSF=4.673e-05\ZeroPoint=0.1141518\Thermal=0.1198389\Dipole=0.,0.,
 -0.0519625\DipoleDeriv=-0.1353028,0.,0.,0.,-0.0659065,0.,0.,0.,0.04378
 42,-0.1295876,0.,0.,0.,0.0962302,-0.1335076,0.,-0.0886823,-0.0256578,-
 0.1272738,0.,0.,0.,0.0567792,0.099563,0.,0.0767623,0.0110449,0.0173858
 ,0.,0.,0.,-0.1207292,0.,0.,0.,0.0448816,-0.1272738,0.,0.,0.,0.0567792,
 -0.099563,0.,-0.0767623,0.0110449,-0.1295876,0.,0.,0.,0.0962302,0.1335
 076,0.,0.0886823,-0.0256578,0.1353856,0.,0.,0.,0.0659563,0.,0.,0.,-0.1
 103049,0.1303187,0.,0.,0.,-0.0712422,0.0909591,0.,0.0795105,0.0210725,
 0.1283586,0.,0.,0.,-0.0609805,-0.0563043,0.,-0.0875845,0.0080529,0.128
 3586,0.,0.,0.,-0.0609805,0.0563043,0.,0.0875845,0.0080529,0.1303187,0.
 ,0.,0.,-0.0712422,-0.0909591,0.,-0.0795105,0.0210725,-0.3014435,0.,0.,
 0.,0.2023009,0.,0.,0.,-0.0196766,0.1401717,0.,0.,0.,-0.0615975,-0.0810
 396,0.,-0.0142999,0.0061453,0.1401717,0.,0.,0.,-0.0615975,0.0810396,0.
 ,0.0142999,0.0061453\Polar=32.9972446,0.,80.7265745,0.,0.,112.8340931\
 PG=C02V [C2(H1C1C1C1),SGV(C4H6)]\NImag=0\\0.12526342,0.,0.61919566,0.,
 0.,0.72533510,-0.06044014,0.,0.,0.13017935,0.,-0.26289312,-0.11051748,
 0.,0.69829147,0.,-0.03631961,-0.16733300,0.,-0.04965569,0.66953007,0.0
 0828546,0.,0.,-0.05840142,0.,0.,0.12831047,0.,0.02407795,-0.02683601,0
 .,-0.12936106,-0.03048782,0.,0.66105102,0.,-0.07989834,-0.03569479,0.,
 0.03898265,-0.34343073,0.,0.05571081,0.69181956,-0.00833406,0.,0.,0.00
 740338,0.,0.,-0.06735932,0.,0.,0.14601373,0.,-0.05032442,0.,0.,0.02770
 006,0.05584852,0.,-0.24313539,0.04670313,0.,0.61725731,0.,0.,0.0170731
 3,0.,0.01556013,-0.04945289,0.,0.05281842,-0.12058638,0.,0.,0.61002076
 ,0.00828546,0.,0.,-0.00553842,0.,0.,0.00672282,0.,0.,-0.06735932,0.,0.
 ,0.12831047,0.,0.02407795,0.02683601,0.,-0.00922780,-0.01359445,0.,-0.
 03818282,0.00238100,0.,-0.24313539,-0.05281842,0.,0.66105102,0.,0.0798
 9834,-0.03569479,0.,-0.02410108,-0.04101906,0.,-0.00238100,0.04399822,
 0.,-0.04670313,-0.12058638,0.,-0.05571081,0.69181956,-0.06044014,0.,0.
 ,0.00750179,0.,0.,-0.00553842,0.,0.,0.00740338,0.,0.,-0.05840142,0.,0.
 ,0.13017935,0.,-0.26289312,0.11051748,0.,-0.05803962,-0.02228693,0.,-0
 .00922780,0.02410108,0.,0.02770006,-0.01556013,0.,-0.12936106,-0.03898
 265,0.,0.69829147,0.,0.03631961,-0.16733300,0.,0.02228694,0.06345948,0
 .,0.01359446,-0.04101906,0.,-0.05584852,-0.04945289,0.,0.03048782,-0.3
 4343072,0.,0.04965569,0.66953006,-0.03306210,0.,0.,0.00306147,0.,0.,0.
 00609409,0.,0.,-0.00101874,0.,0.,0.00609409,0.,0.,0.00306147,0.,0.,0.0
 2291162,0.,-0.05932083,0.,0.,0.00477303,-0.02803329,0.,-0.00461684,-0.
 00216798,0.,-0.00104228,0.,0.,-0.00461684,0.00216798,0.,0.00477303,0.0
 2803329,0.,0.05783842,0.,0.,-0.33643844,0.,0.00303863,-0.01127235,0.,-
 0.00311227,0.00078182,0.,0.,0.00054324,0.,0.00311227,0.00078182,0.,-0.
 00303863,-0.01127235,0.,0.,0.35661179,0.00298693,0.,0.,-0.03699006,0.,
 0.,0.00329952,0.,0.,0.00824845,0.,0.,-0.00056959,0.,0.,0.00636074,0.,0
 .,-0.00352078,0.,0.,0.02564929,0.,-0.01847984,0.01630850,0.,-0.2653454
 9,0.11868791,0.,0.00340832,-0.00191619,0.,0.00178567,-0.00085687,0.,0.
 00040246,-0.00085450,0.,-0.00301692,-0.00407400,0.,0.00095185,-0.00032
 755,0.,0.28053348,0.,-0.01484667,0.01177165,0.,0.11843121,-0.12785174,
 0.,0.02935025,-0.01110333,0.,-0.00185984,-0.00548093,0.,-0.00061514,-0
 .00061900,0.,-0.00317202,-0.00090310,0.,0.00056935,0.00076148,0.,-0.12
 825892,0.13244724,0.00746222,0.,0.,0.00380976,0.,0.,-0.03415156,0.,0.,
 0.00255954,0.,0.,0.00496515,0.,0.,-0.00059088,0.,0.,0.00018890,0.,0.,-
 0.00448821,0.,0.,0.02317374,0.,0.00197252,0.00052672,0.,0.00338776,0.0
 0227992,0.,-0.26556467,-0.11809425,0.,-0.01912169,-0.01531537,0.,-0.00
 283119,0.00404301,0.,0.00005060,0.00085512,0.,0.00000517,0.00017192,0.
 ,0.00084407,-0.00039470,0.,0.28078298,0.,0.00161067,-0.00546147,0.,-0.
 02918743,-0.01071983,0.,-0.11774030,-0.12544968,0.,0.01411421,0.010294
 06,0.,0.00305663,-0.00140231,0.,0.00056266,-0.00045202,0.,-0.00139933,
 -0.00068088,0.,0.00034674,0.00096557,0.,0.12736493,0.13123452,0.007462
 22,0.,0.,-0.00059088,0.,0.,0.00496515,0.,0.,0.00255954,0.,0.,-0.034151
 56,0.,0.,0.00380976,0.,0.,0.00018890,0.,0.,-0.00106187,0.,0.,0.0003462
 7,0.,0.,0.02317374,0.,0.00197252,-0.00052672,0.,0.00005060,-0.00085512
 ,0.,-0.00283119,-0.00404301,0.,-0.01912169,0.01531537,0.,-0.26556467,0
 .11809425,0.,0.00338775,-0.00227992,0.,0.00000517,-0.00017192,0.,-0.00
 002058,0.00011145,0.,-0.00111019,0.00078907,0.,0.28078298,0.,-0.001610
 67,-0.00546147,0.,-0.00056266,-0.00045202,0.,-0.00305663,-0.00140232,0
 .,-0.01411421,0.01029406,0.,0.11774030,-0.12544968,0.,0.02918743,-0.01
 071983,0.,0.00139933,-0.00068088,0.,0.00010438,0.00005516,0.,-0.000789
 07,0.00054309,0.,-0.12736493,0.13123452,0.00298693,0.,0.,0.00636074,0.
 ,0.,-0.00056959,0.,0.,0.00824845,0.,0.,0.00329952,0.,0.,-0.03699006,0.
 ,0.,-0.00352078,0.,0.,0.00023925,0.,0.,-0.00106187,0.,0.,-0.00448821,0
 .,0.,0.02564929,0.,-0.01847984,-0.01630850,0.,-0.00301692,0.00407400,0
 .,0.00040246,0.00085450,0.,0.00178567,0.00085687,0.,0.00340832,0.00191
 619,0.,-0.26534549,-0.11868791,0.,0.00095185,0.00032755,0.,-0.00105764
 ,-0.00079000,0.,-0.00002058,-0.00010438,0.,0.00084407,-0.00034674,0.,0
 .28053348,0.,0.01484667,0.01177165,0.,0.00317202,-0.00090310,0.,0.0006
 1514,-0.00061900,0.,0.00185984,-0.00548093,0.,-0.02935025,-0.01110333,
 0.,-0.11843121,-0.12785174,0.,-0.00056935,0.00076148,0.,0.00079000,0.0
 0038238,0.,-0.00011145,0.00005516,0.,0.00039470,0.00096557,0.,0.128258
 92,0.13244724,-0.00063135,0.,0.,0.00350775,0.,0.,0.00618609,0.,0.,-0.0
 4404468,0.,0.,0.00618609,0.,0.,0.00350775,0.,0.,-0.00051533,0.,0.,0.00
 019933,0.,0.,-0.00222746,0.,0.,-0.00222746,0.,0.,0.00019933,0.,0.,0.06
 838848,0.,0.00066644,0.,0.,-0.00651226,0.00094478,0.,0.00255028,0.0361
 7855,0.,-0.10520824,0.,0.,0.00255028,-0.03617855,0.,-0.00651226,-0.000
 94478,0.,0.00022726,0.,0.,-0.00002661,0.00151541,0.,0.00084632,0.00119
 023,0.,0.00084632,-0.00119023,0.,-0.00002661,-0.00151541,0.,0.64871037
 ,0.,0.,-0.01280854,0.,0.01028206,0.01932040,0.,0.03563412,-0.05342094,
 0.,0.,-0.27836478,0.,-0.03563412,-0.05342094,0.,-0.01028206,0.01932040
 ,0.,0.,0.00011072,0.,0.00004838,0.00009625,0.,-0.00195212,0.00103398,0
 .,0.00195212,0.00103398,0.,-0.00004838,0.00009625,0.,0.,0.61745057,0.0
 0008758,0.,0.,-0.00000208,0.,0.,-0.00300384,0.,0.,0.00283982,0.,0.,0.0
 0516053,0.,0.,0.00013875,0.,0.,0.00001859,0.,0.,0.00007449,0.,0.,0.000
 15865,0.,0.,-0.00014424,0.,0.,-0.00042748,0.,0.,-0.01926428,0.,0.,0.01
 162972,0.,0.00021407,0.00018041,0.,0.00015818,-0.00044708,0.,0.0005890
 0,0.00144501,0.,0.00243016,0.00243790,0.,0.00084072,0.00023694,0.,0.00
 003518,0.00015512,0.,0.00003549,-0.00003833,0.,0.00000727,-0.00006838,
 0.,0.00036013,-0.00036918,0.,0.00039879,0.00023451,0.,0.00001397,-0.00
 002800,0.,-0.26905565,-0.12629157,0.,0.27828791,0.,0.00006487,0.000136
 99,0.,0.00043741,0.00013519,0.,-0.00177919,0.00132335,0.,-0.02757022,-
 0.00941004,0.,0.00232999,-0.00519672,0.,-0.00183329,-0.00001041,0.,0.0
 0007553,-0.00000372,0.,0.00001331,-0.00002891,0.,0.00118269,-0.0000256
 6,0.,-0.00023266,0.00006548,0.,0.00001120,-0.00049272,0.,-0.12221797,-
 0.13022368,0.,0.13603550,0.13388189,0.00008758,0.,0.,0.00013875,0.,0.,
 0.00516053,0.,0.,0.00283982,0.,0.,-0.00300384,0.,0.,-0.00000208,0.,0.,
 0.00001859,0.,0.,-0.00042748,0.,0.,-0.00014424,0.,0.,0.00015865,0.,0.,
 0.00007449,0.,0.,-0.01926428,0.,0.,0.00273378,0.,0.,0.01162972,0.,0.00
 021407,-0.00018041,0.,0.00003518,-0.00015512,0.,0.00084072,-0.00023694
 ,0.,0.00243016,-0.00243790,0.,0.00058900,-0.00144501,0.,0.00015818,0.0
 0044708,0.,0.00003549,0.00003833,0.,0.00001397,0.00002800,0.,0.0003987
 9,-0.00023451,0.,0.00036013,0.00036918,0.,0.00000727,0.00006838,0.,-0.
 26905565,0.12629157,0.,-0.01431522,0.01348284,0.,0.27828791,0.,-0.0000
 6487,0.00013699,0.,0.00183329,-0.00001041,0.,-0.00232999,-0.00519672,0
 .,0.02757022,-0.00941004,0.,0.00177919,0.00132335,0.,-0.00043741,0.000
 13519,0.,-0.00007553,-0.00000372,0.,-0.00001120,-0.00049272,0.,0.00023
 266,0.00006548,0.,-0.00118269,-0.00002566,0.,-0.00001331,-0.00002891,0
 .,0.12221797,-0.13022368,0.,-0.01348284,0.00984896,0.,-0.13603550,0.13
 388189\\0.,0.,0.00005738,0.,-0.00004582,-0.00002375,0.,-0.00009057,0.0
 0009051,0.,0.,-0.00018635,0.,0.00009057,0.00009051,0.,0.00004582,-0.00
 002375,0.,0.,0.00000863,0.,-0.00000902,0.00001473,0.,0.00000246,-0.000
 02672,0.,-0.00000246,-0.00002672,0.,0.00000902,0.00001473,0.,0.,0.0000
 9701,0.,0.00001268,-0.00004311,0.,-0.00001268,-0.00004311\\\@


      HUMANKIND PERIODICALLY GOES THROUGH A SPEEDUP OF ITS AFFAIRS, 
      THEREBY EXPERIENCING THE RACE BETWEEN THE RENEWABLE VITALITY
      OF THE LIVING, AND THE BECKONING VITIATION OF DECADENCE.
      IN THIS PERIODIC RACE, ANY PAUSE BECOMES A LUXURY.
      ONLY THEN CAN ONE REFLECT THAT ALL IS PERMITTED;
      ALL IS POSSIBLE.

                              -- THE APOCRYPHA OF MUAD'DIB
                                 CHILDREN OF DUNE, BY FRANK HERBERT
 Job cpu time:  0 days  0 hours 42 minutes 55.4 seconds.
 File lengths (MBytes):  RWF=     97 Int=      0 D2E=      0 Chk=      7 Scr=      1
 Normal termination of Gaussian 03 at Tue Mar  7 14:10:50 2017.
