
                                 *****************
                                 * O   R   C   A *
                                 *****************

           --- An Ab Initio, DFT and Semiempirical electronic structure package ---

                  #######################################################
                  #                        -***-                        #
                  #          Department of theory and spectroscopy      #
                  #               Directorship: Frank Neese             #
                  #        Max Planck Institute fuer Kohlenforschung    #
                  #                Kaiser Wilhelm Platz 1               #
                  #                 D-45470 Muelheim/Ruhr               #
                  #                      Germany                        #
                  #                                                     #
                  #                  All rights reserved                #
                  #                        -***-                        #
                  #######################################################


                         Program Version 4.1.2  - RELEASE  -


 With contributions from (in alphabetic order):
   Daniel Aravena         : Magnetic Properties
   Michael Atanasov       : Ab Initio Ligand Field Theory
   Alexander A. Auer      : GIAO ZORA
   Ute Becker             : Parallelization
   Giovanni Bistoni       : ED, Open-shell LED
   Martin Brehm           : Molecular dynamics
   Dmytro Bykov           : SCF Hessian
   Vijay G. Chilkuri      : MRCI spin determinant printing
   Dipayan Datta          : RHF DLPNO-CCSD density
   Achintya Kumar Dutta   : EOM-CC, STEOM-CC
   Dmitry Ganyushin       : Spin-Orbit,Spin-Spin,Magnetic field MRCI
   Miquel Garcia          : C-PCM Hessian
   Yang Guo               : DLPNO-NEVPT2, CIM, IAO-localization
   Andreas Hansen         : Spin unrestricted coupled pair/coupled cluster methods
   Benjamin Helmich-Paris : CASSCF linear response (MC-RPA)
   Lee Huntington         : MR-EOM, pCC
   Robert Izsak           : Overlap fitted RIJCOSX, COSX-SCS-MP3, EOM
   Christian Kollmar      : KDIIS, OOCD, Brueckner-CCSD(T), CCSD density
   Simone Kossmann        : Meta GGA functionals, TD-DFT gradient, OOMP2, MP2 Hessian
   Martin Krupicka        : AUTO-CI
   Lucas Lang             : DCDCAS
   Dagmar Lenk            : GEPOL surface, SMD
   Dimitrios Liakos       : Extrapolation schemes; parallel MDCI
   Dimitrios Manganas     : ROCIS; embedding schemes
   Dimitrios Pantazis     : SARC Basis sets
   Taras Petrenko         : DFT Hessian,TD-DFT gradient, ASA, ECA, R-Raman, ABS, FL, XAS/XES, NRVS
   Peter Pinski           : DLPNO-MP2, DLPNO-MP2 Gradient
   Christoph Reimann      : Effective Core Potentials
   Marius Retegan         : Local ZFS, SOC
   Christoph Riplinger    : Optimizer, TS searches, QM/MM, DLPNO-CCSD(T), (RO)-DLPNO pert. Triples
   Tobias Risthaus        : Range-separated hybrids, TD-DFT gradient, RPA, STAB
   Michael Roemelt        : Restricted open shell CIS
   Masaaki Saitow         : Open-shell DLPNO
   Barbara Sandhoefer     : DKH picture change effects
   Avijit Sen             : IP-ROCIS
   Kantharuban Sivalingam : CASSCF convergence, NEVPT2, FIC-MRCI
   Bernardo de Souza      : ESD, SOC TD-DFT
   Georgi Stoychev        : AutoAux, RI-MP2 NMR
   Willem Van den Heuvel  : Paramagnetic NMR
   Boris Wezisla          : Elementary symmetry handling
   Frank Wennmohs         : Technical directorship


 We gratefully acknowledge several colleagues who have allowed us to
 interface, adapt or use parts of their codes:
   Stefan Grimme, W. Hujo, H. Kruse,             : VdW corrections, initial TS optimization,
                  C. Bannwarth                     DFT functionals, gCP, sTDA/sTD-DF
   Ed Valeev                                     : LibInt (2-el integral package), F12 methods
   Garnet Chan, S. Sharma, J. Yang, R. Olivares  : DMRG
   Ulf Ekstrom                                   : XCFun DFT Library
   Mihaly Kallay                                 : mrcc  (arbitrary order and MRCC methods)
   Andreas Klamt, Michael Diedenhofen            : otool_cosmo (COSMO solvation model)
   Jiri Pittner, Ondrej Demel                    : Mk-CCSD
   Frank Weinhold                                : gennbo (NPA and NBO analysis)
   Christopher J. Cramer and Donald G. Truhlar   : smd solvation model
   Lars Goerigk                                  : TD-DFT with DH, B97 family of functionals
   V. Asgeirsson, H. Jonsson                     : NEB implementation
   FAccTs GmbH                                   : IRC, NEB, NEB-TS, Multilevel


 Your calculation uses the libint2 library for the computation of 2-el integrals
 For citations please refer to: http://libint.valeyev.net

 This ORCA versions uses:
   CBLAS   interface :  Fast vector & matrix operations
   LAPACKE interface :  Fast linear algebra routines
   SCALAPACK package :  Parallel linear algebra routines


----- Orbital basis set information -----
Your calculation utilizes the basis: def2-TZVP
   F. Weigend and R. Ahlrichs, Phys. Chem. Chem. Phys. 7, 3297 (2005).

----- AuxC basis set information -----
Your calculation utilizes the auxiliary basis: def2-TZVP/C
  H-La, Hf-Rn : A. Hellweg, C. Hattig, S. Hofener and W. Klopper, Theor. Chem. Acc. 117, 587 (2007).
        Ce-Lu : J. Chmela and M. E. Harding, Mol. Phys. (2018).

================================================================================
                                        WARNINGS
                       Please study these warnings very carefully!
================================================================================


WARNING: PNO calculations with unrestricted orbitals require UNOs
  ===> : Switching on UNOs

WARNING: MDCI localization with Augmented Hessian Foster-Boys
  ===> : Switching off randomization!

WARNING: Post HF methods need fully converged wavefunctions
  ===> : Setting SCFConvForced true
         You can overwrite this default with %scf ConvForced false 


INFO   : the flag for use of LIBINT has been found!

================================================================================
                                       INPUT FILE
================================================================================
NAME = input.inp
|  1> !UHF DLPNO-CCSD(T) def2-TZVP def2-TZVP/C TightSCF normalPNO
|  2> %maxcore 10000
|  3> #
|  4> %pal
|  5> nproc 16
|  6> end
|  7> #how to do thermo
|  8> *xyz 0 2
|  9> N   0.0191840000  -0.3121250000   0.6290690000
| 10> C   1.3515550000  -0.6668670000   0.7955560000
| 11> C  -0.3456650000   1.0419640000   0.8520140000
| 12> C   1.9157400000  -1.9001030000   0.1752070000
| 13> H   2.0256700000   0.1519810000   1.0474510000
| 14> C  -1.0005630000  -1.2914430000   0.5694290000
| 15> C  -0.0233600000   1.6821370000   2.0521680000
| 16> C  -1.0068650000   1.7346400000  -0.1726550000
| 17> C   3.3606130000  -1.6865630000  -0.2783190000
| 18> H   1.8656130000  -2.7842170000   0.8424940000
| 19> H   1.3124780000  -2.1950720000  -0.7038320000
| 20> C  -0.8778140000  -2.4115980000   1.4148840000
| 21> C  -2.1232840000  -1.1884930000  -0.2836100000
| 22> C  -0.3738210000   3.0175170000   2.2436530000
| 23> H   0.4961290000   1.1195680000   2.8315990000
| 24> C  -1.3142110000   0.9982620000  -1.4410580000
| 25> C  -1.3678930000   3.0672840000   0.0428290000
| 26> N   4.2232830000  -1.1496360000   0.7528150000
| 27> H   3.3644810000  -0.9676190000  -1.1151340000
| 28> H   3.7593060000  -2.6469530000  -0.6857520000
| 29> C  -1.8193700000  -3.4313150000   1.4123450000
| 30> H  -0.0261320000  -2.4460840000   2.0974470000
| 31> C  -2.4086130000  -0.0495950000  -1.2403760000
| 32> C  -3.0643190000  -2.2275850000  -0.2527150000
| 33> C  -1.0529150000   3.7108000000   1.2401470000
| 34> H  -0.1245610000   3.5152300000   3.1847880000
| 35> H  -1.6359900000   1.7073440000  -2.2194810000
| 36> H  -0.3958840000   0.5082840000  -1.8077690000
| 37> H  -1.8881600000   3.6127880000  -0.7505830000
| 38> C   5.5003530000  -0.7379350000   0.2306390000
| 39> C   4.3534400000  -2.0040340000   1.9058840000
| 40> C  -2.9276670000  -3.3431290000   0.5679710000
| 41> H  -1.6966490000  -4.2867490000   2.0824080000
| 42> H  -2.6695130000  -0.4897340000  -2.2185140000
| 43> H  -3.3225390000   0.4678130000  -0.8962310000
| 44> H  -3.9327680000  -2.1541000000  -0.9156100000
| 45> H  -1.3339410000   4.7569000000   1.3886380000
| 46> H   6.0926280000  -0.2459990000   1.0178570000
| 47> H   6.1077290000  -1.5832830000  -0.1686650000
| 48> H   5.3614270000  -0.0130700000  -0.5863950000
| 49> H   4.9945860000  -1.5195820000   2.6579680000
| 50> H   4.8005310000  -2.9974640000   1.6695970000
| 51> H   3.3729500000  -2.1744720000   2.3738940000
| 52> H  -3.6812980000  -4.1346030000   0.5513460000
| 53> *
| 54> 
| 55>                          ****END OF INPUT****
================================================================================

                       ****************************
                       * Single Point Calculation *
                       ****************************

---------------------------------
CARTESIAN COORDINATES (ANGSTROEM)
---------------------------------
  N      0.019184   -0.312125    0.629069
  C      1.351555   -0.666867    0.795556
  C     -0.345665    1.041964    0.852014
  C      1.915740   -1.900103    0.175207
  H      2.025670    0.151981    1.047451
  C     -1.000563   -1.291443    0.569429
  C     -0.023360    1.682137    2.052168
  C     -1.006865    1.734640   -0.172655
  C      3.360613   -1.686563   -0.278319
  H      1.865613   -2.784217    0.842494
  H      1.312478   -2.195072   -0.703832
  C     -0.877814   -2.411598    1.414884
  C     -2.123284   -1.188493   -0.283610
  C     -0.373821    3.017517    2.243653
  H      0.496129    1.119568    2.831599
  C     -1.314211    0.998262   -1.441058
  C     -1.367893    3.067284    0.042829
  N      4.223283   -1.149636    0.752815
  H      3.364481   -0.967619   -1.115134
  H      3.759306   -2.646953   -0.685752
  C     -1.819370   -3.431315    1.412345
  H     -0.026132   -2.446084    2.097447
  C     -2.408613   -0.049595   -1.240376
  C     -3.064319   -2.227585   -0.252715
  C     -1.052915    3.710800    1.240147
  H     -0.124561    3.515230    3.184788
  H     -1.635990    1.707344   -2.219481
  H     -0.395884    0.508284   -1.807769
  H     -1.888160    3.612788   -0.750583
  C      5.500353   -0.737935    0.230639
  C      4.353440   -2.004034    1.905884
  C     -2.927667   -3.343129    0.567971
  H     -1.696649   -4.286749    2.082408
  H     -2.669513   -0.489734   -2.218514
  H     -3.322539    0.467813   -0.896231
  H     -3.932768   -2.154100   -0.915610
  H     -1.333941    4.756900    1.388638
  H      6.092628   -0.245999    1.017857
  H      6.107729   -1.583283   -0.168665
  H      5.361427   -0.013070   -0.586395
  H      4.994586   -1.519582    2.657968
  H      4.800531   -2.997464    1.669597
  H      3.372950   -2.174472    2.373894
  H     -3.681298   -4.134603    0.551346

----------------------------
CARTESIAN COORDINATES (A.U.)
----------------------------
  NO LB      ZA    FRAG     MASS         X           Y           Z
   0 N     7.0000    0    14.007    0.036253   -0.589831    1.188768
   1 C     6.0000    0    12.011    2.554069   -1.260196    1.503383
   2 C     6.0000    0    12.011   -0.653212    1.969027    1.610073
   3 C     6.0000    0    12.011    3.620224   -3.590674    0.331093
   4 H     1.0000    0     1.008    3.827962    0.287202    1.979396
   5 C     6.0000    0    12.011   -1.890790   -2.440474    1.076065
   6 C     6.0000    0    12.011   -0.044144    3.178778    3.878036
   7 C     6.0000    0    12.011   -1.902699    3.277995   -0.326271
   8 C     6.0000    0    12.011    6.350638   -3.187142   -0.525947
   9 H     1.0000    0     1.008    3.525498   -5.261408    1.592083
  10 H     1.0000    0     1.008    2.480224   -4.148085   -1.330050
  11 C     6.0000    0    12.011   -1.658828   -4.557260    2.673743
  12 C     6.0000    0    12.011   -4.012425   -2.245926   -0.535945
  13 C     6.0000    0    12.011   -0.706419    5.702281    4.239890
  14 H     1.0000    0     1.008    0.937548    2.115677    5.350947
  15 C     6.0000    0    12.011   -2.483499    1.886442   -2.723205
  16 C     6.0000    0    12.011   -2.584943    5.796327    0.080935
  17 N     7.0000    0    14.007    7.980848   -2.172497    1.422614
  18 H     1.0000    0     1.008    6.357948   -1.828535   -2.107298
  19 H     1.0000    0     1.008    7.104059   -5.002016   -1.295883
  20 C     6.0000    0    12.011   -3.438111   -6.484246    2.668945
  21 H     1.0000    0     1.008   -0.049382   -4.622429    3.963600
  22 C     6.0000    0    12.011   -4.551619   -0.093721   -2.343971
  23 C     6.0000    0    12.011   -5.790724   -4.209526   -0.477562
  24 C     6.0000    0    12.011   -1.989721    7.012396    2.343538
  25 H     1.0000    0     1.008   -0.235386    6.642822    6.018377
  26 H     1.0000    0     1.008   -3.091573    3.226413   -4.194211
  27 H     1.0000    0     1.008   -0.748112    0.960518   -3.416188
  28 H     1.0000    0     1.008   -3.568105    6.827180   -1.418396
  29 C     6.0000    0    12.011   10.394161   -1.394495    0.435845
  30 C     6.0000    0    12.011    8.226809   -3.787075    3.601599
  31 C     6.0000    0    12.011   -5.532489   -6.317598    1.073310
  32 H     1.0000    0     1.008   -3.206202   -8.100782    3.935181
  33 H     1.0000    0     1.008   -5.044648   -0.925463   -4.192384
  34 H     1.0000    0     1.008   -6.278689    0.884038   -1.693631
  35 H     1.0000    0     1.008   -7.431854   -4.070659   -1.730252
  36 H     1.0000    0     1.008   -2.520783    8.989238    2.624146
  37 H     1.0000    0     1.008   11.513398   -0.464871    1.923471
  38 H     1.0000    0     1.008   11.541935   -2.991971   -0.318731
  39 H     1.0000    0     1.008   10.131629   -0.024699   -1.108126
  40 H     1.0000    0     1.008    9.438400   -2.871594    5.022832
  41 H     1.0000    0     1.008    9.071689   -5.664386    3.155081
  42 H     1.0000    0     1.008    6.373952   -4.109157    4.486010
  43 H     1.0000    0     1.008   -6.956645   -7.813267    1.041893

--------------------------------
INTERNAL COORDINATES (ANGSTROEM)
--------------------------------
 N      0   0   0     0.000000000000     0.00000000     0.00000000
 C      1   0   0     1.388802465930     0.00000000     0.00000000
 C      1   2   0     1.419991649886   118.11555294     0.00000000
 C      2   1   3     1.491311043251   121.62137360   200.38742964
 H      2   1   3     1.090134932636   115.40957887   357.44316088
 C      1   2   3     1.415098801757   121.30676507   195.47294196
 C      3   1   2     1.397881113210   120.81452819   306.30977963
 C      3   1   2     1.402473543614   118.51559283   124.68832026
 C      4   2   1     1.529360372968   111.42648216   144.28758539
 H      4   2   1     1.108802156155   113.07487767   268.02858373
 H      4   2   1     1.106183219510   110.16670494    23.84458600
 C      6   1   2     1.408761405651   117.52849603    37.78413569
 C      6   1   2     1.413780987940   123.18183021   217.35577019
 C      7   3   1     1.393818195514   119.91631051   179.08551328
 H      7   3   1     1.092641471226   119.09610695   358.63091931
 C      8   3   1     1.498519366912   118.19104172     1.05788389
 C      8   3   1     1.397395649691   118.69518177   179.98684990
 N      9   4   2     1.447662757062   113.80026596    51.94837216
 H      9   4   2     1.103247379686   108.61652687   292.57508836
 H      9   4   2     1.116828863272   108.98861611   177.03921445
 C     12   6   1     1.387932602019   121.59957556   180.88856113
 H     12   6   1     1.091990733609   117.91716177     2.35799166
 C     13   6   1     1.514563459021   125.83979904   359.93993774
 C     13   6   1     1.402217371421   117.75467708   179.85701709
 C     17   8   3     1.395311569458   120.91920744     1.42786089
 H     14   7   3     1.093427577023   119.80370374   179.74146568
 H     16   8   3     1.101036500073   109.99230437   191.75909024
 H     16   8   3     1.103575949781   109.19433577   309.02683861
 H     17   8   3     1.094419922630   119.10235796   180.27427492
 C     18   9   4     1.439817097161   112.10354596   190.47256306
 C     18   9   4     1.441008294846   113.82006571    61.62978713
 C     24  13   6     1.391631307364   122.75951353   359.49909623
 H     21  12   6     1.093531982233   119.83346081   180.13540520
 H     23  13   6     1.103877301318   107.72545555   131.83570010
 H     23  13   6     1.105173087333   108.12704945   245.39783660
 H     24  13   6     1.095003877551   117.98143742   180.30410554
 H     25  17   8     1.093320812825   119.98674914   179.38758433
 H     30  18   9     1.101137086491   110.21512002   174.48709806
 H     30  18   9     1.114882294637   113.34656013   295.09721224
 H     30  18   9     1.101033268733   110.20956573    55.73296193
 H     31  18   9     1.100632671092   109.78057986   181.79690277
 H     31  18   9     1.114730942223   113.26669167    61.42033071
 H     31  18   9     1.099746839979   110.60282032   299.96988044
 H     32  24  13     1.093008310793   120.25096930   180.65479194

---------------------------
INTERNAL COORDINATES (A.U.)
---------------------------
 N      0   0   0     0.000000000000     0.00000000     0.00000000
 C      1   0   0     2.624456314723     0.00000000     0.00000000
 C      1   2   0     2.683395330740   118.11555294     0.00000000
 C      2   1   3     2.818169452237   121.62137360   200.38742964
 H      2   1   3     2.060056471703   115.40957887   357.44316088
 C      1   2   3     2.674149187760   121.30676507   195.47294196
 C      3   1   2     2.641612471748   120.81452819   306.30977963
 C      3   1   2     2.650290907500   118.51559283   124.68832026
 C      4   2   1     2.890072264981   111.42648216   144.28758539
 H      4   2   1     2.095332411834   113.07487767   268.02858373
 H      4   2   1     2.090383338814   110.16670494    23.84458600
 C      6   1   2     2.662173244718   117.52849603    37.78413569
 C      6   1   2     2.671658880552   123.18183021   217.35577019
 C      7   3   1     2.633934669998   119.91631051   179.08551328
 H      7   3   1     2.064793143182   119.09610695   358.63091931
 C      8   3   1     2.831791209840   118.19104172     1.05788389
 C      8   3   1     2.640695078649   118.69518177   179.98684990
 N      9   4   2     2.735686145125   113.80026596    51.94837216
 H      9   4   2     2.084835405574   108.61652687   292.57508836
 H      9   4   2     2.110500690043   108.98861611   177.03921445
 C     12   6   1     2.622812510156   121.59957556   180.88856113
 H     12   6   1     2.063563427302   117.91716177     2.35799166
 C     13   6   1     2.862110149994   125.83979904   359.93993774
 C     13   6   1     2.649806812212   117.75467708   179.85701709
 C     17   8   3     2.636756737768   120.91920744     1.42786089
 H     14   7   3     2.066278667850   119.80370374   179.74146568
 H     16   8   3     2.080657448590   109.99230437   191.75909024
 H     16   8   3     2.085456313067   109.19433577   309.02683861
 H     17   8   3     2.068153929278   119.10235796   180.27427492
 C     18   9   4     2.720859996572   112.10354596   190.47256306
 C     18   9   4     2.723111033967   113.82006571    61.62978713
 C     24  13   6     2.629802050309   122.75951353   359.49909623
 H     21  12   6     2.066475965104   119.83346081   180.13540520
 H     23  13   6     2.086025784943   107.72545555   131.83570010
 H     23  13   6     2.088474465639   108.12704945   245.39783660
 H     24  13   6     2.069257444153   117.98143742   180.30410554
 H     25  17   8     2.066076912756   119.98674914   179.38758433
 H     30  18   9     2.080847529371   110.21512002   174.48709806
 H     30  18   9     2.106822208422   113.34656013   295.09721224
 H     30  18   9     2.080651342242   110.20956573    55.73296193
 H     31  18   9     2.079894322411   109.78057986   181.79690277
 H     31  18   9     2.106536193810   113.26669167    61.42033071
 H     31  18   9     2.078220344206   110.60282032   299.96988044
 H     32  24  13     2.065486369498   120.25096930   180.65479194

---------------------
BASIS SET INFORMATION
---------------------
There are 3 groups of distinct atoms

 Group   1 Type N   : 11s6p2d1f contracted to 5s3p2d1f pattern {62111/411/11/1}
 Group   2 Type C   : 11s6p2d1f contracted to 5s3p2d1f pattern {62111/411/11/1}
 Group   3 Type H   : 5s1p contracted to 3s1p pattern {311/1}

Atom   0N    basis set group =>   1
Atom   1C    basis set group =>   2
Atom   2C    basis set group =>   2
Atom   3C    basis set group =>   2
Atom   4H    basis set group =>   3
Atom   5C    basis set group =>   2
Atom   6C    basis set group =>   2
Atom   7C    basis set group =>   2
Atom   8C    basis set group =>   2
Atom   9H    basis set group =>   3
Atom  10H    basis set group =>   3
Atom  11C    basis set group =>   2
Atom  12C    basis set group =>   2
Atom  13C    basis set group =>   2
Atom  14H    basis set group =>   3
Atom  15C    basis set group =>   2
Atom  16C    basis set group =>   2
Atom  17N    basis set group =>   1
Atom  18H    basis set group =>   3
Atom  19H    basis set group =>   3
Atom  20C    basis set group =>   2
Atom  21H    basis set group =>   3
Atom  22C    basis set group =>   2
Atom  23C    basis set group =>   2
Atom  24C    basis set group =>   2
Atom  25H    basis set group =>   3
Atom  26H    basis set group =>   3
Atom  27H    basis set group =>   3
Atom  28H    basis set group =>   3
Atom  29C    basis set group =>   2
Atom  30C    basis set group =>   2
Atom  31C    basis set group =>   2
Atom  32H    basis set group =>   3
Atom  33H    basis set group =>   3
Atom  34H    basis set group =>   3
Atom  35H    basis set group =>   3
Atom  36H    basis set group =>   3
Atom  37H    basis set group =>   3
Atom  38H    basis set group =>   3
Atom  39H    basis set group =>   3
Atom  40H    basis set group =>   3
Atom  41H    basis set group =>   3
Atom  42H    basis set group =>   3
Atom  43H    basis set group =>   3
-------------------------------
AUXILIARY BASIS SET INFORMATION
-------------------------------
There are 3 groups of distinct atoms

 Group   1 Type N   : 8s6p5d3f1g contracted to 8s6p4d3f1g pattern {11111111/111111/2111/111/1}
 Group   2 Type C   : 8s6p5d3f1g contracted to 8s6p4d3f1g pattern {11111111/111111/2111/111/1}
 Group   3 Type H   : 4s3p2d contracted to 4s2p1d pattern {1111/21/2}

Atom   0N    basis set group =>   1
Atom   1C    basis set group =>   2
Atom   2C    basis set group =>   2
Atom   3C    basis set group =>   2
Atom   4H    basis set group =>   3
Atom   5C    basis set group =>   2
Atom   6C    basis set group =>   2
Atom   7C    basis set group =>   2
Atom   8C    basis set group =>   2
Atom   9H    basis set group =>   3
Atom  10H    basis set group =>   3
Atom  11C    basis set group =>   2
Atom  12C    basis set group =>   2
Atom  13C    basis set group =>   2
Atom  14H    basis set group =>   3
Atom  15C    basis set group =>   2
Atom  16C    basis set group =>   2
Atom  17N    basis set group =>   1
Atom  18H    basis set group =>   3
Atom  19H    basis set group =>   3
Atom  20C    basis set group =>   2
Atom  21H    basis set group =>   3
Atom  22C    basis set group =>   2
Atom  23C    basis set group =>   2
Atom  24C    basis set group =>   2
Atom  25H    basis set group =>   3
Atom  26H    basis set group =>   3
Atom  27H    basis set group =>   3
Atom  28H    basis set group =>   3
Atom  29C    basis set group =>   2
Atom  30C    basis set group =>   2
Atom  31C    basis set group =>   2
Atom  32H    basis set group =>   3
Atom  33H    basis set group =>   3
Atom  34H    basis set group =>   3
Atom  35H    basis set group =>   3
Atom  36H    basis set group =>   3
Atom  37H    basis set group =>   3
Atom  38H    basis set group =>   3
Atom  39H    basis set group =>   3
Atom  40H    basis set group =>   3
Atom  41H    basis set group =>   3
Atom  42H    basis set group =>   3
Atom  43H    basis set group =>   3


           ************************************************************
           *        Program running with 16 parallel MPI-processes    *
           *              working on a common directory               *
           ************************************************************
------------------------------------------------------------------------------
                           ORCA GTO INTEGRAL CALCULATION
------------------------------------------------------------------------------

                         BASIS SET STATISTICS AND STARTUP INFO

 # of primitive gaussian shells          ...  558
 # of primitive gaussian functions       ... 1150
 # of contracted shells                  ...  323
 # of contracted basis functions         ...  789
 Highest angular momentum                ...    3
 Maximum contraction depth               ...    6
 Integral package used                   ... LIBINT
 Integral threshhold            Thresh   ...  2.500e-11
 Primitive cut-off              TCut     ...  2.500e-12


------------------------------ INTEGRAL EVALUATION ----------------------------


 * One electron integrals 
 Pre-screening matrix                    ... done
 Shell pair data                         ... done (   0.012 sec)



           ************************************************************
           *        Program running with 16 parallel MPI-processes    *
           *              working on a common directory               *
           ************************************************************
-------------------------------------------------------------------------------
                                 ORCA SCF
-------------------------------------------------------------------------------

------------
SCF SETTINGS
------------
Hamiltonian:
 Ab initio Hamiltonian  Method          .... Hartree-Fock(GTOs)


General Settings:
 Integral files         IntName         .... input
 Hartree-Fock type      HFTyp           .... UHF
 Total Charge           Charge          ....    0
 Multiplicity           Mult            ....    2
 Number of Electrons    NEL             ....  151
 Basis Dimension        Dim             ....  789
 Nuclear Repulsion      ENuc            ....   1641.4462136541 Eh

Convergence Acceleration:
 DIIS                   CNVDIIS         .... on
   Start iteration      DIISMaxIt       ....    12
   Startup error        DIISStart       ....  0.200000
   # of expansion vecs  DIISMaxEq       ....     5
   Bias factor          DIISBfac        ....   1.050
   Max. coefficient     DIISMaxC        ....  10.000
 Newton-Raphson         CNVNR           .... off
 SOSCF                  CNVSOSCF        .... off
 Level Shifting         CNVShift        .... on
   Level shift para.    LevelShift      ....    0.2500
   Turn off err/grad.   ShiftErr        ....    0.0010
 Zerner damping         CNVZerner       .... off
 Static damping         CNVDamp         .... on
   Fraction old density DampFac         ....    0.7000
   Max. Damping (<1)    DampMax         ....    0.9800
   Min. Damping (>=0)   DampMin         ....    0.0000
   Turn off err/grad.   DampErr         ....    0.1000
 Fernandez-Rico         CNVRico         .... off

SCF Procedure:
 Maximum # iterations   MaxIter         ....   125
 SCF integral mode      SCFMode         .... Direct
   Integral package                     .... LIBINT
 Reset frequency        DirectResetFreq ....    20
 Integral Threshold     Thresh          ....  2.500e-11 Eh
 Primitive CutOff       TCut            ....  2.500e-12 Eh

Convergence Tolerance:
 Convergence Check Mode ConvCheckMode   .... Total+1el-Energy
 Convergence forced     ConvForced      .... 1
 Energy Change          TolE            ....  1.000e-08 Eh
 1-El. energy change                    ....  1.000e-05 Eh
 DIIS Error             TolErr          ....  5.000e-07


Diagonalization of the overlap matrix:
Smallest eigenvalue                        ... 5.729e-06
Time for diagonalization                   ...    0.346 sec
Threshold for overlap eigenvalues          ... 1.000e-08
Number of eigenvalues below threshold      ... 0
Time for construction of square roots      ...    0.078 sec
Total time needed                          ...    0.426 sec

-------------------
DFT GRID GENERATION
-------------------

General Integration Accuracy     IntAcc      ...  4.340
Radial Grid Type                 RadialGrid  ... Gauss-Chebyshev
Angular Grid (max. acc.)         AngularGrid ... Lebedev-110
Angular grid pruning method      GridPruning ... 3 (G Style)
Weight generation scheme         WeightScheme... Becke
Basis function cutoff            BFCut       ...    1.0000e-11
Integration weight cutoff        WCut        ...    1.0000e-14
Grids for H and He will be reduced by one unit

# of grid points (after initial pruning)     ...  53130 (   0.0 sec)
# of grid points (after weights+screening)   ...  46966 (   0.0 sec)
nearest neighbour list constructed           ...    0.0 sec
Grid point re-assignment to atoms done       ...    0.0 sec
Grid point division into batches done        ...    0.0 sec
Reduced shell lists constructed in    0.1 sec

Total number of grid points                  ...    46966
Total number of batches                      ...      757
Average number of points per batch           ...       62
Average number of grid points per atom       ...     1067
Average number of shells per batch           ...   206.14 (63.82%)
Average number of basis functions per batch  ...   524.10 (66.43%)
Average number of large shells per batch     ...   151.84 (73.66%)
Average number of large basis fcns per batch ...   379.80 (72.47%)
Maximum spatial batch extension              ...   3.88,  3.26,  4.15 au
Average spatial batch extension              ...   0.11,  0.11,  0.11 au

Time for grid setup =    0.210 sec

------------------------------
INITIAL GUESS: MODEL POTENTIAL
------------------------------
Loading Hartree-Fock densities                     ... done
Calculating cut-offs                               ... done
Setting up the integral package                    ... done
Initializing the effective Hamiltonian             ... done
Starting the Coulomb interaction                   ... done (   0.2 sec)
Reading the grid                                   ... done
Mapping shells                                     ... done
Starting the XC term evaluation                    ... done (   0.1 sec)
Transforming the Hamiltonian                       ... done (   0.0 sec)
Diagonalizing the Hamiltonian                      ... done (   0.1 sec)
Back transforming the eigenvectors                 ... done (   0.0 sec)
Now organizing SCF variables                       ... done
                      ------------------
                      INITIAL GUESS DONE (   0.8 sec)
                      ------------------
--------------
SCF ITERATIONS
--------------
ITER       Energy         Delta-E        Max-DP      RMS-DP      [F,P]     Damp
               ***  Starting incremental Fock matrix formation  ***
  0   -841.0880638804   0.000000000000 0.02032657  0.00034583  0.2660764 0.7000
  1   -841.3931589607  -0.305095080261 0.02054413  0.00030759  0.1933114 0.7000
                               ***Turning on DIIS***
  2   -841.5853241450  -0.192165184364 0.01653440  0.00022703  0.1411160 0.7000
  3   -844.2367838456  -2.651459700560 0.01275345  0.00016073  0.1032823 0.7000
  4   -843.8960921422   0.340691703437 0.03098589  0.00040387  0.0729906 0.0000
  5   -842.0798940264   1.816198115751 0.00902579  0.00008039  0.0086467 0.0000
  6   -842.0130685772   0.066825449162 0.00732226  0.00006372  0.0061299 0.0000
  7   -842.0021864446   0.010882132674 0.00565583  0.00004989  0.0043033 0.0000
  8   -841.9990084578   0.003177986724 0.00440961  0.00004070  0.0026733 0.0000
  9   -842.0022509230  -0.003242465107 0.00327596  0.00002988  0.0016604 0.0000
 10   -842.0020735797   0.000177343278 0.00374414  0.00003196  0.0007574 0.0000
 11   -842.0047997062  -0.002726126550 0.00084519  0.00000957  0.0001739 0.0000
 12   -842.0063271076  -0.001527401352 0.00045191  0.00000568  0.0001022 0.0000
 13   -842.0058108106   0.000516296978 0.00053082  0.00000623  0.0001075 0.0000
 14   -842.0061581404  -0.000347329786 0.00016373  0.00000189  0.0001105 0.0000
 15   -842.0062440130  -0.000085872569 0.00025927  0.00000303  0.0001118 0.0000
 16   -842.0059568978   0.000287115176 0.00010630  0.00000134  0.0001124 0.0000
 17   -842.0059802229  -0.000023325101 0.00023811  0.00000280  0.0001141 0.0000
 18   -842.0062025545  -0.000222331583 0.00018804  0.00000219  0.0001159 0.0000
 19   -842.0064244328  -0.000221878374 0.00017566  0.00000205  0.0001168 0.0000
               *** Restarting incremental Fock matrix formation ***
                                   *** Resetting DIIS ***
 20   -842.0058541636   0.000570269226 0.00059944  0.00000705  0.0001162 0.0000
 21   -842.0062792178  -0.000425054236 0.00001256  0.00000015  0.0001216 0.0000
 22   -842.0062686298   0.000010588055 0.00000021  0.00000000  0.0001215 0.0000
 23   -842.0062686641  -0.000000034338 0.00000022  0.00000000  0.0001215 0.0000
 24   -842.0062686991  -0.000000034949 0.00000022  0.00000000  0.0001215 0.0000
 25   -842.0059588770   0.000309822079 0.00063350  0.00000739  0.0001215 0.0000
 26   -842.0076568397  -0.001697962654 0.00143930  0.00001676  0.0001263 0.0000
 27   -842.0073689065   0.000287933200 0.00112313  0.00001304  0.0001156 0.0000
 28   -842.0079197034  -0.000550796974 0.00220782  0.00002582  0.0001067 0.0000
 29   -842.0077826023   0.000137101092 0.00067153  0.00000784  0.0000875 0.0000
 30   -842.0073376472   0.000444955149 0.00060512  0.00000705  0.0000815 0.0000
 31   -842.0055933417   0.001744305526 0.00032468  0.00000358  0.0000762 0.0000
 32   -842.0082955567  -0.002702215025 0.00540362  0.00006481  0.0000744 0.0000
 33   -842.0109145281  -0.002618971438 0.00129387  0.00001558  0.0001396 0.0000
 34   -842.0063059348   0.004608593349 0.00109764  0.00001314  0.0000432 0.0000
 35   -842.0055595054   0.000746429331 0.00083912  0.00001009  0.0000320 0.0000
 36   -842.0048400055   0.000719499927 0.00057022  0.00000688  0.0000410 0.0000
 37   -842.0042465824   0.000593423081 0.00070058  0.00000853  0.0000338 0.0000
 38   -842.0043080451  -0.000061462677 0.00035798  0.00000450  0.0000257 0.0000
 39   -842.0044045398  -0.000096494688 0.00016309  0.00000211  0.0000105 0.0000
               *** Restarting incremental Fock matrix formation ***
                                   *** Resetting DIIS ***
 40   -842.0045652940  -0.000160754218 0.00004994  0.00000045  0.0000064 0.0000
 41   -842.0045497880   0.000015506064 0.00003455  0.00000030  0.0000041 0.0000
 42   -842.0045721296  -0.000022341677 0.00007323  0.00000063  0.0000042 0.0000
 43   -842.0045730002  -0.000000870562 0.00001336  0.00000012  0.0000046 0.0000
 44   -842.0045764303  -0.000003430145 0.00000961  0.00000008  0.0000046 0.0000
 45   -842.0045754191   0.000001011194 0.00000034  0.00000000  0.0000046 0.0000
 46   -842.0045686849   0.000006734240 0.00002018  0.00000017  0.0000046 0.0000
 47   -842.0045657243   0.000002960596 0.00004418  0.00000038  0.0000047 0.0000
 48   -842.0045789756  -0.000013251331 0.00005957  0.00000051  0.0000049 0.0000
 49   -842.0045735506   0.000005425027 0.00000989  0.00000010  0.0000046 0.0000
 50   -842.0045759775  -0.000002426877 0.00001633  0.00000016  0.0000046 0.0000
 51   -842.0045797520  -0.000003774526 0.00004414  0.00000039  0.0000045 0.0000
 52   -842.0045885920  -0.000008839960 0.00013756  0.00000117  0.0000044 0.0000
 53   -842.0046052451  -0.000016653105 0.00029149  0.00000246  0.0000038 0.0000
 54   -842.0046392839  -0.000034038821 0.00055789  0.00000468  0.0000027 0.0000
 55   -842.0045980751   0.000041208811 0.00004542  0.00000041  0.0000013 0.0000
 56   -842.0045831739   0.000014901145 0.00009501  0.00000084  0.0000010 0.0000
                            ***DIIS convergence achieved***

               *****************************************************
               *                     SUCCESS                       *
               *           SCF CONVERGED AFTER  57 CYCLES          *
               *****************************************************


----------------
TOTAL SCF ENERGY
----------------

Total Energy       :         -842.00456927 Eh          -22912.10916 eV

Components:
Nuclear Repulsion  :         1641.44621365 Eh           44666.02225 eV
Electronic Energy  :        -2483.45078293 Eh          -67578.13141 eV
One Electron Energy:        -4403.61260115 Eh         -119828.39083 eV
Two Electron Energy:         1920.16181822 Eh           52250.25943 eV

Virial components:
Potential Energy   :        -1682.87582978 Eh          -45793.37942 eV
Kinetic Energy     :          840.87126051 Eh           22881.27026 eV
Virial Ratio       :            2.00134778


---------------
SCF CONVERGENCE
---------------

  Last Energy change         ...    1.3902e-05  Tolerance :   1.0000e-08
  Last MAX-Density change    ...    5.2324e-05  Tolerance :   1.0000e-07
  Last RMS-Density change    ...    4.6041e-07  Tolerance :   5.0000e-09
  Last DIIS Error            ...    6.4150e-07  Tolerance :   5.0000e-07

             **** THE GBW FILE WAS UPDATED (input.gbw) ****
             **** DENSITY FILE WAS UPDATED (input.scfp.tmp) ****
             **** ENERGY FILE WAS UPDATED (input.en.tmp) ****
----------------------
UHF SPIN CONTAMINATION
----------------------

Expectation value of <S**2>     :     0.780657
Ideal value S*(S+1) for S=0.5   :     0.750000
Deviation                       :     0.030657

----------------
ORBITAL ENERGIES
----------------
                 SPIN UP ORBITALS
  NO   OCC          E(Eh)            E(eV) 
   0   1.0000     -15.572714      -423.7551 
   1   1.0000     -15.541235      -422.8985 
   2   1.0000     -11.273351      -306.7635 
   3   1.0000     -11.265140      -306.5400 
   4   1.0000     -11.246618      -306.0360 
   5   1.0000     -11.241536      -305.8977 
   6   1.0000     -11.240646      -305.8735 
   7   1.0000     -11.238453      -305.8139 
   8   1.0000     -11.236841      -305.7700 
   9   1.0000     -11.234200      -305.6981 
  10   1.0000     -11.232468      -305.6510 
  11   1.0000     -11.232320      -305.6470 
  12   1.0000     -11.231772      -305.6320 
  13   1.0000     -11.230714      -305.6033 
  14   1.0000     -11.230449      -305.5960 
  15   1.0000     -11.229963      -305.5828 
  16   1.0000     -11.229910      -305.5814 
  17   1.0000     -11.229001      -305.5567 
  18   1.0000     -11.225290      -305.4557 
  19   1.0000     -11.224587      -305.4365 
  20   1.0000     -11.219594      -305.3007 
  21   1.0000      -1.280739       -34.8507 
  22   1.0000      -1.231705       -33.5164 
  23   1.0000      -1.150258       -31.3001 
  24   1.0000      -1.139199       -30.9992 
  25   1.0000      -1.078337       -29.3430 
  26   1.0000      -1.046020       -28.4636 
  27   1.0000      -1.024958       -27.8905 
  28   1.0000      -1.017106       -27.6769 
  29   1.0000      -0.988410       -26.8960 
  30   1.0000      -0.962625       -26.1944 
  31   1.0000      -0.949043       -25.8248 
  32   1.0000      -0.912702       -24.8359 
  33   1.0000      -0.882281       -24.0081 
  34   1.0000      -0.850896       -23.1541 
  35   1.0000      -0.824897       -22.4466 
  36   1.0000      -0.811955       -22.0944 
  37   1.0000      -0.788358       -21.4523 
  38   1.0000      -0.781532       -21.2666 
  39   1.0000      -0.756058       -20.5734 
  40   1.0000      -0.700651       -19.0657 
  41   1.0000      -0.683832       -18.6080 
  42   1.0000      -0.664120       -18.0716 
  43   1.0000      -0.659374       -17.9425 
  44   1.0000      -0.650566       -17.7028 
  45   1.0000      -0.643869       -17.5206 
  46   1.0000      -0.630022       -17.1438 
  47   1.0000      -0.622169       -16.9301 
  48   1.0000      -0.616910       -16.7870 
  49   1.0000      -0.605801       -16.4847 
  50   1.0000      -0.596564       -16.2333 
  51   1.0000      -0.592186       -16.1142 
  52   1.0000      -0.582086       -15.8394 
  53   1.0000      -0.575975       -15.6731 
  54   1.0000      -0.556869       -15.1532 
  55   1.0000      -0.542056       -14.7501 
  56   1.0000      -0.538227       -14.6459 
  57   1.0000      -0.532587       -14.4924 
  58   1.0000      -0.526526       -14.3275 
  59   1.0000      -0.521500       -14.1907 
  60   1.0000      -0.515307       -14.0222 
  61   1.0000      -0.510218       -13.8837 
  62   1.0000      -0.498651       -13.5690 
  63   1.0000      -0.495762       -13.4904 
  64   1.0000      -0.486852       -13.2479 
  65   1.0000      -0.484261       -13.1774 
  66   1.0000      -0.479638       -13.0516 
  67   1.0000      -0.474619       -12.9150 
  68   1.0000      -0.469700       -12.7812 
  69   1.0000      -0.448459       -12.2032 
  70   1.0000      -0.350809        -9.5460 
  71   1.0000      -0.340930        -9.2772 
  72   1.0000      -0.330563        -8.9951 
  73   1.0000      -0.327877        -8.9220 
  74   1.0000      -0.319270        -8.6878 
  75   1.0000      -0.250688        -6.8216 
  76   0.0000       0.112888         3.0718 
  77   0.0000       0.125417         3.4128 
  78   0.0000       0.128485         3.4963 
  79   0.0000       0.133447         3.6313 
  80   0.0000       0.138349         3.7647 
  81   0.0000       0.145837         3.9684 
  82   0.0000       0.152278         4.1437 
  83   0.0000       0.159880         4.3505 
  84   0.0000       0.163441         4.4474 
  85   0.0000       0.175353         4.7716 
  86   0.0000       0.176396         4.8000 
  87   0.0000       0.181843         4.9482 
  88   0.0000       0.195006         5.3064 
  89   0.0000       0.200555         5.4574 
  90   0.0000       0.201690         5.4883 
  91   0.0000       0.205315         5.5869 
  92   0.0000       0.209663         5.7052 
  93   0.0000       0.211564         5.7569 
  94   0.0000       0.212873         5.7926 
  95   0.0000       0.227543         6.1918 
  96   0.0000       0.230379         6.2689 
  97   0.0000       0.233208         6.3459 
  98   0.0000       0.244153         6.6437 
  99   0.0000       0.250742         6.8230 
 100   0.0000       0.255836         6.9616 
 101   0.0000       0.257203         6.9989 
 102   0.0000       0.268573         7.3082 
 103   0.0000       0.276720         7.5299 
 104   0.0000       0.288537         7.8515 
 105   0.0000       0.290913         7.9161 
 106   0.0000       0.294984         8.0269 
 107   0.0000       0.303274         8.2525 
 108   0.0000       0.306489         8.3400 
 109   0.0000       0.308133         8.3847 
 110   0.0000       0.310891         8.4598 
 111   0.0000       0.318572         8.6688 
 112   0.0000       0.320936         8.7331 
 113   0.0000       0.328196         8.9307 
 114   0.0000       0.330939         9.0053 
 115   0.0000       0.334049         9.0899 
 116   0.0000       0.340102         9.2546 
 117   0.0000       0.340663         9.2699 
 118   0.0000       0.343413         9.3447 
 119   0.0000       0.354475         9.6457 
 120   0.0000       0.359408         9.7800 
 121   0.0000       0.366014         9.9597 
 122   0.0000       0.367964        10.0128 
 123   0.0000       0.374371        10.1872 
 124   0.0000       0.378441        10.2979 
 125   0.0000       0.385811        10.4985 
 126   0.0000       0.389216        10.5911 
 127   0.0000       0.401554        10.9268 
 128   0.0000       0.405946        11.0464 
 129   0.0000       0.413810        11.2603 
 130   0.0000       0.423021        11.5110 
 131   0.0000       0.431964        11.7543 
 132   0.0000       0.439263        11.9530 
 133   0.0000       0.442822        12.0498 
 134   0.0000       0.448716        12.2102 
 135   0.0000       0.454044        12.3552 
 136   0.0000       0.455350        12.3907 
 137   0.0000       0.459760        12.5107 
 138   0.0000       0.463446        12.6110 
 139   0.0000       0.471412        12.8278 
 140   0.0000       0.480441        13.0735 
 141   0.0000       0.482444        13.1280 
 142   0.0000       0.486138        13.2285 
 143   0.0000       0.489225        13.3125 
 144   0.0000       0.494045        13.4437 
 145   0.0000       0.495130        13.4732 
 146   0.0000       0.505253        13.7486 
 147   0.0000       0.511383        13.9154 
 148   0.0000       0.513444        13.9715 
 149   0.0000       0.519697        14.1417 
 150   0.0000       0.525135        14.2897 
 151   0.0000       0.526430        14.3249 
 152   0.0000       0.535034        14.5590 
 153   0.0000       0.539870        14.6906 
 154   0.0000       0.542895        14.7729 
 155   0.0000       0.545541        14.8449 
 156   0.0000       0.550647        14.9839 
 157   0.0000       0.554605        15.0916 
 158   0.0000       0.555240        15.1088 
 159   0.0000       0.562737        15.3128 
 160   0.0000       0.564035        15.3482 
 161   0.0000       0.567885        15.4529 
 162   0.0000       0.574259        15.6264 
 163   0.0000       0.579853        15.7786 
 164   0.0000       0.581537        15.8244 
 165   0.0000       0.585718        15.9382 
 166   0.0000       0.590355        16.0644 
 167   0.0000       0.593913        16.1612 
 168   0.0000       0.597519        16.2593 
 169   0.0000       0.601099        16.3567 
 170   0.0000       0.603649        16.4261 
 171   0.0000       0.609253        16.5786 
 172   0.0000       0.614875        16.7316 
 173   0.0000       0.620067        16.8729 
 174   0.0000       0.625328        17.0160 
 175   0.0000       0.627876        17.0854 
 176   0.0000       0.633227        17.2310 
 177   0.0000       0.638014        17.3612 
 178   0.0000       0.640710        17.4346 
 179   0.0000       0.646126        17.5820 
 180   0.0000       0.648419        17.6444 
 181   0.0000       0.653567        17.7845 
 182   0.0000       0.658033        17.9060 
 183   0.0000       0.662526        18.0282 
 184   0.0000       0.668684        18.1958 
 185   0.0000       0.670217        18.2375 
 186   0.0000       0.675432        18.3794 
 187   0.0000       0.682769        18.5791 
 188   0.0000       0.684055        18.6141 
 189   0.0000       0.690063        18.7776 
 190   0.0000       0.695868        18.9355 
 191   0.0000       0.698245        19.0002 
 192   0.0000       0.709029        19.2937 
 193   0.0000       0.710488        19.3334 
 194   0.0000       0.717790        19.5321 
 195   0.0000       0.727516        19.7967 
 196   0.0000       0.729765        19.8579 
 197   0.0000       0.738182        20.0869 
 198   0.0000       0.739970        20.1356 
 199   0.0000       0.751268        20.4430 
 200   0.0000       0.752243        20.4696 
 201   0.0000       0.759531        20.6679 
 202   0.0000       0.771359        20.9897 
 203   0.0000       0.773528        21.0488 
 204   0.0000       0.778303        21.1787 
 205   0.0000       0.786957        21.4142 
 206   0.0000       0.797930        21.7128 
 207   0.0000       0.813709        22.1421 
 208   0.0000       0.820449        22.3256 
 209   0.0000       0.826969        22.5030 
 210   0.0000       0.828159        22.5354 
 211   0.0000       0.846623        23.0378 
 212   0.0000       0.850332        23.1387 
 213   0.0000       0.855532        23.2802 
 214   0.0000       0.859653        23.3924 
 215   0.0000       0.862941        23.4818 
 216   0.0000       0.870253        23.6808 
 217   0.0000       0.879563        23.9341 
 218   0.0000       0.888300        24.1719 
 219   0.0000       0.889668        24.2091 
 220   0.0000       0.901727        24.5372 
 221   0.0000       0.902822        24.5670 
 222   0.0000       0.910016        24.7628 
 223   0.0000       0.915030        24.8992 
 224   0.0000       0.920943        25.0601 
 225   0.0000       0.922972        25.1154 
 226   0.0000       0.940727        25.5985 
 227   0.0000       0.947688        25.7879 
 228   0.0000       0.949620        25.8405 
 229   0.0000       0.956700        26.0331 
 230   0.0000       0.958841        26.0914 
 231   0.0000       0.966436        26.2981 
 232   0.0000       0.971859        26.4456 
 233   0.0000       0.982444        26.7337 
 234   0.0000       0.994299        27.0562 
 235   0.0000       0.995787        27.0967 
 236   0.0000       1.004105        27.3231 
 237   0.0000       1.014712        27.6117 
 238   0.0000       1.021642        27.8003 
 239   0.0000       1.030273        28.0352 
 240   0.0000       1.034730        28.1564 
 241   0.0000       1.039218        28.2786 
 242   0.0000       1.050585        28.5879 
 243   0.0000       1.056768        28.7561 
 244   0.0000       1.075221        29.2583 
 245   0.0000       1.080922        29.4134 
 246   0.0000       1.086588        29.5676 
 247   0.0000       1.093932        29.7674 
 248   0.0000       1.099169        29.9099 
 249   0.0000       1.104660        30.0593 
 250   0.0000       1.108027        30.1510 
 251   0.0000       1.116247        30.3746 
 252   0.0000       1.121934        30.5294 
 253   0.0000       1.126290        30.6479 
 254   0.0000       1.130240        30.7554 
 255   0.0000       1.135988        30.9118 
 256   0.0000       1.153105        31.3776 
 257   0.0000       1.155045        31.4304 
 258   0.0000       1.160060        31.5668 
 259   0.0000       1.164462        31.6866 
 260   0.0000       1.172307        31.9001 
 261   0.0000       1.185976        32.2720 
 262   0.0000       1.192066        32.4378 
 263   0.0000       1.201854        32.7041 
 264   0.0000       1.210963        32.9520 
 265   0.0000       1.221308        33.2335 
 266   0.0000       1.230223        33.4761 
 267   0.0000       1.235485        33.6192 
 268   0.0000       1.242023        33.7972 
 269   0.0000       1.255914        34.1751 
 270   0.0000       1.262807        34.3627 
 271   0.0000       1.277526        34.7633 
 272   0.0000       1.281694        34.8767 
 273   0.0000       1.291672        35.1482 
 274   0.0000       1.300693        35.3937 
 275   0.0000       1.305110        35.5139 
 276   0.0000       1.309439        35.6316 
 277   0.0000       1.326044        36.0835 
 278   0.0000       1.332063        36.2473 
 279   0.0000       1.342809        36.5397 
 280   0.0000       1.352070        36.7917 
 281   0.0000       1.362223        37.0680 
 282   0.0000       1.366347        37.1802 
 283   0.0000       1.375387        37.4262 
 284   0.0000       1.384850        37.6837 
 285   0.0000       1.390298        37.8319 
 286   0.0000       1.399542        38.0835 
 287   0.0000       1.404795        38.2264 
 288   0.0000       1.410996        38.3951 
 289   0.0000       1.421752        38.6878 
 290   0.0000       1.431968        38.9658 
 291   0.0000       1.438295        39.1380 
 292   0.0000       1.448883        39.4261 
 293   0.0000       1.450774        39.4776 
 294   0.0000       1.461467        39.7685 
 295   0.0000       1.465353        39.8743 
 296   0.0000       1.474660        40.1275 
 297   0.0000       1.482618        40.3441 
 298   0.0000       1.496007        40.7084 
 299   0.0000       1.498932        40.7880 
 300   0.0000       1.509026        41.0627 
 301   0.0000       1.515578        41.2410 
 302   0.0000       1.525154        41.5015 
 303   0.0000       1.541174        41.9375 
 304   0.0000       1.548992        42.1502 
 305   0.0000       1.562610        42.5208 
 306   0.0000       1.571762        42.7698 
 307   0.0000       1.574663        42.8487 
 308   0.0000       1.580080        42.9962 
 309   0.0000       1.591150        43.2974 
 310   0.0000       1.597391        43.4672 
 311   0.0000       1.606016        43.7019 
 312   0.0000       1.616829        43.9961 
 313   0.0000       1.629699        44.3464 
 314   0.0000       1.647583        44.8330 
 315   0.0000       1.663203        45.2580 
 316   0.0000       1.666039        45.3352 
 317   0.0000       1.667536        45.3760 
 318   0.0000       1.674925        45.5770 
 319   0.0000       1.700400        46.2702 
 320   0.0000       1.703261        46.3481 
 321   0.0000       1.722107        46.8609 
 322   0.0000       1.726219        46.9728 
 323   0.0000       1.732115        47.1332 
 324   0.0000       1.742210        47.4079 
 325   0.0000       1.747437        47.5502 
 326   0.0000       1.757011        47.8107 
 327   0.0000       1.761722        47.9389 
 328   0.0000       1.766064        48.0570 
 329   0.0000       1.771758        48.2120 
 330   0.0000       1.779286        48.4168 
 331   0.0000       1.789290        48.6890 
 332   0.0000       1.798793        48.9476 
 333   0.0000       1.801358        49.0174 
 334   0.0000       1.813226        49.3404 
 335   0.0000       1.821116        49.5551 
 336   0.0000       1.824048        49.6349 
 337   0.0000       1.826361        49.6978 
 338   0.0000       1.829115        49.7727 
 339   0.0000       1.833477        49.8914 
 340   0.0000       1.846879        50.2561 
 341   0.0000       1.852775        50.4166 
 342   0.0000       1.857543        50.5463 
 343   0.0000       1.864397        50.7328 
 344   0.0000       1.868089        50.8333 
 345   0.0000       1.872544        50.9545 
 346   0.0000       1.873235        50.9733 
 347   0.0000       1.883259        51.2461 
 348   0.0000       1.892919        51.5089 
 349   0.0000       1.893304        51.5194 
 350   0.0000       1.899593        51.6906 
 351   0.0000       1.905024        51.8383 
 352   0.0000       1.913338        52.0646 
 353   0.0000       1.924445        52.3668 
 354   0.0000       1.933382        52.6100 
 355   0.0000       1.935295        52.6621 
 356   0.0000       1.943881        52.8957 
 357   0.0000       1.952639        53.1340 
 358   0.0000       1.958392        53.2905 
 359   0.0000       1.962895        53.4131 
 360   0.0000       1.977502        53.8106 
 361   0.0000       1.985465        54.0273 
 362   0.0000       1.998483        54.3815 
 363   0.0000       2.000370        54.4328 
 364   0.0000       2.008753        54.6609 
 365   0.0000       2.011014        54.7225 
 366   0.0000       2.018553        54.9276 
 367   0.0000       2.024928        55.1011 
 368   0.0000       2.032762        55.3143 
 369   0.0000       2.035176        55.3800 
 370   0.0000       2.047760        55.7224 
 371   0.0000       2.056090        55.9491 
 372   0.0000       2.061929        56.1079 
 373   0.0000       2.080590        56.6157 
 374   0.0000       2.087828        56.8127 
 375   0.0000       2.102919        57.2233 
 376   0.0000       2.108113        57.3647 
 377   0.0000       2.113215        57.5035 
 378   0.0000       2.120039        57.6892 
 379   0.0000       2.128414        57.9171 
 380   0.0000       2.148743        58.4703 
 381   0.0000       2.153887        58.6102 
 382   0.0000       2.166826        58.9623 
 383   0.0000       2.175446        59.1969 
 384   0.0000       2.180713        59.3402 
 385   0.0000       2.189870        59.5894 
 386   0.0000       2.196690        59.7750 
 387   0.0000       2.202000        59.9195 
 388   0.0000       2.208097        60.0854 
 389   0.0000       2.220746        60.4296 
 390   0.0000       2.237990        60.8988 
 391   0.0000       2.249082        61.2006 
 392   0.0000       2.255863        61.3852 
 393   0.0000       2.274732        61.8986 
 394   0.0000       2.278441        61.9995 
 395   0.0000       2.290152        62.3182 
 396   0.0000       2.296694        62.4962 
 397   0.0000       2.304197        62.7004 
 398   0.0000       2.307223        62.7827 
 399   0.0000       2.315360        63.0041 
 400   0.0000       2.321708        63.1769 
 401   0.0000       2.335338        63.5478 
 402   0.0000       2.337152        63.5971 
 403   0.0000       2.357564        64.1526 
 404   0.0000       2.372183        64.5504 
 405   0.0000       2.379003        64.7360 
 406   0.0000       2.385517        64.9132 
 407   0.0000       2.398318        65.2616 
 408   0.0000       2.404442        65.4282 
 409   0.0000       2.418466        65.8098 
 410   0.0000       2.422915        65.9309 
 411   0.0000       2.436551        66.3019 
 412   0.0000       2.444027        66.5054 
 413   0.0000       2.456401        66.8421 
 414   0.0000       2.466010        67.1035 
 415   0.0000       2.472071        67.2685 
 416   0.0000       2.488506        67.7157 
 417   0.0000       2.494944        67.8909 
 418   0.0000       2.510100        68.3033 
 419   0.0000       2.514260        68.4165 
 420   0.0000       2.524601        68.6979 
 421   0.0000       2.527482        68.7763 
 422   0.0000       2.530478        68.8578 
 423   0.0000       2.539397        69.1005 
 424   0.0000       2.546792        69.3017 
 425   0.0000       2.561108        69.6913 
 426   0.0000       2.566022        69.8250 
 427   0.0000       2.575760        70.0900 
 428   0.0000       2.577273        70.1312 
 429   0.0000       2.583818        70.3093 
 430   0.0000       2.592449        70.5441 
 431   0.0000       2.609018        70.9950 
 432   0.0000       2.618972        71.2658 
 433   0.0000       2.625703        71.4490 
 434   0.0000       2.632536        71.6349 
 435   0.0000       2.646998        72.0285 
 436   0.0000       2.661189        72.4146 
 437   0.0000       2.666274        72.5530 
 438   0.0000       2.676460        72.8302 
 439   0.0000       2.685369        73.0726 
 440   0.0000       2.698171        73.4210 
 441   0.0000       2.709169        73.7202 
 442   0.0000       2.715053        73.8803 
 443   0.0000       2.728099        74.2354 
 444   0.0000       2.745801        74.7170 
 445   0.0000       2.752707        74.9050 
 446   0.0000       2.759614        75.0929 
 447   0.0000       2.768021        75.3217 
 448   0.0000       2.774673        75.5027 
 449   0.0000       2.779102        75.6232 
 450   0.0000       2.792853        75.9974 
 451   0.0000       2.804668        76.3189 
 452   0.0000       2.808653        76.4273 
 453   0.0000       2.813372        76.5558 
 454   0.0000       2.824146        76.8489 
 455   0.0000       2.838205        77.2315 
 456   0.0000       2.845479        77.4294 
 457   0.0000       2.852507        77.6206 
 458   0.0000       2.853113        77.6372 
 459   0.0000       2.862633        77.8962 
 460   0.0000       2.871148        78.1279 
 461   0.0000       2.881190        78.4012 
 462   0.0000       2.884671        78.4959 
 463   0.0000       2.892732        78.7152 
 464   0.0000       2.896024        78.8048 
 465   0.0000       2.902893        78.9917 
 466   0.0000       2.908135        79.1344 
 467   0.0000       2.916950        79.3742 
 468   0.0000       2.921634        79.5017 
 469   0.0000       2.929976        79.7287 
 470   0.0000       2.935619        79.8822 
 471   0.0000       2.940581        80.0173 
 472   0.0000       2.942758        80.0765 
 473   0.0000       2.951997        80.3279 
 474   0.0000       2.958582        80.5071 
 475   0.0000       2.962478        80.6131 
 476   0.0000       2.967300        80.7443 
 477   0.0000       2.973550        80.9144 
 478   0.0000       2.978504        81.0492 
 479   0.0000       2.984675        81.2171 
 480   0.0000       2.986115        81.2563 
 481   0.0000       2.993224        81.4498 
 482   0.0000       2.997758        81.5731 
 483   0.0000       3.001261        81.6685 
 484   0.0000       3.009153        81.8832 
 485   0.0000       3.016144        82.0735 
 486   0.0000       3.029586        82.4392 
 487   0.0000       3.033408        82.5432 
 488   0.0000       3.042008        82.7773 
 489   0.0000       3.045045        82.8599 
 490   0.0000       3.048427        82.9519 
 491   0.0000       3.057118        83.1884 
 492   0.0000       3.064061        83.3773 
 493   0.0000       3.071750        83.5866 
 494   0.0000       3.073554        83.6357 
 495   0.0000       3.077619        83.7463 
 496   0.0000       3.092057        84.1391 
 497   0.0000       3.095114        84.2223 
 498   0.0000       3.101591        84.3986 
 499   0.0000       3.109984        84.6270 
 500   0.0000       3.117812        84.8400 
 501   0.0000       3.120020        84.9000 
 502   0.0000       3.130449        85.1838 
 503   0.0000       3.138202        85.3948 
 504   0.0000       3.141092        85.4735 
 505   0.0000       3.147071        85.6362 
 506   0.0000       3.154980        85.8514 
 507   0.0000       3.158901        85.9581 
 508   0.0000       3.181344        86.5688 
 509   0.0000       3.183039        86.6149 
 510   0.0000       3.190340        86.8136 
 511   0.0000       3.196029        86.9684 
 512   0.0000       3.202704        87.1500 
 513   0.0000       3.208098        87.2968 
 514   0.0000       3.220880        87.6446 
 515   0.0000       3.226242        87.7905 
 516   0.0000       3.230570        87.9083 
 517   0.0000       3.235576        88.0445 
 518   0.0000       3.243928        88.2718 
 519   0.0000       3.253030        88.5194 
 520   0.0000       3.271023        89.0090 
 521   0.0000       3.274899        89.1145 
 522   0.0000       3.287955        89.4698 
 523   0.0000       3.301241        89.8313 
 524   0.0000       3.303229        89.8854 
 525   0.0000       3.320943        90.3674 
 526   0.0000       3.330813        90.6360 
 527   0.0000       3.335690        90.7687 
 528   0.0000       3.338901        90.8561 
 529   0.0000       3.354194        91.2723 
 530   0.0000       3.364093        91.5416 
 531   0.0000       3.377070        91.8947 
 532   0.0000       3.381739        92.0218 
 533   0.0000       3.388916        92.2171 
 534   0.0000       3.391716        92.2933 
 535   0.0000       3.396636        92.4272 
 536   0.0000       3.401470        92.5587 
 537   0.0000       3.416793        92.9757 
 538   0.0000       3.420416        93.0742 
 539   0.0000       3.425752        93.2195 
 540   0.0000       3.438467        93.5654 
 541   0.0000       3.440899        93.6316 
 542   0.0000       3.450201        93.8847 
 543   0.0000       3.456601        94.0589 
 544   0.0000       3.460647        94.1690 
 545   0.0000       3.473710        94.5245 
 546   0.0000       3.476266        94.5940 
 547   0.0000       3.481553        94.7379 
 548   0.0000       3.489067        94.9423 
 549   0.0000       3.492916        95.0471 
 550   0.0000       3.496918        95.1560 
 551   0.0000       3.502026        95.2950 
 552   0.0000       3.511690        95.5579 
 553   0.0000       3.515924        95.6732 
 554   0.0000       3.518779        95.7508 
 555   0.0000       3.523231        95.8720 
 556   0.0000       3.529104        96.0318 
 557   0.0000       3.542473        96.3956 
 558   0.0000       3.548561        96.5613 
 559   0.0000       3.549677        96.5916 
 560   0.0000       3.555408        96.7476 
 561   0.0000       3.559138        96.8491 
 562   0.0000       3.569402        97.1284 
 563   0.0000       3.577405        97.3461 
 564   0.0000       3.585482        97.5659 
 565   0.0000       3.587391        97.6179 
 566   0.0000       3.593924        97.7956 
 567   0.0000       3.608609        98.1952 
 568   0.0000       3.610799        98.2548 
 569   0.0000       3.620576        98.5209 
 570   0.0000       3.626127        98.6719 
 571   0.0000       3.630657        98.7952 
 572   0.0000       3.634713        98.9056 
 573   0.0000       3.645814        99.2076 
 574   0.0000       3.653268        99.4105 
 575   0.0000       3.666090        99.7594 
 576   0.0000       3.669217        99.8445 
 577   0.0000       3.676873       100.0528 
 578   0.0000       3.681463       100.1777 
 579   0.0000       3.686306       100.3095 
 580   0.0000       3.692861       100.4879 
 581   0.0000       3.697558       100.6157 
 582   0.0000       3.701862       100.7328 
 583   0.0000       3.704862       100.8144 
 584   0.0000       3.707072       100.8745 
 585   0.0000       3.718686       101.1906 
 586   0.0000       3.728122       101.4474 
 587   0.0000       3.729774       101.4923 
 588   0.0000       3.741291       101.8057 
 589   0.0000       3.746815       101.9560 
 590   0.0000       3.754121       102.1548 
 591   0.0000       3.756322       102.2147 
 592   0.0000       3.761091       102.3445 
 593   0.0000       3.771528       102.6285 
 594   0.0000       3.774955       102.7217 
 595   0.0000       3.781801       102.9080 
 596   0.0000       3.787236       103.0559 
 597   0.0000       3.793009       103.2130 
 598   0.0000       3.797204       103.3272 
 599   0.0000       3.798994       103.3759 
 600   0.0000       3.812451       103.7421 
 601   0.0000       3.822653       104.0197 
 602   0.0000       3.833100       104.3040 
 603   0.0000       3.839676       104.4829 
 604   0.0000       3.846202       104.6605 
 605   0.0000       3.849333       104.7457 
 606   0.0000       3.852774       104.8393 
 607   0.0000       3.858242       104.9881 
 608   0.0000       3.862751       105.1108 
 609   0.0000       3.868598       105.2699 
 610   0.0000       3.873803       105.4115 
 611   0.0000       3.879367       105.5629 
 612   0.0000       3.884459       105.7015 
 613   0.0000       3.897385       106.0532 
 614   0.0000       3.908460       106.3546 
 615   0.0000       3.912939       106.4765 
 616   0.0000       3.924467       106.7902 
 617   0.0000       3.938735       107.1784 
 618   0.0000       3.941955       107.2661 
 619   0.0000       3.948305       107.4388 
 620   0.0000       3.951104       107.5150 
 621   0.0000       3.972993       108.1106 
 622   0.0000       3.979126       108.2775 
 623   0.0000       3.983615       108.3997 
 624   0.0000       3.988375       108.5292 
 625   0.0000       4.002717       108.9195 
 626   0.0000       4.012529       109.1865 
 627   0.0000       4.019212       109.3683 
 628   0.0000       4.026616       109.5698 
 629   0.0000       4.033649       109.7612 
 630   0.0000       4.038276       109.8871 
 631   0.0000       4.055731       110.3620 
 632   0.0000       4.061952       110.5313 
 633   0.0000       4.078947       110.9938 
 634   0.0000       4.084897       111.1557 
 635   0.0000       4.095914       111.4555 
 636   0.0000       4.105786       111.7241 
 637   0.0000       4.120879       112.1348 
 638   0.0000       4.130820       112.4053 
 639   0.0000       4.145242       112.7978 
 640   0.0000       4.161560       113.2418 
 641   0.0000       4.169407       113.4553 
 642   0.0000       4.181191       113.7760 
 643   0.0000       4.191827       114.0654 
 644   0.0000       4.204393       114.4073 
 645   0.0000       4.210581       114.5757 
 646   0.0000       4.218043       114.7788 
 647   0.0000       4.245141       115.5162 
 648   0.0000       4.257483       115.8520 
 649   0.0000       4.273074       116.2762 
 650   0.0000       4.275300       116.3368 
 651   0.0000       4.281114       116.4950 
 652   0.0000       4.290731       116.7567 
 653   0.0000       4.304474       117.1307 
 654   0.0000       4.310548       117.2960 
 655   0.0000       4.325769       117.7102 
 656   0.0000       4.335155       117.9656 
 657   0.0000       4.342056       118.1534 
 658   0.0000       4.356825       118.5552 
 659   0.0000       4.371806       118.9629 
 660   0.0000       4.405613       119.8828 
 661   0.0000       4.420219       120.2803 
 662   0.0000       4.437380       120.7472 
 663   0.0000       4.445329       120.9635 
 664   0.0000       4.460229       121.3690 
 665   0.0000       4.468613       121.5971 
 666   0.0000       4.478824       121.8750 
 667   0.0000       4.487263       122.1046 
 668   0.0000       4.499365       122.4339 
 669   0.0000       4.502273       122.5131 
 670   0.0000       4.516862       122.9101 
 671   0.0000       4.528008       123.2134 
 672   0.0000       4.537790       123.4795 
 673   0.0000       4.542384       123.6045 
 674   0.0000       4.555684       123.9665 
 675   0.0000       4.570662       124.3740 
 676   0.0000       4.580133       124.6318 
 677   0.0000       4.587444       124.8307 
 678   0.0000       4.593470       124.9947 
 679   0.0000       4.602095       125.2294 
 680   0.0000       4.609896       125.4417 
 681   0.0000       4.625247       125.8594 
 682   0.0000       4.630933       126.0141 
 683   0.0000       4.639985       126.2604 
 684   0.0000       4.644703       126.3888 
 685   0.0000       4.656487       126.7095 
 686   0.0000       4.659326       126.7867 
 687   0.0000       4.665794       126.9627 
 688   0.0000       4.667751       127.0160 
 689   0.0000       4.693174       127.7077 
 690   0.0000       4.707660       128.1019 
 691   0.0000       4.710272       128.1730 
 692   0.0000       4.725306       128.5821 
 693   0.0000       4.735072       128.8479 
 694   0.0000       4.751589       129.2973 
 695   0.0000       4.754512       129.3768 
 696   0.0000       4.758492       129.4851 
 697   0.0000       4.776516       129.9756 
 698   0.0000       4.781463       130.1102 
 699   0.0000       4.814356       131.0053 
 700   0.0000       4.815642       131.0403 
 701   0.0000       4.822147       131.2173 
 702   0.0000       4.842578       131.7733 
 703   0.0000       4.856010       132.1388 
 704   0.0000       4.870067       132.5213 
 705   0.0000       4.892784       133.1394 
 706   0.0000       4.937222       134.3486 
 707   0.0000       4.955730       134.8523 
 708   0.0000       4.981122       135.5432 
 709   0.0000       4.985244       135.6554 
 710   0.0000       4.988492       135.7438 
 711   0.0000       5.026678       136.7829 
 712   0.0000       5.034224       136.9882 
 713   0.0000       5.048956       137.3891 
 714   0.0000       5.068470       137.9201 
 715   0.0000       5.089505       138.4925 
 716   0.0000       5.120013       139.3226 
 717   0.0000       5.141380       139.9041 
 718   0.0000       5.154421       140.2589 
 719   0.0000       5.163175       140.4971 
 720   0.0000       5.184633       141.0810 
 721   0.0000       5.197089       141.4200 
 722   0.0000       5.222107       142.1008 
 723   0.0000       5.238323       142.5420 
 724   0.0000       5.269129       143.3803 
 725   0.0000       5.273987       143.5125 
 726   0.0000       5.310068       144.4943 
 727   0.0000       5.329542       145.0242 
 728   0.0000       5.340042       145.3099 
 729   0.0000       5.391152       146.7007 
 730   0.0000       5.397676       146.8782 
 731   0.0000       5.437595       147.9645 
 732   0.0000       5.468261       148.7989 
 733   0.0000       5.481268       149.1529 
 734   0.0000       5.486828       149.3042 
 735   0.0000       5.515900       150.0953 
 736   0.0000       5.538178       150.7015 
 737   0.0000       5.568101       151.5157 
 738   0.0000       5.604345       152.5020 
 739   0.0000       5.633727       153.3015 
 740   0.0000       5.639139       153.4488 
 741   0.0000       5.686760       154.7446 
 742   0.0000       5.706633       155.2854 
 743   0.0000       5.727335       155.8487 
 744   0.0000       5.733699       156.0219 
 745   0.0000       5.747746       156.4041 
 746   0.0000       5.763335       156.8283 
 747   0.0000       5.766923       156.9260 
 748   0.0000       5.795331       157.6990 
 749   0.0000       5.829491       158.6285 
 750   0.0000       5.853012       159.2686 
 751   0.0000       5.858264       159.4115 
 752   0.0000       5.873638       159.8298 
 753   0.0000       5.903490       160.6421 
 754   0.0000       5.920034       161.0923 
 755   0.0000       5.947633       161.8433 
 756   0.0000       5.970957       162.4780 
 757   0.0000       6.036553       164.2629 
 758   0.0000       6.063710       165.0019 
 759   0.0000       6.090693       165.7362 
 760   0.0000       6.184584       168.2911 
 761   0.0000       6.194016       168.5478 
 762   0.0000       6.274640       170.7416 
 763   0.0000       6.315047       171.8412 
 764   0.0000       6.339596       172.5092 
 765   0.0000       6.416685       174.6069 
 766   0.0000       6.493964       176.7097 
 767   0.0000       6.517077       177.3387 
 768   0.0000      23.303334       634.1160 
 769   0.0000      23.317600       634.5042 
 770   0.0000      23.510046       639.7409 
 771   0.0000      23.532769       640.3592 
 772   0.0000      23.640896       643.3015 
 773   0.0000      23.648529       643.5092 
 774   0.0000      23.692357       644.7018 
 775   0.0000      23.698330       644.8643 
 776   0.0000      23.739289       645.9789 
 777   0.0000      23.765467       646.6912 
 778   0.0000      23.780301       647.0949 
 779   0.0000      23.808360       647.8584 
 780   0.0000      23.821992       648.2293 
 781   0.0000      23.992315       652.8641 
 782   0.0000      24.010932       653.3707 
 783   0.0000      24.044892       654.2948 
 784   0.0000      24.079046       655.2242 
 785   0.0000      24.468868       665.8317 
 786   0.0000      24.549040       668.0133 
 787   0.0000      33.953328       923.9170 
 788   0.0000      34.511745       939.1123 

                 SPIN DOWN ORBITALS
  NO   OCC          E(Eh)            E(eV) 
   0   1.0000     -15.567739      -423.6197 
   1   1.0000     -15.541364      -422.9020 
   2   1.0000     -11.271617      -306.7163 
   3   1.0000     -11.265436      -306.5481 
   4   1.0000     -11.246063      -306.0209 
   5   1.0000     -11.241520      -305.8973 
   6   1.0000     -11.240621      -305.8729 
   7   1.0000     -11.238764      -305.8223 
   8   1.0000     -11.234079      -305.6948 
   9   1.0000     -11.232308      -305.6467 
  10   1.0000     -11.232221      -305.6443 
  11   1.0000     -11.231718      -305.6306 
  12   1.0000     -11.230447      -305.5960 
  13   1.0000     -11.229889      -305.5808 
  14   1.0000     -11.229043      -305.5578 
  15   1.0000     -11.228941      -305.5550 
  16   1.0000     -11.228022      -305.5300 
  17   1.0000     -11.226794      -305.4966 
  18   1.0000     -11.226250      -305.4818 
  19   1.0000     -11.222440      -305.3781 
  20   1.0000     -11.215721      -305.1953 
  21   1.0000      -1.264625       -34.4122 
  22   1.0000      -1.231609       -33.5138 
  23   1.0000      -1.149693       -31.2847 
  24   1.0000      -1.135403       -30.8959 
  25   1.0000      -1.078047       -29.3352 
  26   1.0000      -1.033318       -28.1180 
  27   1.0000      -1.024999       -27.8916 
  28   1.0000      -1.015642       -27.6370 
  29   1.0000      -0.987023       -26.8583 
  30   1.0000      -0.957094       -26.0439 
  31   1.0000      -0.948936       -25.8218 
  32   1.0000      -0.899335       -24.4722 
  33   1.0000      -0.880780       -23.9673 
  34   1.0000      -0.843442       -22.9512 
  35   1.0000      -0.822554       -22.3828 
  36   1.0000      -0.805524       -21.9194 
  37   1.0000      -0.787553       -21.4304 
  38   1.0000      -0.780271       -21.2322 
  39   1.0000      -0.745082       -20.2747 
  40   1.0000      -0.698717       -19.0130 
  41   1.0000      -0.678543       -18.4641 
  42   1.0000      -0.658652       -17.9228 
  43   1.0000      -0.654133       -17.7999 
  44   1.0000      -0.647977       -17.6324 
  45   1.0000      -0.642605       -17.4862 
  46   1.0000      -0.628977       -17.1153 
  47   1.0000      -0.620158       -16.8753 
  48   1.0000      -0.614543       -16.7226 
  49   1.0000      -0.603290       -16.4164 
  50   1.0000      -0.592297       -16.1172 
  51   1.0000      -0.589626       -16.0445 
  52   1.0000      -0.576776       -15.6949 
  53   1.0000      -0.565430       -15.3861 
  54   1.0000      -0.553884       -15.0720 
  55   1.0000      -0.540985       -14.7209 
  56   1.0000      -0.537158       -14.6168 
  57   1.0000      -0.529234       -14.4012 
  58   1.0000      -0.525678       -14.3044 
  59   1.0000      -0.515336       -14.0230 
  60   1.0000      -0.509479       -13.8636 
  61   1.0000      -0.507896       -13.8205 
  62   1.0000      -0.496050       -13.4982 
  63   1.0000      -0.489271       -13.3137 
  64   1.0000      -0.483163       -13.1475 
  65   1.0000      -0.478649       -13.0247 
  66   1.0000      -0.476995       -12.9797 
  67   1.0000      -0.472836       -12.8665 
  68   1.0000      -0.469524       -12.7764 
  69   1.0000      -0.419566       -11.4170 
  70   1.0000      -0.349101        -9.4995 
  71   1.0000      -0.330686        -8.9984 
  72   1.0000      -0.326344        -8.8803 
  73   1.0000      -0.317814        -8.6482 
  74   1.0000      -0.306267        -8.3339 
  75   0.0000       0.113178         3.0797 
  76   0.0000       0.115434         3.1411 
  77   0.0000       0.126286         3.4364 
  78   0.0000       0.130552         3.5525 
  79   0.0000       0.136573         3.7163 
  80   0.0000       0.146254         3.9798 
  81   0.0000       0.147641         4.0175 
  82   0.0000       0.160324         4.3626 
  83   0.0000       0.161941         4.4066 
  84   0.0000       0.172817         4.7026 
  85   0.0000       0.175700         4.7811 
  86   0.0000       0.182168         4.9570 
  87   0.0000       0.184840         5.0298 
  88   0.0000       0.195329         5.3152 
  89   0.0000       0.200919         5.4673 
  90   0.0000       0.202243         5.5033 
  91   0.0000       0.207598         5.6490 
  92   0.0000       0.211339         5.7508 
  93   0.0000       0.212108         5.7717 
  94   0.0000       0.214857         5.8465 
  95   0.0000       0.230437         6.2705 
  96   0.0000       0.232776         6.3341 
  97   0.0000       0.236202         6.4274 
  98   0.0000       0.246508         6.7078 
  99   0.0000       0.251837         6.8528 
 100   0.0000       0.257760         7.0140 
 101   0.0000       0.260209         7.0807 
 102   0.0000       0.276729         7.5302 
 103   0.0000       0.280859         7.6426 
 104   0.0000       0.289854         7.8873 
 105   0.0000       0.291803         7.9404 
 106   0.0000       0.295636         8.0447 
 107   0.0000       0.304714         8.2917 
 108   0.0000       0.308264         8.3883 
 109   0.0000       0.312258         8.4970 
 110   0.0000       0.312869         8.5136 
 111   0.0000       0.319897         8.7048 
 112   0.0000       0.323570         8.8048 
 113   0.0000       0.330356         8.9894 
 114   0.0000       0.332091         9.0367 
 115   0.0000       0.337633         9.1875 
 116   0.0000       0.341391         9.2897 
 117   0.0000       0.342316         9.3149 
 118   0.0000       0.345457         9.4004 
 119   0.0000       0.357076         9.7165 
 120   0.0000       0.360301         9.8043 
 121   0.0000       0.366920         9.9844 
 122   0.0000       0.371117        10.0986 
 123   0.0000       0.377833        10.2814 
 124   0.0000       0.380610        10.3569 
 125   0.0000       0.388537        10.5726 
 126   0.0000       0.392087        10.6692 
 127   0.0000       0.404822        11.0158 
 128   0.0000       0.409501        11.1431 
 129   0.0000       0.417672        11.3654 
 130   0.0000       0.425027        11.5656 
 131   0.0000       0.434492        11.8231 
 132   0.0000       0.441901        12.0247 
 133   0.0000       0.443963        12.0809 
 134   0.0000       0.450515        12.2591 
 135   0.0000       0.455656        12.3990 
 136   0.0000       0.456827        12.4309 
 137   0.0000       0.462178        12.5765 
 138   0.0000       0.466087        12.6829 
 139   0.0000       0.475890        12.9496 
 140   0.0000       0.481661        13.1067 
 141   0.0000       0.486306        13.2331 
[...]
    TScaleTCutPairs_Core =        1.000e+00
Spin component scaling in ijab excitation            .... not used

Formation of guess energy and open-shell PNO.

NEV-PNO operators..
  E(ij->ab)
  E(ip->ab)
  E(pq->ra)
  E(ip->qr)
  E(ip->aq) and E(ip->qa)

   .... Finished loop over pairs

 PNO Occupation Number Statistics: 
  | Av. % of trace(Dij) retained        ...  98.882524525995
  | Av. % of trace(Dip) retained        ...  94.525720909044
  | Av. % of trace(Dpq) retained        ...  99.962369635880
  | sigma^2 in % of trace(Dij) retained ...   1.37e+00
  | sigma^2 in % of trace(Dip) retained ...   1.82e+01
  | sigma^2 in % of trace(Dpq) retained ...   0.00e+00
  | Av. % of trace(Di) retained         ...  99.998980555161
  | Av. % of trace(Dp) retained         ...  99.998271917431
  | sigma^2 in % of trace(Di) retained  ...   1.49e-07
  | sigma^2 in % of trace(Dp) retained  ...   0.00e+00
 Distributions of % trace(Dij) recovered:
  |       >= 99.9  ...   165 ( 26.8 % of all IJ-pairs)
  |   [90.0, 99.0) ...   229 ( 37.2 % of all IJ-pairs)
  |   [99.0, 99.9) ...   222 ( 36.0 % of all IJ-pairs)
 Distributions of % trace(Dip) recovered:
  |       >= 99.9  ...     2 (  4.1 % of all IP-pairs)
  |   [70.0, 80.0) ...     1 (  2.0 % of all IP-pairs)
  |   [80.0, 90.0) ...     6 ( 12.2 % of all IP-pairs)
  |   [90.0, 99.0) ...    34 ( 69.4 % of all IP-pairs)
  |   [99.0, 99.9) ...     6 ( 12.2 % of all IP-pairs)
 Distributions of % trace(Dpq) recovered:
  |       >= 99.9  ...     1 (100.0 % of all PQ-pairs)
 Distributions of % trace(Di) recovered :
  |       >= 99.9  ...    54 (100.0 % of all I-pairs )
 Distributions of % trace(Dp) recovered :
  |       >= 99.9  ...     1 (100.0 % of all P-pairs )

                       ===========================
                       1228 OF 1909 PAIRS ARE KEPT
                       ===========================

 Initial PAO correlation energy (all pairs)    ...  -3.2919683475 Eh
 Energy constituents in PAO basis (Eh):
  | Vijab(+0) ...  -3.2037420996
  | Viab (-1) ...  -0.0557379694
  | Va   (-1) ...  -0.0000437305
  | Vija (+1) ...  -0.0232872506
  | Via  (+0) ...  -0.0091437610
  | Vi   (+1) ...  -0.0000135365
 Initial PNO correlation energy                ...  -3.2669701937 Eh
 Energy constituents in PNO basis (Eh):
  | Vijab(+0) ...  -3.1821001578 (err=  0.0216419418)
  | Viab (-1) ...  -0.0527931762 (err=  0.0029447931)
  | Va   (-1) ...  -0.0000437305 (err=  0.0000000000)
  | Vija (+1) ...  -0.0228780155 (err=  0.0004092351)
  | Via  (+0) ...  -0.0091415777 (err=  0.0000021833)
  | Vi   (+1) ...  -0.0000135361 (err=  0.0000000004)
 Sum of total truncation errors ...   0.0249981537 Eh
  | Pair screening ...   0.0117154676 Eh
  | PNO truncation ...   0.0132826861 Eh

 UMP2 correlation energy (PAO) ...  -3.2876960845
  | alpha-alpha ...  -0.4146258249 (NP_aa=  954)
  | alpha-beta  ...  -2.4711153027 (NP_ab= 1908)
  | beta -beta  ...  -0.4019549568 (NP_bb=  900)
 UMP2 correlation energy (PNO) ...  -3.2626747388
  | alpha-alpha ...  -0.4088317488 (err=  0.0057940762, NP_aa=  611)
  | alpha-beta  ...  -2.4561918862 (err=  0.0149234166, NP_ab= 1227)
  | beta -beta  ...  -0.3976511039 (err=  0.0043038529, NP_bb=  562)
 Sum of total UMP2 truncation errors ...   0.0250213457 Eh
  | Pair screening ...   0.0117179738 Eh
  | PNO truncation ...   0.0133033719 Eh
 Timing for NEV-PNO construction (sec.)
  | Intermediate construction  ..            0.480
  | Amplitude construction     ..            1.815
  | Total time                 ..            2.295
 Making pair pair interaction lists ...      ok
 Total size for 2-ext PNO integrals ...     12.6 MB
Checking the number of SOMO/SOMO doubles PNOs ...  No PNOs should be truncated!

--------------------------------
LOCAL RI TRANSFORMATION (VABPAO)
--------------------------------

Number of PAOs:     790
Basis functions:    789 (323 shells)
Aux. functions:    1941 (623 shells)

Processing maps (0.0 sec)
Average map sizes:
   Aux shells -> PAOs            772.7
   PAOs       -> AO shells       312.3

Calculating integrals (21.7 sec, 17211.702 MB)
Finished
-----------------------------
LOCAL RI TRANSFORMATION (IJV)
-----------------------------

Orbital window:      21 to 75
Basis functions:    789 (323 shells)
Aux. functions:    1941 (623 shells)

Processing maps (0.0 sec)
Average map sizes:
   Aux shells -> MOs(i)           42.6
   Aux shells -> MOs(j)           55.0
   MOs        -> AO shells       274.6

Calculating integrals (1.7 sec, 35.391 MB)
Sorting integrals (0.1 sec, 35.370 MB)
Total time for the integral transformation: 1.8 sec


-------------------------------------
Pair Pair Term precalculation with     
RI-(ij|mn) and (im|jn) transformation  
ON THE FLY                             
-------------------------------------

   IBatch   1 (of   2)              ... done (  154.136 sec)
   IBatch   2 (of   2)              ... done (   74.279 sec)
Total EXT                           ...         228.415 sec

---------------------
RI-PNO TRANSFORMATION
---------------------

Total Number of PNOs                   ... 40098
Total Number of IJ-PNOs                ... 39114
Total Number of IP-PNOs                ...   911
Total Number of PQ-PNOs                ...    73
Total Number of IJ-pairs               ...  1178
Total Number of PI-pairs               ...    49
Total Number of PQ-pairs               ...     1
Average number of PNOs per pair        ...    32
Maximal number of PNOs per pair        ...    82
>> Statistics for ij-pairs..
   #pairs with  1 -  5 PNOs   :    0
   #pairs with  6 - 10 PNOs   :   24
   #pairs with 11 - 15 PNOs   :  146
   #pairs with 16 - 20 PNOs   :  182
   #pairs with 21 - 25 PNOs   :  104
   #pairs with 26 - 30 PNOs   :   82
   #pairs with 31 - 35 PNOs   :  199
   #pairs with 36 - 40 PNOs   :   82
   #pairs with 41 - 45 PNOs   :   87
   #pairs with 46 - 50 PNOs   :  131
   #pairs with 51 - 55 PNOs   :   14
   #pairs with 56 - 60 PNOs   :   53
   #pairs with 61 - 65 PNOs   :   12
   #pairs with 66 - 70 PNOs   :    2
   #pairs with 71 - 75 PNOs   :   42
   #pairs with 76 - 80 PNOs   :   12
   #pairs with 81 - 85 PNOs   :    6
>> Statistics for ip-pairs..
   #pairs with  1 -  5 PNOs   :    0
   #pairs with  6 - 10 PNOs   :   16
   #pairs with 11 - 15 PNOs   :    9
   #pairs with 16 - 20 PNOs   :    5
   #pairs with 21 - 25 PNOs   :    7
   #pairs with 26 - 30 PNOs   :    3
   #pairs with 31 - 35 PNOs   :    6
   #pairs with 36 - 40 PNOs   :    1
   #pairs with 41 - 45 PNOs   :    1
   #pairs with 46 - 50 PNOs   :    0
   #pairs with 51 - 55 PNOs   :    1
>> Statistics for pq-pairs..
   #pairs with  1 -  5 PNOs   :    0
   #pairs with  6 - 10 PNOs   :    0
   #pairs with 11 - 15 PNOs   :    0
   #pairs with 16 - 20 PNOs   :    0
   #pairs with 21 - 25 PNOs   :    0
   #pairs with 26 - 30 PNOs   :    0
   #pairs with 31 - 35 PNOs   :    0
   #pairs with 36 - 40 PNOs   :    0
   #pairs with 41 - 45 PNOs   :    0
   #pairs with 46 - 50 PNOs   :    0
   #pairs with 71 - 75 PNOs   :    1

Generation of (ij|ab)[P] integrals            ... on
Generation of (ia|bc)[P],(ja|bc)[P] integrals ... on
Storage of 3 and 4 external integrals         ... on
Generation of ALL (ka|bc)[P] integrals        ... on
Keep RI integrals in memory                   ... off

Ibatch:  1 (of  1)
Starting 2-4 index PNO integral generation ... done

Timings:
Total PNO integral transformation time     ...        158.296 sec
Size of the 3-external file                ...       343 MB
Size of the 4-external file                ...      2407 MB
Size of the IKJL file                      ...        21 MB
Size of the all 3-external file            ...      8219 MB
Size of the 1-external file                ...        23 MB

Size of the PAO/PNO coefficient matrices   ...     131.6 MB

Making pair/pair overlap matrices          ... done (   21.487 sec)
Size of the pair overlap file              ...    2450.0 MB
Total # unrestricted pairs ...       2400
  # of alpha-alpha pairs   ...        611
  # of alpha-beta pairs    ...       1227
  # of beta-beta pairs     ...        562
Constructing the guess amplitudes          ... done (    0.482 sec)

-------------------------
FINAL STARTUP INFORMATION
-------------------------

E(0)                                       ...   -841.999523352
E(SL-UMP2 in NEV-PNO space)                ...     -3.289295031
Initial E(tot)                             ...   -845.288818383
<T|T>                                      ...      0.738439291
Number of unrestricted pairs included      ... 2400
Total number of pairs                      ... 5886
----------------------------------------------------------
                     OPEN-SHELL COUPLED CLUSTER ITERATIONS
----------------------------------------------------------

Number of PNO amplitudes to be optimized        ...          3108562
Number of canonical amplitudes for strong pairs ...       1221840196
Untruncated number of canonical amplitudes      ...       2996497352

Iter       E(tot)           E(Corr)          Delta-E          Residual     Time
  0   -845.292029466     -3.265885822      0.023409209      0.019508488  148.70
                           *** Turning on DIIS ***
  1   -845.421274323     -3.395130678     -0.129244857      0.008041795  129.18
  2   -845.504936987     -3.478793342     -0.083662664      0.007528038  131.03
  3   -845.523375235     -3.497231590     -0.018438248      0.003194720  129.07
  4   -845.528202141     -3.502058496     -0.004826906      0.003229646  131.80
  5   -845.529408486     -3.503264842     -0.001206346      0.001413885  130.65
  6   -845.529905388     -3.503761744     -0.000496902      0.001084377  127.38
  7   -845.530070316     -3.503926672     -0.000164928      0.000491915  123.56
  8   -845.530116615     -3.503972970     -0.000046299      0.000335080  120.21
  9   -845.530130433     -3.503986789     -0.000013818      0.000176416  125.00
 10   -845.530141240     -3.503997595     -0.000010807      0.000058930  117.51
 11   -845.530142365     -3.503998721     -0.000001125      0.000020194  114.15
 12   -845.530140662     -3.503997017      0.000001703      0.000011143  116.25
 13   -845.530138822     -3.503995178      0.000001840      0.000006529  113.56
               --- The CCSD iterations have converged ---

E(0)                                       ...   -841.999523352
E(CORR)(strong-pairs)                      ...     -3.503995178
E(CORR)(weak-pairs)                        ...     -0.026620292
E(CORR)(corrected)                         ...     -3.530615470
E(TOT)                                     ...   -845.530138822
Singles norm <S|S>**1/2                    ...      0.125558115 ( 0.058972212, 0.066585903)  
T1 diagnostic                              ...      0.012026286                              
<S**2>(linearized)                         ...      0.7502217 (ideal value:      0.7500000)

----------------------
LARGEST PNO AMPLITUDES
----------------------
  22b-> 75b  -1b-> -1b       0.065889
  42a-> 76a  42b-> 76b       0.045698
  38a-> 80a  38b-> 80b       0.044934
  54a-> 80a  54b-> 80b       0.044590
  63a-> 80a  63b-> 80b       0.044482
  67a-> 80a  67b-> 80b       0.044063
  69a-> 82a  69b-> 82b       0.043877
  74a-> 80a  74b-> 80b       0.043802
  57a-> 80a  57b-> 80b       0.041482
  66a-> 80a  66b-> 80b       0.040713
  72a-> 82a  72b-> 82b       0.039999
  58a-> 76a  58b-> 76b       0.039360
  59a-> 76a  59b-> 76b       0.038127
  45a-> 76a  45b-> 76b       0.037896
  46a-> 76a  46b-> 76b       0.037335
  51a-> 76a  51b-> 76b       0.037228

Total # unrestricted pairs ...       1362
  # of alpha-alpha pairs   ...        343
  # of alpha-beta pairs    ...        681
  # of beta-beta pairs     ...        338

-------------------------------------------
DLPNO BASED TRIPLES CORRECTION
-------------------------------------------

Singles multiplier          ...  1.000000
Fragment selection                          .... not used
TCutTNO                     ... 1.000e-09
TCutMP2Pairs                ... 1.000e-05
TCutDOStrong                ... 2.000e-02
TCutMKNStrong               ... 1.000e-02
TCutDOWeak                  ... 4.000e-02
TCutMKNWeak                 ... 1.000e-01
NTCutTNO                    ... 1

Number of Triples that are to be computed         ...     39604

 . . . . . . . . .
10% done  
20% done  
30% done  
40% done  
50% done  
60% done  
70% done  
80% done  
90% done  
          Batch   1   done (    859.702 sec)

Triples-Correction TCutTNO=   1.000e-09 (NWeakPairs = 0  1  2  3)  -0.162863017052   -0.002431099678    0.000000000000    0.000000000000
Triples-Correction  -0.165294116730

Triples timings:
Total time                      ...   890.606 sec

Triples List generation         ...     0.000 sec
TNO generation                  ...    30.606 sec
Pair density generation         ...     0.054 sec
Look up tables                  ...     0.093 sec
Generating 3-index integrals    ...   309.475 sec
Make 4-ind.int. from 3-ind.int  ...     0.638 sec
Projecting amplitudes (D + S)   ...   421.850 sec
Sorting integrals for spin cases...    26.993 sec
Calculate W0/W1                 ...    70.995 sec
Energy contr. (sum over a,b,c)  ...    29.744 sec

Everything after 3-index        ...   581.577 sec

Energy contribution AAA         ...    12.827 sec
Energy contribution AAB         ...    55.940 sec
Energy contribution ABB         ...    52.601 sec
Energy contribution BBB         ...     6.406 sec
prep                ...     1.097 sec
makeTTNO            ...   414.587 sec
copyij              ...     0.048 sec
copyil              ...     1.962 sec
transposeij         ...     0.042 sec
newMatInDoubleProj  ...     9.908 sec
BlasInDoubleProj    ...   176.505 sec
ProjSingles         ...     3.118 sec
ProjDoubles         ...   418.732 sec
overall Doubles for projection      ... 3316341
used Doubles for projection         ... 3316341


Number of Triples   (0, 1, 2, 3 weak pairs; overall):  17840   14858       0       0  ( 32698)
Number of Atoms     (0, 1, 2, 3 weak pairs; overall):   18.3    14.6     0.0     0.0  (    44)
Number of PAOs      (0, 1, 2, 3 weak pairs; overall):  413.4   349.6     0.0     0.0  (   789)
Number of AuxFcns   (0, 1, 2, 3 weak pairs; overall):  567.1   373.8     0.0     0.0  (  1941)
Number of TNOs (0, 1, 2, 3 weak pairs         ):   90.2    61.1     0.0     0.0
Aver. Number of NTNO, Atoms, PAOs, AuxFcns / Triples:  32698    77.0    16.6   384.5   479.2

Triples Correction (T)                     ...     -0.165294117
    alpha-alpha-alpha ... -0.005462495 (  3.3%)
    alpha-alpha-beta  ... -0.077810164 ( 47.1%)
    alpha-beta -beta  ... -0.076695690 ( 46.4%)
    beta -beta -beta  ... -0.005325768 (  3.2%)
Final correlation energy                   ...     -3.695909587
E(CCSD)                                    ...   -845.530138822
E(CCSD(T))                                 ...   -845.695432939

----------------------------
STATISTICS FOR PAIR-ENERGIES
----------------------------
Minimum, maximum and average ratios of UMP and CCSD pair-energies ... 0.48, 1.20, 0.99


------------------------------------------------------------------------------- 
                                     TIMINGS                                   
------------------------------------------------------------------------------- 


Total execution time                   ...     3513.592 sec

Localization of occupied MO's          ...        3.084 sec (  0.1%)
Fock Matrix Formation                  ...       52.930 sec (  1.5%)
Differential overlap integrals         ...        0.467 sec (  0.0%)
Organizing maps                        ...        0.581 sec (  0.0%)
RI 3-index integral generations        ...       32.118 sec (  0.9%)
RI-PNO integral transformation         ...      465.015 sec ( 13.2%)
Initial Guess                          ...      286.458 sec (  8.2%)
DIIS Solver                            ...       26.749 sec (  0.8%)
State Vector Update                    ...        0.499 sec (  0.0%)
Sigma-vector construction              ...     1758.051 sec ( 50.0%)
  <0|H|D>                              ...        0.009 sec (  0.0% of sigma)
  <D|H|D>(0-ext)                       ...      113.087 sec (  6.4% of sigma)
  <D|H|D>(2-ext Fock)                  ...        0.089 sec (  0.0% of sigma)
  <D|H|D>(2-ext)                       ...      252.632 sec ( 14.4% of sigma)
  <D|H|D>(4-ext)                       ...      108.253 sec (  6.2% of sigma)
  <D|H|D>(4-ext-corr)                  ...      444.171 sec ( 25.3% of sigma)
  CCSD doubles correction              ...        4.939 sec (  0.3% of sigma)
  <S|H|S>                              ...      106.044 sec (  6.0% of sigma)
  <S|H|D>(1-ext)                       ...       10.107 sec (  0.6% of sigma)
  <D|H|S>(1-ext)                       ...        0.181 sec (  0.0% of sigma)
  <S|H|D>(3-ext)                       ...       31.873 sec (  1.8% of sigma)
  CCSD singles correction              ...        0.005 sec (  0.0% of sigma)
  Fock-dressing                        ...      370.873 sec ( 21.1% of sigma)
  Singles amplitudes                   ...       32.946 sec (  1.9% of sigma)
  (ik|jl)-dressing                     ...      230.661 sec ( 13.1% of sigma)
  (ij|ab),(ia|jb)-dressing             ...       41.783 sec (  2.4% of sigma)
  Pair energies                        ...        0.072 sec (  0.0% of sigma)
Total Time for computing (T)           ...      918.334 sec ( 26.1% of ALL)


-------------------------   --------------------
FINAL SINGLE POINT ENERGY      -845.695432939056
-------------------------   --------------------


                            ***************************************
                            *     ORCA property calculations      *
                            ***************************************

                                    ---------------------
                                    Active property flags
                                    ---------------------
   (+) Dipole Moment


------------------------------------------------------------------------------
                       ORCA ELECTRIC PROPERTIES CALCULATION
------------------------------------------------------------------------------

Dipole Moment Calculation                       ... on
Quadrupole Moment Calculation                   ... off
Polarizability Calculation                      ... off
GBWName                                         ... input.gbw
Electron density file                           ... input.scfp.tmp
The origin for moment calculation is the CENTER OF MASS  = ( 0.295705, -0.701275  0.995748)

-------------
DIPOLE MOMENT
-------------
                                X             Y             Z
Electronic contribution:    -17.96979       5.85068       2.02123
Nuclear contribution   :     18.07876      -5.88053      -2.28903
                        -----------------------------------------
Total Dipole Moment    :      0.10897      -0.02985      -0.26781
                        -----------------------------------------
Magnitude (a.u.)       :      0.29066
Magnitude (Debye)      :      0.73881



--------------------
Rotational spectrum 
--------------------
 
Rotational constants in cm-1:     0.011930     0.008002     0.005680 
Rotational constants in MHz :   357.647309   239.896073   170.284276 

 Dipole components along the rotational axes: 
x,y,z [a.u.] :     0.087497     0.021165    -0.276373 
x,y,z [Debye]:     0.222401     0.053797    -0.702485 

 

Timings for individual modules:

Sum of individual times         ...     4914.318 sec (=  81.905 min)
GTO integral calculation        ...        4.713 sec (=   0.079 min)   0.1 %
SCF iterations                  ...     1390.977 sec (=  23.183 min)  28.3 %
MDCI module                     ...     3518.628 sec (=  58.644 min)  71.6 %
                             ****ORCA TERMINATED NORMALLY****
TOTAL RUN TIME: 0 days 1 hours 21 minutes 59 seconds 604 msec
