 Entering Gaussian System, Link 0=g16
 Initial command:
 /gpfs/apps/medsci/stacks/noOS/software/gaussian/g16.a03.avx2/g16/l1.exe "/gpfs/scratch/jobs/wuh104/g16/input.gjf-342786/Gau-364243.inp" -scrdir="/gpfs/scratch/jobs/wuh104/g16/input.gjf-342786/"
 Entering Link 1 = /gpfs/apps/medsci/stacks/noOS/software/gaussian/g16.a03.avx2/g16/l1.exe PID=    364244.
  
 Copyright (c) 1988,1990,1992,1993,1995,1998,2003,2009,2016,
            Gaussian, Inc.  All Rights Reserved.
  
 This is part of the Gaussian(R) 16 program.  It is based on
 the Gaussian(R) 09 system (copyright 2009, Gaussian, Inc.),
 the Gaussian(R) 03 system (copyright 2003, Gaussian, Inc.),
 the Gaussian(R) 98 system (copyright 1998, Gaussian, Inc.),
 the Gaussian(R) 94 system (copyright 1995, Gaussian, Inc.),
 the Gaussian 92(TM) system (copyright 1992, Gaussian, Inc.),
 the Gaussian 90(TM) system (copyright 1990, Gaussian, Inc.),
 the Gaussian 88(TM) system (copyright 1988, Gaussian, Inc.),
 the Gaussian 86(TM) system (copyright 1986, Carnegie Mellon
 University), and the Gaussian 82(TM) system (copyright 1983,
 Carnegie Mellon University). Gaussian is a federally registered
 trademark of Gaussian, Inc.
  
 This software contains proprietary and confidential information,
 including trade secrets, belonging to Gaussian, Inc.
  
 This software is provided under written license and may be
 used, copied, transmitted, or stored only in accord with that
 written license.
  
 The following legend is applicable only to US Government
 contracts under FAR:
  
                    RESTRICTED RIGHTS LEGEND
  
 Use, reproduction and disclosure by the US Government is
 subject to restrictions as set forth in subparagraphs (a)
 and (c) of the Commercial Computer Software - Restricted
 Rights clause in FAR 52.227-19.
  
 Gaussian, Inc.
 340 Quinnipiac St., Bldg. 40, Wallingford CT 06492
  
  
 ---------------------------------------------------------------
 Warning -- This program may not be used in any manner that
 competes with the business of Gaussian, Inc. or will provide
 assistance to any competitor of Gaussian, Inc.  The licensee
 of this program is prohibited from giving any competitor of
 Gaussian, Inc. access to this program.  By using this program,
 the user acknowledges that Gaussian, Inc. is engaged in the
 business of creating and licensing software in the field of
 computational chemistry and represents and warrants to the
 licensee that it is not a competitor of Gaussian, Inc. and that
 it will not use this program in any manner prohibited above.
 ---------------------------------------------------------------
  

 Cite this work as:
 Gaussian 16, Revision A.03,
 M. J. Frisch, G. W. Trucks, H. B. Schlegel, G. E. Scuseria, 
 M. A. Robb, J. R. Cheeseman, G. Scalmani, V. Barone, 
 G. A. Petersson, H. Nakatsuji, X. Li, M. Caricato, A. V. Marenich, 
 J. Bloino, B. G. Janesko, R. Gomperts, B. Mennucci, H. P. Hratchian, 
 J. V. Ortiz, A. F. Izmaylov, J. L. Sonnenberg, D. Williams-Young, 
 F. Ding, F. Lipparini, F. Egidi, J. Goings, B. Peng, A. Petrone, 
 T. Henderson, D. Ranasinghe, V. G. Zakrzewski, J. Gao, N. Rega, 
 G. Zheng, W. Liang, M. Hada, M. Ehara, K. Toyota, R. Fukuda, 
 J. Hasegawa, M. Ishida, T. Nakajima, Y. Honda, O. Kitao, H. Nakai, 
 T. Vreven, K. Throssell, J. A. Montgomery, Jr., J. E. Peralta, 
 F. Ogliaro, M. J. Bearpark, J. J. Heyd, E. N. Brothers, K. N. Kudin, 
 V. N. Staroverov, T. A. Keith, R. Kobayashi, J. Normand, 
 K. Raghavachari, A. P. Rendell, J. C. Burant, S. S. Iyengar, 
 J. Tomasi, M. Cossi, J. M. Millam, M. Klene, C. Adamo, R. Cammi, 
 J. W. Ochterski, R. L. Martin, K. Morokuma, O. Farkas, 
 J. B. Foresman, and D. J. Fox, Gaussian, Inc., Wallingford CT, 2016.
 
 ******************************************
 Gaussian 16:  ES64L-G16RevA.03 25-Dec-2016
                19-Nov-2019 
 ******************************************
 %chk=check.chk
 %mem=140000mb
 %NProcShared=40
 Will use up to   40 processors via shared memory.
 ----------------------------------------------------------------------
 #P freq guess=mix opt=tight apfd/def2svp scf=tight scf=xqc iop(2/9=200
 0)
 ----------------------------------------------------------------------
 1/7=10,18=20,19=15,26=3,38=1/1,3;
 2/9=2000,12=2,17=6,18=5,40=1/2;
 3/5=43,7=101,11=2,25=1,30=1,71=1,74=-44/1,2,3;
 4/13=-1/1;
 5/5=2,8=3,13=1,32=2,38=5/2,8;
 6/7=2,8=2,9=2,10=2,28=1/1;
 7//1,2,3,16;
 1/7=10,18=20,19=15,26=3/3(2);
 2/9=2000/2;
 99//99;
 2/9=2000/2;
 3/5=43,7=101,11=2,25=1,30=1,71=1,74=-44/1,2,3;
 4/5=5,16=3,69=1/1;
 5/5=2,8=3,13=1,32=2,38=5/2,8;
 7//1,2,3,16;
 1/7=10,18=20,19=15,26=3/3(-5);
 2/9=2000/2;
 6/7=2,8=2,9=2,10=2,19=2,28=1/1;
 99/9=1/99;
 Leave Link    1 at Tue Nov 19 13:29:53 2019, MaxMem= 18350080000 cpu:               5.4 elap:               0.1
 (Enter /gpfs/apps/medsci/stacks/noOS/software/gaussian/g16.a03.avx2/g16/l101.exe)
 -----
 title
 -----
 Symbolic Z-matrix:
 Charge =  0 Multiplicity = 2
 N                    -0.02222  -0.36726   0.67266 
 C                     1.33384  -0.62175   0.36263 
 C                    -0.35472   0.99689   0.89187 
 C                     1.89137  -2.02562   0.37158 
 H                     1.99796   0.07398   0.8993 
 C                    -1.05675  -1.32684   0.52744 
 C                     0.00147   1.60385   2.09901 
 C                    -0.97839   1.73522  -0.12592 
 C                     3.34675  -1.99768  -0.09987 
 H                     1.83018  -2.46753   1.38261 
 H                     1.30345  -2.68966  -0.28354 
 C                    -1.00086  -2.45796   1.3623 
 C                    -2.13697  -1.18059  -0.3684 
 C                    -0.27509   2.95323   2.31157 
 H                     0.49515   1.00205   2.86625 
 C                    -1.2909    1.05563  -1.42454 
 C                    -1.266     3.0831    0.11114 
 N                     4.18439  -1.1661    0.74167 
 H                     3.36527  -1.58348  -1.11837 
 H                     3.73612  -3.03836  -0.16901 
 C                    -1.95769  -3.46155   1.29645 
 H                    -0.18947  -2.52188   2.08828 
 C                    -2.37966  -0.00607  -1.29138 
 C                    -3.10033  -2.2021   -0.40186 
 C                    -0.91638   3.69277   1.3162 
 H                     0.00254   3.42517   3.25779 
 H                    -1.62367   1.80524  -2.15921 
 H                    -0.36522   0.61572  -1.83081 
 H                    -1.75521   3.6675   -0.67411 
 C                     5.28695  -0.56225   0.03506 
 C                     4.58964  -1.81425   1.96074 
 C                    -3.02024  -3.3343    0.4001 
 H                    -1.88463  -4.33039   1.95589 
 H                    -2.60331  -0.41011  -2.2936 
 H                    -3.31136   0.4875   -0.95933 
 H                    -3.9393   -2.09633  -1.0972 
 H                    -1.14156   4.75045   1.4778 
 H                     5.82867   0.12358   0.70585 
 H                     6.0249   -1.30407  -0.34764 
 H                     4.9057    0.02545  -0.8121 
 H                     5.11064  -1.10077   2.61814 
 H                     5.27274  -2.679     1.79083 
 H                     3.71447  -2.18901   2.51312 
 H                    -3.78835  -4.10934   0.33404 
 
 ITRead=  0  0  0  0  0  0  0  0  0  0  0  0  0  0  0  0  0  0  0  0
 ITRead=  0  0  0  0  0  0  0  0  0  0  0  0  0  0  0  0  0  0  0  0
 ITRead=  0  0  0  0
 MicOpt= -1 -1 -1 -1 -1 -1 -1 -1 -1 -1 -1 -1 -1 -1 -1 -1 -1 -1 -1 -1
 MicOpt= -1 -1 -1 -1 -1 -1 -1 -1 -1 -1 -1 -1 -1 -1 -1 -1 -1 -1 -1 -1
 MicOpt= -1 -1 -1 -1
 NAtoms=     44 NQM=       44 NQMF=       0 NMMI=      0 NMMIF=      0
                NMic=       0 NMicF=      0.
                    Isotopes and Nuclear Properties:
 (Nuclear quadrupole moments (NQMom) in fm**2, nuclear magnetic moments (NMagM)
  in nuclear magnetons)

  Atom         1           2           3           4           5           6           7           8           9          10
 IAtWgt=          14          12          12          12           1          12          12          12          12           1
 AtmWgt=  14.0030740  12.0000000  12.0000000  12.0000000   1.0078250  12.0000000  12.0000000  12.0000000  12.0000000   1.0078250
 NucSpn=           2           0           0           0           1           0           0           0           0           1
 AtZEff=  -0.0000000  -0.0000000  -0.0000000  -0.0000000  -0.0000000  -0.0000000  -0.0000000  -0.0000000  -0.0000000  -0.0000000
 NQMom=    2.0440000   0.0000000   0.0000000   0.0000000   0.0000000   0.0000000   0.0000000   0.0000000   0.0000000   0.0000000
 NMagM=    0.4037610   0.0000000   0.0000000   0.0000000   2.7928460   0.0000000   0.0000000   0.0000000   0.0000000   2.7928460
 AtZNuc=   7.0000000   6.0000000   6.0000000   6.0000000   1.0000000   6.0000000   6.0000000   6.0000000   6.0000000   1.0000000

  Atom        11          12          13          14          15          16          17          18          19          20
 IAtWgt=           1          12          12          12           1          12          12          14           1           1
 AtmWgt=   1.0078250  12.0000000  12.0000000  12.0000000   1.0078250  12.0000000  12.0000000  14.0030740   1.0078250   1.0078250
 NucSpn=           1           0           0           0           1           0           0           2           1           1
 AtZEff=  -0.0000000  -0.0000000  -0.0000000  -0.0000000  -0.0000000  -0.0000000  -0.0000000  -0.0000000  -0.0000000  -0.0000000
 NQMom=    0.0000000   0.0000000   0.0000000   0.0000000   0.0000000   0.0000000   0.0000000   2.0440000   0.0000000   0.0000000
 NMagM=    2.7928460   0.0000000   0.0000000   0.0000000   2.7928460   0.0000000   0.0000000   0.4037610   2.7928460   2.7928460
 AtZNuc=   1.0000000   6.0000000   6.0000000   6.0000000   1.0000000   6.0000000   6.0000000   7.0000000   1.0000000   1.0000000

  Atom        21          22          23          24          25          26          27          28          29          30
 IAtWgt=          12           1          12          12          12           1           1           1           1          12
 AtmWgt=  12.0000000   1.0078250  12.0000000  12.0000000  12.0000000   1.0078250   1.0078250   1.0078250   1.0078250  12.0000000
 NucSpn=           0           1           0           0           0           1           1           1           1           0
 AtZEff=  -0.0000000  -0.0000000  -0.0000000  -0.0000000  -0.0000000  -0.0000000  -0.0000000  -0.0000000  -0.0000000  -0.0000000
 NQMom=    0.0000000   0.0000000   0.0000000   0.0000000   0.0000000   0.0000000   0.0000000   0.0000000   0.0000000   0.0000000
 NMagM=    0.0000000   2.7928460   0.0000000   0.0000000   0.0000000   2.7928460   2.7928460   2.7928460   2.7928460   0.0000000
 AtZNuc=   6.0000000   1.0000000   6.0000000   6.0000000   6.0000000   1.0000000   1.0000000   1.0000000   1.0000000   6.0000000

  Atom        31          32          33          34          35          36          37          38          39          40
 IAtWgt=          12          12           1           1           1           1           1           1           1           1
 AtmWgt=  12.0000000  12.0000000   1.0078250   1.0078250   1.0078250   1.0078250   1.0078250   1.0078250   1.0078250   1.0078250
 NucSpn=           0           0           1           1           1           1           1           1           1           1
 AtZEff=  -0.0000000  -0.0000000  -0.0000000  -0.0000000  -0.0000000  -0.0000000  -0.0000000  -0.0000000  -0.0000000  -0.0000000
 NQMom=    0.0000000   0.0000000   0.0000000   0.0000000   0.0000000   0.0000000   0.0000000   0.0000000   0.0000000   0.0000000
 NMagM=    0.0000000   0.0000000   2.7928460   2.7928460   2.7928460   2.7928460   2.7928460   2.7928460   2.7928460   2.7928460
 AtZNuc=   6.0000000   6.0000000   1.0000000   1.0000000   1.0000000   1.0000000   1.0000000   1.0000000   1.0000000   1.0000000

  Atom        41          42          43          44
 IAtWgt=           1           1           1           1
 AtmWgt=   1.0078250   1.0078250   1.0078250   1.0078250
 NucSpn=           1           1           1           1
 AtZEff=  -0.0000000  -0.0000000  -0.0000000  -0.0000000
 NQMom=    0.0000000   0.0000000   0.0000000   0.0000000
 NMagM=    2.7928460   2.7928460   2.7928460   2.7928460
 AtZNuc=   1.0000000   1.0000000   1.0000000   1.0000000
 Leave Link  101 at Tue Nov 19 13:29:54 2019, MaxMem= 18350080000 cpu:              14.9 elap:               0.5
 (Enter /gpfs/apps/medsci/stacks/noOS/software/gaussian/g16.a03.avx2/g16/l103.exe)

 GradGradGradGradGradGradGradGradGradGradGradGradGradGradGradGradGradGrad
 Berny optimization.
 Initialization pass.
                           ----------------------------
                           !    Initial Parameters    !
                           ! (Angstroms and Degrees)  !
 --------------------------                            --------------------------
 ! Name  Definition              Value          Derivative Info.                !
 --------------------------------------------------------------------------------
 ! R1    R(1,2)                  1.4141         estimate D2E/DX2                !
 ! R2    R(1,3)                  1.4211         estimate D2E/DX2                !
 ! R3    R(1,6)                  1.4185         estimate D2E/DX2                !
 ! R4    R(2,4)                  1.5106         estimate D2E/DX2                !
 ! R5    R(2,5)                  1.1014         estimate D2E/DX2                !
 ! R6    R(3,7)                  1.3973         estimate D2E/DX2                !
 ! R7    R(3,8)                  1.4036         estimate D2E/DX2                !
 ! R8    R(4,9)                  1.5301         estimate D2E/DX2                !
 ! R9    R(4,10)                 1.1051         estimate D2E/DX2                !
 ! R10   R(4,11)                 1.1026         estimate D2E/DX2                !
 ! R11   R(6,12)                 1.407          estimate D2E/DX2                !
 ! R12   R(6,13)                 1.411          estimate D2E/DX2                !
 ! R13   R(7,14)                 1.3937         estimate D2E/DX2                !
 ! R14   R(7,15)                 1.093          estimate D2E/DX2                !
 ! R15   R(8,16)                 1.4986         estimate D2E/DX2                !
 ! R16   R(8,17)                 1.3985         estimate D2E/DX2                !
 ! R17   R(9,18)                 1.4496         estimate D2E/DX2                !
 ! R18   R(9,19)                 1.0997         estimate D2E/DX2                !
 ! R19   R(9,20)                 1.1133         estimate D2E/DX2                !
 ! R20   R(12,21)                1.3882         estimate D2E/DX2                !
 ! R21   R(12,22)                1.0906         estimate D2E/DX2                !
 ! R22   R(13,23)                1.5134         estimate D2E/DX2                !
 ! R23   R(13,24)                1.4045         estimate D2E/DX2                !
 ! R24   R(14,25)                1.396          estimate D2E/DX2                !
 ! R25   R(14,26)                1.0932         estimate D2E/DX2                !
 ! R26   R(16,23)                1.5265         estimate D2E/DX2                !
 ! R27   R(16,27)                1.1011         estimate D2E/DX2                !
 ! R28   R(16,28)                1.1025         estimate D2E/DX2                !
 ! R29   R(17,25)                1.395          estimate D2E/DX2                !
 ! R30   R(17,29)                1.0943         estimate D2E/DX2                !
 ! R31   R(18,30)                1.4421         estimate D2E/DX2                !
 ! R32   R(18,31)                1.4389         estimate D2E/DX2                !
 ! R33   R(21,32)                1.3959         estimate D2E/DX2                !
 ! R34   R(21,33)                1.0932         estimate D2E/DX2                !
 ! R35   R(23,34)                1.1035         estimate D2E/DX2                !
 ! R36   R(23,35)                1.1054         estimate D2E/DX2                !
 ! R37   R(24,32)                1.3898         estimate D2E/DX2                !
 ! R38   R(24,36)                1.0948         estimate D2E/DX2                !
 ! R39   R(25,37)                1.0934         estimate D2E/DX2                !
 ! R40   R(30,38)                1.1017         estimate D2E/DX2                !
 ! R41   R(30,39)                1.1141         estimate D2E/DX2                !
 ! R42   R(30,40)                1.0993         estimate D2E/DX2                !
 ! R43   R(31,41)                1.1012         estimate D2E/DX2                !
 ! R44   R(31,42)                1.115          estimate D2E/DX2                !
 ! R45   R(31,43)                1.1007         estimate D2E/DX2                !
 ! R46   R(32,44)                1.0932         estimate D2E/DX2                !
 ! A1    A(2,1,3)              115.5267         estimate D2E/DX2                !
 ! A2    A(2,1,6)              123.7231         estimate D2E/DX2                !
 ! A3    A(3,1,6)              119.638          estimate D2E/DX2                !
 ! A4    A(1,2,4)              121.3246         estimate D2E/DX2                !
 ! A5    A(1,2,5)              110.9596         estimate D2E/DX2                !
 ! A6    A(4,2,5)              111.1994         estimate D2E/DX2                !
 ! A7    A(1,3,7)              119.3793         estimate D2E/DX2                !
 ! A8    A(1,3,8)              119.8062         estimate D2E/DX2                !
 ! A9    A(7,3,8)              120.7458         estimate D2E/DX2                !
 ! A10   A(2,4,9)              109.4066         estimate D2E/DX2                !
 ! A11   A(2,4,10)             110.8931         estimate D2E/DX2                !
 ! A12   A(2,4,11)             111.0618         estimate D2E/DX2                !
 ! A13   A(9,4,10)             109.991          estimate D2E/DX2                !
 ! A14   A(9,4,11)             109.579          estimate D2E/DX2                !
 ! A15   A(10,4,11)            105.8562         estimate D2E/DX2                !
 ! A16   A(1,6,12)             117.009          estimate D2E/DX2                !
 ! A17   A(1,6,13)             123.5892         estimate D2E/DX2                !
 ! A18   A(12,6,13)            119.3731         estimate D2E/DX2                !
 ! A19   A(3,7,14)             120.1146         estimate D2E/DX2                !
 ! A20   A(3,7,15)             118.8431         estimate D2E/DX2                !
 ! A21   A(14,7,15)            121.0422         estimate D2E/DX2                !
 ! A22   A(3,8,16)             118.8476         estimate D2E/DX2                !
 ! A23   A(3,8,17)             118.3901         estimate D2E/DX2                !
 ! A24   A(16,8,17)            122.7567         estimate D2E/DX2                !
 ! A25   A(4,9,18)             112.4104         estimate D2E/DX2                !
 ! A26   A(4,9,19)             107.9552         estimate D2E/DX2                !
 ! A27   A(4,9,20)             109.556          estimate D2E/DX2                !
 ! A28   A(18,9,19)            108.1726         estimate D2E/DX2                !
 ! A29   A(18,9,20)            111.7279         estimate D2E/DX2                !
 ! A30   A(19,9,20)            106.7795         estimate D2E/DX2                !
 ! A31   A(6,12,21)            121.7145         estimate D2E/DX2                !
 ! A32   A(6,12,22)            118.1414         estimate D2E/DX2                !
 ! A33   A(21,12,22)           120.1319         estimate D2E/DX2                !
 ! A34   A(6,13,23)            126.1892         estimate D2E/DX2                !
 ! A35   A(6,13,24)            117.701          estimate D2E/DX2                !
 ! A36   A(23,13,24)           116.0994         estimate D2E/DX2                !
 ! A37   A(7,14,25)            119.6889         estimate D2E/DX2                !
 ! A38   A(7,14,26)            119.9719         estimate D2E/DX2                !
 ! A39   A(25,14,26)           120.3371         estimate D2E/DX2                !
 ! A40   A(8,16,23)            112.8626         estimate D2E/DX2                !
 ! A41   A(8,16,27)            109.419          estimate D2E/DX2                !
 ! A42   A(8,16,28)            108.9763         estimate D2E/DX2                !
 ! A43   A(23,16,27)           108.4295         estimate D2E/DX2                !
 ! A44   A(23,16,28)           110.7001         estimate D2E/DX2                !
 ! A45   A(27,16,28)           106.2322         estimate D2E/DX2                !
 ! A46   A(8,17,25)            121.0716         estimate D2E/DX2                !
 ! A47   A(8,17,29)            119.0144         estimate D2E/DX2                !
 ! A48   A(25,17,29)           119.9022         estimate D2E/DX2                !
 ! A49   A(9,18,30)            113.4255         estimate D2E/DX2                !
 ! A50   A(9,18,31)            113.3392         estimate D2E/DX2                !
 ! A51   A(30,18,31)           112.8569         estimate D2E/DX2                !
 ! A52   A(12,21,32)           119.2883         estimate D2E/DX2                !
 ! A53   A(12,21,33)           119.9935         estimate D2E/DX2                !
 ! A54   A(32,21,33)           120.7077         estimate D2E/DX2                !
 ! A55   A(13,23,16)           118.5935         estimate D2E/DX2                !
 ! A56   A(13,23,34)           107.5932         estimate D2E/DX2                !
 ! A57   A(13,23,35)           107.3672         estimate D2E/DX2                !
 ! A58   A(16,23,34)           108.6614         estimate D2E/DX2                !
 ! A59   A(16,23,35)           108.4694         estimate D2E/DX2                !
 ! A60   A(34,23,35)           105.3951         estimate D2E/DX2                !
 ! A61   A(13,24,32)           122.6318         estimate D2E/DX2                !
 ! A62   A(13,24,36)           118.0662         estimate D2E/DX2                !
 ! A63   A(32,24,36)           119.2998         estimate D2E/DX2                !
 ! A64   A(14,25,17)           119.9681         estimate D2E/DX2                !
 ! A65   A(14,25,37)           120.11           estimate D2E/DX2                !
 ! A66   A(17,25,37)           119.9214         estimate D2E/DX2                !
 ! A67   A(18,30,38)           109.7716         estimate D2E/DX2                !
 ! A68   A(18,30,39)           113.3224         estimate D2E/DX2                !
 ! A69   A(18,30,40)           109.653          estimate D2E/DX2                !
 ! A70   A(38,30,39)           107.3335         estimate D2E/DX2                !
 ! A71   A(38,30,40)           107.8756         estimate D2E/DX2                !
 ! A72   A(39,30,40)           108.7208         estimate D2E/DX2                !
 ! A73   A(18,31,41)           110.3144         estimate D2E/DX2                !
 ! A74   A(18,31,42)           113.1275         estimate D2E/DX2                !
 ! A75   A(18,31,43)           110.7699         estimate D2E/DX2                !
 ! A76   A(41,31,42)           107.6736         estimate D2E/DX2                !
 ! A77   A(41,31,43)           107.2889         estimate D2E/DX2                !
 ! A78   A(42,31,43)           107.4295         estimate D2E/DX2                !
 ! A79   A(21,32,24)           119.2527         estimate D2E/DX2                !
 ! A80   A(21,32,44)           120.5968         estimate D2E/DX2                !
 ! A81   A(24,32,44)           120.1475         estimate D2E/DX2                !
 ! D1    D(3,1,2,4)            167.8354         estimate D2E/DX2                !
 ! D2    D(3,1,2,5)             34.4864         estimate D2E/DX2                !
 ! D3    D(6,1,2,4)            -24.3019         estimate D2E/DX2                !
 ! D4    D(6,1,2,5)           -157.6509         estimate D2E/DX2                !
 ! D5    D(2,1,3,7)            -76.1464         estimate D2E/DX2                !
 ! D6    D(2,1,3,8)            100.864          estimate D2E/DX2                !
 ! D7    D(6,1,3,7)            115.4607         estimate D2E/DX2                !
 ! D8    D(6,1,3,8)            -67.5289         estimate D2E/DX2                !
 ! D9    D(2,1,6,12)            65.7113         estimate D2E/DX2                !
 ! D10   D(2,1,6,13)          -116.2517         estimate D2E/DX2                !
 ! D11   D(3,1,6,12)          -126.8974         estimate D2E/DX2                !
 ! D12   D(3,1,6,13)            51.1396         estimate D2E/DX2                !
 ! D13   D(1,2,4,9)            175.8913         estimate D2E/DX2                !
 ! D14   D(1,2,4,10)           -62.6118         estimate D2E/DX2                !
 ! D15   D(1,2,4,11)            54.8007         estimate D2E/DX2                !
 ! D16   D(5,2,4,9)            -50.8578         estimate D2E/DX2                !
 ! D17   D(5,2,4,10)            70.6391         estimate D2E/DX2                !
 ! D18   D(5,2,4,11)          -171.9484         estimate D2E/DX2                !
 ! D19   D(1,3,7,14)           177.7425         estimate D2E/DX2                !
 ! D20   D(1,3,7,15)            -2.3834         estimate D2E/DX2                !
 ! D21   D(8,3,7,14)             0.7608         estimate D2E/DX2                !
 ! D22   D(8,3,7,15)          -179.3651         estimate D2E/DX2                !
 ! D23   D(1,3,8,16)             0.5379         estimate D2E/DX2                !
 ! D24   D(1,3,8,17)          -178.626          estimate D2E/DX2                !
 ! D25   D(7,3,8,16)           177.5068         estimate D2E/DX2                !
 ! D26   D(7,3,8,17)            -1.6571         estimate D2E/DX2                !
 ! D27   D(2,4,9,18)            59.4583         estimate D2E/DX2                !
 ! D28   D(2,4,9,19)           -59.7683         estimate D2E/DX2                !
 ! D29   D(2,4,9,20)          -175.6909         estimate D2E/DX2                !
 ! D30   D(10,4,9,18)          -62.5816         estimate D2E/DX2                !
 ! D31   D(10,4,9,19)          178.1918         estimate D2E/DX2                !
 ! D32   D(10,4,9,20)           62.2693         estimate D2E/DX2                !
 ! D33   D(11,4,9,18)         -178.5563         estimate D2E/DX2                !
 ! D34   D(11,4,9,19)           62.2172         estimate D2E/DX2                !
 ! D35   D(11,4,9,20)          -53.7054         estimate D2E/DX2                !
 ! D36   D(1,6,12,21)         -179.5765         estimate D2E/DX2                !
 ! D37   D(1,6,12,22)            1.692          estimate D2E/DX2                !
 ! D38   D(13,6,12,21)           2.2999         estimate D2E/DX2                !
 ! D39   D(13,6,12,22)        -176.4316         estimate D2E/DX2                !
 ! D40   D(1,6,13,23)           -0.6102         estimate D2E/DX2                !
 ! D41   D(1,6,13,24)         -179.3815         estimate D2E/DX2                !
 ! D42   D(12,6,13,23)         177.3829         estimate D2E/DX2                !
 ! D43   D(12,6,13,24)          -1.3884         estimate D2E/DX2                !
 ! D44   D(3,7,14,25)            0.3785         estimate D2E/DX2                !
 ! D45   D(3,7,14,26)          179.859          estimate D2E/DX2                !
 ! D46   D(15,7,14,25)        -179.4927         estimate D2E/DX2                !
 ! D47   D(15,7,14,26)          -0.0122         estimate D2E/DX2                !
 ! D48   D(3,8,16,23)           68.206          estimate D2E/DX2                !
 ! D49   D(3,8,16,27)         -170.9683         estimate D2E/DX2                !
 ! D50   D(3,8,16,28)          -55.2055         estimate D2E/DX2                !
 ! D51   D(17,8,16,23)        -112.6687         estimate D2E/DX2                !
 ! D52   D(17,8,16,27)           8.157          estimate D2E/DX2                !
 ! D53   D(17,8,16,28)         123.9198         estimate D2E/DX2                !
 ! D54   D(3,8,17,25)            1.4525         estimate D2E/DX2                !
 ! D55   D(3,8,17,29)         -179.7942         estimate D2E/DX2                !
 ! D56   D(16,8,17,25)        -177.6766         estimate D2E/DX2                !
 ! D57   D(16,8,17,29)           1.0767         estimate D2E/DX2                !
 ! D58   D(4,9,18,30)         -149.9543         estimate D2E/DX2                !
 ! D59   D(4,9,18,31)           79.6553         estimate D2E/DX2                !
 ! D60   D(19,9,18,30)         -30.8549         estimate D2E/DX2                !
 ! D61   D(19,9,18,31)        -161.2452         estimate D2E/DX2                !
 ! D62   D(20,9,18,30)          86.3966         estimate D2E/DX2                !
 ! D63   D(20,9,18,31)         -43.9938         estimate D2E/DX2                !
 ! D64   D(6,12,21,32)          -1.4212         estimate D2E/DX2                !
 ! D65   D(6,12,21,33)         179.7519         estimate D2E/DX2                !
 ! D66   D(22,12,21,32)        177.2855         estimate D2E/DX2                !
 ! D67   D(22,12,21,33)         -1.5415         estimate D2E/DX2                !
 ! D68   D(6,13,23,16)           8.3419         estimate D2E/DX2                !
 ! D69   D(6,13,23,34)         132.0621         estimate D2E/DX2                !
 ! D70   D(6,13,23,35)        -114.9229         estimate D2E/DX2                !
 ! D71   D(24,13,23,16)       -172.8695         estimate D2E/DX2                !
 ! D72   D(24,13,23,34)        -49.1494         estimate D2E/DX2                !
 ! D73   D(24,13,23,35)         63.8657         estimate D2E/DX2                !
 ! D74   D(6,13,24,32)          -0.3337         estimate D2E/DX2                !
 ! D75   D(6,13,24,36)        -179.7998         estimate D2E/DX2                !
 ! D76   D(23,13,24,32)       -179.2295         estimate D2E/DX2                !
 ! D77   D(23,13,24,36)          1.3044         estimate D2E/DX2                !
 ! D78   D(7,14,25,17)          -0.5853         estimate D2E/DX2                !
 ! D79   D(7,14,25,37)         179.6666         estimate D2E/DX2                !
 ! D80   D(26,14,25,17)        179.9361         estimate D2E/DX2                !
 ! D81   D(26,14,25,37)          0.188          estimate D2E/DX2                !
 ! D82   D(8,16,23,13)         -60.7002         estimate D2E/DX2                !
 ! D83   D(8,16,23,34)         176.1089         estimate D2E/DX2                !
 ! D84   D(8,16,23,35)          62.0156         estimate D2E/DX2                !
 ! D85   D(27,16,23,13)        177.9118         estimate D2E/DX2                !
 ! D86   D(27,16,23,34)         54.721          estimate D2E/DX2                !
 ! D87   D(27,16,23,35)        -59.3723         estimate D2E/DX2                !
 ! D88   D(28,16,23,13)         61.7511         estimate D2E/DX2                !
 ! D89   D(28,16,23,34)        -61.4398         estimate D2E/DX2                !
 ! D90   D(28,16,23,35)       -175.5331         estimate D2E/DX2                !
 ! D91   D(8,17,25,14)          -0.3471         estimate D2E/DX2                !
 ! D92   D(8,17,25,37)         179.4016         estimate D2E/DX2                !
 ! D93   D(29,17,25,14)       -179.0894         estimate D2E/DX2                !
 ! D94   D(29,17,25,37)          0.6592         estimate D2E/DX2                !
 ! D95   D(9,18,30,38)         175.0109         estimate D2E/DX2                !
 ! D96   D(9,18,30,39)         -65.0061         estimate D2E/DX2                !
 ! D97   D(9,18,30,40)          56.6692         estimate D2E/DX2                !
 ! D98   D(31,18,30,38)        -54.3579         estimate D2E/DX2                !
 ! D99   D(31,18,30,39)         65.6251         estimate D2E/DX2                !
 ! D100  D(31,18,30,40)       -172.6996         estimate D2E/DX2                !
 ! D101  D(9,18,31,41)        -172.6988         estimate D2E/DX2                !
 ! D102  D(9,18,31,42)          66.6286         estimate D2E/DX2                !
 ! D103  D(9,18,31,43)         -54.0572         estimate D2E/DX2                !
 ! D104  D(30,18,31,41)         56.6267         estimate D2E/DX2                !
 ! D105  D(30,18,31,42)        -64.046          estimate D2E/DX2                !
 ! D106  D(30,18,31,43)        175.2682         estimate D2E/DX2                !
 ! D107  D(12,21,32,24)         -0.328          estimate D2E/DX2                !
 ! D108  D(12,21,32,44)       -179.6963         estimate D2E/DX2                !
 ! D109  D(33,21,32,24)        178.4903         estimate D2E/DX2                !
 ! D110  D(33,21,32,44)         -0.878          estimate D2E/DX2                !
 ! D111  D(13,24,32,21)          1.2116         estimate D2E/DX2                !
 ! D112  D(13,24,32,44)       -179.4172         estimate D2E/DX2                !
 ! D113  D(36,24,32,21)       -179.3286         estimate D2E/DX2                !
 ! D114  D(36,24,32,44)          0.0426         estimate D2E/DX2                !
 --------------------------------------------------------------------------------
 Trust Radius=3.00D-01 FncErr=1.00D-07 GrdErr=1.00D-06 EigMax=2.50D+02 EigMin=1.00D-04
 Number of steps in this run=    251 maximum allowed number of steps=    264.
 GradGradGradGradGradGradGradGradGradGradGradGradGradGradGradGradGradGrad

 Leave Link  103 at Tue Nov 19 13:29:54 2019, MaxMem= 18350080000 cpu:               0.5 elap:               0.0
 (Enter /gpfs/apps/medsci/stacks/noOS/software/gaussian/g16.a03.avx2/g16/l202.exe)
                          Input orientation:                          
 ---------------------------------------------------------------------
 Center     Atomic      Atomic             Coordinates (Angstroms)
 Number     Number       Type             X           Y           Z
 ---------------------------------------------------------------------
      1          7           0       -0.022222   -0.367262    0.672660
      2          6           0        1.333836   -0.621750    0.362627
      3          6           0       -0.354722    0.996891    0.891868
      4          6           0        1.891373   -2.025623    0.371579
      5          1           0        1.997964    0.073983    0.899302
      6          6           0       -1.056754   -1.326842    0.527442
      7          6           0        0.001467    1.603852    2.099013
      8          6           0       -0.978390    1.735217   -0.125922
      9          6           0        3.346751   -1.997675   -0.099866
     10          1           0        1.830175   -2.467529    1.382606
     11          1           0        1.303448   -2.689658   -0.283537
     12          6           0       -1.000861   -2.457964    1.362296
     13          6           0       -2.136966   -1.180586   -0.368402
     14          6           0       -0.275086    2.953228    2.311574
     15          1           0        0.495153    1.002047    2.866247
     16          6           0       -1.290899    1.055628   -1.424544
     17          6           0       -1.265999    3.083103    0.111138
     18          7           0        4.184394   -1.166103    0.741669
     19          1           0        3.365267   -1.583475   -1.118368
     20          1           0        3.736118   -3.038360   -0.169005
     21          6           0       -1.957692   -3.461549    1.296453
     22          1           0       -0.189472   -2.521881    2.088277
     23          6           0       -2.379660   -0.006074   -1.291381
     24          6           0       -3.100332   -2.202099   -0.401863
     25          6           0       -0.916382    3.692768    1.316201
     26          1           0        0.002536    3.425169    3.257787
     27          1           0       -1.623673    1.805238   -2.159213
     28          1           0       -0.365215    0.615719   -1.830814
     29          1           0       -1.755211    3.667498   -0.674105
     30          6           0        5.286949   -0.562245    0.035058
     31          6           0        4.589637   -1.814252    1.960737
     32          6           0       -3.020241   -3.334297    0.400095
     33          1           0       -1.884628   -4.330387    1.955885
     34          1           0       -2.603314   -0.410105   -2.293598
     35          1           0       -3.311356    0.487498   -0.959330
     36          1           0       -3.939302   -2.096325   -1.097203
     37          1           0       -1.141561    4.750448    1.477801
     38          1           0        5.828674    0.123583    0.705854
     39          1           0        6.024898   -1.304065   -0.347638
     40          1           0        4.905704    0.025445   -0.812103
     41          1           0        5.110643   -1.100773    2.618135
     42          1           0        5.272737   -2.679002    1.790830
     43          1           0        3.714469   -2.189008    2.513115
     44          1           0       -3.788354   -4.109341    0.334044
 ---------------------------------------------------------------------
                    Distance matrix (angstroms):
                    1          2          3          4          5
     1  N    0.000000
     2  C    1.414135   0.000000
     3  C    1.421099   2.398192   0.000000
     4  C    2.550031   1.510559   3.801478   0.000000
     5  H    2.080196   1.101422   2.527241   2.167533   0.000000
     6  C    1.418499   2.497847   2.454667   3.033816   3.381108
     7  C    2.433174   3.121466   1.397309   4.441718   2.786720
     8  C    2.443851   3.337718   1.403561   4.756781   3.559419
     9  C    3.821652   2.481712   4.863318   1.530087   2.666333
    10  H    2.889034   2.166474   4.125143   1.105080   2.592493
    11  H    2.839936   2.166724   4.209721   1.102622   3.085316
    12  C    2.409225   3.133980   3.546099   3.087630   3.951970
    13  C    2.493481   3.590706   3.083193   4.182006   4.503184
    14  C    3.711554   4.378069   2.418504   5.765942   3.930817
    15  H    2.637140   3.099713   2.149532   4.164083   2.643599
    16  C    2.834153   3.591213   2.499128   4.779856   4.144938
    17  C    3.710432   4.533026   2.406708   6.011315   4.508820
    18  N    4.282351   2.926717   5.030375   2.476628   2.518559
    19  H    4.020204   2.691649   4.953550   2.141915   2.947487
    20  H    4.687034   3.448709   5.843259   2.172775   3.721443
    21  C    3.702671   4.446419   4.755091   4.211007   5.320238
    22  H    2.583472   2.984767   3.720277   2.742853   3.596811
    23  C    3.089568   4.111551   3.142115   5.008566   4.895824
    24  C    3.741121   4.769045   4.409722   5.054352   5.732905
    25  C    4.206841   4.958614   2.786265   6.440170   4.665064
    26  H    4.589774   5.150909   3.409067   6.450507   4.557920
    27  H    3.912021   4.582227   3.401875   5.782383   5.046584
    28  H    2.711324   3.037974   2.749254   4.113321   3.651250
    29  H    4.593073   5.386527   3.397909   6.841247   5.429114
    30  C    5.350874   3.967108   5.915529   3.712770   3.459642
    31  C    5.002216   3.817886   5.787201   3.138587   3.377698
    32  C    4.226784   5.130039   5.109405   5.083050   6.086704
    33  H    4.563067   5.162458   5.643814   4.698952   5.965682
    34  H    3.932246   4.754101   4.145238   5.469486   5.621451
    35  H    3.769935   4.955382   3.525351   5.929206   5.640424
    36  H    4.633097   5.666697   5.135524   6.013243   6.629283
    37  H    5.300201   6.019279   3.879642   7.505835   5.662208
    38  H    5.871543   4.569124   6.247532   4.498129   3.835912
    39  H    6.203730   4.793338   6.894224   4.257223   4.435096
    40  H    5.161705   3.815376   5.614206   3.833298   3.374347
    41  H    5.537979   4.425048   6.103311   4.033120   3.744758
    42  H    5.884814   4.667654   6.781491   3.724889   4.370113
    43  H    4.546305   3.570478   5.416337   2.817188   3.266789
    44  H    5.319922   6.196849   6.178560   6.050007   7.162485
                    6          7          8          9         10
     6  C    0.000000
     7  C    3.489790   0.000000
     8  C    3.131969   2.434689   0.000000
     9  C    4.498265   5.384885   5.713318   0.000000
    10  H    3.219756   4.520349   5.275108   2.172208   0.000000
    11  H    2.843503   5.079953   4.981079   2.165101   1.761481
    12  C    1.406962   4.248030   4.449502   4.609936   2.831125
    13  C    1.410952   4.291169   3.146904   5.550757   4.523324
    14  C    4.702460   1.393729   2.814174   6.591220   5.888948
    15  H    3.647211   1.092952   3.414959   5.091932   4.002678
    16  C    3.088889   3.792916   1.498640   5.708347   5.480313
    17  C    4.434491   2.783218   1.398468   6.865587   6.481700
    18  N    5.247987   5.197299   5.985375   1.449600   2.765295
    19  H    4.725338   5.641431   5.555720   1.099659   3.064789
    20  H    5.136726   6.375081   6.709358   1.113289   2.523086
    21  C    2.441320   5.490054   5.476181   5.677125   3.917070
    22  H    2.148605   4.130163   4.862916   4.191376   2.140070
    23  C    2.608184   4.444817   2.520704   6.178832   5.561625
    24  C    2.409542   5.510064   4.481209   6.457389   5.250208
    25  C    5.083142   2.412221   2.432194   7.249875   6.745164
    26  H    5.581979   2.158693   3.907383   7.201725   6.448291
    27  H    4.165266   4.562250   2.134377   6.588488   6.536825
    28  H    3.132593   4.068710   2.129769   4.858467   4.965101
    29  H    5.184109   3.877465   2.153524   7.645518   7.397541
    30  C    6.408558   6.073566   6.675232   2.417236   4.170765
    31  C    5.845822   5.723099   6.925013   2.413399   2.894069
    32  C    2.810938   6.033437   5.490521   6.524960   5.024256
    33  H    3.427405   6.228405   6.476630   6.085637   4.195075
    34  H    3.345224   5.489621   3.455663   6.537286   6.115823
    35  H    3.253544   4.644836   2.773824   7.158572   6.375907
    36  H    3.397154   6.279870   4.938735   7.354657   6.290796
    37  H    6.151734   3.404921   3.419089   8.256582   7.806374
    38  H    7.038798   6.171582   7.044525   3.362865   4.812468
    39  H    7.135550   7.122065   7.637567   2.777581   4.684346
    40  H    6.258911   5.917559   6.165771   2.651534   4.526648
    41  H    6.516049   5.804151   7.255964   3.362035   3.762449
    42  H    6.594463   6.798831   7.888971   2.783588   3.473126
    43  H    5.239351   5.323876   6.662356   2.645656   2.214992
    44  H    3.904016   7.079437   6.501256   7.453666   5.946671
                   11         12         13         14         15
    11  H    0.000000
    12  C    2.841177   0.000000
    13  C    3.757785   2.432642   0.000000
    14  C    6.408474   5.541559   5.266620   0.000000
    15  H    4.919671   4.058522   4.706898   2.169801   0.000000
    16  C    4.696776   4.493988   2.613794   4.311768   4.647982
    17  C    6.331082   5.686749   4.378080   2.416753   3.875961
    18  N    3.416448   5.379680   6.418104   6.270602   4.777573
    19  H    2.484287   5.097205   5.567705   6.752655   5.549742
    20  H    2.460202   5.012057   6.163132   7.625100   6.003457
    21  C    3.705026   1.388180   2.829607   6.709024   5.329577
    22  H    2.807572   1.090636   3.409850   5.480329   3.673148
    23  C    4.667189   3.867150   1.513363   5.115465   5.154292
    24  C    4.432267   2.754179   1.404522   6.474732   5.820190
    25  C    6.944218   6.151485   5.298801   1.396047   3.411019
    26  H    7.185016   6.261864   6.240168   1.093216   2.503497
    27  H    5.682454   5.564514   3.519321   4.808794   5.512693
    28  H    4.012981   4.477446   2.916241   4.757252   4.790810
    29  H    7.065506   6.499020   4.872690   3.408112   4.970197
    30  C    4.527214   6.700139   7.460539   6.962565   5.781345
    31  C    4.074572   5.659166   7.146580   6.820373   5.051365
    32  C    4.424613   2.402433   2.451374   7.121980   6.102768
    33  H    4.227391   2.153917   3.922656   7.467810   5.909904
    34  H    4.949697   4.486328   2.125441   6.159567   6.182125
    35  H    5.643353   4.405006   2.123886   5.098782   5.421191
    36  H    5.338588   3.848942   2.148987   7.109446   6.706209
    37  H    8.027176   7.210710   6.290983   2.162396   4.319389
    38  H    5.419492   7.330610   8.142868   6.916727   5.821120
    39  H    4.920982   7.322339   8.162824   8.055169   6.798918
    40  H    4.541741   6.766302   7.158951   6.720852   5.825545
    41  H    5.043708   6.385106   7.839235   6.747961   5.078007
    42  H    4.478657   6.292101   7.862012   7.922849   6.126333
    43  H    3.726249   4.861179   6.599951   6.511510   4.546595
    44  H    5.321969   3.399186   3.434839   8.132254   7.133496
                   16         17         18         19         20
    16  C    0.000000
    17  C    2.543540   0.000000
    18  N    6.293441   6.939748   0.000000
    19  H    5.360829   6.688592   2.074827   0.000000
    20  H    6.603637   7.910244   2.129701   1.776376   0.000000
    21  C    5.315386   6.686993   6.580431   6.139415   5.894585
    22  H    5.133383   6.040185   4.773069   4.878457   4.557667
    23  C    1.526546   3.570758   6.968914   5.960060   6.917892
    24  C    3.864286   5.617945   7.446354   6.534527   6.891343
    25  C    3.821839   1.395027   7.068000   7.217921   8.316230
    26  H    5.404805   3.409925   6.700639   7.452866   8.213388
    27  H    1.101087   2.629708   7.139862   6.120152   7.493246
    28  H    1.102482   3.266584   5.521911   4.388682   5.738888
    29  H    2.756920   1.094282   7.787620   7.347747   8.682071
    30  C    6.929360   7.499032   1.442072   2.462958   2.928799
    31  C    7.367295   7.854526   1.438904   3.321630   2.600526
    32  C    5.058792   6.659120   7.531567   6.793071   6.786740
    33  H    6.386624   7.664570   6.951262   6.675174   6.146322
    34  H    2.150828   4.446759   7.473778   6.195315   7.184011
    35  H    2.149754   3.473694   7.862192   6.992247   7.919797
    36  H    4.129891   5.952572   8.381002   7.322581   7.788521
    37  H    4.700809   2.159466   7.994577   8.195741   9.336448
    38  H    7.489701   7.710177   2.090031   3.508590   3.891279
    39  H    7.762008   8.521438   2.143147   2.783115   2.877187
    40  H    6.311438   6.949213   2.086692   2.248415   3.341917
    41  H    7.872297   8.028164   2.093640   4.152203   3.662200
    42  H    8.207765   8.875713   2.138713   3.647198   2.516205
    43  H    7.147484   7.640007   2.098853   3.698146   2.813474
    44  H    6.000568   7.625170   8.508438   7.724234   7.616938
                   21         22         23         24         25
    21  C    0.000000
    22  H    2.153268   0.000000
    23  C    4.337655   4.748505   0.000000
    24  C    2.403356   3.843978   2.476517   0.000000
    25  C    7.229728   6.304472   4.756269   6.516965   0.000000
    26  H    7.424029   6.063994   6.176019   7.395064   2.164665
    27  H    6.308109   6.230735   2.146043   4.618176   4.017653
    28  H    5.379581   5.023415   2.176144   4.178859   4.435732
    29  H    7.399149   6.956343   3.777049   6.027905   2.159998
    30  C    7.904550   6.168231   7.800363   8.557249   7.630713
    31  C    6.783979   4.832896   7.900435   8.054063   7.814022
    32  C    1.395945   3.394589   3.787942   1.389757   7.392233
    33  H    1.093192   2.482292   5.430421   3.400959   8.106646
    34  H    4.755692   5.430199   1.103495   2.652721   5.719262
    35  H    4.745096   5.300041   1.105409   2.754856   4.603010
    36  H    3.394143   4.938583   2.615213   1.094786   6.962482
    37  H    8.254444   7.359750   5.641432   7.463768   1.093392
    38  H    8.592408   6.717712   8.448817   9.293169   7.655546
    39  H    8.430867   6.784921   8.556403   9.169473   8.713098
    40  H    7.981938   6.392331   7.301180   8.320268   7.202473
    41  H    7.568452   5.512850   8.519819   8.817790   7.810128
    42  H    7.289437   5.472558   8.672009   8.668542   8.895500
    43  H    5.939111   3.941072   7.508515   7.412070   7.581073
    44  H    2.167300   4.306891   4.632842   2.156967   8.371724
                   26         27         28         29         30
    26  H    0.000000
    27  H    5.883249   0.000000
    28  H    5.824269   1.762532   0.000000
    29  H    4.313719   2.385552   3.547312   0.000000
    30  C    7.362776   7.627352   6.067622   8.245341   0.000000
    31  C    7.083457   8.287335   6.695609   8.789145   2.400418
    32  C    7.936874   5.908915   5.256305   7.195786   8.765097
    33  H    8.087335   7.392430   6.411838   8.420200   8.325863
    34  H    7.233095   2.426005   2.505109   4.468656   8.228125
    35  H    6.115216   2.454472   3.075008   3.551808   8.719038
    36  H    8.061695   4.659635   4.546148   6.178262   9.421206
    37  H    2.496732   4.704739   5.352161   2.485970   8.463566
    38  H    7.166360   8.159292   6.711270   8.484040   1.101723
    39  H    8.463663   8.452822   6.835124   9.238675   1.114146
    40  H    7.222408   6.900372   5.400813   7.592851   1.099277
    41  H    6.854638   8.753226   7.261165   8.984164   2.644501
    42  H    8.196822   9.125334   7.467128   9.784990   2.750200
    43  H    6.771408   8.141278   6.586352   8.624061   3.355565
    44  H    8.926811   6.773804   6.223398   8.101189   9.748457
                   31         32         33         34         35
    31  C    0.000000
    32  C    7.915579   0.000000
    33  H    6.946011   2.168478   0.000000
    34  H    8.474051   3.997588   5.826082   0.000000
    35  H    8.732155   4.066805   5.809135   1.757067   0.000000
    36  H    9.064952   2.149221   4.305121   2.461618   2.662605
    37  H    8.727837   8.369826   9.123721   6.556789   5.368460
    38  H    2.620143   9.505457   8.994190   8.965487   9.297603
    39  H    2.765657   9.300295   8.776414   8.889993   9.526253
    40  H    3.342608   8.693555   8.528988   7.666152   8.231357
    41  H    1.101214   8.718922   7.733227   9.171002   9.287138
    42  H    1.115028   8.434278   7.347257   9.157654   9.553887
    43  H    1.100674   7.150724   6.020457   8.135316   8.281532
    44  H    8.837664   1.093185   2.510658   4.689688   4.799091
                   36         37         38         39         40
    36  H    0.000000
    37  H    7.831750   0.000000
    38  H   10.178033   8.401664   0.000000
    39  H   10.023712   9.557588   1.785085   0.000000
    40  H    9.100402   8.008666   1.779241   1.798866   0.000000
    41  H    9.833431   8.638704   2.381477   3.110145   3.616200
    42  H    9.671707   9.820282   3.056259   2.651272   3.771473
    43  H    8.463049   8.532816   3.617200   3.782210   4.168923
    44  H    2.474568   9.317165  10.513949  10.229085   9.695192
                   41         42         43         44
    41  H    0.000000
    42  H    1.789278   0.000000
    43  H    1.773298   1.786054   0.000000
    44  H    9.667507   9.288243   8.045395   0.000000
 Stoichiometry    C19H23N2(2)
 Framework group  C1[X(C19H23N2)]
 Deg. of freedom   126
 Full point group                 C1      NOp   1
 Largest Abelian subgroup         C1      NOp   1
 Largest concise Abelian subgroup C1      NOp   1
                         Standard orientation:                         
 ---------------------------------------------------------------------
 Center     Atomic      Atomic             Coordinates (Angstroms)
 Number     Number       Type             X           Y           Z
 ---------------------------------------------------------------------
      1          7           0        0.218097   -0.001510   -0.195543
      2          6           0       -1.117520    0.005427    0.269060
      3          6           0        0.813730    1.277387   -0.366325
      4          6           0       -1.965459   -1.244360    0.240417
      5          1           0       -1.669432    0.870450   -0.131262
      6          6           0        1.027827   -1.165033   -0.247418
      7          6           0        0.466145    2.052880   -1.475499
      8          6           0        1.693124    1.773267    0.608740
      9          6           0       -3.317703   -0.956411    0.895924
     10          1           0       -2.115433   -1.595168   -0.796715
     11          1           0       -1.467286   -2.073422    0.769808
     12          6           0        0.633568   -2.178576   -1.140073
     13          6           0        2.206994   -1.329816    0.509680
     14          6           0        1.005054    3.328459   -1.633472
     15          1           0       -0.229469    1.639941   -2.210445
     16          6           0        1.992720    0.927825    1.809319
     17          6           0        2.239692    3.047323    0.425005
     18          7           0       -4.042216    0.104912    0.225094
     19          1           0       -3.131562   -0.642171    1.933158
     20          1           0       -3.914616   -1.894782    0.946597
     21          6           0        1.349504   -3.361487   -1.263368
     22          1           0       -0.248047   -2.005223   -1.758287
     23          6           0        2.801661   -0.321052    1.468343
     24          6           0        2.921738   -2.528593    0.352332
     25          6           0        1.899301    3.823888   -0.682777
     26          1           0        0.733294    3.932275   -2.503342
     27          1           0        2.560957    1.521239    2.542366
     28          1           0        1.044615    0.655610    2.301723
     29          1           0        2.929178    3.442600    1.177213
     30          6           0       -4.900452    0.858535    1.105465
     31          6           0       -4.712634   -0.330383   -0.971360
     32          6           0        2.507456   -3.541135   -0.504729
     33          1           0        1.015426   -4.132064   -1.963133
     34          1           0        3.042173   -0.852590    2.404998
     35          1           0        3.775592   -0.004612    1.052107
     36          1           0        3.835808   -2.664149    0.939407
     37          1           0        2.330425    4.821511   -0.802723
     38          1           0       -5.350830    1.700605    0.556037
     39          1           0       -5.735079    0.255314    1.530724
     40          1           0       -4.308008    1.273904    1.933044
     41          1           0       -5.135394    0.533064   -1.508393
     42          1           0       -5.544669   -1.045333   -0.771732
     43          1           0       -4.007625   -0.827542   -1.654938
     44          1           0        3.090338   -4.462145   -0.588655
 ---------------------------------------------------------------------
 Rotational constants (GHZ):           0.3516014           0.2415311           0.1698221
 Leave Link  202 at Tue Nov 19 13:29:54 2019, MaxMem= 18350080000 cpu:               1.1 elap:               0.1
 (Enter /gpfs/apps/medsci/stacks/noOS/software/gaussian/g16.a03.avx2/g16/l301.exe)
 Standard basis: def2SVP (5D, 7F)
 Ernie: Thresh=  0.10000D-02 Tol=  0.10000D-05 Strict=F.
 There are   430 symmetry adapted cartesian basis functions of A   symmetry.
 There are   409 symmetry adapted basis functions of A   symmetry.
   409 basis functions,   686 primitive gaussians,   430 cartesian basis functions
    76 alpha electrons       75 beta electrons
       nuclear repulsion energy      1636.8030446348 Hartrees.
 IExCor= 3731 DFT=T Ex+Corr=APFD ExCW=0 ScaHFX=  0.229450
 ScaDFX=  1.000000  1.000000  1.000000  1.000000 ScalE2=  1.000000  1.000000
 IRadAn=      5 IRanWt=     -1 IRanGd=            0 ICorTp=0 IEmpDi=211
 NAtoms=   44 NActive=   44 NUniq=   44 SFac= 1.00D+00 NAtFMM=   60 NAOKFM=F Big=F
 Integral buffers will be    131072 words long.
 Raffenetti 2 integral format.
 Two-electron integral symmetry is turned on.
 R6APFD:  NTU= -4 IXU= 1 FactS= 1.050
 R6Disp:  Petersson-Frisch Dispersion energy=       -0.0386559095 Hartrees.
 Nuclear repulsion after empirical dispersion term =     1636.7643887253 Hartrees.
 Leave Link  301 at Tue Nov 19 13:29:55 2019, MaxMem= 18350080000 cpu:               3.3 elap:               0.2
 (Enter /gpfs/apps/medsci/stacks/noOS/software/gaussian/g16.a03.avx2/g16/l302.exe)
 NPDir=0 NMtPBC=     1 NCelOv=     1 NCel=       1 NClECP=     1 NCelD=      1
         NCelK=      1 NCelE2=     1 NClLst=     1 CellRange=     0.0.
 One-electron integrals computed using PRISM.
 One-electron integral symmetry used in STVInt
   1 Symmetry operations used in ECPInt.
 ECPInt:  NShTT=   19110 NPrTT=   67870 LenC2=   17298 LenP2D=   42766.
 LDataN:  DoStor=T MaxTD1= 4 Len=   56
 NBasis=   409 RedAO= T EigKep=  2.28D-04  NBF=   409
 NBsUse=   409 1.00D-06 EigRej= -1.00D+00 NBFU=   409
 Precomputing XC quadrature grid using
 IXCGrd= 4 IRadAn=           5 IRanWt=          -1 IRanGd=           0 AccXCQ= 0.00D+00.
 Generated NRdTot=       0 NPtTot=           0 NUsed=           0 NTot=          32
 NSgBfM=   428   428   428   428   428 MxSgAt=    44 MxSgA2=    44.
 Leave Link  302 at Tue Nov 19 13:29:56 2019, MaxMem= 18350080000 cpu:              21.9 elap:               0.7
 (Enter /gpfs/apps/medsci/stacks/noOS/software/gaussian/g16.a03.avx2/g16/l303.exe)
 DipDrv:  MaxL=1.
 Leave Link  303 at Tue Nov 19 13:29:57 2019, MaxMem= 18350080000 cpu:               4.6 elap:               0.2
 (Enter /gpfs/apps/medsci/stacks/noOS/software/gaussian/g16.a03.avx2/g16/l401.exe)
 ExpMin= 1.22D-01 ExpMax= 1.71D+03 ExpMxC= 2.58D+02 IAcc=3 IRadAn=         5 AccDes= 0.00D+00
 Harris functional with IExCor= 3731 and IRadAn=       5 diagonalized for initial guess.
 HarFok:  IExCor= 3731 AccDes= 0.00D+00 IRadAn=         5 IDoV= 1 UseB2=F ITyADJ=14
 ICtDFT=  3500011 ScaDFX=  1.000000  1.000000  1.000000  1.000000
 FoFCou: FMM=F IPFlag=           0 FMFlag=      100000 FMFlg1=           0
         NFxFlg=           0 DoJE=T BraDBF=F KetDBF=T FulRan=T
         wScrn=  0.000000 ICntrl=       500 IOpCl=  0 I1Cent=   200000004 NGrid=           0
         NMat0=    1 NMatS0=      1 NMatT0=    0 NMatD0=    1 NMtDS0=    0 NMtDT0=    0
 Petite list used in FoFCou.
 Harris En= -818.922330635490    
 JPrj=0 DoOrth=F DoCkMO=T.
 Mixing orbitals, IMix= 1 IMixAn=  0 NRI=1 NE=   76 Coef=  7.07106781D-01  7.07106781D-01
 Mixing orbitals, IMix= 1 IMixAn=  0 NRI=1 NE=   75 Coef= -7.07106781D-01  7.07106781D-01
 Initial guess <Sx>= 0.0000 <Sy>= 0.0000 <Sz>= 0.5000 <S**2>= 1.0000 S= 0.6180
 Leave Link  401 at Tue Nov 19 13:29:58 2019, MaxMem= 18350080000 cpu:              39.3 elap:               1.1
 (Enter /gpfs/apps/medsci/stacks/noOS/software/gaussian/g16.a03.avx2/g16/l502.exe)
 Integral symmetry usage will be decided dynamically.
 UHF open shell SCF:
 Using DIIS extrapolation, IDIIS=  1040.
 NGot= 18350080000 LenX= 18349688280 LenY= 18349502939
 Requested convergence on RMS density matrix=1.00D-08 within  32 cycles.
 Requested convergence on MAX density matrix=1.00D-06.
 Requested convergence on             energy=1.00D-06.
 No special actions if energy rises.
 Fock matrices will be formed incrementally for  20 cycles.
 Integral accuracy reduced to 1.0D-05 until final iterations.

 Cycle   1  Pass 0  IDiag  1:
 FoFJK:  IHMeth= 1 ICntrl=       0 DoSepK=F KAlg= 0 I1Cent=           0 FoldK=F
 IRaf= 840000000 NMat=       1 IRICut=       1 DoRegI=T DoRafI=F ISym2E= 0 IDoP0=0 IntGTp=1.
 FoFCou: FMM=F IPFlag=           0 FMFlag=      100000 FMFlg1=           0
         NFxFlg=           0 DoJE=F BraDBF=F KetDBF=F FulRan=T
         wScrn=  0.000000 ICntrl=         0 IOpCl=  1 I1Cent=           0 NGrid=           0
         NMat0=    1 NMatS0=      1 NMatT0=    0 NMatD0=    1 NMtDS0=    0 NMtDT0=    0
 Symmetry not used in FoFCou.
 E= -845.659693260139    
 DIIS: error= 2.44D-02 at cycle   1 NSaved=   1.
 NSaved= 1 IEnMin= 1 EnMin= -845.659693260139     IErMin= 1 ErrMin= 2.44D-02
 ErrMax= 2.44D-02  0.00D+00 EMaxC= 1.00D-01 BMatC= 2.02D+00 BMatP= 2.02D+00
 IDIUse=3 WtCom= 7.56D-01 WtEn= 2.44D-01
 Coeff-Com:  0.100D+01
 Coeff-En:   0.100D+01
 Coeff:      0.100D+01
 Gap=     0.018 Goal=   None    Shift=    0.000
 Gap=     0.047 Goal=   None    Shift=    0.000
 GapD=    0.018 DampG=0.250 DampE=0.500 DampFc=0.2500 IDamp=-1.
 Damping current iteration by 2.50D-01
 RMSDP=4.37D-03 MaxDP=2.60D-01              OVMax= 6.89D-01

 Cycle   2  Pass 0  IDiag  1:
 RMSU=  1.07D-03    CP:  9.86D-01
 E= -845.770045663544     Delta-E=       -0.110352403405 Rises=F Damp=T
 DIIS: error= 1.83D-02 at cycle   2 NSaved=   2.
 NSaved= 2 IEnMin= 2 EnMin= -845.770045663544     IErMin= 2 ErrMin= 1.83D-02
 ErrMax= 1.83D-02  0.00D+00 EMaxC= 1.00D-01 BMatC= 7.92D-01 BMatP= 2.02D+00
 IDIUse=3 WtCom= 8.17D-01 WtEn= 1.83D-01
 Coeff-Com: -0.801D+00 0.180D+01
 Coeff-En:   0.000D+00 0.100D+01
 Coeff:     -0.655D+00 0.165D+01
 Gap=     0.097 Goal=   None    Shift=    0.000
 Gap=     0.179 Goal=   None    Shift=    0.000
 RMSDP=2.57D-03 MaxDP=8.54D-02 DE=-1.10D-01 OVMax= 3.27D-01

 Cycle   3  Pass 0  IDiag  1:
 RMSU=  2.23D-03    CP:  9.55D-01  2.09D+00
 E= -845.962507323928     Delta-E=       -0.192461660384 Rises=F Damp=F
 DIIS: error= 6.94D-03 at cycle   3 NSaved=   3.
 NSaved= 3 IEnMin= 3 EnMin= -845.962507323928     IErMin= 3 ErrMin= 6.94D-03
 ErrMax= 6.94D-03  0.00D+00 EMaxC= 1.00D-01 BMatC= 1.99D-01 BMatP= 7.92D-01
 IDIUse=3 WtCom= 9.31D-01 WtEn= 6.94D-02
 Coeff-Com: -0.511D+00 0.794D+00 0.717D+00
 Coeff-En:   0.000D+00 0.000D+00 0.100D+01
 Coeff:     -0.475D+00 0.739D+00 0.737D+00
 Gap=     0.125 Goal=   None    Shift=    0.000
 Gap=     0.125 Goal=   None    Shift=    0.000
 RMSDP=1.66D-03 MaxDP=6.18D-02 DE=-1.92D-01 OVMax= 2.40D-01

 Cycle   4  Pass 0  IDiag  1:
 RMSU=  1.25D-03    CP:  9.51D-01  2.80D+00  6.54D-01
 E= -845.983773299998     Delta-E=       -0.021265976070 Rises=F Damp=F
 DIIS: error= 5.96D-03 at cycle   4 NSaved=   4.
 NSaved= 4 IEnMin= 4 EnMin= -845.983773299998     IErMin= 4 ErrMin= 5.96D-03
 ErrMax= 5.96D-03  0.00D+00 EMaxC= 1.00D-01 BMatC= 1.55D-01 BMatP= 1.99D-01
 IDIUse=3 WtCom= 9.40D-01 WtEn= 5.96D-02
 Coeff-Com: -0.209D+00 0.289D+00 0.506D+00 0.415D+00
 Coeff-En:   0.000D+00 0.000D+00 0.416D+00 0.584D+00
 Coeff:     -0.196D+00 0.271D+00 0.500D+00 0.425D+00
 Gap=     0.131 Goal=   None    Shift=    0.000
 Gap=     0.179 Goal=   None    Shift=    0.000
 RMSDP=6.95D-04 MaxDP=1.92D-02 DE=-2.13D-02 OVMax= 5.87D-02

 Cycle   5  Pass 0  IDiag  1:
 RMSU=  4.01D-04    CP:  9.48D-01  2.67D+00  8.09D-01  6.60D-01
 E= -846.026860675564     Delta-E=       -0.043087375567 Rises=F Damp=F
 DIIS: error= 8.92D-04 at cycle   5 NSaved=   5.
 NSaved= 5 IEnMin= 5 EnMin= -846.026860675564     IErMin= 5 ErrMin= 8.92D-04
 ErrMax= 8.92D-04  0.00D+00 EMaxC= 1.00D-01 BMatC= 3.25D-03 BMatP= 1.55D-01
 IDIUse=3 WtCom= 9.91D-01 WtEn= 8.92D-03
 Coeff-Com: -0.256D-01 0.353D-01 0.157D+00 0.165D+00 0.668D+00
 Coeff-En:   0.000D+00 0.000D+00 0.000D+00 0.000D+00 0.100D+01
 Coeff:     -0.254D-01 0.349D-01 0.156D+00 0.164D+00 0.671D+00
 Gap=     0.131 Goal=   None    Shift=    0.000
 Gap=     0.184 Goal=   None    Shift=    0.000
 RMSDP=1.41D-04 MaxDP=6.39D-03 DE=-4.31D-02 OVMax= 2.04D-02

 Cycle   6  Pass 0  IDiag  1:
 RMSU=  1.27D-04    CP:  9.47D-01  2.67D+00  8.25D-01  6.99D-01  1.03D+00
 E= -846.027807823008     Delta-E=       -0.000947147443 Rises=F Damp=F
 DIIS: error= 3.16D-04 at cycle   6 NSaved=   6.
 NSaved= 6 IEnMin= 6 EnMin= -846.027807823008     IErMin= 6 ErrMin= 3.16D-04
 ErrMax= 3.16D-04  0.00D+00 EMaxC= 1.00D-01 BMatC= 7.13D-04 BMatP= 3.25D-03
 IDIUse=3 WtCom= 9.97D-01 WtEn= 3.16D-03
 Coeff-Com:  0.433D-01-0.587D-01-0.374D-01-0.252D-01 0.302D+00 0.776D+00
 Coeff-En:   0.000D+00 0.000D+00 0.000D+00 0.000D+00 0.000D+00 0.100D+01
 Coeff:      0.432D-01-0.585D-01-0.373D-01-0.251D-01 0.301D+00 0.776D+00
 Gap=     0.137 Goal=   None    Shift=    0.000
 Gap=     0.186 Goal=   None    Shift=    0.000
 RMSDP=9.53D-05 MaxDP=7.76D-03 DE=-9.47D-04 OVMax= 1.95D-02

 Cycle   7  Pass 0  IDiag  1:
 RMSU=  5.68D-05    CP:  9.47D-01  2.68D+00  8.25D-01  7.24D-01  1.21D+00
                    CP:  1.03D+00
 E= -846.028104371186     Delta-E=       -0.000296548178 Rises=F Damp=F
 DIIS: error= 1.63D-04 at cycle   7 NSaved=   7.
 NSaved= 7 IEnMin= 7 EnMin= -846.028104371186     IErMin= 7 ErrMin= 1.63D-04
 ErrMax= 1.63D-04  0.00D+00 EMaxC= 1.00D-01 BMatC= 9.23D-05 BMatP= 7.13D-04
 IDIUse=3 WtCom= 9.98D-01 WtEn= 1.63D-03
 Coeff-Com:  0.172D-01-0.233D-01-0.263D-01-0.272D-01 0.203D-01 0.292D+00
 Coeff-Com:  0.747D+00
 Coeff-En:   0.000D+00 0.000D+00 0.000D+00 0.000D+00 0.000D+00 0.000D+00
 Coeff-En:   0.100D+01
 Coeff:      0.172D-01-0.233D-01-0.262D-01-0.271D-01 0.203D-01 0.291D+00
 Coeff:      0.748D+00
 Gap=     0.137 Goal=   None    Shift=    0.000
 Gap=     0.187 Goal=   None    Shift=    0.000
 RMSDP=3.38D-05 MaxDP=1.50D-03 DE=-2.97D-04 OVMax= 5.05D-03

 Cycle   8  Pass 0  IDiag  1:
 RMSU=  2.48D-05    CP:  9.47D-01  2.68D+00  8.26D-01  7.32D-01  1.24D+00
                    CP:  1.15D+00  9.46D-01
 E= -846.028132670927     Delta-E=       -0.000028299742 Rises=F Damp=F
 DIIS: error= 1.08D-04 at cycle   8 NSaved=   8.
 NSaved= 8 IEnMin= 8 EnMin= -846.028132670927     IErMin= 8 ErrMin= 1.08D-04
 ErrMax= 1.08D-04  0.00D+00 EMaxC= 1.00D-01 BMatC= 4.85D-05 BMatP= 9.23D-05
 IDIUse=3 WtCom= 9.99D-01 WtEn= 1.08D-03
 Coeff-Com:  0.588D-03-0.664D-03-0.573D-02-0.999D-02-0.559D-01-0.587D-03
 Coeff-Com:  0.486D+00 0.586D+00
 Coeff-En:   0.000D+00 0.000D+00 0.000D+00 0.000D+00 0.000D+00 0.000D+00
 Coeff-En:   0.612D-01 0.939D+00
 Coeff:      0.588D-03-0.663D-03-0.572D-02-0.998D-02-0.558D-01-0.587D-03
 Coeff:      0.485D+00 0.587D+00
 Gap=     0.137 Goal=   None    Shift=    0.000
 Gap=     0.187 Goal=   None    Shift=    0.000
 RMSDP=1.61D-05 MaxDP=7.14D-04 DE=-2.83D-05 OVMax= 1.75D-03

 Cycle   9  Pass 0  IDiag  1:
 RMSU=  9.02D-06    CP:  9.47D-01  2.68D+00  8.26D-01  7.32D-01  1.25D+00
                    CP:  1.18D+00  1.09D+00  6.71D-01
 E= -846.028147467463     Delta-E=       -0.000014796535 Rises=F Damp=F
 DIIS: error= 3.58D-05 at cycle   9 NSaved=   9.
 NSaved= 9 IEnMin= 9 EnMin= -846.028147467463     IErMin= 9 ErrMin= 3.58D-05
 ErrMax= 3.58D-05  0.00D+00 EMaxC= 1.00D-01 BMatC= 4.38D-06 BMatP= 4.85D-05
 IDIUse=1 WtCom= 1.00D+00 WtEn= 0.00D+00
 Coeff-Com: -0.180D-02 0.252D-02 0.927D-03-0.114D-02-0.296D-01-0.416D-01
 Coeff-Com:  0.143D+00 0.280D+00 0.648D+00
 Coeff:     -0.180D-02 0.252D-02 0.927D-03-0.114D-02-0.296D-01-0.416D-01
 Coeff:      0.143D+00 0.280D+00 0.648D+00
 Gap=     0.137 Goal=   None    Shift=    0.000
 Gap=     0.187 Goal=   None    Shift=    0.000
 RMSDP=5.70D-06 MaxDP=3.60D-04 DE=-1.48D-05 OVMax= 5.30D-04

 Initial convergence to 1.0D-05 achieved.  Increase integral accuracy.
 Cycle  10  Pass 1  IDiag  1:
 E= -846.028150667206     Delta-E=       -0.000003199744 Rises=F Damp=F
 DIIS: error= 1.22D-04 at cycle   1 NSaved=   1.
 NSaved= 1 IEnMin= 1 EnMin= -846.028150667206     IErMin= 1 ErrMin= 1.22D-04
 ErrMax= 1.22D-04  0.00D+00 EMaxC= 1.00D-01 BMatC= 1.43D-05 BMatP= 1.43D-05
 IDIUse=3 WtCom= 9.99D-01 WtEn= 1.22D-03
 Coeff-Com:  0.100D+01
 Coeff-En:   0.100D+01
 Coeff:      0.100D+01
 Gap=     0.137 Goal=   None    Shift=    0.000
 Gap=     0.187 Goal=   None    Shift=    0.000
 RMSDP=5.70D-06 MaxDP=3.60D-04 DE=-3.20D-06 OVMax= 4.97D-04

 Cycle  11  Pass 1  IDiag  1:
 RMSU=  1.17D-04    CP:  1.00D+00
 E= -846.028153922854     Delta-E=       -0.000003255648 Rises=F Damp=F
 DIIS: error= 2.84D-05 at cycle   2 NSaved=   2.
 NSaved= 2 IEnMin= 2 EnMin= -846.028153922854     IErMin= 2 ErrMin= 2.84D-05
 ErrMax= 2.84D-05  0.00D+00 EMaxC= 1.00D-01 BMatC= 2.43D-06 BMatP= 1.43D-05
 IDIUse=1 WtCom= 1.00D+00 WtEn= 0.00D+00
 Coeff-Com:  0.189D+00 0.811D+00
 Coeff:      0.189D+00 0.811D+00
 Gap=     0.137 Goal=   None    Shift=    0.000
 Gap=     0.187 Goal=   None    Shift=    0.000
 RMSDP=5.86D-06 MaxDP=2.11D-04 DE=-3.26D-06 OVMax= 5.66D-04

 Cycle  12  Pass 1  IDiag  1:
 RMSU=  5.70D-06    CP:  1.00D+00  1.01D+00
 E= -846.028153549879     Delta-E=        0.000000372976 Rises=F Damp=F
 DIIS: error= 3.76D-05 at cycle   3 NSaved=   3.
 NSaved= 3 IEnMin= 2 EnMin= -846.028153922854     IErMin= 2 ErrMin= 2.84D-05
 ErrMax= 3.76D-05  0.00D+00 EMaxC= 1.00D-01 BMatC= 3.76D-06 BMatP= 2.43D-06
 IDIUse=1 WtCom= 1.00D+00 WtEn= 0.00D+00
 Coeff-Com: -0.379D-02 0.557D+00 0.447D+00
 Coeff:     -0.379D-02 0.557D+00 0.447D+00
 Gap=     0.137 Goal=   None    Shift=    0.000
 Gap=     0.187 Goal=   None    Shift=    0.000
 RMSDP=3.29D-06 MaxDP=1.11D-04 DE= 3.73D-07 OVMax= 3.36D-04

 Cycle  13  Pass 1  IDiag  1:
 RMSU=  1.07D-06    CP:  1.00D+00  1.02D+00  4.59D-01
 E= -846.028154629531     Delta-E=       -0.000001079652 Rises=F Damp=F
 DIIS: error= 3.93D-06 at cycle   4 NSaved=   4.
 NSaved= 4 IEnMin= 4 EnMin= -846.028154629531     IErMin= 4 ErrMin= 3.93D-06
 ErrMax= 3.93D-06  0.00D+00 EMaxC= 1.00D-01 BMatC= 7.84D-08 BMatP= 2.43D-06
 IDIUse=1 WtCom= 1.00D+00 WtEn= 0.00D+00
 Coeff-Com: -0.678D-02 0.287D+00 0.249D+00 0.471D+00
 Coeff:     -0.678D-02 0.287D+00 0.249D+00 0.471D+00
 Gap=     0.137 Goal=   None    Shift=    0.000
 Gap=     0.187 Goal=   None    Shift=    0.000
 RMSDP=5.89D-07 MaxDP=2.34D-05 DE=-1.08D-06 OVMax= 5.65D-05

 Cycle  14  Pass 1  IDiag  1:
 RMSU=  4.72D-07    CP:  1.00D+00  1.02D+00  4.81D-01  6.95D-01
 E= -846.028154654835     Delta-E=       -0.000000025304 Rises=F Damp=F
 DIIS: error= 1.72D-06 at cycle   5 NSaved=   5.
 NSaved= 5 IEnMin= 5 EnMin= -846.028154654835     IErMin= 5 ErrMin= 1.72D-06
 ErrMax= 1.72D-06  0.00D+00 EMaxC= 1.00D-01 BMatC= 7.50D-09 BMatP= 7.84D-08
 IDIUse=1 WtCom= 1.00D+00 WtEn= 0.00D+00
 Coeff-Com:  0.116D-02-0.169D+00-0.131D+00 0.251D-01 0.127D+01
 Coeff:      0.116D-02-0.169D+00-0.131D+00 0.251D-01 0.127D+01
 Gap=     0.137 Goal=   None    Shift=    0.000
 Gap=     0.187 Goal=   None    Shift=    0.000
 RMSDP=4.30D-07 MaxDP=2.31D-05 DE=-2.53D-08 OVMax= 5.35D-05

 Cycle  15  Pass 1  IDiag  1:
 RMSU=  2.50D-07    CP:  1.00D+00  1.02D+00  4.92D-01  9.56D-01  1.42D+00
 E= -846.028154663945     Delta-E=       -0.000000009110 Rises=F Damp=F
 DIIS: error= 1.10D-06 at cycle   6 NSaved=   6.
 NSaved= 6 IEnMin= 6 EnMin= -846.028154663945     IErMin= 6 ErrMin= 1.10D-06
 ErrMax= 1.10D-06  0.00D+00 EMaxC= 1.00D-01 BMatC= 3.41D-09 BMatP= 7.50D-09
 IDIUse=1 WtCom= 1.00D+00 WtEn= 0.00D+00
 Coeff-Com:  0.241D-02-0.174D+00-0.141D+00-0.102D+00 0.750D+00 0.664D+00
 Coeff:      0.241D-02-0.174D+00-0.141D+00-0.102D+00 0.750D+00 0.664D+00
 Gap=     0.137 Goal=   None    Shift=    0.000
 Gap=     0.187 Goal=   None    Shift=    0.000
 RMSDP=2.08D-07 MaxDP=1.01D-05 DE=-9.11D-09 OVMax= 2.78D-05

 Cycle  16  Pass 1  IDiag  1:
 RMSU=  1.26D-07    CP:  1.00D+00  1.02D+00  4.97D-01  1.05D+00  1.70D+00
                    CP:  1.09D+00
 E= -846.028154666570     Delta-E=       -0.000000002625 Rises=F Damp=F
 DIIS: error= 6.35D-07 at cycle   7 NSaved=   7.
 NSaved= 7 IEnMin= 7 EnMin= -846.028154666570     IErMin= 7 ErrMin= 6.35D-07
 ErrMax= 6.35D-07  0.00D+00 EMaxC= 1.00D-01 BMatC= 4.34D-10 BMatP= 3.41D-09
 IDIUse=1 WtCom= 1.00D+00 WtEn= 0.00D+00
 Coeff-Com: -0.504D-05 0.116D-01 0.838D-02-0.108D-01-0.113D+00 0.565D-01
 Coeff-Com:  0.105D+01
 Coeff:     -0.504D-05 0.116D-01 0.838D-02-0.108D-01-0.113D+00 0.565D-01
 Coeff:      0.105D+01
 Gap=     0.137 Goal=   None    Shift=    0.000
 Gap=     0.187 Goal=   None    Shift=    0.000
 RMSDP=1.05D-07 MaxDP=5.10D-06 DE=-2.62D-09 OVMax= 1.64D-05

 Cycle  17  Pass 1  IDiag  1:
 RMSU=  6.71D-08    CP:  1.00D+00  1.02D+00  4.97D-01  1.06D+00  1.78D+00
                    CP:  1.32D+00  1.31D+00
 E= -846.028154667306     Delta-E=       -0.000000000736 Rises=F Damp=F
 DIIS: error= 4.27D-07 at cycle   8 NSaved=   8.
 NSaved= 8 IEnMin= 8 EnMin= -846.028154667306     IErMin= 8 ErrMin= 4.27D-07
 ErrMax= 4.27D-07  0.00D+00 EMaxC= 1.00D-01 BMatC= 3.34D-10 BMatP= 4.34D-10
 IDIUse=1 WtCom= 1.00D+00 WtEn= 0.00D+00
 Coeff-Com: -0.149D-02 0.116D+00 0.932D-01 0.514D-01-0.563D+00-0.374D+00
 Coeff-Com:  0.804D+00 0.873D+00
 Coeff:     -0.149D-02 0.116D+00 0.932D-01 0.514D-01-0.563D+00-0.374D+00
 Coeff:      0.804D+00 0.873D+00
 Gap=     0.137 Goal=   None    Shift=    0.000
 Gap=     0.187 Goal=   None    Shift=    0.000
 RMSDP=1.13D-07 MaxDP=5.77D-06 DE=-7.36D-10 OVMax= 1.88D-05

 Cycle  18  Pass 1  IDiag  1:
 RMSU=  4.65D-08    CP:  1.00D+00  1.02D+00  4.98D-01  1.09D+00  1.87D+00
                    CP:  1.54D+00  1.76D+00  1.51D+00
 E= -846.028154667793     Delta-E=       -0.000000000487 Rises=F Damp=F
 DIIS: error= 2.20D-07 at cycle   9 NSaved=   9.
 NSaved= 9 IEnMin= 9 EnMin= -846.028154667793     IErMin= 9 ErrMin= 2.20D-07
 ErrMax= 2.20D-07  0.00D+00 EMaxC= 1.00D-01 BMatC= 7.20D-11 BMatP= 3.34D-10
 IDIUse=1 WtCom= 1.00D+00 WtEn= 0.00D+00
 Coeff-Com: -0.747D-03 0.552D-01 0.444D-01 0.294D-01-0.245D+00-0.205D+00
 Coeff-Com:  0.779D-01 0.455D+00 0.790D+00
 Coeff:     -0.747D-03 0.552D-01 0.444D-01 0.294D-01-0.245D+00-0.205D+00
 Coeff:      0.779D-01 0.455D+00 0.790D+00
 Gap=     0.137 Goal=   None    Shift=    0.000
 Gap=     0.187 Goal=   None    Shift=    0.000
 RMSDP=5.00D-08 MaxDP=2.54D-06 DE=-4.87D-10 OVMax= 8.41D-06

 Cycle  19  Pass 1  IDiag  1:
 RMSU=  2.06D-08    CP:  1.00D+00  1.02D+00  4.98D-01  1.10D+00  1.91D+00
                    CP:  1.64D+00  1.90D+00  1.94D+00  1.19D+00
 E= -846.028154667849     Delta-E=       -0.000000000055 Rises=F Damp=F
 DIIS: error= 1.23D-07 at cycle  10 NSaved=  10.
 NSaved=10 IEnMin=10 EnMin= -846.028154667849     IErMin=10 ErrMin= 1.23D-07
 ErrMax= 1.23D-07  0.00D+00 EMaxC= 1.00D-01 BMatC= 3.64D-11 BMatP= 7.20D-11
 IDIUse=1 WtCom= 1.00D+00 WtEn= 0.00D+00
 Coeff-Com: -0.181D-03 0.120D-01 0.971D-02 0.873D-02-0.417D-01-0.574D-01
 Coeff-Com: -0.138D+00 0.120D+00 0.566D+00 0.521D+00
 Coeff:     -0.181D-03 0.120D-01 0.971D-02 0.873D-02-0.417D-01-0.574D-01
 Coeff:     -0.138D+00 0.120D+00 0.566D+00 0.521D+00
 Gap=     0.137 Goal=   None    Shift=    0.000
 Gap=     0.187 Goal=   None    Shift=    0.000
 RMSDP=1.84D-08 MaxDP=8.62D-07 DE=-5.55D-11 OVMax= 2.78D-06

 Cycle  20  Pass 1  IDiag  1:
 RMSU=  8.20D-09    CP:  1.00D+00  1.02D+00  4.98D-01  1.10D+00  1.92D+00
                    CP:  1.65D+00  1.97D+00  2.04D+00  1.34D+00  6.61D-01
 E= -846.028154667877     Delta-E=       -0.000000000028 Rises=F Damp=F
 DIIS: error= 2.40D-08 at cycle  11 NSaved=  11.
 NSaved=11 IEnMin=11 EnMin= -846.028154667877     IErMin=11 ErrMin= 2.40D-08
 ErrMax= 2.40D-08  0.00D+00 EMaxC= 1.00D-01 BMatC= 1.98D-12 BMatP= 3.64D-11
 IDIUse=1 WtCom= 1.00D+00 WtEn= 0.00D+00
 Coeff-Com:  0.565D-04-0.483D-02-0.383D-02-0.175D-02 0.259D-01 0.134D-01
 Coeff-Com: -0.746D-01-0.251D-01 0.890D-01 0.227D+00 0.755D+00
 Coeff:      0.565D-04-0.483D-02-0.383D-02-0.175D-02 0.259D-01 0.134D-01
 Coeff:     -0.746D-01-0.251D-01 0.890D-01 0.227D+00 0.755D+00
 Gap=     0.137 Goal=   None    Shift=    0.000
 Gap=     0.187 Goal=   None    Shift=    0.000
 RMSDP=4.89D-09 MaxDP=1.83D-07 DE=-2.82D-11 OVMax= 6.62D-07

 SCF Done:  E(UAPFD) =  -846.028154668     A.U. after   20 cycles
            NFock= 20  Conv=0.49D-08     -V/T= 2.0113
 <Sx>= 0.0000 <Sy>= 0.0000 <Sz>= 0.5000 <S**2>= 0.7545 S= 0.5023
 <L.S>=  0.00000000000    
 KE= 8.365594267266D+02 PE=-5.231939672861D+03 EE= 1.912587702741D+03
 Annihilation of the first spin contaminant:
 S**2 before annihilation     0.7545,   after     0.7500
 Leave Link  502 at Tue Nov 19 13:30:41 2019, MaxMem= 18350080000 cpu:            1716.6 elap:              43.2
 (Enter /gpfs/apps/medsci/stacks/noOS/software/gaussian/g16.a03.avx2/g16/l508.exe)
 QCSCF skips out because SCF is already converged.
 Leave Link  508 at Tue Nov 19 13:30:41 2019, MaxMem= 18350080000 cpu:               0.9 elap:               0.1
 (Enter /gpfs/apps/medsci/stacks/noOS/software/gaussian/g16.a03.avx2/g16/l601.exe)
 Copying SCF densities to generalized density rwf, IOpCl= 1 IROHF=0.

 **********************************************************************

            Population analysis using the SCF density.

 **********************************************************************

 Orbital symmetries:
 Alpha Orbitals:
       Occupied  (A) (A) (A) (A) (A) (A) (A) (A) (A) (A) (A) (A)
                 (A) (A) (A) (A) (A) (A) (A) (A) (A) (A) (A) (A)
                 (A) (A) (A) (A) (A) (A) (A) (A) (A) (A) (A) (A)
                 (A) (A) (A) (A) (A) (A) (A) (A) (A) (A) (A) (A)
                 (A) (A) (A) (A) (A) (A) (A) (A) (A) (A) (A) (A)
                 (A) (A) (A) (A) (A) (A) (A) (A) (A) (A) (A) (A)
                 (A) (A) (A) (A)
       Virtual   (A) (A) (A) (A) (A) (A) (A) (A) (A) (A) (A) (A)
                 (A) (A) (A) (A) (A) (A) (A) (A) (A) (A) (A) (A)
                 (A) (A) (A) (A) (A) (A) (A) (A) (A) (A) (A) (A)
                 (A) (A) (A) (A) (A) (A) (A) (A) (A) (A) (A) (A)
                 (A) (A) (A) (A) (A) (A) (A) (A) (A) (A) (A) (A)
                 (A) (A) (A) (A) (A) (A) (A) (A) (A) (A) (A) (A)
                 (A) (A) (A) (A) (A) (A) (A) (A) (A) (A) (A) (A)
                 (A) (A) (A) (A) (A) (A) (A) (A) (A) (A) (A) (A)
                 (A) (A) (A) (A) (A) (A) (A) (A) (A) (A) (A) (A)
                 (A) (A) (A) (A) (A) (A) (A) (A) (A) (A) (A) (A)
                 (A) (A) (A) (A) (A) (A) (A) (A) (A) (A) (A) (A)
                 (A) (A) (A) (A) (A) (A) (A) (A) (A) (A) (A) (A)
                 (A) (A) (A) (A) (A) (A) (A) (A) (A) (A) (A) (A)
                 (A) (A) (A) (A) (A) (A) (A) (A) (A) (A) (A) (A)
                 (A) (A) (A) (A) (A) (A) (A) (A) (A) (A) (A) (A)
                 (A) (A) (A) (A) (A) (A) (A) (A) (A) (A) (A) (A)
                 (A) (A) (A) (A) (A) (A) (A) (A) (A) (A) (A) (A)
                 (A) (A) (A) (A) (A) (A) (A) (A) (A) (A) (A) (A)
                 (A) (A) (A) (A) (A) (A) (A) (A) (A) (A) (A) (A)
                 (A) (A) (A) (A) (A) (A) (A) (A) (A) (A) (A) (A)
                 (A) (A) (A) (A) (A) (A) (A) (A) (A) (A) (A) (A)
                 (A) (A) (A) (A) (A) (A) (A) (A) (A) (A) (A) (A)
                 (A) (A) (A) (A) (A) (A) (A) (A) (A) (A) (A) (A)
                 (A) (A) (A) (A) (A) (A) (A) (A) (A) (A) (A) (A)
                 (A) (A) (A) (A) (A) (A) (A) (A) (A) (A) (A) (A)
                 (A) (A) (A) (A) (A) (A) (A) (A) (A) (A) (A) (A)
                 (A) (A) (A) (A) (A) (A) (A) (A) (A) (A) (A) (A)
                 (A) (A) (A) (A) (A) (A) (A) (A) (A)
 Beta  Orbitals:
       Occupied  (A) (A) (A) (A) (A) (A) (A) (A) (A) (A) (A) (A)
                 (A) (A) (A) (A) (A) (A) (A) (A) (A) (A) (A) (A)
                 (A) (A) (A) (A) (A) (A) (A) (A) (A) (A) (A) (A)
                 (A) (A) (A) (A) (A) (A) (A) (A) (A) (A) (A) (A)
                 (A) (A) (A) (A) (A) (A) (A) (A) (A) (A) (A) (A)
                 (A) (A) (A) (A) (A) (A) (A) (A) (A) (A) (A) (A)
                 (A) (A) (A)
       Virtual   (A) (A) (A) (A) (A) (A) (A) (A) (A) (A) (A) (A)
                 (A) (A) (A) (A) (A) (A) (A) (A) (A) (A) (A) (A)
                 (A) (A) (A) (A) (A) (A) (A) (A) (A) (A) (A) (A)
                 (A) (A) (A) (A) (A) (A) (A) (A) (A) (A) (A) (A)
                 (A) (A) (A) (A) (A) (A) (A) (A) (A) (A) (A) (A)
                 (A) (A) (A) (A) (A) (A) (A) (A) (A) (A) (A) (A)
                 (A) (A) (A) (A) (A) (A) (A) (A) (A) (A) (A) (A)
                 (A) (A) (A) (A) (A) (A) (A) (A) (A) (A) (A) (A)
                 (A) (A) (A) (A) (A) (A) (A) (A) (A) (A) (A) (A)
                 (A) (A) (A) (A) (A) (A) (A) (A) (A) (A) (A) (A)
                 (A) (A) (A) (A) (A) (A) (A) (A) (A) (A) (A) (A)
                 (A) (A) (A) (A) (A) (A) (A) (A) (A) (A) (A) (A)
                 (A) (A) (A) (A) (A) (A) (A) (A) (A) (A) (A) (A)
                 (A) (A) (A) (A) (A) (A) (A) (A) (A) (A) (A) (A)
                 (A) (A) (A) (A) (A) (A) (A) (A) (A) (A) (A) (A)
                 (A) (A) (A) (A) (A) (A) (A) (A) (A) (A) (A) (A)
                 (A) (A) (A) (A) (A) (A) (A) (A) (A) (A) (A) (A)
                 (A) (A) (A) (A) (A) (A) (A) (A) (A) (A) (A) (A)
                 (A) (A) (A) (A) (A) (A) (A) (A) (A) (A) (A) (A)
                 (A) (A) (A) (A) (A) (A) (A) (A) (A) (A) (A) (A)
                 (A) (A) (A) (A) (A) (A) (A) (A) (A) (A) (A) (A)
                 (A) (A) (A) (A) (A) (A) (A) (A) (A) (A) (A) (A)
[...]
 79,0.00000215,0.00000577,-0.00000253,-0.00000146,-0.00187706,0.0145202
 6,-0.01328122,0.00166205,-0.00825813,0.00865975,0.02757217,-0.14518859
 ,0.20871056,-0.00017390,0.00017344,0.00003692,0.00023260,-0.00019657,-
 0.00000742,0.00002237,-0.00021887,-0.00004257,0.00008078,-0.00031621,-
 0.00024403,-0.00004944,0.00001070,-0.00006951,0.00003832,0.00007380,-0
 .00001050,-0.00000338,0.00007548,-0.00001978,-0.00002529,0.00003246,-0
 .00000378,0.00112184,0.00022663,0.00060696,0.00016803,0.00046649,-0.00
 009460,-0.00006959,0.00015918,-0.00013157,0.00000140,-0.00002172,0.000
 05092,-0.00001611,-0.00002522,0.00000851,0.00001742,-0.00001342,0.0000
 1081,-0.00002269,-0.00001711,-0.00001100,0.00001549,-0.00000684,-0.000
 00107,0.00000137,-0.00000611,0.00000865,-0.00394687,-0.00016150,-0.002
 55714,0.00016495,-0.00012953,-0.00025134,-0.00009524,-0.00028247,-0.00
 029625,0.00000456,0.00004164,-0.00000581,0.00003903,-0.00000790,-0.000
 04853,-0.00000648,-0.00000938,0.00000894,0.00000151,0.00001589,-0.0000
 0458,-0.00000664,0.00002359,-0.00000014,-0.00000914,0.00001562,0.00000
 817,-0.00000412,0.00000828,0.00000082,-0.00000061,-0.00000196,0.000016
 05,0.00000024,0.00000325,0.00000014,0.00066696,0.00019344,0.00232751,-
 0.13965957,-0.07339948,-0.10770765,-0.00001895,-0.00001808,-0.00000207
 ,0.00000307,-0.00000544,0.00000020,0.00000372,0.00000414,-0.00000396,-
 0.00000473,0.00000693,-0.00000366,-0.00000432,-0.00000121,-0.00000446,
 0.00000051,0.00000231,0.00000136,0.00042387,-0.00013270,-0.00018610,-0
 .00002156,-0.00011131,-0.00012654,0.00011946,0.00031237,0.00021028,0.1
 4648508,-0.00006647,0.00002585,-0.00002839,0.00001321,0.00009762,0.000
 01068,0.00000531,-0.00004470,-0.00000213,-0.00026603,-0.00035797,-0.00
 001544,-0.00002237,0.00000382,0.00003335,0.00001647,0.00002346,0.00000
 284,0.00000068,0.00000819,0.00000771,-0.00000217,0.00000879,0.00000158
 ,-0.00046170,-0.00187935,0.00346637,0.00015774,0.00023613,-0.00020455,
 0.00000819,0.00007679,-0.00008942,0.00000747,-0.00000887,0.00001240,-0
 .00000997,-0.00001063,0.00000110,-0.00000243,-0.00000592,-0.00000290,0
 .00000584,0.00000049,-0.00000873,-0.00000187,0.00000248,0.00000405,-0.
 00000183,-0.00000005,-0.00000127,0.01481249,0.00931699,0.01768263,0.00
 053342,0.00053627,0.00085886,0.00012411,0.00020106,0.00058016,-0.00000
 069,0.00001225,-0.00000076,0.00000757,-0.00000576,-0.00001219,-0.00000
 096,-0.00000476,0.00000076,0.00000155,0.00000770,-0.00000270,-0.000001
 90,0.00000416,-0.00000036,0.00000170,0.00000091,0.00000046,-0.00000155
 ,0.00000332,-0.00000216,-0.00000087,-0.00000322,0.00000311,-0.00000131
 ,0.00000155,-0.00000159,0.00112080,0.00099303,0.00115516,-0.07742093,-
 0.10716426,-0.08832883,-0.00000507,-0.00000460,0.00000221,0.00000487,-
 0.00000101,-0.00000291,-0.00000081,-0.00000018,-0.00000301,0.00000007,
 0.00000488,-0.00000164,-0.00000228,-0.00000005,-0.00000240,-0.00000027
 ,0.00000229,-0.00000063,-0.00027104,0.00001359,-0.00029199,-0.00029990
 ,-0.00044580,-0.00023143,0.00039515,0.00015740,0.00001588,0.07857824,0
 .11143108,-0.00007958,0.00005974,0.00003403,-0.00001802,-0.00012018,0.
 00005002,-0.00000066,-0.00008837,-0.00002751,0.00064301,0.00036191,0.0
 0025880,0.00006720,-0.00003018,-0.00004902,0.00003895,0.00007064,-0.00
 000520,0.00000582,0.00002133,-0.00000217,-0.00001441,0.00001380,-0.000
 00456,0.00231844,0.00425839,-0.00344937,-0.00008743,-0.00030501,0.0002
 1287,-0.00004238,-0.00013442,0.00016845,-0.00002369,-0.00001756,0.0000
 0259,-0.00001774,-0.00001777,0.00000700,0.00000592,-0.00000446,-0.0000
 0022,-0.00000369,-0.00000733,-0.00000347,0.00001424,-0.00000602,-0.000
 00221,0.00000129,-0.00000291,0.00000226,-0.01847894,-0.00846722,-0.023
 45296,-0.00107820,-0.00040377,-0.00109687,0.00009285,-0.00011552,0.000
 13894,0.00000787,0.00001237,0.00000450,-0.00001372,0.00000564,-0.00001
 071,-0.00000065,0.00000003,0.00000447,0.00000546,0.00001038,-0.0000010
 4,-0.00000168,0.00001122,0.00000002,-0.00000359,0.00000413,0.00000524,
 -0.00000397,0.00000386,0.00000007,0.00000061,0.00000045,0.00000874,-0.
 00000069,0.00000129,-0.00000129,-0.00236952,-0.00165946,0.00044197,-0.
 10357862,-0.08124682,-0.16474784,-0.00000833,-0.00000945,0.00000146,-0
 .00000124,-0.00000378,0.00000059,0.00000291,0.00000002,-0.00000132,-0.
 00000358,0.00000156,0.00000039,-0.00000141,-0.00000109,-0.00000242,-0.
 00000123,0.00000269,0.00000062,0.00100725,0.00087069,-0.00001760,0.000
 34336,-0.00011576,-0.00016633,0.00013191,0.00001660,0.00049994,0.11785
 266,0.08428445,0.18572922,-0.00021011,-0.00009206,-0.00005650,0.000093
 20,-0.00012633,-0.00030296,0.00000777,-0.00007220,-0.00004452,-0.00017
 673,0.00029834,0.00002534,0.00022082,-0.00019597,0.00014497,0.00011994
 ,0.00018230,0.00001189,0.00001141,0.00000569,0.00002798,-0.00000255,0.
 00001872,0.00000957,0.00104558,0.00171560,0.00198313,-0.00016691,-0.00
 005560,0.00028775,-0.00001539,-0.00004029,0.00001783,0.00002975,-0.000
 09086,0.00003401,-0.00006044,-0.00002723,-0.00000840,-0.00000588,-0.00
 001530,-0.00001337,0.00001277,-0.00000925,-0.00001648,0.00000589,0.000
 00007,0.00000799,-0.00000764,0.00000088,-0.00000290,-0.00058712,0.0056
 9345,-0.00518283,0.00007055,-0.00029167,-0.00015510,-0.00018617,-0.000
 62847,-0.00054107,0.00002010,0.00002753,-0.00002434,0.00004074,0.00003
 747,0.00000637,0.00000111,-0.00000015,0.00000320,0.00001453,0.00002104
 ,-0.00000597,-0.00000469,0.00001099,-0.00000442,0.00000077,0.00000098,
 0.00000257,-0.00000420,0.00000358,-0.00000403,0.00000272,0.00000047,0.
 00000653,-0.00000223,0.00000401,-0.00000302,0.00142021,-0.00240478,-0.
 00094126,-0.08805141,0.08005874,0.02654211,-0.00003457,-0.00004161,-0.
 00000293,-0.00001111,-0.00000615,0.00001413,-0.00000494,-0.00000286,-0
 .00000686,0.00000004,0.00000532,-0.00000068,-0.00000453,-0.00000131,-0
 .00000314,-0.00000074,0.00000464,-0.00000211,0.00013083,0.00012682,-0.
 00012034,0.00078771,0.00103787,-0.00064160,-0.00002957,0.00023652,-0.0
 0005021,0.00768831,-0.01639430,-0.00428430,0.08710903,0.00022423,0.000
 21159,-0.00002533,-0.00018165,0.00008148,-0.00004467,-0.00000556,0.000
 09535,0.00004310,0.00023751,-0.00036864,0.00046999,-0.00041401,0.00020
 575,0.00007128,-0.00012482,-0.00023706,0.00001174,0.00000928,-0.000013
 10,-0.00001300,0.00001035,-0.00002032,-0.00001466,-0.00352224,0.000556
 29,-0.00288230,0.00020693,0.00007648,-0.00014333,0.00014747,0.00005053
 ,-0.00006443,0.00002070,0.00008206,-0.00001395,0.00007785,0.00004660,-
 0.00001032,0.00000759,0.00002501,0.00000738,-0.00002007,-0.00000587,0.
 00002819,-0.00002071,0.00000756,-0.00000555,0.00000459,0.00000340,-0.0
 0000068,0.00976062,-0.02767667,0.01213934,-0.00013110,0.00028372,0.000
 33921,0.00110700,0.00108600,0.00203453,-0.00002212,-0.00003538,0.00001
 006,-0.00000998,-0.00003035,0.00002323,-0.00000702,-0.00000639,-0.0000
 0545,-0.00001877,-0.00002814,0.00000968,0.00000633,-0.00000860,0.00000
 332,-0.00000560,-0.00000238,-0.00000117,0.00000713,-0.00000582,0.00000
 350,-0.00000223,-0.00000299,-0.00001286,0.00000085,-0.00000461,0.00000
 549,0.00439338,0.00163569,-0.00204945,0.08045294,-0.22324162,-0.056459
 08,0.00003237,0.00004580,-0.00000351,0.00001168,0.00001215,-0.00001250
 ,0.00000270,0.00000658,0.00000695,0.00000419,-0.00000425,-0.00000205,0
 .00000543,0.00000254,0.00000535,-0.00000147,-0.00000689,0.00000196,-0.
 00020352,-0.00021325,-0.00029407,-0.00200157,0.00028579,0.00104912,-0.
 00047600,0.00031412,0.00049266,0.00658121,-0.01115813,-0.00379407,-0.0
 9373628,0.25346984,0.00001630,-0.00006216,0.00003679,-0.00008269,0.000
 20282,0.00018328,0.00001802,-0.00000940,0.00000341,0.00003724,-0.00038
 749,-0.00029260,0.00011185,-0.00004035,-0.00014617,-0.00005006,-0.0000
 2618,-0.00001554,-0.00001601,0.00001793,-0.00003109,-0.00000253,-0.000
 00734,0.00000149,0.00123568,0.00448085,0.00477771,-0.00002528,-0.00000
 367,-0.00010005,-0.00011333,-0.00007339,0.00007892,-0.00002750,0.00002
 888,-0.00002370,0.00000907,0.00000024,0.00000475,0.00000924,-0.0000007
 8,0.00001230,-0.00001719,0.00000416,0.00000229,0.00000331,-0.00000281,
 -0.00000517,0.00000398,-0.00000231,0.00000663,-0.01288106,0.03271842,-
 0.00011778,0.00030250,-0.00042429,-0.00008192,0.00130672,-0.00212488,0
 .00038073,-0.00000212,-0.00001411,0.00001750,-0.00001692,-0.00001607,-
 0.00000686,0.00000010,0.00000187,0.00000198,-0.00000162,-0.00000499,0.
 00000060,0.00000100,-0.00000208,0.00000174,-0.00000408,0.00000646,0.00
 000017,0.00000271,-0.00000236,0.00000362,-0.00000030,0.00000475,0.0000
 0011,0.00000285,-0.00000153,0.00000280,-0.00451229,0.00091484,0.002536
 80,0.02513113,-0.05389438,-0.06694093,0.00001036,0.00001294,0.00000271
 ,0.00000216,-0.00000033,-0.00000616,0.00000350,0.00000220,0.00000406,-
 0.00000154,-0.00000385,0.00000033,0.00000232,-0.00000096,0.00000148,0.
 00000157,-0.00000300,0.00000132,0.00033304,-0.00006740,-0.00047219,0.0
 0051133,-0.00204585,0.00009641,0.00027690,-0.00028775,-0.00011998,0.00
 949953,-0.01670821,-0.00454011,-0.02416383,0.04866132,0.06767948,0.000
 35638,-0.00007274,0.00017250,-0.00004608,-0.00028267,-0.00000931,-0.00
 002424,0.00014962,0.00006100,-0.00130481,-0.00021340,-0.00158418,0.000
 07055,0.00009750,0.00000679,-0.00012077,-0.00016938,-0.00001922,0.0000
 0780,-0.00004843,0.00002025,0.00001471,-0.00002916,-0.00000219,-0.0002
 1211,-0.00092445,-0.00036074,-0.00058223,0.00014972,-0.00114767,0.0001
 7425,0.00032112,-0.00030996,0.00004621,0.00006253,-0.00005889,0.000066
 28,0.00002887,0.00000295,-0.00000979,0.00001016,-0.00001377,0.00001658
 ,-0.00000408,0.00000380,-0.00000920,-0.00000026,-0.00000474,0.00000505
 ,0.00000472,-0.00000316,0.00689521,-0.00127534,-0.00126202,0.00005386,
 0.00015618,0.00018075,-0.00022573,0.00024363,0.00001725,-0.00000286,-0
 .00001602,0.00002929,0.00001069,-0.00001847,0.00002726,0.00000053,0.00
 000064,-0.00000492,-0.00002079,-0.00003252,0.00000774,0.00000576,-0.00
 001042,0.00000118,0.00000261,-0.00000975,-0.00000196,0.00000200,-0.000
 00175,0.00000024,-0.00000078,-0.00000425,-0.00000794,-0.00000086,-0.00
 000339,-0.00000051,0.00113314,0.00027438,-0.00039188,-0.27273203,-0.03
 512151,0.10281130,0.00002375,0.00004731,-0.00001466,0.00001185,0.00001
 403,-0.00000657,0.00000097,-0.00000017,0.00000253,0.00000103,-0.000002
 42,0.00000125,0.00000152,0.00000272,0.00000198,-0.00000267,-0.00000058
 ,-0.00000037,0.00017507,0.00030052,0.00017988,0.00006610,0.00016475,-0
 .00018000,0.00013050,0.00017588,-0.00002757,-0.01315846,-0.00055720,0.
 00757752,-0.00925922,-0.00241403,0.00308066,0.28843843,-0.00056325,-0.
 00008439,-0.00024295,0.00032732,0.00010789,-0.00044226,0.00001497,-0.0
 0014414,-0.00008373,0.00007405,0.00108624,-0.00007319,-0.00008702,-0.0
 0030142,0.00030979,0.00026883,0.00034909,0.00004031,0.00003567,0.00001
 180,0.00005567,-0.00000202,0.00003676,0.00000625,-0.00052912,0.0000994
 0,-0.00078257,-0.00035127,-0.00017707,-0.00012099,0.00008547,-0.000137
 03,0.00002411,0.00001406,-0.00016362,0.00001372,-0.00011915,-0.0000558
 2,-0.00001388,-0.00000688,-0.00001627,-0.00001778,0.00002125,-0.000009
 75,-0.00001532,0.00000079,0.00000919,0.00001601,-0.00001599,0.00000371
 ,-0.00000996,-0.02102431,-0.00722648,0.01002966,-0.00010885,-0.0001155
 6,-0.00005267,0.00028612,0.00003901,0.00018800,0.00003205,0.00000868,-
 0.00001891,0.00000379,0.00007264,0.00002173,0.00000281,-0.00000341,0.0
 0000111,0.00003490,0.00004825,-0.00000741,-0.00000575,0.00002081,-0.00
 001011,0.00000046,-0.00000275,0.00000407,-0.00000843,0.00000437,-0.000
 00803,0.00000344,-0.00000671,0.00000812,-0.00000634,0.00000644,-0.0000
 0381,0.00085141,-0.00106415,0.00381836,-0.02978427,-0.05107522,0.01430
 172,-0.00004619,-0.00006514,0.00001051,-0.00001743,-0.00001115,0.00001
 143,-0.00000902,-0.00000480,-0.00000883,0.00000490,0.00000863,-0.00000
 195,-0.00000435,-0.00000372,-0.00000340,-0.00000352,0.00000583,-0.0000
 0243,0.00036097,0.00008150,0.00006635,-0.00057561,0.00003136,0.0005469
 4,-0.00098426,-0.00003877,0.00079720,-0.01191805,-0.00207274,0.0065422
 7,0.02474314,0.00448100,-0.01084026,0.03900696,0.05626785,0.00035911,-
 0.00029092,0.00006484,-0.00042468,0.00039529,0.00006814,-0.00002496,0.
 00029577,0.00006024,-0.00064768,0.00059996,-0.00067647,0.00014233,-0.0
 0003403,-0.00013326,-0.00014739,-0.00016002,-0.00001068,-0.00000388,-0
 .00008071,-0.00000983,0.00002538,-0.00005499,0.00000444,0.00222925,0.0
 0040326,0.00098282,-0.00116006,-0.00090795,-0.00032365,0.00006891,-0.0
 0031691,0.00029083,0.00003430,0.00006977,-0.00006548,0.00004935,0.0000
 4594,-0.00000961,-0.00001385,0.00001802,-0.00000557,0.00000507,0.00001
 236,0.00001945,-0.00000963,0.00000004,-0.00000871,0.00000469,0.0000026
 0,-0.00000147,0.02501318,0.00898793,-0.01427646,0.00004042,-0.00001025
 ,0.00024417,-0.00017231,-0.00022011,-0.00014901,-0.00002781,-0.0000609
 7,0.00001004,-0.00006870,-0.00000523,0.00005732,0.00000737,0.00001802,
 -0.00000965,-0.00001127,-0.00003237,0.00000980,0.00000841,-0.00003373,
 0.00000548,0.00000695,-0.00001166,-0.00001027,0.00001042,-0.00001492,0
 .00000455,-0.00000038,0.00001232,-0.00002227,0.00000558,-0.00000686,0.
 00000282,-0.00240823,0.00151541,-0.00452925,0.09579616,0.01516250,-0.0
 9067310,0.00003901,0.00003641,0.00000526,-0.00000212,0.00000955,-0.000
 00263,0.00000062,-0.00000233,0.00001058,0.00000185,-0.00001596,0.00000
 687,0.00000928,0.00000138,0.00000676,0.00000184,-0.00000620,-0.0000008
 8,0.00005628,0.00009636,0.00052035,0.00012902,-0.00015971,0.00001446,0
 .00119833,0.00053718,-0.00037403,-0.01880918,-0.00217798,0.01001129,0.
 00745882,0.00043285,-0.00293987,-0.10877627,-0.02405521,0.10182523,-0.
 00041939,0.00009343,0.00048603,0.00025474,-0.00005403,0.00009363,-0.00
 000485,0.00012243,0.00004220,-0.00002877,0.00000368,-0.00004414,-0.000
 00952,0.00000711,-0.00002308,-0.00004991,0.00078738,-0.00026979,-0.000
 00643,0.00000746,-0.00001196,0.00001270,-0.00001812,0.00000187,0.00003
 085,-0.00003110,-0.00000075,0.00003793,-0.00003888,-0.00000782,0.00001
 768,-0.00001480,-0.00000801,-0.00084026,0.00039510,-0.00563996,0.00254
 006,-0.00056680,-0.00283630,0.00000104,0.00000220,0.00001202,0.0000083
 4,0.00000876,0.00000484,0.00001473,0.00008294,-0.00000006,-0.00000133,
 0.00000798,0.00000476,-0.00003233,0.00001197,0.00001361,-0.00001177,-0
 .00000455,0.00000326,-0.00001426,0.00000963,0.00000389,-0.01135514,-0.
 01888519,0.00221897,-0.00052722,-0.00096248,0.00002471,0.00020511,0.00
 005020,-0.00008767,0.00548160,0.00479455,-0.00126411,0.00000066,-0.000
 00821,-0.00000571,-0.00000160,-0.00000117,-0.00000195,0.00000666,0.000
 00062,-0.00000350,-0.00001070,-0.00000516,0.00000211,0.00000153,-0.000
 00157,0.00000099,0.00001906,0.00000030,-0.00001089,0.00002009,-0.00001
 164,-0.00000822,-0.18819786,-0.14837081,-0.01102091,-0.00037238,0.0013
 4852,0.00163312,0.00001678,-0.00002632,0.00002955,-0.00002283,-0.00001
 315,0.00002147,-0.00058360,0.00102323,0.00191415,0.00000119,-0.0000028
 5,-0.00000016,-0.00000281,-0.00000061,-0.00000129,-0.00000665,0.000006
 13,0.00000378,0.00000019,-0.00000042,0.00000131,-0.00000381,-0.0000009
 8,0.,-0.00000764,0.00000643,0.00000528,0.00000179,-0.00000227,0.000006
 44,0.19383829,0.00019549,-0.00007905,-0.00053923,-0.00012276,-0.000034
 72,-0.00001891,-0.00002200,-0.00002019,0.00002374,-0.00000455,-0.00001
 621,-0.00000247,-0.00000076,-0.00000537,0.00002119,0.00094039,0.000044
 07,0.00034486,-0.00000307,-0.00001280,0.00000460,0.00001792,0.00004942
 ,0.00008980,0.00003392,-0.00000271,0.00000300,0.00000100,0.00001541,0.
 00000039,0.00000118,0.00000605,-0.00000469,-0.00087105,0.00233579,0.00
 218921,0.00050941,-0.00046581,0.00511584,0.00000287,-0.00000850,-0.000
 01407,-0.00000678,0.00000088,0.00000026,0.00021275,-0.00027897,0.00022
 797,-0.00000648,0.00000348,-0.00002889,-0.00003014,0.00000426,-0.00000
 362,-0.00000028,-0.00000229,-0.00000152,-0.00001129,0.00000496,-0.0000
 0150,0.00401433,0.00506772,0.00145954,0.00013231,0.00024092,0.00019362
 ,-0.00101775,-0.00035841,-0.00025864,-0.01814884,-0.01256774,-0.002682
 49,0.00000567,-0.00000498,-0.00000669,-0.00000190,-0.00000407,-0.00000
 476,-0.00009877,-0.00010539,0.00001412,0.00000230,0.00003056,-0.000027
 74,-0.00000369,0.00000546,0.00000707,0.00001729,0.00000376,-0.00001168
 ,0.00000386,-0.00001335,0.00000817,-0.14820252,-0.20279627,0.00433126,
 0.00084758,-0.00047593,-0.00164432,-0.00001452,0.00000568,0.00000861,0
 .00003997,-0.00005019,0.00000546,0.00135137,-0.00034869,-0.00156672,-0
 .00000129,-0.00000777,-0.00000324,-0.00000401,-0.00000162,-0.00000238,
 -0.00000547,0.00000465,0.00000369,0.00000155,0.00000054,0.00000060,-0.
 00000400,-0.00000210,-0.00000232,-0.00000147,0.00000511,0.00000053,0.0
 0000116,-0.00000036,0.00000609,0.16025105,0.20983476,0.00064494,-0.000
 36051,-0.00044726,-0.00032000,0.00005426,-0.00000943,-0.00008302,0.000
 01762,0.00000826,-0.00000671,-0.00003212,-0.00001153,0.00001715,-0.000
 01645,0.00002787,-0.00036249,0.00037515,-0.00101640,-0.00000661,-0.000
 04520,-0.00000864,-0.00000621,-0.00005042,-0.00004836,0.00003260,-0.00
 000905,0.00001201,0.00003505,-0.00000696,-0.00001003,-0.00001206,0.000
 02063,-0.00000105,-0.00536886,0.00225040,0.00119410,-0.00287844,0.0051
 2648,0.00171810,0.00000163,0.00001398,0.00000061,-0.00000444,0.0000039
 0,0.00001076,-0.00011752,0.00012510,-0.00022522,0.00000873,0.00000719,
 0.00001080,-0.00001860,-0.00000831,-0.00000629,-0.00000922,-0.00000167
 ,0.00000256,-0.00000350,-0.00000083,-0.00000281,-0.01201101,-0.0144514
 0,0.00408425,-0.00063559,-0.00048423,0.00020913,0.00064827,0.00050202,
 0.00034594,0.01349736,0.01292697,0.00408493,0.00000540,-0.00001550,0.0
 0000244,0.00000202,-0.00000275,-0.00000133,0.00007155,0.00007645,-0.00
 001788,0.00000059,-0.00000172,-0.00000918,0.00000110,-0.00000585,0.000
 00131,0.00000907,0.00000469,-0.00000784,0.00000569,-0.00000705,0.00000
 175,-0.01149835,0.00455319,-0.04652227,0.00191640,-0.00148183,-0.00153
 328,-0.00003273,-0.00005118,-0.00005881,-0.00001055,-0.00001616,0.0000
 2898,0.00178056,-0.00177848,-0.00184704,-0.00000063,0.00000009,0.00000
 296,-0.00000372,-0.00000117,-0.00000209,-0.00000272,0.00000134,0.00000
 243,0.00000039,0.00000082,0.00000136,-0.00000516,-0.00000215,-0.000001
 28,-0.00000101,0.00000217,0.00000074,0.00000236,0.00000231,0.00000640,
 0.01471829,-0.00723375,0.04003033\\0.00000041,0.00000007,-0.00000015,0
 .00000007,-0.00000023,-0.00000027,0.,-0.00000013,0.00000041,-0.0000002
 0,0.00000013,-0.00000003,0.00000019,-0.00000003,0.00000023,-0.00000020
 ,-0.00000008,-0.00000005,0.00000029,0.00000014,0.00000040,0.00000007,0
 .00000023,0.00000019,0.00000009,-0.00000009,-0.00000015,-0.00000020,-0
 .00000024,-0.00000036,-0.00000023,-0.00000004,-0.00000039,-0.00000023,
 -0.00000020,-0.00000016,0.,0.00000044,0.00000012,0.00000027,-0.0000002
 0,0.00000050,0.00000024,-0.00000031,0.00000025,-0.00000012,0.00000033,
 0.00000035,0.00000025,0.00000039,0.00000070,-0.00000003,-0.00000038,-0
 .00000032,-0.00000011,0.00000003,-0.00000013,-0.00000026,-0.00000007,-
 0.00000044,-0.00000018,0.00000008,-0.00000032,-0.00000009,-0.00000019,
 -0.00000021,-0.00000006,0.00000053,-0.00000002,-0.00000028,0.00000009,
 0.00000011,0.00000038,0.00000005,0.00000061,0.00000038,-0.00000036,0.0
 0000044,0.00000005,0.00000058,0.00000030,0.00000011,0.00000029,0.00000
 012,0.00000022,0.00000032,0.00000057,-0.00000016,-0.00000039,-0.000000
 14,-0.00000004,-0.00000043,-0.00000035,-0.00000018,0.00000025,-0.00000
 023,-0.00000021,0.00000007,-0.00000049,0.,0.00000053,0.,-0.00000009,0.
 00000041,0.00000025,-0.00000019,0.00000055,-0.00000007,0.00000043,-0.0
 0000005,0.00000074,0.00000006,-0.00000047,-0.00000016,-0.00000009,-0.0
 0000032,-0.00000034,0.00000001,-0.00000022,-0.00000012,0.,-0.00000056,
 -0.00000026,-0.00000010,-0.00000043,-0.00000045,-0.00000005,-0.0000004
 8,-0.00000033,-0.00000019,0.00000040,-0.00000032\\\@


 SUCCESS IS NEVER CERTAIN,
 FAILURE IS NEVER FINAL.
 Job cpu time:       0 days  5 hours 22 minutes 29.6 seconds.
 Elapsed time:       0 days  0 hours  8 minutes  6.3 seconds.
 File lengths (MBytes):  RWF=   1692 Int=      0 D2E=      0 Chk=     24 Scr=      4
 Normal termination of Gaussian 16 at Tue Nov 19 13:53:24 2019.
