 Entering Gaussian System, Link 0=g16
 Initial command:
 /gpfs/apps/medsci/stacks/noOS/software/gaussian/g16.a03.avx2/g16/l1.exe "/localscratch/wuh104/g16/a17123-106995/Gau-107443.inp" -scrdir="/localscratch/wuh104/g16/a17123-106995/"
 Default is to use a total of  40 processors:
                               40 via shared-memory
                                1 via Linda
 Entering Link 1 = /gpfs/apps/medsci/stacks/noOS/software/gaussian/g16.a03.avx2/g16/l1.exe PID=    107444.
  
 Copyright (c) 1988,1990,1992,1993,1995,1998,2003,2009,2016,
            Gaussian, Inc.  All Rights Reserved.
  
 This is part of the Gaussian(R) 16 program.  It is based on
 the Gaussian(R) 09 system (copyright 2009, Gaussian, Inc.),
 the Gaussian(R) 03 system (copyright 2003, Gaussian, Inc.),
 the Gaussian(R) 98 system (copyright 1998, Gaussian, Inc.),
 the Gaussian(R) 94 system (copyright 1995, Gaussian, Inc.),
 the Gaussian 92(TM) system (copyright 1992, Gaussian, Inc.),
 the Gaussian 90(TM) system (copyright 1990, Gaussian, Inc.),
 the Gaussian 88(TM) system (copyright 1988, Gaussian, Inc.),
 the Gaussian 86(TM) system (copyright 1986, Carnegie Mellon
 University), and the Gaussian 82(TM) system (copyright 1983,
 Carnegie Mellon University). Gaussian is a federally registered
 trademark of Gaussian, Inc.
  
 This software contains proprietary and confidential information,
 including trade secrets, belonging to Gaussian, Inc.
  
 This software is provided under written license and may be
 used, copied, transmitted, or stored only in accord with that
 written license.
  
 The following legend is applicable only to US Government
 contracts under FAR:
  
                    RESTRICTED RIGHTS LEGEND
  
 Use, reproduction and disclosure by the US Government is
 subject to restrictions as set forth in subparagraphs (a)
 and (c) of the Commercial Computer Software - Restricted
 Rights clause in FAR 52.227-19.
  
 Gaussian, Inc.
 340 Quinnipiac St., Bldg. 40, Wallingford CT 06492
  
  
 ---------------------------------------------------------------
 Warning -- This program may not be used in any manner that
 competes with the business of Gaussian, Inc. or will provide
 assistance to any competitor of Gaussian, Inc.  The licensee
 of this program is prohibited from giving any competitor of
 Gaussian, Inc. access to this program.  By using this program,
 the user acknowledges that Gaussian, Inc. is engaged in the
 business of creating and licensing software in the field of
 computational chemistry and represents and warrants to the
 licensee that it is not a competitor of Gaussian, Inc. and that
 it will not use this program in any manner prohibited above.
 ---------------------------------------------------------------
  

 Cite this work as:
 Gaussian 16, Revision A.03,
 M. J. Frisch, G. W. Trucks, H. B. Schlegel, G. E. Scuseria, 
 M. A. Robb, J. R. Cheeseman, G. Scalmani, V. Barone, 
 G. A. Petersson, H. Nakatsuji, X. Li, M. Caricato, A. V. Marenich, 
 J. Bloino, B. G. Janesko, R. Gomperts, B. Mennucci, H. P. Hratchian, 
 J. V. Ortiz, A. F. Izmaylov, J. L. Sonnenberg, D. Williams-Young, 
 F. Ding, F. Lipparini, F. Egidi, J. Goings, B. Peng, A. Petrone, 
 T. Henderson, D. Ranasinghe, V. G. Zakrzewski, J. Gao, N. Rega, 
 G. Zheng, W. Liang, M. Hada, M. Ehara, K. Toyota, R. Fukuda, 
 J. Hasegawa, M. Ishida, T. Nakajima, Y. Honda, O. Kitao, H. Nakai, 
 T. Vreven, K. Throssell, J. A. Montgomery, Jr., J. E. Peralta, 
 F. Ogliaro, M. J. Bearpark, J. J. Heyd, E. N. Brothers, K. N. Kudin, 
 V. N. Staroverov, T. A. Keith, R. Kobayashi, J. Normand, 
 K. Raghavachari, A. P. Rendell, J. C. Burant, S. S. Iyengar, 
 J. Tomasi, M. Cossi, J. M. Millam, M. Klene, C. Adamo, R. Cammi, 
 J. W. Ochterski, R. L. Martin, K. Morokuma, O. Farkas, 
 J. B. Foresman, and D. J. Fox, Gaussian, Inc., Wallingford CT, 2016.
 
 ******************************************
 Gaussian 16:  ES64L-G16RevA.03 25-Dec-2016
                22-Oct-2019 
 ******************************************
 %chk=check.chk
 %mem=14000mb
 %NProcShared=40
 Will use up to   40 processors via shared memory.
 ----------------------------------------------------------------------
 #P guess=read uapfd/def2svp freq iop(7/33=1) scf=(tight, direct) integ
 ral=(grid=ultrafine, Acc2E=12) scf=xqc iop(2/9=2000)
 ----------------------------------------------------------------------
 1/10=4,30=1,38=1/1,3;
 2/9=2000,12=2,17=6,18=5,40=1/2;
 3/5=43,7=101,11=2,25=1,27=12,30=1,71=2,74=-44,75=-5,116=2,140=1/1,2,3;
 4/5=1/1;
 5/5=2,8=3,13=1,32=2,38=6,87=12,98=1/2,8;
 8/6=4,10=90,11=11,87=12/1;
 11/6=1,8=1,9=11,15=111,16=1,87=12/1,2,10;
 10/6=1,87=12/2;
 6/7=2,8=2,9=2,10=2,28=1,87=12/1;
 7/8=1,10=1,25=1,33=1,87=12/1,2,3,16;
 1/10=4,30=1/3;
 99//99;
 Leave Link    1 at Tue Oct 22 22:41:59 2019, MaxMem=  1835008000 cpu:               2.6 elap:               0.1
 (Enter /gpfs/apps/medsci/stacks/noOS/software/gaussian/g16.a03.avx2/g16/l101.exe)
 ----
 name
 ----
 Symbolic Z-matrix:
 Charge =  0 Multiplicity = 2
 N                    -0.02222  -0.36726   0.67266 
 C                     1.33384  -0.62175   0.36263 
 C                    -0.35472   0.99689   0.89187 
 C                     1.89137  -2.02562   0.37158 
 H                     1.56271  -0.21201  -0.82697 
 H                     1.99796   0.07398   0.8993 
 C                    -1.05675  -1.32684   0.52744 
 C                     0.00147   1.60385   2.09901 
 C                    -0.97839   1.73522  -0.12592 
 C                     3.34675  -1.99768  -0.09987 
 H                     1.83018  -2.46753   1.38261 
 H                     1.30345  -2.68966  -0.28354 
 C                    -1.00086  -2.45796   1.3623 
 C                    -2.13697  -1.18059  -0.3684 
 C                    -0.27509   2.95323   2.31157 
 H                     0.49515   1.00205   2.86625 
 C                    -1.2909    1.05563  -1.42454 
 C                    -1.266     3.0831    0.11114 
 N                     4.18439  -1.1661    0.74167 
 H                     3.36527  -1.58348  -1.11837 
 H                     3.73612  -3.03836  -0.16901 
 C                    -1.95769  -3.46155   1.29645 
 H                    -0.18947  -2.52188   2.08828 
 C                    -2.37966  -0.00607  -1.29138 
 C                    -3.10033  -2.2021   -0.40186 
 C                    -0.91638   3.69277   1.3162 
 H                     0.00254   3.42517   3.25779 
 H                    -1.62367   1.80524  -2.15921 
 H                    -0.36522   0.61572  -1.83081 
 H                    -1.75521   3.6675   -0.67411 
 C                     5.28695  -0.56225   0.03506 
 C                     4.58964  -1.81425   1.96074 
 C                    -3.02024  -3.3343    0.4001 
 H                    -1.88463  -4.33039   1.95589 
 H                    -2.60331  -0.41011  -2.2936 
 H                    -3.31136   0.4875   -0.95933 
 H                    -3.9393   -2.09633  -1.0972 
 H                    -1.14156   4.75045   1.4778 
 H                     5.82867   0.12358   0.70585 
 H                     6.0249   -1.30407  -0.34764 
 H                     4.9057    0.02545  -0.8121 
 H                     5.11064  -1.10077   2.61814 
 H                     5.27274  -2.679     1.79083 
 H                     3.71447  -2.18901   2.51312 
 H                    -3.78835  -4.10934   0.33404 
 O                     1.91834   0.22987  -1.98903 
 O                     2.90013   1.15532  -1.71296 
 C                     2.31021   2.39739  -1.42915 
 H                     3.14327   3.09928  -1.27698 
 H                     1.69219   2.35712  -0.51447 
 H                     1.68356   2.74152  -2.26972 
 
 ITRead=  0  0  0  0  0  0  0  0  0  0  0  0  0  0  0  0  0  0  0  0
 ITRead=  0  0  0  0  0  0  0  0  0  0  0  0  0  0  0  0  0  0  0  0
 ITRead=  0  0  0  0  0  0  0  0  0  0  0
 MicOpt= -1 -1 -1 -1 -1 -1 -1 -1 -1 -1 -1 -1 -1 -1 -1 -1 -1 -1 -1 -1
 MicOpt= -1 -1 -1 -1 -1 -1 -1 -1 -1 -1 -1 -1 -1 -1 -1 -1 -1 -1 -1 -1
 MicOpt= -1 -1 -1 -1 -1 -1 -1 -1 -1 -1 -1
 NAtoms=     51 NQM=       51 NQMF=       0 NMMI=      0 NMMIF=      0
                NMic=       0 NMicF=      0.
                    Isotopes and Nuclear Properties:
 (Nuclear quadrupole moments (NQMom) in fm**2, nuclear magnetic moments (NMagM)
  in nuclear magnetons)

  Atom         1           2           3           4           5           6           7           8           9          10
 IAtWgt=          14          12          12          12           1           1          12          12          12          12
 AtmWgt=  14.0030740  12.0000000  12.0000000  12.0000000   1.0078250   1.0078250  12.0000000  12.0000000  12.0000000  12.0000000
 NucSpn=           2           0           0           0           1           1           0           0           0           0
 AtZEff=  -0.0000000  -0.0000000  -0.0000000  -0.0000000  -0.0000000  -0.0000000  -0.0000000  -0.0000000  -0.0000000  -0.0000000
 NQMom=    2.0440000   0.0000000   0.0000000   0.0000000   0.0000000   0.0000000   0.0000000   0.0000000   0.0000000   0.0000000
 NMagM=    0.4037610   0.0000000   0.0000000   0.0000000   2.7928460   2.7928460   0.0000000   0.0000000   0.0000000   0.0000000
 AtZNuc=   7.0000000   6.0000000   6.0000000   6.0000000   1.0000000   1.0000000   6.0000000   6.0000000   6.0000000   6.0000000

  Atom        11          12          13          14          15          16          17          18          19          20
 IAtWgt=           1           1          12          12          12           1          12          12          14           1
 AtmWgt=   1.0078250   1.0078250  12.0000000  12.0000000  12.0000000   1.0078250  12.0000000  12.0000000  14.0030740   1.0078250
 NucSpn=           1           1           0           0           0           1           0           0           2           1
 AtZEff=  -0.0000000  -0.0000000  -0.0000000  -0.0000000  -0.0000000  -0.0000000  -0.0000000  -0.0000000  -0.0000000  -0.0000000
 NQMom=    0.0000000   0.0000000   0.0000000   0.0000000   0.0000000   0.0000000   0.0000000   0.0000000   2.0440000   0.0000000
 NMagM=    2.7928460   2.7928460   0.0000000   0.0000000   0.0000000   2.7928460   0.0000000   0.0000000   0.4037610   2.7928460
 AtZNuc=   1.0000000   1.0000000   6.0000000   6.0000000   6.0000000   1.0000000   6.0000000   6.0000000   7.0000000   1.0000000

  Atom        21          22          23          24          25          26          27          28          29          30
 IAtWgt=           1          12           1          12          12          12           1           1           1           1
 AtmWgt=   1.0078250  12.0000000   1.0078250  12.0000000  12.0000000  12.0000000   1.0078250   1.0078250   1.0078250   1.0078250
 NucSpn=           1           0           1           0           0           0           1           1           1           1
 AtZEff=  -0.0000000  -0.0000000  -0.0000000  -0.0000000  -0.0000000  -0.0000000  -0.0000000  -0.0000000  -0.0000000  -0.0000000
 NQMom=    0.0000000   0.0000000   0.0000000   0.0000000   0.0000000   0.0000000   0.0000000   0.0000000   0.0000000   0.0000000
 NMagM=    2.7928460   0.0000000   2.7928460   0.0000000   0.0000000   0.0000000   2.7928460   2.7928460   2.7928460   2.7928460
 AtZNuc=   1.0000000   6.0000000   1.0000000   6.0000000   6.0000000   6.0000000   1.0000000   1.0000000   1.0000000   1.0000000

  Atom        31          32          33          34          35          36          37          38          39          40
 IAtWgt=          12          12          12           1           1           1           1           1           1           1
 AtmWgt=  12.0000000  12.0000000  12.0000000   1.0078250   1.0078250   1.0078250   1.0078250   1.0078250   1.0078250   1.0078250
 NucSpn=           0           0           0           1           1           1           1           1           1           1
 AtZEff=  -0.0000000  -0.0000000  -0.0000000  -0.0000000  -0.0000000  -0.0000000  -0.0000000  -0.0000000  -0.0000000  -0.0000000
 NQMom=    0.0000000   0.0000000   0.0000000   0.0000000   0.0000000   0.0000000   0.0000000   0.0000000   0.0000000   0.0000000
 NMagM=    0.0000000   0.0000000   0.0000000   2.7928460   2.7928460   2.7928460   2.7928460   2.7928460   2.7928460   2.7928460
 AtZNuc=   6.0000000   6.0000000   6.0000000   1.0000000   1.0000000   1.0000000   1.0000000   1.0000000   1.0000000   1.0000000

  Atom        41          42          43          44          45          46          47          48          49          50
 IAtWgt=           1           1           1           1           1          16          16          12           1           1
 AtmWgt=   1.0078250   1.0078250   1.0078250   1.0078250   1.0078250  15.9949146  15.9949146  12.0000000   1.0078250   1.0078250
 NucSpn=           1           1           1           1           1           0           0           0           1           1
 AtZEff=  -0.0000000  -0.0000000  -0.0000000  -0.0000000  -0.0000000  -0.0000000  -0.0000000  -0.0000000  -0.0000000  -0.0000000
 NQMom=    0.0000000   0.0000000   0.0000000   0.0000000   0.0000000   0.0000000   0.0000000   0.0000000   0.0000000   0.0000000
 NMagM=    2.7928460   2.7928460   2.7928460   2.7928460   2.7928460   0.0000000   0.0000000   0.0000000   2.7928460   2.7928460
 AtZNuc=   1.0000000   1.0000000   1.0000000   1.0000000   1.0000000   8.0000000   8.0000000   6.0000000   1.0000000   1.0000000

  Atom        51
 IAtWgt=           1
 AtmWgt=   1.0078250
 NucSpn=           1
 AtZEff=  -0.0000000
 NQMom=    0.0000000
 NMagM=    2.7928460
 AtZNuc=   1.0000000
 Leave Link  101 at Tue Oct 22 22:41:59 2019, MaxMem=  1835008000 cpu:               3.8 elap:               0.1
 (Enter /gpfs/apps/medsci/stacks/noOS/software/gaussian/g16.a03.avx2/g16/l103.exe)

 GradGradGradGradGradGradGradGradGradGradGradGradGradGradGradGradGradGrad
 Berny optimization.
 Initialization pass.
 Trust Radius=3.00D-01 FncErr=1.00D-07 GrdErr=1.00D-07 EigMax=2.50D+02 EigMin=1.00D-04
 Number of steps in this run=      2 maximum allowed number of steps=      2.
 GradGradGradGradGradGradGradGradGradGradGradGradGradGradGradGradGradGrad

 Leave Link  103 at Tue Oct 22 22:41:59 2019, MaxMem=  1835008000 cpu:               2.2 elap:               0.1
 (Enter /gpfs/apps/medsci/stacks/noOS/software/gaussian/g16.a03.avx2/g16/l202.exe)
                          Input orientation:                          
 ---------------------------------------------------------------------
 Center     Atomic      Atomic             Coordinates (Angstroms)
 Number     Number       Type             X           Y           Z
 ---------------------------------------------------------------------
      1          7           0       -0.022222   -0.367262    0.672660
      2          6           0        1.333836   -0.621750    0.362627
      3          6           0       -0.354722    0.996891    0.891868
      4          6           0        1.891373   -2.025623    0.371579
      5          1           0        1.562711   -0.212013   -0.826967
      6          1           0        1.997964    0.073983    0.899302
      7          6           0       -1.056754   -1.326842    0.527442
      8          6           0        0.001467    1.603852    2.099013
      9          6           0       -0.978390    1.735217   -0.125922
     10          6           0        3.346751   -1.997675   -0.099866
     11          1           0        1.830175   -2.467529    1.382606
     12          1           0        1.303448   -2.689658   -0.283537
     13          6           0       -1.000861   -2.457964    1.362296
     14          6           0       -2.136966   -1.180586   -0.368402
     15          6           0       -0.275086    2.953228    2.311574
     16          1           0        0.495153    1.002047    2.866247
     17          6           0       -1.290899    1.055628   -1.424544
     18          6           0       -1.265999    3.083103    0.111138
     19          7           0        4.184394   -1.166103    0.741669
     20          1           0        3.365267   -1.583475   -1.118368
     21          1           0        3.736118   -3.038360   -0.169005
     22          6           0       -1.957692   -3.461549    1.296453
     23          1           0       -0.189472   -2.521881    2.088277
     24          6           0       -2.379660   -0.006074   -1.291381
     25          6           0       -3.100332   -2.202099   -0.401863
     26          6           0       -0.916382    3.692768    1.316201
     27          1           0        0.002536    3.425169    3.257787
     28          1           0       -1.623673    1.805238   -2.159213
     29          1           0       -0.365215    0.615719   -1.830814
     30          1           0       -1.755211    3.667498   -0.674105
     31          6           0        5.286949   -0.562245    0.035058
     32          6           0        4.589637   -1.814252    1.960737
     33          6           0       -3.020241   -3.334297    0.400095
     34          1           0       -1.884628   -4.330387    1.955885
     35          1           0       -2.603314   -0.410105   -2.293598
     36          1           0       -3.311356    0.487498   -0.959330
     37          1           0       -3.939302   -2.096325   -1.097203
     38          1           0       -1.141561    4.750448    1.477801
     39          1           0        5.828674    0.123583    0.705854
     40          1           0        6.024898   -1.304065   -0.347638
     41          1           0        4.905704    0.025445   -0.812103
     42          1           0        5.110643   -1.100773    2.618135
     43          1           0        5.272737   -2.679002    1.790830
     44          1           0        3.714469   -2.189008    2.513115
     45          1           0       -3.788354   -4.109341    0.334044
     46          8           0        1.918338    0.229869   -1.989030
     47          8           0        2.900125    1.155321   -1.712956
     48          6           0        2.310212    2.397386   -1.429151
     49          1           0        3.143266    3.099277   -1.276978
     50          1           0        1.692188    2.357118   -0.514469
     51          1           0        1.683560    2.741520   -2.269716
 ---------------------------------------------------------------------
 Stoichiometry    C20H27N2O2(2)
 Framework group  C1[X(C20H27N2O2)]
 Deg. of freedom   147
 Full point group                 C1      NOp   1
 Largest Abelian subgroup         C1      NOp   1
 Largest concise Abelian subgroup C1      NOp   1
                         Standard orientation:                         
 ---------------------------------------------------------------------
 Center     Atomic      Atomic             Coordinates (Angstroms)
 Number     Number       Type             X           Y           Z
 ---------------------------------------------------------------------
      1          7           0       -0.542404   -0.278696    0.458293
      2          6           0        0.815981   -0.475080    0.117703
      3          6           0       -0.893080    1.044706    0.839286
      4          6           0        1.393013   -1.861929   -0.041899
      5          1           0        1.035019    0.076834   -1.014912
      6          1           0        1.472224    0.161046    0.732373
      7          6           0       -1.563988   -1.228717    0.201460
      8          6           0       -0.541191    1.508354    2.109591
      9          6           0       -1.530472    1.890215   -0.082033
     10          6           0        2.846222   -1.757257   -0.509227
     11          1           0        1.341465   -2.422096    0.909288
     12          1           0        0.812116   -2.451376   -0.770518
     13          6           0       -1.489484   -2.450432    0.895293
     14          6           0       -2.649223   -0.992027   -0.668614
     15          6           0       -0.835744    2.818674    2.482122
     16          1           0       -0.036533    0.826413    2.798664
     17          6           0       -1.837993    1.365997   -1.451905
     18          6           0       -1.835974    3.195977    0.314664
     19          7           0        3.675128   -1.020171    0.424024
     20          1           0        2.855453   -1.224311   -1.471065
     21          1           0        3.249781   -2.776624   -0.702730
     22          6           0       -2.432489   -3.452502    0.711880
     23          1           0       -0.674777   -2.588941    1.607020
     24          6           0       -2.911418    0.280619   -1.444433
     25          6           0       -3.598401   -2.015851   -0.822004
     26          6           0       -1.490701    3.662464    1.583237
     27          1           0       -0.561439    3.178285    3.477390
     28          1           0       -2.183698    2.193076   -2.091296
     29          1           0       -0.907692    0.990894   -1.909403
     30          1           0       -2.335979    3.862845   -0.394374
     31          6           0        4.766728   -0.320727   -0.207449
     32          6           0        4.093560   -1.803270    1.556330
     33          6           0       -3.499800   -3.234366   -0.161003
     34          1           0       -2.345069   -4.392664    1.262808
     35          1           0       -3.132898   -0.004127   -2.487298
     36          1           0       -3.848732    0.717764   -1.054210
     37          1           0       -4.441162   -1.839835   -1.498265
     38          1           0       -1.730006    4.690009    1.870276
     39          1           0        5.301181    0.287829    0.539420
     40          1           0        5.513592   -1.001036   -0.677230
     41          1           0        4.374418    0.358333   -0.977761
     42          1           0        4.606866   -1.165960    2.293233
     43          1           0        4.788026   -2.631780    1.283248
     44          1           0        3.225604   -2.253641    2.061603
     45          1           0       -4.257285   -4.006842   -0.317690
     46          8           0        1.380444    0.659178   -2.116582
     47          8           0        2.350217    1.558961   -1.733806
     48          6           0        1.744075    2.749793   -1.302787
     49          1           0        2.567810    3.440297   -1.069437
     50          1           0        1.129839    2.591930   -0.398347
     51          1           0        1.109794    3.182784   -2.095174
 ---------------------------------------------------------------------
 Rotational constants (GHZ):           0.2748467           0.2046539           0.1523523
 Leave Link  202 at Tue Oct 22 22:41:59 2019, MaxMem=  1835008000 cpu:               0.6 elap:               0.0
 (Enter /gpfs/apps/medsci/stacks/noOS/software/gaussian/g16.a03.avx2/g16/l301.exe)
 Standard basis: def2SVP (5D, 7F)
 Ernie: Thresh=  0.10000D-02 Tol=  0.10000D-05 Strict=F.
 There are   495 symmetry adapted cartesian basis functions of A   symmetry.
 There are   471 symmetry adapted basis functions of A   symmetry.
   471 basis functions,   789 primitive gaussians,   495 cartesian basis functions
    89 alpha electrons       88 beta electrons
       nuclear repulsion energy      2177.0507288879 Hartrees.
 IExCor= 3731 DFT=T Ex+Corr=APFD ExCW=0 ScaHFX=  0.229450
 ScaDFX=  1.000000  1.000000  1.000000  1.000000 ScalE2=  1.000000  1.000000
 IRadAn=      5 IRanWt=     -1 IRanGd=            0 ICorTp=0 IEmpDi=211
 NAtoms=   51 NActive=   51 NUniq=   51 SFac= 1.00D+00 NAtFMM=   60 NAOKFM=F Big=F
 Integral buffers will be    131072 words long.
 Raffenetti 2 integral format.
 Two-electron integral symmetry is turned on.
 R6APFD:  NTU= -4 IXU= 1 FactS= 1.050
 R6Disp:  Petersson-Frisch Dispersion energy=       -0.0541853227 Hartrees.
 Nuclear repulsion after empirical dispersion term =     2176.9965435652 Hartrees.
 Leave Link  301 at Tue Oct 22 22:41:59 2019, MaxMem=  1835008000 cpu:               2.5 elap:               0.1
 (Enter /gpfs/apps/medsci/stacks/noOS/software/gaussian/g16.a03.avx2/g16/l302.exe)
 NPDir=0 NMtPBC=     1 NCelOv=     1 NCel=       1 NClECP=     1 NCelD=      1
         NCelK=      1 NCelE2=     1 NClLst=     1 CellRange=     0.0.
 One-electron integrals computed using PRISM.
 One-electron integral symmetry used in STVInt
   1 Symmetry operations used in ECPInt.
 ECPInt:  NShTT=   25425 NPrTT=   90069 LenC2=   23138 LenP2D=   56544.
 LDataN:  DoStor=T MaxTD1= 4 Len=   56
 NBasis=   471 RedAO= T EigKep=  2.24D-04  NBF=   471
 NBsUse=   471 1.00D-06 EigRej= -1.00D+00 NBFU=   471
 Precomputing XC quadrature grid using
 IXCGrd= 4 IRadAn=           5 IRanWt=          -1 IRanGd=           0 AccXCQ= 1.00D-12.
 Generated NRdTot=       0 NPtTot=           0 NUsed=           0 NTot=          32
 NSgBfM=   492   492   492   492   492 MxSgAt=    51 MxSgA2=    51.
 Leave Link  302 at Tue Oct 22 22:42:00 2019, MaxMem=  1835008000 cpu:              22.8 elap:               0.6
 (Enter /gpfs/apps/medsci/stacks/noOS/software/gaussian/g16.a03.avx2/g16/l303.exe)
 DipDrv:  MaxL=1.
 Leave Link  303 at Tue Oct 22 22:42:00 2019, MaxMem=  1835008000 cpu:               4.3 elap:               0.1
 (Enter /gpfs/apps/medsci/stacks/noOS/software/gaussian/g16.a03.avx2/g16/l401.exe)
 Initial guess from the checkpoint file:  "check.chk"
 B after Tr=     0.000000    0.000000   -0.000000
         Rot=    1.000000    0.000000   -0.000000   -0.000000 Ang=   0.00 deg.
 Guess basis will be translated and rotated to current coordinates.
 JPrj=2 DoOrth=T DoCkMO=T.
 Initial guess <Sx>= 0.0000 <Sy>= 0.0000 <Sz>= 0.5000 <S**2>= 0.7566 S= 0.5033
 Leave Link  401 at Tue Oct 22 22:42:00 2019, MaxMem=  1835008000 cpu:              21.9 elap:               0.6
 (Enter /gpfs/apps/medsci/stacks/noOS/software/gaussian/g16.a03.avx2/g16/l502.exe)
 Integral symmetry usage will be decided dynamically.
 UHF open shell SCF:
 Using DIIS extrapolation, IDIIS=  1040.
 NGot=  1835008000 LenX=  1834492731 LenY=  1834247211
 Requested convergence on RMS density matrix=1.00D-08 within  32 cycles.
 Requested convergence on MAX density matrix=1.00D-06.
 Requested convergence on             energy=1.00D-06.
 No special actions if energy rises.
 Fock matrices will be formed incrementally for  20 cycles.

 Cycle   1  Pass 1  IDiag  1:
 FoFJK:  IHMeth= 1 ICntrl=       0 DoSepK=F KAlg= 0 I1Cent=           0 FoldK=F
 IRaf= 840000000 NMat=       1 IRICut=       1 DoRegI=T DoRafI=F ISym2E= 0 IDoP0=0 IntGTp=1.
 FoFCou: FMM=F IPFlag=           0 FMFlag=      100000 FMFlg1=           0
         NFxFlg=           0 DoJE=F BraDBF=F KetDBF=F FulRan=T
         wScrn=  0.000000 ICntrl=         0 IOpCl=  1 I1Cent=           0 NGrid=           0
         NMat0=    1 NMatS0=      1 NMatT0=    0 NMatD0=    1 NMtDS0=    0 NMtDT0=    0
 Symmetry not used in FoFCou.
 E= -1036.60046449715    
 DIIS: error= 6.01D-08 at cycle   1 NSaved=   1.
 NSaved= 1 IEnMin= 1 EnMin= -1036.60046449715     IErMin= 1 ErrMin= 6.01D-08
 ErrMax= 6.01D-08  0.00D+00 EMaxC= 1.00D-01 BMatC= 1.18D-11 BMatP= 1.18D-11
 IDIUse=1 WtCom= 1.00D+00 WtEn= 0.00D+00
 Coeff-Com:  0.100D+01
 Coeff:      0.100D+01
 Gap=     0.166 Goal=   None    Shift=    0.000
 Gap=     0.125 Goal=   None    Shift=    0.000
 RMSDP=1.16D-08 MaxDP=4.87D-07              OVMax= 6.65D-07

 Cycle   2  Pass 1  IDiag  1:
 RMSU=  1.16D-08    CP:  1.00D+00
 E= -1036.60046449714     Delta-E=        0.000000000001 Rises=F Damp=F
 DIIS: error= 4.80D-08 at cycle   2 NSaved=   2.
 NSaved= 2 IEnMin= 1 EnMin= -1036.60046449715     IErMin= 2 ErrMin= 4.80D-08
 ErrMax= 4.80D-08  0.00D+00 EMaxC= 1.00D-01 BMatC= 6.95D-12 BMatP= 1.18D-11
 IDIUse=1 WtCom= 1.00D+00 WtEn= 0.00D+00
 Coeff-Com:  0.401D+00 0.599D+00
 Coeff:      0.401D+00 0.599D+00
 Gap=     0.166 Goal=   None    Shift=    0.000
 Gap=     0.125 Goal=   None    Shift=    0.000
 RMSDP=6.57D-09 MaxDP=5.15D-07 DE= 9.09D-13 OVMax= 1.25D-06

 SCF Done:  E(UAPFD) =  -1036.60046450     A.U. after    2 cycles
            NFock=  2  Conv=0.66D-08     -V/T= 2.0105
 <Sx>= 0.0000 <Sy>= 0.0000 <Sz>= 0.5000 <S**2>= 0.7566 S= 0.5033
 <L.S>=  0.00000000000    
 KE= 1.025829623269D+03 PE=-6.760661264353D+03 EE= 2.521234633022D+03
 Annihilation of the first spin contaminant:
 S**2 before annihilation     0.7566,   after     0.7500
 Leave Link  502 at Tue Oct 22 22:42:09 2019, MaxMem=  1835008000 cpu:             365.5 elap:               9.2
 (Enter /gpfs/apps/medsci/stacks/noOS/software/gaussian/g16.a03.avx2/g16/l508.exe)
 QCSCF skips out because SCF is already converged.
 Leave Link  508 at Tue Oct 22 22:42:10 2019, MaxMem=  1835008000 cpu:               1.0 elap:               0.0
 (Enter /gpfs/apps/medsci/stacks/noOS/software/gaussian/g16.a03.avx2/g16/l801.exe)
 DoSCS=F DFT=T ScalE2(SS,OS)=  1.000000  1.000000
 Range of M.O.s used for correlation:     1   471
 NBasis=   471 NAE=    89 NBE=    88 NFC=     0 NFV=     0
 NROrb=    471 NOA=    89 NOB=    88 NVA=   382 NVB=   383

 **** Warning!!: The largest alpha MO coefficient is  0.10871497D+02


 **** Warning!!: The largest beta MO coefficient is  0.10919283D+02

 Leave Link  801 at Tue Oct 22 22:42:10 2019, MaxMem=  1835008000 cpu:               1.8 elap:               0.1
 (Enter /gpfs/apps/medsci/stacks/noOS/software/gaussian/g16.a03.avx2/g16/l1101.exe)
 Using compressed storage, NAtomX=    51.
 Will process     52 centers per pass.
   1 Symmetry operations used in ECPInt.
 ECPInt:  NShTT=   25425 NPrTT=   90069 LenC2=   23138 LenP2D=   56544.
 LDataN:  DoStor=T MaxTD1= 5 Len=  102
 Number of processors reduced to   9 by ecpmxn.
 R6APFD:  NTU= -4 IXU= 1 FactS= 1.050
 R6Disp: Adding Petersson-Frisch dispersion energy 1st derivatives to the gradient.
 Leave Link 1101 at Tue Oct 22 22:42:11 2019, MaxMem=  1835008000 cpu:              52.2 elap:               1.5
 (Enter /gpfs/apps/medsci/stacks/noOS/software/gaussian/g16.a03.avx2/g16/l1102.exe)
 Symmetrizing basis deriv contribution to polar:
 IMax=3 JMax=2 DiffMx= 0.00D+00
 Leave Link 1102 at Tue Oct 22 22:42:11 2019, MaxMem=  1835008000 cpu:               2.6 elap:               0.1
 (Enter /gpfs/apps/medsci/stacks/noOS/software/gaussian/g16.a03.avx2/g16/l1110.exe)
 Forming Gx(P) for the SCF density, NAtomX=    51.
 Integral derivatives from FoFJK, PRISM(SPDF).
 Do as many integral derivatives as possible in FoFJK.
 G2DrvN: MDV=    1835004192.
 G2DrvN: will do    52 centers at a time, making    1 passes.
 Calling FoFCou, ICntrl=  3107 FMM=F I1Cent=   0 AccDes= 1.00D-12.
 FoFJK:  IHMeth= 1 ICntrl=    3107 DoSepK=F KAlg= 0 I1Cent=           0 FoldK=F
 IRaf=         0 NMat=       1 IRICut=       1 DoRegI=T DoRafI=F ISym2E= 0 IDoP0=0 IntGTp=1.
 FoFCou: FMM=F IPFlag=           0 FMFlag=      100000 FMFlg1=           0
         NFxFlg=           0 DoJE=F BraDBF=F KetDBF=F FulRan=T
         wScrn=  0.000000 ICntrl=      3107 IOpCl=  1 I1Cent=           0 NGrid=           0
         NMat0=    1 NMatS0=      1 NMatT0=    0 NMatD0=    1 NMtDS0=    0 NMtDT0=    0
 Symmetry not used in FoFCou.
 End of G2Drv F.D. properties file   721 does not exist.
 End of G2Drv F.D. properties file   722 does not exist.
 End of G2Drv F.D. properties file   788 does not exist.
 Leave Link 1110 at Tue Oct 22 22:44:32 2019, MaxMem=  1835008000 cpu:            5599.5 elap:             140.5
 (Enter /gpfs/apps/medsci/stacks/noOS/software/gaussian/g16.a03.avx2/g16/l1002.exe)
 Minotr:  UHF open shell wavefunction.
          IDoAtm=11111111111111111111111111111111111111111111111111
          IDoAtm=1
          Direct CPHF calculation.
          Differentiating once with respect to electric field.
                with respect to dipole field.
          Differentiating once with respect to nuclear coordinates.
          Requested convergence is 1.0D-08 RMS, and 1.0D-07 maximum.
          Secondary convergence is 1.0D-12 RMS, and 1.0D-12 maximum.
          NewPWx=T KeepS1=F KeepF1=F KeepIn=T MapXYZ=F SortEE=F KeepMc=T.
        15451 words used for storage of precomputed grid.
 Two-electron integrals replicated using symmetry.
          MDV=    1835008000 using IRadAn=       1.
          Solving linear equations simultaneously, MaxMat=     360.
 FoF2E skips out because all densities are zero.
 CalDSu exits because no D1Ps are significant.
 FoFJK:  IHMeth= 1 ICntrl=       0 DoSepK=F KAlg= 0 I1Cent=           0 FoldK=F
 IRaf= 840000000 NMat=      40 IRICut=     100 DoRegI=T DoRafI=T ISym2E= 2 IDoP0=3 IntGTp=3.
 FoFCou: FMM=F IPFlag=           0 FMFlag=      100000 FMFlg1=           0
         NFxFlg=           0 DoJE=F BraDBF=F KetDBF=F FulRan=T
         wScrn=  0.000000 ICntrl=         0 IOpCl=  1 I1Cent=           0 NGrid=           0
         NMat0=   40 NMatS0=     40 NMatT0=    0 NMatD0=   40 NMtDS0=    0 NMtDT0=    0
 Integrals replicated using symmetry in FoFCou.
 Raff kept on since  80.23% of shell-pairs survive, threshold=   0.20 IRatSp=80.
          There are   156 degrees of freedom in the 1st order CPHF.  IDoFFX=6 NUNeed=     3.
    153 vectors produced by pass  0 Test12= 6.77D-14 1.00D-09 XBig12= 5.56D+02 1.31D+01.
 AX will form    40 AO Fock derivatives at one time.
    153 vectors produced by pass  1 Test12= 6.77D-14 1.00D-09 XBig12= 1.09D+02 1.65D+00.
    153 vectors produced by pass  2 Test12= 6.77D-14 1.00D-09 XBig12= 2.11D+00 1.57D-01.
    153 vectors produced by pass  3 Test12= 6.77D-14 1.00D-09 XBig12= 2.27D-02 1.93D-02.
    153 vectors produced by pass  4 Test12= 6.77D-14 1.00D-09 XBig12= 1.71D-04 9.45D-04.
    153 vectors produced by pass  5 Test12= 6.77D-14 1.00D-09 XBig12= 8.35D-07 4.87D-05.
     86 vectors produced by pass  6 Test12= 6.77D-14 1.00D-09 XBig12= 2.79D-09 3.21D-06.
     11 vectors produced by pass  7 Test12= 6.77D-14 1.00D-09 XBig12= 1.06D-11 1.75D-07.
      3 vectors produced by pass  8 Test12= 6.77D-14 1.00D-09 XBig12= 4.47D-14 9.60D-09.
 InvSVY:  IOpt=1 It=  1 EMax= 7.34D-15
 Solved reduced A of dimension  1018 with   156 vectors.
 FullF1:  Do perturbations      1 to       3.
 Isotropic polarizability for W=    0.000000      255.53 Bohr**3.
 End of Minotr F.D. properties file   721 does not exist.
 End of Minotr F.D. properties file   722 does not exist.
 End of Minotr F.D. properties file   788 does not exist.
 Leave Link 1002 at Tue Oct 22 22:56:37 2019, MaxMem=  1835008000 cpu:           28901.0 elap:             724.8
 (Enter /gpfs/apps/medsci/stacks/noOS/software/gaussian/g16.a03.avx2/g16/l601.exe)
 Copying SCF densities to generalized density rwf, IOpCl= 1 IROHF=0.

 **********************************************************************

            Population analysis using the SCF density.

 **********************************************************************

 Orbital symmetries:
 Alpha Orbitals:
       Occupied  (A) (A) (A) (A) (A) (A) (A) (A) (A) (A) (A) (A)
                 (A) (A) (A) (A) (A) (A) (A) (A) (A) (A) (A) (A)
                 (A) (A) (A) (A) (A) (A) (A) (A) (A) (A) (A) (A)
                 (A) (A) (A) (A) (A) (A) (A) (A) (A) (A) (A) (A)
                 (A) (A) (A) (A) (A) (A) (A) (A) (A) (A) (A) (A)
                 (A) (A) (A) (A) (A) (A) (A) (A) (A) (A) (A) (A)
                 (A) (A) (A) (A) (A) (A) (A) (A) (A) (A) (A) (A)
                 (A) (A) (A) (A) (A)
       Virtual   (A) (A) (A) (A) (A) (A) (A) (A) (A) (A) (A) (A)
                 (A) (A) (A) (A) (A) (A) (A) (A) (A) (A) (A) (A)
                 (A) (A) (A) (A) (A) (A) (A) (A) (A) (A) (A) (A)
                 (A) (A) (A) (A) (A) (A) (A) (A) (A) (A) (A) (A)
                 (A) (A) (A) (A) (A) (A) (A) (A) (A) (A) (A) (A)
                 (A) (A) (A) (A) (A) (A) (A) (A) (A) (A) (A) (A)
                 (A) (A) (A) (A) (A) (A) (A) (A) (A) (A) (A) (A)
                 (A) (A) (A) (A) (A) (A) (A) (A) (A) (A) (A) (A)
                 (A) (A) (A) (A) (A) (A) (A) (A) (A) (A) (A) (A)
                 (A) (A) (A) (A) (A) (A) (A) (A) (A) (A) (A) (A)
                 (A) (A) (A) (A) (A) (A) (A) (A) (A) (A) (A) (A)
                 (A) (A) (A) (A) (A) (A) (A) (A) (A) (A) (A) (A)
                 (A) (A) (A) (A) (A) (A) (A) (A) (A) (A) (A) (A)
                 (A) (A) (A) (A) (A) (A) (A) (A) (A) (A) (A) (A)
                 (A) (A) (A) (A) (A) (A) (A) (A) (A) (A) (A) (A)
                 (A) (A) (A) (A) (A) (A) (A) (A) (A) (A) (A) (A)
                 (A) (A) (A) (A) (A) (A) (A) (A) (A) (A) (A) (A)
                 (A) (A) (A) (A) (A) (A) (A) (A) (A) (A) (A) (A)
                 (A) (A) (A) (A) (A) (A) (A) (A) (A) (A) (A) (A)
                 (A) (A) (A) (A) (A) (A) (A) (A) (A) (A) (A) (A)
                 (A) (A) (A) (A) (A) (A) (A) (A) (A) (A) (A) (A)
                 (A) (A) (A) (A) (A) (A) (A) (A) (A) (A) (A) (A)
                 (A) (A) (A) (A) (A) (A) (A) (A) (A) (A) (A) (A)
                 (A) (A) (A) (A) (A) (A) (A) (A) (A) (A) (A) (A)
                 (A) (A) (A) (A) (A) (A) (A) (A) (A) (A) (A) (A)
                 (A) (A) (A) (A) (A) (A) (A) (A) (A) (A) (A) (A)
                 (A) (A) (A) (A) (A) (A) (A) (A) (A) (A) (A) (A)
                 (A) (A) (A) (A) (A) (A) (A) (A) (A) (A) (A) (A)
                 (A) (A) (A) (A) (A) (A) (A) (A) (A) (A) (A) (A)
                 (A) (A) (A) (A) (A) (A) (A) (A) (A) (A) (A) (A)
                 (A) (A) (A) (A) (A) (A) (A) (A) (A) (A) (A) (A)
                 (A) (A) (A) (A) (A) (A) (A) (A) (A) (A)
 Beta  Orbitals:
       Occupied  (A) (A) (A) (A) (A) (A) (A) (A) (A) (A) (A) (A)
                 (A) (A) (A) (A) (A) (A) (A) (A) (A) (A) (A) (A)
                 (A) (A) (A) (A) (A) (A) (A) (A) (A) (A) (A) (A)
                 (A) (A) (A) (A) (A) (A) (A) (A) (A) (A) (A) (A)
                 (A) (A) (A) (A) (A) (A) (A) (A) (A) (A) (A) (A)
                 (A) (A) (A) (A) (A) (A) (A) (A) (A) (A) (A) (A)
                 (A) (A) (A) (A) (A) (A) (A) (A) (A) (A) (A) (A)
                 (A) (A) (A) (A)
       Virtual   (A) (A) (A) (A) (A) (A) (A) (A) (A) (A) (A) (A)
                 (A) (A) (A) (A) (A) (A) (A) (A) (A) (A) (A) (A)
                 (A) (A) (A) (A) (A) (A) (A) (A) (A) (A) (A) (A)
                 (A) (A) (A) (A) (A) (A) (A) (A) (A) (A) (A) (A)
                 (A) (A) (A) (A) (A) (A) (A) (A) (A) (A) (A) (A)
                 (A) (A) (A) (A) (A) (A) (A) (A) (A) (A) (A) (A)
                 (A) (A) (A) (A) (A) (A) (A) (A) (A) (A) (A) (A)
                 (A) (A) (A) (A) (A) (A) (A) (A) (A) (A) (A) (A)
                 (A) (A) (A) (A) (A) (A) (A) (A) (A) (A) (A) (A)
                 (A) (A) (A) (A) (A) (A) (A) (A) (A) (A) (A) (A)
                 (A) (A) (A) (A) (A) (A) (A) (A) (A) (A) (A) (A)
                 (A) (A) (A) (A) (A) (A) (A) (A) (A) (A) (A) (A)
                 (A) (A) (A) (A) (A) (A) (A) (A) (A) (A) (A) (A)
                 (A) (A) (A) (A) (A) (A) (A) (A) (A) (A) (A) (A)
                 (A) (A) (A) (A) (A) (A) (A) (A) (A) (A) (A) (A)
                 (A) (A) (A) (A) (A) (A) (A) (A) (A) (A) (A) (A)
                 (A) (A) (A) (A) (A) (A) (A) (A) (A) (A) (A) (A)
                 (A) (A) (A) (A) (A) (A) (A) (A) (A) (A) (A) (A)
                 (A) (A) (A) (A) (A) (A) (A) (A) (A) (A) (A) (A)
                 (A) (A) (A) (A) (A) (A) (A) (A) (A) (A) (A) (A)
                 (A) (A) (A) (A) (A) (A) (A) (A) (A) (A) (A) (A)
                 (A) (A) (A) (A) (A) (A) (A) (A) (A) (A) (A) (A)
                 (A) (A) (A) (A) (A) (A) (A) (A) (A) (A) (A) (A)
                 (A) (A) (A) (A) (A) (A) (A) (A) (A) (A) (A) (A)
                 (A) (A) (A) (A) (A) (A) (A) (A) (A) (A) (A) (A)
                 (A) (A) (A) (A) (A) (A) (A) (A) (A) (A) (A) (A)
                 (A) (A) (A) (A) (A) (A) (A) (A) (A) (A) (A) (A)
                 (A) (A) (A) (A) (A) (A) (A) (A) (A) (A) (A) (A)
                 (A) (A) (A) (A) (A) (A) (A) (A) (A) (A) (A) (A)
                 (A) (A) (A) (A) (A) (A) (A) (A) (A) (A) (A) (A)
                 (A) (A) (A) (A) (A) (A) (A) (A) (A) (A) (A) (A)
                 (A) (A) (A) (A) (A) (A) (A) (A) (A) (A) (A)
 The electronic state is 2-A.
 Alpha  occ. eigenvalues --  -19.22026 -19.19412 -14.39961 -14.34442 -10.25606
 Alpha  occ. eigenvalues --  -10.25203 -10.24261 -10.23744 -10.22753 -10.22491
 Alpha  occ. eigenvalues --  -10.22153 -10.22146 -10.22095 -10.22072 -10.22046
 Alpha  occ. eigenvalues --  -10.22018 -10.21955 -10.21676 -10.21638 -10.21602
 Alpha  occ. eigenvalues --  -10.21520 -10.21137 -10.21087 -10.20829  -1.12858
 Alpha  occ. eigenvalues --   -0.98351  -0.92907  -0.87630  -0.86811  -0.86167
 Alpha  occ. eigenvalues --   -0.81617  -0.78981  -0.77346  -0.76975  -0.74374
 Alpha  occ. eigenvalues --   -0.72311  -0.70507  -0.68504  -0.66510  -0.66012
 Alpha  occ. eigenvalues --   -0.63280  -0.62623  -0.61448  -0.59638  -0.58206
 Alpha  occ. eigenvalues --   -0.56645  -0.53431  -0.53339  -0.51061  -0.50361
 Alpha  occ. eigenvalues --   -0.49497  -0.49067  -0.48337  -0.47766  -0.47325
 Alpha  occ. eigenvalues --   -0.46983  -0.46234  -0.45990  -0.45335  -0.44785
 Alpha  occ. eigenvalues --   -0.44212  -0.43558  -0.43117  -0.41439  -0.40843
 Alpha  occ. eigenvalues --   -0.40315  -0.39682  -0.38932  -0.38604  -0.38082
 Alpha  occ. eigenvalues --   -0.37841  -0.37127  -0.36793  -0.36566  -0.36064
 Alpha  occ. eigenvalues --   -0.35864  -0.35166  -0.34696  -0.34604  -0.34300
 Alpha  occ. eigenvalues --   -0.32300  -0.28611  -0.26840  -0.26426  -0.26131
 Alpha  occ. eigenvalues --   -0.25730  -0.24833  -0.21158  -0.18717
 Alpha virt. eigenvalues --   -0.02084  -0.01399  -0.00920  -0.00684   0.05599
 Alpha virt. eigenvalues --    0.06904   0.07695   0.07798   0.08614   0.09355
 Alpha virt. eigenvalues --    0.10210   0.10606   0.11235   0.11770   0.12622
 Alpha virt. eigenvalues --    0.12724   0.13057   0.13398   0.13774   0.13923
 Alpha virt. eigenvalues --    0.14422   0.14732   0.15402   0.15645   0.16137
 Alpha virt. eigenvalues --    0.16631   0.16731   0.17203   0.17384   0.17822
 Alpha virt. eigenvalues --    0.18471   0.19434   0.20061   0.20658   0.21343
 Alpha virt. eigenvalues --    0.22454   0.23290   0.23942   0.24336   0.24715
 Alpha virt. eigenvalues --    0.25732   0.26403   0.27313   0.27807   0.28725
 Alpha virt. eigenvalues --    0.29268   0.30563   0.31045   0.31704   0.31945
 Alpha virt. eigenvalues --    0.32588   0.33169   0.34197   0.35186   0.36870
 Alpha virt. eigenvalues --    0.39196   0.40309   0.40739   0.41421   0.42382
 Alpha virt. eigenvalues --    0.42814   0.43258   0.43909   0.44079   0.44921
 Alpha virt. eigenvalues --    0.45731   0.45907   0.46748   0.47600   0.47916
 Alpha virt. eigenvalues --    0.48416   0.48611   0.49026   0.49161   0.50479
 Alpha virt. eigenvalues --    0.51119   0.51262   0.52280   0.53102   0.53903
 Alpha virt. eigenvalues --    0.54063   0.55233   0.55776   0.56281   0.57135
 Alpha virt. eigenvalues --    0.58239   0.58723   0.59772   0.60342   0.61133
 Alpha virt. eigenvalues --    0.61789   0.62343   0.62851   0.63618   0.64158
 Alpha virt. eigenvalues --    0.64517   0.64624   0.65157   0.65224   0.65520
 Alpha virt. eigenvalues --    0.65868   0.66280   0.66724   0.66834   0.67201
 Alpha virt. eigenvalues --    0.67354   0.68139   0.68274   0.68793   0.68886
 Alpha virt. eigenvalues --    0.69260   0.69663   0.69973   0.70154   0.70761
 Alpha virt. eigenvalues --    0.71102   0.71356   0.72316   0.72521   0.72821
 Alpha virt. eigenvalues --    0.73491   0.73620   0.74377   0.74929   0.75280
 Alpha virt. eigenvalues --    0.75510   0.75892   0.77004   0.77152   0.78064
 Alpha virt. eigenvalues --    0.78356   0.78401   0.78905   0.79495   0.80337
 Alpha virt. eigenvalues --    0.82327   0.82832   0.83456   0.84051   0.85217
 Alpha virt. eigenvalues --    0.87633   0.88226   0.89713   0.89960   0.90875
 Alpha virt. eigenvalues --    0.92976   0.94720   0.95520   0.96596   0.96931
 Alpha virt. eigenvalues --    0.98749   1.00106   1.01552   1.03021   1.04472
 Alpha virt. eigenvalues --    1.04906   1.05992   1.06372   1.09321   1.09954
 Alpha virt. eigenvalues --    1.10803   1.11357   1.13704   1.14667   1.15850
 Alpha virt. eigenvalues --    1.16623   1.17672   1.19583   1.19790   1.20616
 Alpha virt. eigenvalues --    1.21398   1.22448   1.23333   1.24912   1.25763
 Alpha virt. eigenvalues --    1.25786   1.26974   1.27214   1.27373   1.28189
 Alpha virt. eigenvalues --    1.28680   1.29825   1.30699   1.31896   1.33038
 Alpha virt. eigenvalues --    1.34835   1.35762   1.36185   1.38763   1.40197
 Alpha virt. eigenvalues --    1.42961   1.45102   1.46286   1.48009   1.48746
 Alpha virt. eigenvalues --    1.50168   1.50341   1.52332   1.52544   1.53621
 Alpha virt. eigenvalues --    1.54463   1.54869   1.56088   1.56413   1.57788
 Alpha virt. eigenvalues --    1.60163   1.60868   1.62863   1.64009   1.66956
 Alpha virt. eigenvalues --    1.67330   1.67712   1.69184   1.69991   1.70748
 Alpha virt. eigenvalues --    1.70827   1.70968   1.72057   1.73175   1.73345
 Alpha virt. eigenvalues --    1.74103   1.74215   1.75128   1.75559   1.75949
 Alpha virt. eigenvalues --    1.76992   1.77304   1.77885   1.78175   1.78446
 Alpha virt. eigenvalues --    1.78735   1.79328   1.79568   1.80609   1.81500
 Alpha virt. eigenvalues --    1.81680   1.82182   1.82566   1.83141   1.83906
 Alpha virt. eigenvalues --    1.84329   1.84675   1.85327   1.85817   1.86695
 Alpha virt. eigenvalues --    1.86846   1.88038   1.88603   1.89015   1.89698
 Alpha virt. eigenvalues --    1.90087   1.90793   1.91261   1.92243   1.92643
 Alpha virt. eigenvalues --    1.93271   1.93661   1.94718   1.95063   1.95702
 Alpha virt. eigenvalues --    1.96143   1.96842   1.97427   1.98162   1.98965
 Alpha virt. eigenvalues --    2.00167   2.00871   2.02281   2.03180   2.04368
 Alpha virt. eigenvalues --    2.05141   2.05927   2.07293   2.07627   2.09213
 Alpha virt. eigenvalues --    2.09799   2.11047   2.12542   2.13430   2.14432
 Alpha virt. eigenvalues --    2.14927   2.16335   2.16707   2.18665   2.19488
 Alpha virt. eigenvalues --    2.20286   2.21196   2.22782   2.23455   2.25012
 Alpha virt. eigenvalues --    2.25526   2.26677   2.26975   2.27973   2.29407
 Alpha virt. eigenvalues --    2.29978   2.31273   2.31948   2.32214   2.32557
 Alpha virt. eigenvalues --    2.34004   2.34754   2.35348   2.35854   2.36895
 Alpha virt. eigenvalues --    2.38735   2.39184   2.40424   2.41700   2.42718
 Alpha virt. eigenvalues --    2.44042   2.44263   2.45362   2.46721   2.47703
 Alpha virt. eigenvalues --    2.48557   2.49908   2.52080   2.52527   2.53617
 Alpha virt. eigenvalues --    2.57140   2.57497   2.58592   2.59222   2.60212
 Alpha virt. eigenvalues --    2.61730   2.62603   2.63248   2.63516   2.64221
 Alpha virt. eigenvalues --    2.65759   2.66542   2.67053   2.68702   2.69290
 Alpha virt. eigenvalues --    2.72384   2.73128   2.73757   2.73964   2.74613
 Alpha virt. eigenvalues --    2.77058   2.79455   2.82810   2.83331   2.85140
 Alpha virt. eigenvalues --    2.86149   2.86536   2.87663   2.87928   2.90228
 Alpha virt. eigenvalues --    2.90443   2.90671   2.91848   2.93193   2.94119
 Alpha virt. eigenvalues --    2.95655   2.96227   2.96821   3.00216   3.01271
 Alpha virt. eigenvalues --    3.02347   3.02601   3.05671   3.06821   3.08880
 Alpha virt. eigenvalues --    3.09657   3.11792   3.12057   3.16099   3.18800
 Alpha virt. eigenvalues --    3.18944   3.20135   3.21160   3.22963   3.24577
 Alpha virt. eigenvalues --    3.28624   3.32381   3.35303   3.56427   3.62065
 Alpha virt. eigenvalues --    3.63473   3.93023
  Beta  occ. eigenvalues --  -19.21783 -19.18174 -14.39504 -14.34434 -10.25659
  Beta  occ. eigenvalues --  -10.25235 -10.24274 -10.23121 -10.22700 -10.22458
  Beta  occ. eigenvalues --  -10.22153 -10.22125 -10.22086 -10.22072 -10.22046
  Beta  occ. eigenvalues --  -10.22019 -10.21960 -10.21662 -10.21605 -10.21584
  Beta  occ. eigenvalues --  -10.21535 -10.21136 -10.21091 -10.20839  -1.11634
  Beta  occ. eigenvalues --   -0.97602  -0.92889  -0.87589  -0.86516  -0.84502
  Beta  occ. eigenvalues --   -0.81575  -0.78519  -0.77302  -0.76908  -0.74286
  Beta  occ. eigenvalues --   -0.72195  -0.70502  -0.68078  -0.66464  -0.65567
  Beta  occ. eigenvalues --   -0.63149  -0.62409  -0.61245  -0.59569  -0.58078
  Beta  occ. eigenvalues --   -0.56385  -0.53276  -0.52556  -0.50486  -0.50110
  Beta  occ. eigenvalues --   -0.49302  -0.48848  -0.48160  -0.47386  -0.46894
  Beta  occ. eigenvalues --   -0.46482  -0.46089  -0.45843  -0.45255  -0.44647
  Beta  occ. eigenvalues --   -0.44155  -0.43273  -0.42672  -0.41311  -0.40372
  Beta  occ. eigenvalues --   -0.39987  -0.39539  -0.38839  -0.38160  -0.37806
  Beta  occ. eigenvalues --   -0.37640  -0.36842  -0.36558  -0.36167  -0.35958
  Beta  occ. eigenvalues --   -0.35598  -0.34791  -0.34595  -0.34305  -0.34112
  Beta  occ. eigenvalues --   -0.30953  -0.27639  -0.26685  -0.26096  -0.25682
  Beta  occ. eigenvalues --   -0.25256  -0.22059  -0.20995
  Beta virt. eigenvalues --   -0.08468  -0.02008  -0.01243  -0.00851  -0.00466
  Beta virt. eigenvalues --    0.05697   0.06923   0.07710   0.07834   0.08919
  Beta virt. eigenvalues --    0.09430   0.10488   0.10742   0.11378   0.11806
  Beta virt. eigenvalues --    0.12656   0.12838   0.13092   0.13445   0.13823
  Beta virt. eigenvalues --    0.13993   0.14460   0.14764   0.15475   0.15722
  Beta virt. eigenvalues --    0.16225   0.16757   0.16785   0.17277   0.17421
  Beta virt. eigenvalues --    0.17868   0.18529   0.19712   0.20168   0.20739
  Beta virt. eigenvalues --    0.21572   0.22695   0.23539   0.24129   0.24524
  Beta virt. eigenvalues --    0.24897   0.25894   0.26468   0.27421   0.27852
  Beta virt. eigenvalues --    0.28840   0.29428   0.30613   0.31275   0.31849
  Beta virt. eigenvalues --    0.32200   0.32806   0.33932   0.34420   0.35302
  Beta virt. eigenvalues --    0.36947   0.39232   0.40390   0.40853   0.41504
  Beta virt. eigenvalues --    0.42512   0.42999   0.43356   0.44016   0.44199
  Beta virt. eigenvalues --    0.45031   0.45789   0.45983   0.46851   0.47691
  Beta virt. eigenvalues --    0.47968   0.48459   0.48672   0.49113   0.49229
  Beta virt. eigenvalues --    0.50548   0.51185   0.51364   0.52402   0.53215
  Beta virt. eigenvalues --    0.54024   0.54186   0.55341   0.56046   0.56429
  Beta virt. eigenvalues --    0.57190   0.58322   0.58873   0.59849   0.60478
  Beta virt. eigenvalues --    0.61220   0.61944   0.62519   0.63008   0.63767
  Beta virt. eigenvalues --    0.64195   0.64557   0.64699   0.65211   0.65317
  Beta virt. eigenvalues --    0.65593   0.65928   0.66336   0.66780   0.66917
  Beta virt. eigenvalues --    0.67310   0.67641   0.68211   0.68330   0.68844
  Beta virt. eigenvalues --    0.68940   0.69299   0.69833   0.70069   0.70270
  Beta virt. eigenvalues --    0.70804   0.71173   0.71405   0.72356   0.72590
  Beta virt. eigenvalues --    0.72889   0.73540   0.73683   0.74498   0.74993
  Beta virt. eigenvalues --    0.75330   0.75641   0.75939   0.77066   0.77230
  Beta virt. eigenvalues --    0.78125   0.78406   0.78575   0.79005   0.79577
  Beta virt. eigenvalues --    0.80425   0.82413   0.83017   0.83525   0.84269
  Beta virt. eigenvalues --    0.85351   0.87816   0.88331   0.89775   0.90146
  Beta virt. eigenvalues --    0.90948   0.93057   0.94825   0.95679   0.97031
  Beta virt. eigenvalues --    0.97325   0.98967   1.00318   1.01986   1.03170
  Beta virt. eigenvalues --    1.04612   1.04998   1.06282   1.06476   1.09550
  Beta virt. eigenvalues --    1.10080   1.10973   1.12067   1.14265   1.14981
  Beta virt. eigenvalues --    1.15968   1.16951   1.17878   1.19747   1.19874
  Beta virt. eigenvalues --    1.20755   1.21581   1.22666   1.23466   1.25073
  Beta virt. eigenvalues --    1.25879   1.25923   1.27028   1.27389   1.27541
  Beta virt. eigenvalues --    1.28285   1.28866   1.29933   1.30784   1.31999
  Beta virt. eigenvalues --    1.33139   1.35021   1.35989   1.36636   1.39011
  Beta virt. eigenvalues --    1.40259   1.43185   1.45212   1.46405   1.48146
  Beta virt. eigenvalues --    1.48907   1.50300   1.50534   1.52427   1.52568
  Beta virt. eigenvalues --    1.53727   1.54549   1.54892   1.56179   1.56520
  Beta virt. eigenvalues --    1.58188   1.60329   1.61199   1.62950   1.64340
  Beta virt. eigenvalues --    1.67039   1.67387   1.67786   1.69291   1.70180
  Beta virt. eigenvalues --    1.70834   1.71058   1.71203   1.72128   1.73275
  Beta virt. eigenvalues --    1.73394   1.74196   1.74378   1.75519   1.75772
  Beta virt. eigenvalues --    1.76104   1.77078   1.77443   1.78052   1.78273
  Beta virt. eigenvalues --    1.78598   1.78774   1.79400   1.79772   1.80760
  Beta virt. eigenvalues --    1.81554   1.81742   1.82241   1.82670   1.83257
  Beta virt. eigenvalues --    1.83962   1.84381   1.84731   1.85416   1.85973
  Beta virt. eigenvalues --    1.86847   1.86957   1.88217   1.88638   1.89092
  Beta virt. eigenvalues --    1.89790   1.90224   1.90933   1.91311   1.92351
  Beta virt. eigenvalues --    1.92828   1.93335   1.93801   1.94771   1.95099
  Beta virt. eigenvalues --    1.95768   1.96242   1.96895   1.97534   1.98241
  Beta virt. eigenvalues --    1.99008   2.00266   2.01005   2.02359   2.03244
  Beta virt. eigenvalues --    2.04506   2.05329   2.06047   2.07410   2.07759
  Beta virt. eigenvalues --    2.09487   2.09926   2.11261   2.12625   2.13550
  Beta virt. eigenvalues --    2.14491   2.15036   2.16389   2.16787   2.18749
  Beta virt. eigenvalues --    2.19558   2.20372   2.21268   2.22880   2.23551
  Beta virt. eigenvalues --    2.25081   2.25795   2.26806   2.27096   2.28108
  Beta virt. eigenvalues --    2.29456   2.30060   2.31581   2.32017   2.32369
  Beta virt. eigenvalues --    2.32941   2.34144   2.34954   2.35527   2.36234
  Beta virt. eigenvalues --    2.37036   2.38871   2.39386   2.41129   2.41952
  Beta virt. eigenvalues --    2.42936   2.44295   2.44605   2.45675   2.46986
  Beta virt. eigenvalues --    2.47997   2.48741   2.50197   2.52337   2.52924
  Beta virt. eigenvalues --    2.53822   2.57284   2.57884   2.58835   2.59497
  Beta virt. eigenvalues --    2.60376   2.61845   2.62748   2.63289   2.63592
  Beta virt. eigenvalues --    2.64306   2.65836   2.66627   2.67584   2.69017
  Beta virt. eigenvalues --    2.69410   2.72666   2.73230   2.73901   2.74034
  Beta virt. eigenvalues --    2.74720   2.78492   2.79711   2.82897   2.83769
  Beta virt. eigenvalues --    2.85244   2.86343   2.86753   2.87870   2.88433
  Beta virt. eigenvalues --    2.90272   2.90524   2.90730   2.91944   2.93485
  Beta virt. eigenvalues --    2.94223   2.95831   2.96326   2.96908   3.00292
  Beta virt. eigenvalues --    3.01359   3.02656   3.03174   3.05845   3.07102
  Beta virt. eigenvalues --    3.09001   3.09725   3.11938   3.12131   3.16366
  Beta virt. eigenvalues --    3.19028   3.19751   3.20879   3.21581   3.23009
  Beta virt. eigenvalues --    3.24808   3.28762   3.32584   3.35587   3.58386
  Beta virt. eigenvalues --    3.62197   3.63529   3.94262
          Condensed to atoms (all electrons):
          Atomic-Atomic Spin Densities.
 Mulliken charges and spin densities:
               1          2
     1  N   -0.319919   0.176173
     2  C   -0.004154   0.329617
     3  C    0.059759  -0.016133
     4  C   -0.036592  -0.018604
     5  H    0.183122  -0.014587
     6  H    0.055657   0.002437
     7  C    0.086090  -0.030050
     8  C   -0.001200   0.012310
     9  C   -0.074032   0.015369
    10  C    0.083564   0.000318
    11  H    0.033938   0.029085
    12  H    0.058671   0.004350
    13  C   -0.013613   0.030264
    14  C   -0.034883   0.034729
    15  C   -0.018196  -0.005859
    16  H    0.008912  -0.000897
    17  C    0.080429   0.000252
    18  C   -0.067538  -0.005299
    19  N   -0.425834   0.002423
    20  H    0.050886  -0.000324
    21  H    0.008751  -0.000032
    22  C   -0.018420  -0.016813
    23  H    0.007293  -0.001125
    24  C    0.017872  -0.002627
    25  C   -0.068275  -0.017662
    26  C    0.001691   0.008851
    27  H    0.022256   0.000532
    28  H    0.014567  -0.000070
    29  H    0.065182  -0.001776
    30  H    0.007341   0.000768
    31  C    0.050082   0.000009
    32  C    0.067480   0.000016
    33  C    0.004207   0.027915
    34  H    0.019175   0.000938
    35  H    0.049820   0.000997
    36  H    0.048665   0.000952
    37  H    0.007587   0.000936
    38  H    0.021147  -0.000429
    39  H    0.027534  -0.000020
    40  H    0.003864   0.000756
    41  H    0.066170  -0.000385
    42  H    0.037209  -0.000034
    43  H    0.006188   0.000156
    44  H    0.031518  -0.000268
    45  H    0.019704  -0.001351
    46  O   -0.246595   0.378883
    47  O   -0.233918   0.071765
    48  C    0.116644  -0.006377
    49  H    0.044858  -0.000627
    50  H    0.057424   0.004504
    51  H    0.037913   0.006045
 Sum of Mulliken charges =  -0.00000   1.00000
 Mulliken charges and spin densities with hydrogens summed into heavy atoms:
               1          2
     1  N   -0.319919   0.176173
     2  C    0.234625   0.317467
     3  C    0.059759  -0.016133
     4  C    0.056016   0.014830
     7  C    0.086090  -0.030050
     8  C    0.007712   0.011413
     9  C   -0.074032   0.015369
    10  C    0.143201  -0.000038
    13  C   -0.006320   0.029139
    14  C   -0.034883   0.034729
    15  C    0.004061  -0.005326
    17  C    0.160179  -0.001593
    18  C   -0.060198  -0.004532
    19  N   -0.425834   0.002423
    22  C    0.000754  -0.015875
    24  C    0.116356  -0.000678
    25  C   -0.060688  -0.016726
    26  C    0.022838   0.008422
    31  C    0.147649   0.000360
    32  C    0.142395  -0.000131
    33  C    0.023911   0.026564
    46  O   -0.246595   0.378883
    47  O   -0.233918   0.071765
    48  C    0.256839   0.003544
 APT charges:
               1
     1  N   -0.848202
     2  C    0.643648
     3  C    0.247368
     4  C   -0.016252
     5  H   -0.227764
     6  H    0.003997
     7  C    0.389652
     8  C   -0.065731
     9  C    0.001011
    10  C    0.350770
    11  H   -0.036815
    12  H   -0.010455
    13  C   -0.121367
    14  C   -0.031966
    15  C   -0.037918
    16  H    0.049842
    17  C    0.029350
    18  C   -0.043554
    19  N   -0.673631
    20  H    0.033467
    21  H   -0.099854
    22  C   -0.018380
    23  H    0.050749
    24  C    0.099256
    25  C   -0.032628
    26  C   -0.027459
    27  H    0.031552
    28  H   -0.022894
    29  H    0.024089
    30  H    0.029027
    31  C    0.321778
    32  C    0.355603
    33  C   -0.071191
    34  H    0.029527
    35  H   -0.033971
    36  H   -0.021007
    37  H    0.025336
    38  H    0.032247
    39  H   -0.026520
    40  H   -0.102316
    41  H    0.045372
    42  H   -0.022308
    43  H   -0.101888
    44  H   -0.008524
    45  H    0.030569
    46  O    0.140924
    47  O   -0.586399
    48  C    0.374723
    49  H   -0.007551
    50  H   -0.017971
    51  H   -0.025339
 Sum of APT charges =  -0.00000
 APT charges with hydrogens summed into heavy atoms:
               1
     1  N   -0.848202
     2  C    0.419881
     3  C    0.247368
     4  C   -0.063522
     7  C    0.389652
     8  C   -0.015888
     9  C    0.001011
    10  C    0.284382
    13  C   -0.070618
    14  C   -0.031966
    15  C   -0.006367
    17  C    0.030544
    18  C   -0.014527
    19  N   -0.673631
    22  C    0.011147
    24  C    0.044279
    25  C   -0.007292
    26  C    0.004788
    31  C    0.238315
    32  C    0.222883
    33  C   -0.040622
    46  O    0.140924
    47  O   -0.586399
    48  C    0.323862
 Electronic spatial extent (au):  <R**2>=           7974.8108
 Charge=             -0.0000 electrons
 Dipole moment (field-independent basis, Debye):
    X=             -1.6583    Y=              0.4721    Z=              1.8759  Tot=              2.5479
 Quadrupole moment (field-independent basis, Debye-Ang):
   XX=           -142.6338   YY=           -130.9702   ZZ=           -145.6572
   XY=             -0.6047   XZ=             10.4722   YZ=             -0.8076
 Traceless Quadrupole moment (field-independent basis, Debye-Ang):
   XX=             -2.8800   YY=              8.7836   ZZ=             -5.9035
   XY=             -0.6047   XZ=             10.4722   YZ=             -0.8076
 Octapole moment (field-independent basis, Debye-Ang**2):
  XXX=             15.6747  YYY=             30.5951  ZZZ=              9.2935  XYY=             -8.1880
  XXY=             -4.7531  XXZ=            -18.5680  XZZ=              1.8891  YZZ=              9.6819
  YYZ=              6.0252  XYZ=              1.8793
 Hexadecapole moment (field-independent basis, Debye-Ang**3):
 XXXX=          -5482.0274 YYYY=          -3600.8087 ZZZZ=          -1461.1461 XXXY=             96.0509
 XXXZ=            116.1416 YYYX=             55.7001 YYYZ=            -48.8749 ZZZX=             36.2168
 ZZZY=             10.2554 XXYY=          -1479.9694 XXZZ=          -1189.9105 YYZZ=           -841.6446
 XXYZ=              0.7290 YYXZ=            -23.9411 ZZXY=            -14.9056
 N-N= 2.176996543565D+03 E-N=-6.760661228818D+03  KE= 1.025829623269D+03
  Exact polarizability: 268.793  23.414 282.821   6.971 -12.971 214.991
 Approx polarizability: 356.073  25.446 405.616  22.041 -31.944 363.690
                          Isotropic Fermi Contact Couplings
        Atom                 a.u.       MegaHertz       Gauss      10(-4) cm-1
     1  N(14)              0.05762      18.61848       6.64354       6.21046
     2  C(13)              0.10945     123.04050      43.90391      41.04189
     3  C(13)             -0.01143     -12.85138      -4.58569      -4.28676
     4  C(13)              0.00053       0.59572       0.21257       0.19871
     5  H(1)              -0.00355     -15.88900      -5.66959      -5.30000
     6  H(1)               0.00346      15.48343       5.52487       5.16472
     7  C(13)             -0.01467     -16.48646      -5.88278      -5.49929
     8  C(13)              0.00727       8.16728       2.91429       2.72431
     9  C(13)              0.01208      13.57596       4.84424       4.52845
    10  C(13)              0.00056       0.63256       0.22571       0.21100
    11  H(1)               0.00957      42.78537      15.26688      14.27166
    12  H(1)               0.00244      10.90034       3.88951       3.63596
    13  C(13)              0.01567      17.61254       6.28459       5.87491
    14  C(13)              0.01236      13.89882       4.95944       4.63615
    15  C(13)             -0.00078      -0.88090      -0.31433      -0.29384
    16  H(1)              -0.00019      -0.86352      -0.30813      -0.28804
    17  C(13)             -0.00150      -1.68525      -0.60134      -0.56214
    18  C(13)             -0.00030      -0.33738      -0.12039      -0.11254
    19  N(14)              0.00132       0.42702       0.15237       0.14244
    20  H(1)              -0.00011      -0.49139      -0.17534      -0.16391
    21  H(1)              -0.00013      -0.57774      -0.20615      -0.19271
    22  C(13)             -0.00241      -2.71184      -0.96765      -0.90457
    23  H(1)              -0.00045      -2.01980      -0.72071      -0.67373
    24  C(13)             -0.00044      -0.49872      -0.17796      -0.16636
    25  C(13)             -0.00344      -3.86406      -1.37879      -1.28891
    26  C(13)              0.00142       1.59311       0.56846       0.53140
    27  H(1)               0.00017       0.77001       0.27476       0.25685
    28  H(1)               0.00001       0.03768       0.01345       0.01257
    29  H(1)               0.00010       0.44949       0.16039       0.14993
    30  H(1)               0.00023       1.02526       0.36584       0.34199
    31  C(13)              0.00076       0.85332       0.30448       0.28464
    32  C(13)              0.00019       0.21723       0.07751       0.07246
    33  C(13)              0.00472       5.31139       1.89524       1.77169
    34  H(1)               0.00030       1.32398       0.47243       0.44163
    35  H(1)               0.00045       2.01248       0.71810       0.67129
    36  H(1)               0.00048       2.13764       0.76276       0.71304
    37  H(1)               0.00030       1.32057       0.47121       0.44050
    38  H(1)              -0.00013      -0.55901      -0.19947      -0.18647
    39  H(1)               0.00001       0.02300       0.00821       0.00767
    40  H(1)               0.00019       0.83313       0.29728       0.27790
    41  H(1)               0.00005       0.22220       0.07928       0.07412
    42  H(1)              -0.00002      -0.07234      -0.02581      -0.02413
    43  H(1)               0.00001       0.03860       0.01377       0.01288
    44  H(1)               0.00002       0.10289       0.03671       0.03432
    45  H(1)              -0.00039      -1.74524      -0.62274      -0.58215
    46  O(17)              0.18880    -114.45194     -40.83930     -38.17706
    47  O(17)              0.03812     -23.10930      -8.24597      -7.70843
    48  C(13)             -0.00567      -6.37648      -2.27529      -2.12697
    49  H(1)              -0.00017      -0.78162      -0.27890      -0.26072
    50  H(1)               0.00266      11.90152       4.24676       3.96992
    51  H(1)               0.00115       5.13419       1.83201       1.71258
 --------------------------------------------------------
       Center         ----  Spin Dipole Couplings  ----
                      3XX-RR        3YY-RR        3ZZ-RR
 --------------------------------------------------------
     1   Atom       -0.244099     -0.185706      0.429805
     2   Atom       -0.226996     -0.137771      0.364767
     3   Atom       -0.006990      0.007261     -0.000271
     4   Atom       -0.007909      0.017422     -0.009513
     5   Atom       -0.071282     -0.030741      0.102023
     6   Atom       -0.005676      0.002007      0.003668
     7   Atom        0.007945      0.006263     -0.014208
     8   Atom        0.004838     -0.002522     -0.002315
     9   Atom        0.014719     -0.004572     -0.010147
    10   Atom        0.003870      0.000509     -0.004379
    11   Atom       -0.003490      0.004616     -0.001126
    12   Atom       -0.005775      0.009283     -0.003508
    13   Atom       -0.006941      0.008662     -0.001721
    14   Atom        0.015857     -0.012430     -0.003428
    15   Atom       -0.003985      0.002128      0.001857
    16   Atom       -0.002469     -0.001490      0.003958
    17   Atom        0.002336     -0.001047     -0.001289
    18   Atom       -0.003090      0.003367     -0.000277
    19   Atom        0.004119     -0.000764     -0.003355
    20   Atom        0.002547      0.001146     -0.003693
    21   Atom        0.000551      0.001103     -0.001654
    22   Atom        0.001895      0.004247     -0.006143
    23   Atom        0.000319      0.001390     -0.001710
    24   Atom        0.002674     -0.001221     -0.001453
    25   Atom        0.002449      0.003878     -0.006327
    26   Atom        0.003743     -0.001474     -0.002268
    27   Atom       -0.000762      0.000428      0.000334
    28   Atom        0.001483     -0.000536     -0.000947
    29   Atom        0.006545     -0.004891     -0.001654
    30   Atom       -0.000021      0.000806     -0.000785
    31   Atom        0.003427     -0.001824     -0.001604
    32   Atom        0.001499     -0.000901     -0.000599
    33   Atom       -0.001419     -0.008230      0.009649
    34   Atom        0.000336      0.000449     -0.000785
    35   Atom        0.001596     -0.001532     -0.000064
    36   Atom        0.002254     -0.001050     -0.001204
    37   Atom        0.000786      0.000104     -0.000891
    38   Atom       -0.000373      0.001002     -0.000629
    39   Atom        0.001927     -0.001222     -0.000705
    40   Atom        0.001874     -0.000861     -0.001013
    41   Atom        0.005089     -0.002720     -0.002370
    42   Atom        0.000897     -0.000909      0.000012
    43   Atom        0.000848     -0.000250     -0.000599
    44   Atom        0.000786     -0.000642     -0.000144
    45   Atom        0.000787      0.000340     -0.001127
    46   Atom       -0.815373     -0.539939      1.355312
    47   Atom       -0.208162     -0.081204      0.289366
    48   Atom       -0.003840      0.008494     -0.004654
    49   Atom       -0.002706      0.005023     -0.002317
    50   Atom       -0.004806      0.005551     -0.000745
    51   Atom       -0.003713      0.007897     -0.004184
 --------------------------------------------------------
                        XY            XZ            YZ
 --------------------------------------------------------
     1   Atom        0.001131     -0.003322     -0.212291
     2   Atom        0.006097     -0.016216     -0.231826
     3   Atom       -0.008540      0.000920      0.004406
     4   Atom       -0.009224      0.001731     -0.005878
     5   Atom        0.030693     -0.052763     -0.103423
     6   Atom        0.024051      0.013850      0.007175
     7   Atom        0.011671      0.012911     -0.007865
     8   Atom        0.006527      0.002132      0.006841
     9   Atom       -0.008705      0.000335     -0.001766
    10   Atom       -0.005696     -0.000778     -0.000587
    11   Atom       -0.002892     -0.000076     -0.003756
    12   Atom        0.000659     -0.000675      0.003092
    13   Atom       -0.007781     -0.011903      0.014600
    14   Atom       -0.010286     -0.016695      0.008930
    15   Atom       -0.003136      0.000793      0.002609
    16   Atom       -0.000334     -0.000163      0.002595
    17   Atom       -0.002431      0.001621     -0.002183
    18   Atom       -0.004339      0.001137      0.001861
    19   Atom       -0.006903     -0.001308      0.001912
    20   Atom       -0.006992     -0.002522     -0.000216
    21   Atom       -0.002829     -0.000582     -0.000111
    22   Atom        0.006745      0.007562     -0.006012
    23   Atom        0.000380     -0.000468     -0.003504
    24   Atom        0.000003      0.001750      0.000356
    25   Atom        0.005724      0.008264     -0.005439
    26   Atom        0.002376     -0.004957     -0.000723
    27   Atom       -0.000393     -0.000346      0.001070
    28   Atom       -0.001876      0.000876     -0.000982
    29   Atom       -0.003044      0.001485     -0.003342
    30   Atom       -0.001344     -0.000227      0.000228
    31   Atom       -0.000738      0.001031     -0.000545
    32   Atom       -0.000939      0.001299     -0.000981
    33   Atom       -0.005218     -0.015900      0.010467
    34   Atom        0.001285      0.000119     -0.000239
    35   Atom        0.000025      0.001535     -0.000354
    36   Atom       -0.000734      0.000525     -0.000341
    37   Atom        0.001077      0.000263     -0.000114
    38   Atom       -0.000639     -0.000586      0.000816
    39   Atom        0.000119      0.001115     -0.000137
    40   Atom       -0.000873      0.000188     -0.000205
    41   Atom       -0.000687      0.001131     -0.000765
    42   Atom       -0.000418      0.001342     -0.000438
    43   Atom       -0.001017      0.000688     -0.000548
    44   Atom       -0.001232      0.001941     -0.001410
    45   Atom        0.002019     -0.000362      0.000845
    46   Atom        0.098409     -0.255421     -0.837958
    47   Atom        0.036459     -0.128452     -0.245372
    48   Atom        0.000546     -0.002630      0.004354
    49   Atom        0.002620      0.000328      0.001976
    50   Atom       -0.000363     -0.002130      0.003957
    51   Atom       -0.002022     -0.000201     -0.000943
 --------------------------------------------------------


 ---------------------------------------------------------------------------------
              Anisotropic Spin Dipole Couplings in Principal Axis System
 ---------------------------------------------------------------------------------

       Atom             a.u.   MegaHertz   Gauss  10(-4) cm-1        Axes

              Baa    -0.2518    -9.712    -3.466    -3.240 -0.0119  0.9547  0.2973
     1 N(14)  Bbb    -0.2441    -9.415    -3.359    -3.140  0.9999  0.0100  0.0081
              Bcc     0.4959    19.127     6.825     6.380 -0.0047 -0.2974  0.9548
 
              Baa    -0.2284   -30.653   -10.938   -10.225  0.2205  0.9064  0.3603
     2 C(13)  Bbb    -0.2274   -30.513   -10.888   -10.178  0.9751 -0.2144 -0.0573
              Bcc     0.4558    61.166    21.826    20.403 -0.0254 -0.3639  0.9311
 
              Baa    -0.0117    -1.565    -0.558    -0.522  0.8620  0.4454 -0.2419
     3 C(13)  Bbb    -0.0007    -0.088    -0.031    -0.029  0.3388 -0.1514  0.9286
              Bcc     0.0123     1.652     0.590     0.551 -0.3770  0.8824  0.2814
 
              Baa    -0.0110    -1.477    -0.527    -0.493  0.7921  0.3590  0.4936
     4 C(13)  Bbb    -0.0106    -1.425    -0.508    -0.475 -0.5300  0.0034  0.8480
              Bcc     0.0216     2.902     1.036     0.968 -0.3028  0.9333 -0.1930
 
              Baa    -0.0885   -47.219   -16.849   -15.750 -0.5994  0.7613  0.2472
     5 H(1)   Bbb    -0.0852   -45.476   -16.227   -15.169  0.7631  0.4503  0.4637
              Bcc     0.1737    92.695    33.076    30.920 -0.2417 -0.4666  0.8508
 
              Baa    -0.0275   -14.658    -5.230    -4.890  0.7818 -0.5861 -0.2127
     6 H(1)   Bbb    -0.0030    -1.607    -0.574    -0.536 -0.1480 -0.5058  0.8499
              Bcc     0.0305    16.266     5.804     5.426  0.6057  0.6330  0.4822
 
              Baa    -0.0250    -3.352    -1.196    -1.118 -0.4502  0.3725  0.8115
     7 C(13)  Bbb     0.0055     0.738     0.263     0.246 -0.4247  0.7101 -0.5615
              Bcc     0.0195     2.614     0.933     0.872  0.7854  0.5975  0.1615
 
              Baa    -0.0101    -1.351    -0.482    -0.451 -0.2464  0.7593 -0.6023
     8 C(13)  Bbb    -0.0009    -0.124    -0.044    -0.041 -0.6397  0.3395  0.6896
              Bcc     0.0110     1.475     0.526     0.492  0.7281  0.5552  0.4021
 
              Baa    -0.0109    -1.469    -0.524    -0.490  0.1344  0.4306  0.8925
     9 C(13)  Bbb    -0.0071    -0.959    -0.342    -0.320  0.3362  0.8274 -0.4499
              Bcc     0.0181     2.429     0.867     0.810  0.9321 -0.3606  0.0336
 
              Baa    -0.0051    -0.678    -0.242    -0.226  0.3621  0.4564  0.8127
    10 C(13)  Bbb    -0.0031    -0.413    -0.147    -0.138  0.4754  0.6595 -0.5822
              Bcc     0.0081     1.091     0.389     0.364  0.8018 -0.5972 -0.0218
 
              Baa    -0.0050    -2.655    -0.947    -0.886  0.8141  0.4075  0.4137
    11 H(1)   Bbb    -0.0021    -1.134    -0.405    -0.378 -0.5294  0.2282  0.8171
              Bcc     0.0071     3.789     1.352     1.264 -0.2386  0.8842 -0.4015
 
              Baa    -0.0061    -3.270    -1.167    -1.091  0.9213 -0.1140  0.3717
    12 H(1)   Bbb    -0.0039    -2.069    -0.738    -0.690 -0.3875 -0.1924  0.9016
              Bcc     0.0100     5.339     1.905     1.781  0.0312  0.9747  0.2214
 
              Baa    -0.0171    -2.300    -0.821    -0.767  0.6770 -0.1970  0.7091
    13 C(13)  Bbb    -0.0075    -1.005    -0.359    -0.335  0.6219  0.6683 -0.4081
              Bcc     0.0246     3.306     1.180     1.103 -0.3935  0.7173  0.5750
 
              Baa    -0.0179    -2.406    -0.858    -0.803  0.0003  0.8517 -0.5241
    14 C(13)  Bbb    -0.0118    -1.586    -0.566    -0.529  0.5781  0.4275  0.6950
              Bcc     0.0297     3.992     1.424     1.332  0.8160 -0.3032 -0.4922
 
              Baa    -0.0057    -0.770    -0.275    -0.257  0.8725  0.4269 -0.2378
    15 C(13)  Bbb     0.0007     0.099     0.035     0.033  0.4367 -0.4630  0.7713
              Bcc     0.0050     0.670     0.239     0.224 -0.2191  0.7768  0.5904
 
              Baa    -0.0028    -1.469    -0.524    -0.490  0.6715  0.6965 -0.2529
    16 H(1)   Bbb    -0.0023    -1.202    -0.429    -0.401  0.7401 -0.6134  0.2757
              Bcc     0.0050     2.671     0.953     0.891 -0.0369  0.3723  0.9274
 
              Baa    -0.0034    -0.458    -0.164    -0.153  0.1255  0.7387  0.6623
    17 C(13)  Bbb    -0.0012    -0.166    -0.059    -0.055 -0.6097 -0.4692  0.6389
              Bcc     0.0046     0.624     0.223     0.208  0.7827 -0.4840  0.3914
 
              Baa    -0.0059    -0.791    -0.282    -0.264  0.8320  0.4540 -0.3190
    18 C(13)  Bbb     0.0001     0.015     0.005     0.005  0.3733 -0.0327  0.9272
              Bcc     0.0058     0.775     0.277     0.259 -0.4105  0.8904  0.1966
 
              Baa    -0.0059    -0.229    -0.082    -0.076  0.5033  0.7964 -0.3353
    19 N(14)  Bbb    -0.0034    -0.133    -0.047    -0.044  0.3277  0.1831  0.9269
              Bcc     0.0094     0.361     0.129     0.121  0.7996 -0.5764 -0.1688
 
              Baa    -0.0065    -3.466    -1.237    -1.156  0.5941  0.5599  0.5776
    20 H(1)   Bbb    -0.0026    -1.395    -0.498    -0.465 -0.3002 -0.5119  0.8049
              Bcc     0.0091     4.861     1.735     1.621  0.7463 -0.6515 -0.1360
 
              Baa    -0.0024    -1.268    -0.453    -0.423  0.6224  0.5246  0.5809
    21 H(1)   Bbb    -0.0013    -0.699    -0.250    -0.233 -0.3969 -0.4281  0.8119
              Bcc     0.0037     1.968     0.702     0.656 -0.6746  0.7359  0.0582
 
              Baa    -0.0147    -1.971    -0.703    -0.658 -0.5124  0.4202  0.7489
    22 C(13)  Bbb     0.0048     0.639     0.228     0.213  0.5512 -0.5078  0.6621
              Bcc     0.0099     1.332     0.475     0.444  0.6585  0.7520  0.0286
 
              Baa    -0.0040    -2.134    -0.761    -0.712  0.0432  0.5424  0.8390
    23 H(1)   Bbb     0.0002     0.124     0.044     0.041  0.9855 -0.1613  0.0535
              Bcc     0.0038     2.010     0.717     0.671  0.1643  0.8245 -0.5415
 
              Baa    -0.0022    -0.296    -0.106    -0.099 -0.3193 -0.3209  0.8917
    24 C(13)  Bbb    -0.0011    -0.149    -0.053    -0.050 -0.1358  0.9467  0.2920
              Bcc     0.0033     0.445     0.159     0.149  0.9379  0.0278  0.3459
 
              Baa    -0.0145    -1.944    -0.694    -0.648 -0.5067  0.3862  0.7708
    25 C(13)  Bbb     0.0053     0.710     0.253     0.237 -0.4130  0.6760 -0.6103
              Bcc     0.0092     1.234     0.440     0.412  0.7567  0.6276  0.1830
 
              Baa    -0.0052    -0.691    -0.247    -0.231  0.5136 -0.1665  0.8417
    26 C(13)  Bbb    -0.0021    -0.277    -0.099    -0.092 -0.1499  0.9485  0.2791
              Bcc     0.0072     0.968     0.345     0.323  0.8448  0.2695 -0.4622
 
              Baa    -0.0009    -0.470    -0.168    -0.157  0.9702  0.2309  0.0732
    27 H(1)   Bbb    -0.0007    -0.367    -0.131    -0.122  0.1037 -0.6692  0.7358
              Bcc     0.0016     0.837     0.299     0.279 -0.2189  0.7063  0.6732
 
              Baa    -0.0019    -1.019    -0.364    -0.340  0.2991  0.7906  0.5343
    28 H(1)   Bbb    -0.0011    -0.585    -0.209    -0.195 -0.5138 -0.3384  0.7884
              Bcc     0.0030     1.604     0.572     0.535  0.8041 -0.5103  0.3050
 
              Baa    -0.0072    -3.862    -1.378    -1.288  0.1394  0.8656  0.4809
    29 H(1)   Bbb    -0.0006    -0.339    -0.121    -0.113 -0.3487 -0.4116  0.8420
              Bcc     0.0079     4.200     1.499     1.401  0.9268 -0.2851  0.2445
 
              Baa    -0.0010    -0.547    -0.195    -0.182  0.7983  0.5577  0.2275
    30 H(1)   Bbb    -0.0008    -0.433    -0.155    -0.145 -0.1142 -0.2307  0.9663
              Bcc     0.0018     0.980     0.350     0.327 -0.5914  0.7974  0.1205
 
              Baa    -0.0023    -0.305    -0.109    -0.102 -0.0192  0.7599  0.6498
    31 C(13)  Bbb    -0.0015    -0.199    -0.071    -0.066 -0.2491 -0.6330  0.7330
              Bcc     0.0038     0.504     0.180     0.168  0.9683 -0.1478  0.2014
 
              Baa    -0.0018    -0.235    -0.084    -0.078 -0.0673  0.7210  0.6896
    32 C(13)  Bbb    -0.0008    -0.113    -0.040    -0.038  0.5589  0.5998 -0.5726
              Bcc     0.0026     0.348     0.124     0.116  0.8265 -0.3469  0.4434
 
[...]
 -0.00020871,0.00022215,-0.00008923,-0.00003989,-0.00007826,-0.00013639
 ,0.00015104,-0.00006576,0.00001469,0.00000733,0.00003935,0.00004518,0.
 00000551,0.00000377,-0.01792878,-0.05756050,-0.01047801,0.06990994,-0.
 18023573,-0.02408532,0.05510041,0.50117651,0.00063149,0.00002311,-0.00
 055670,-0.00120884,0.00023639,0.00298455,-0.00036497,0.00036170,0.0004
 5237,-0.00022267,-0.00009050,-0.00058471,-0.00000413,0.00431871,-0.000
 95685,-0.00034682,0.00018889,-0.00068071,0.00012737,0.00003286,-0.0001
 4965,-0.00004113,-0.00014433,-0.00046256,0.00013874,0.00034708,0.00045
 285,0.00005548,0.00003014,0.00018893,0.00000197,0.00007330,0.00001989,
 0.00004331,-0.00015217,0.00000280,0.00003800,0.00000336,-0.00004050,-0
 .00007063,0.00006454,-0.00003976,-0.00012882,0.00007038,-0.00024124,0.
 00004728,0.00002150,-0.00000417,0.00022710,0.00007009,0.00025971,-0.00
 021500,-0.00053342,0.00031688,0.00007657,-0.00017303,-0.00012416,-0.00
 003668,-0.00006062,-0.00004037,0.00002076,0.00000069,-0.00007580,-0.00
 001314,0.00001825,0.00001259,-0.00000148,0.00000499,0.00000454,0.00004
 021,0.00001546,-0.00017973,0.00001980,-0.00000204,-0.00002181,-0.00011
 612,-0.00029182,-0.00005842,0.00001011,-0.00000040,-0.00000193,-0.0003
 0271,0.00009315,-0.00007975,-0.00012502,-0.00028561,0.00033350,-0.0000
 9149,0.00006644,-0.00004691,-0.00025274,0.00000717,0.00014548,0.000018
 73,0.00004731,-0.00001348,-0.00000076,-0.00001189,0.00000194,-0.000002
 73,0.00000159,0.00000554,-0.00007759,-0.00007866,-0.00001283,0.0000534
 3,0.00001656,0.00002501,-0.00000541,0.00000062,0.00000161,0.00001711,0
 .00002238,0.00000905,-0.00006299,0.00003966,-0.00009945,0.00000661,0.0
 0001367,-0.00008217,0.00057944,-0.00011901,0.00001654,-0.00003041,0.00
 000157,-0.00000482,0.00000769,-0.00002343,-0.00001039,0.00000024,0.000
 02269,-0.00001817,-0.00000331,-0.00000114,0.00000171,-0.00057163,-0.01
 751285,-0.00360132,0.01271024,-0.02490662,-0.06993936,0.01491899,-0.01
 698522,0.57468807,0.00013718,-0.00005084,-0.00003189,-0.00011614,-0.00
 005893,-0.00002702,-0.00020935,0.00023659,-0.00005134,-0.00001906,-0.0
 0001502,0.00002720,-0.00005407,0.00026511,0.00023272,-0.00004072,0.000
 04728,-0.00010256,0.00003315,0.00000913,0.00000535,-0.00001335,-0.0000
 7823,-0.00008498,-0.00011496,-0.00009462,0.00007041,-0.00002871,-0.000
 00158,-0.00002798,0.00000170,-0.00002368,0.00000098,0.00000157,-0.0000
 1577,0.00000767,0.00000354,-0.00000624,-0.00000397,-0.00003729,0.00002
 554,-0.00002555,0.00006863,0.00003377,0.00001410,0.00000297,-0.0000042
 8,0.00001593,0.00006655,0.00001397,0.00005592,-0.00000768,-0.00015474,
 0.00002009,0.00002413,0.00000880,0.00003208,0.00002575,0.00001332,0.00
 001617,0.00001045,-0.00000202,0.00000734,-0.00000182,-0.00000436,0.000
 00538,0.00000209,-0.00000024,0.00000102,0.00001747,0.00006478,0.000042
 33,0.00001127,-0.00001886,0.00001648,0.00003244,-0.00001355,-0.0000460
 0,-0.00001233,0.00000084,0.00002954,0.00005968,-0.00001798,0.00001326,
 0.00005893,0.00016749,0.00005325,0.00001536,-0.00001558,-0.00001597,-0
 .00000871,0.00000112,-0.00003697,-0.00001491,-0.00000052,-0.00001532,-
 0.00000266,-0.00000414,0.00000008,-0.00000020,-0.00000269,0.00000228,-
 0.00000437,-0.00001046,-0.00000317,-0.00002788,-0.00003107,0.00000971,
 0.00000208,0.00000479,-0.00000167,-0.00002789,0.00002423,0.00002326,0.
 00002043,-0.00000393,0.00001325,0.00000993,-0.00000385,0.00001003,-0.0
 0001103,-0.00000471,0.00000040,0.00000644,0.00000139,0.00000495,0.0000
 0491,-0.00000261,0.00000164,-0.00000082,-0.00000108,-0.00000110,-0.000
 00200,-0.00000445,0.00000129,0.00299864,0.00410724,0.00099663,0.011695
 48,0.00997119,0.00203903,-0.21897038,-0.13728875,-0.02991263,0.2232829
 5,-0.00097499,0.00011699,0.00051728,0.00091537,0.00040544,-0.00112810,
 0.00016326,-0.00053775,-0.00016734,0.00002573,0.00009985,0.00015655,0.
 00005817,-0.00038474,0.00012970,-0.00007548,-0.00016724,0.00022840,0.0
 0027551,0.00032520,-0.00000297,0.00000098,0.00011564,-0.00000590,0.000
 00812,0.00013535,0.00004855,-0.00014843,-0.00006970,-0.00010680,0.0000
 0397,-0.00008160,0.00002688,0.00003116,0.00003868,-0.00002029,-0.00009
 240,-0.00007046,-0.00000727,-0.00001475,-0.00012525,0.00003721,0.00004
 051,0.00000277,0.00000192,-0.00001434,-0.00002653,-0.00001586,0.000057
 31,0.00005680,0.00002620,-0.00001408,0.00002549,-0.00002477,0.00015367
 ,0.00013600,-0.00000458,-0.00015269,0.00004123,-0.00002461,0.00004789,
 0.00000576,0.00004107,0.00001877,-0.00000906,-0.00003344,-0.00000238,0
 .00002352,-0.00000581,-0.00000793,-0.00005316,-0.00002573,-0.00001306,
 0.00003973,0.00000051,0.00000208,0.00007392,-0.00001401,-0.00001575,0.
 00001809,0.00001671,-0.00008313,0.00004174,-0.00001401,0.00007463,-0.0
 0016696,0.00000859,-0.00003353,0.00002772,0.00000265,-0.00011157,-0.00
 014197,0.00014435,0.00003284,0.00002746,0.00000579,-0.00003303,-0.0000
 3523,-0.00000010,-0.00000640,-0.00001403,0.00000361,0.00000235,0.00000
 374,-0.00000854,0.00001247,0.00003576,-0.00001130,-0.00001728,-0.00001
 012,-0.00000685,-0.00000748,0.00000514,0.00000131,0.00008041,-0.000002
 94,0.00006684,0.00003088,0.00006313,-0.00004859,-0.00001393,-0.0001015
 7,-0.00007993,0.00001635,0.00000201,0.00002917,0.00000136,-0.00000135,
 0.00000093,0.00000868,0.00001896,-0.00003660,-0.00000669,-0.00000212,-
 0.00000068,0.00301511,-0.00686784,-0.00140468,-0.02677544,-0.02497046,
 -0.00589520,-0.12421312,-0.15049203,-0.02165472,0.14116692,0.17427457,
 -0.00032545,-0.00000780,0.00015444,0.00025524,0.00018283,-0.00022432,0
 .00024270,-0.00023745,-0.00006865,0.00003063,0.00002772,-0.00000202,0.
 00007183,-0.00049025,0.00000337,0.00005535,-0.00007089,0.00013504,0.00
 002222,0.00006095,-0.00000108,0.00002540,0.00014454,0.00015420,0.00013
 367,0.00002653,-0.00021288,0.00003167,0.00001270,0.00002615,-0.0000025
 2,0.00000775,0.00000271,-0.00000582,0.00001286,-0.00001014,-0.00001846
 ,-0.00001070,0.00000464,-0.00001067,-0.00003324,0.00000325,-0.00003960
 ,-0.00006644,0.00003972,0.00000138,0.00000889,-0.00001842,-0.00006069,
 -0.00008783,-0.00009618,0.00000658,0.00020059,0.00003410,0.00002733,-0
 .00006329,-0.00003801,-0.00003474,0.00001142,0.00000974,-0.00000006,-0
 .00002202,0.00000464,0.00000480,-0.00000260,-0.00000845,-0.00000022,0.
 00000485,-0.00000163,0.00000170,0.00000038,0.00003980,-0.00000413,0.00
 000099,0.00000560,-0.00004339,-0.00000721,-0.00001513,0.00001794,-0.00
 000427,-0.00002376,0.00006833,-0.00001602,0.00001290,-0.00002883,0.000
 03532,-0.00005979,0.00000366,-0.00001512,0.00000200,0.00000285,0.00000
 893,0.00002047,-0.00000740,0.00003585,-0.00001521,-0.00000692,-0.00000
 560,-0.00000188,-0.00000031,-0.00000247,0.00000072,0.00000777,0.000010
 97,-0.00000045,-0.00001262,0.00000237,-0.00000003,-0.00000330,-0.00000
 123,-0.00000161,0.00001433,-0.00000739,-0.00000584,-0.00003708,0.00001
 091,-0.00002516,0.00000574,-0.00004340,-0.00000086,-0.00001917,0.00001
 426,0.00006274,-0.00000625,0.00000280,-0.00000483,0.00000732,-0.000016
 28,-0.00000238,-0.00000185,-0.00000099,0.00000171,-0.00000170,-0.00000
 117,0.00000020,0.00050994,-0.00210795,0.00100335,-0.00614601,-0.005555
 68,-0.00227365,-0.02674555,-0.02157467,-0.05296471,0.03047965,0.028582
 56,0.04967109,0.00036000,0.00046784,-0.00052900,-0.00004076,-0.0004061
 4,0.00163300,-0.00028697,-0.00097739,0.00104053,-0.00016828,-0.0000838
 1,-0.00022019,0.00061591,0.00101822,-0.00069687,-0.00002853,0.00023254
 ,-0.00039858,-0.00034118,-0.00018253,-0.00017391,0.00000325,0.00013419
 ,0.00007170,-0.00122242,-0.00030052,-0.00012607,0.00010563,0.00007571,
 0.00010599,0.00002001,0.00003318,0.00001240,0.00001291,-0.00007997,0.0
 0000913,0.00008797,0.00010518,0.00002088,0.00004071,0.00000965,0.00000
 320,0.00001044,-0.00026287,-0.00009021,0.00004476,0.00006161,-0.000092
 66,0.00000453,0.00008145,-0.00003736,-0.00046915,0.00038608,0.00012434
 ,0.00000025,-0.00015267,-0.00007112,-0.00000308,-0.00002723,-0.0000064
 0,-0.00002662,-0.00002054,-0.00002233,-0.00002838,0.00002231,0.0000042
 2,0.00000949,-0.00001656,-0.00000518,-0.00000568,-0.00002468,0.0000666
 4,-0.00000042,0.00000529,-0.00001369,0.00001022,-0.00006239,-0.0001336
 0,0.00003485,-0.00001909,-0.00006754,0.00004118,-0.00001327,0.00002863
 ,0.00009436,0.00001909,-0.00003921,0.00003538,-0.00003988,0.00001642,-
 0.00001047,-0.00000393,0.00006870,0.00000235,0.00003554,-0.00003351,0.
 00002303,0.00001835,0.00000610,0.00000844,0.00001210,-0.00000588,0.000
 03275,0.00003541,0.00000950,0.00000706,-0.00000601,-0.00000216,0.00000
 784,0.00000024,0.00000286,0.00003851,-0.00003385,-0.00003617,-0.000054
 30,0.00000764,-0.00003959,-0.00000551,-0.00002857,-0.00001453,0.000054
 47,0.00000271,0.00009947,-0.00001765,0.00000214,-0.00001318,0.00000496
 ,-0.00001978,0.00000379,-0.00000481,-0.00000168,0.00001076,0.00000624,
 0.00000441,-0.00000206,0.00075202,-0.00134418,-0.00254574,-0.00746321,
 0.00522056,0.01094791,-0.12607295,-0.01190244,0.11803935,-0.00934405,-
 0.00079280,0.01821254,0.13302556,-0.00155377,0.00006925,0.00077529,0.0
 0086772,0.00064067,-0.00153535,0.00006531,-0.00101116,-0.00000254,0.00
 020150,0.00004947,0.00018253,-0.00071170,-0.00102145,0.00227806,0.0000
 9105,-0.00065997,0.00083356,0.00029877,0.00033058,-0.00002669,0.000198
 67,0.00041293,0.00027387,-0.00025701,0.00035031,-0.00013753,-0.0000577
 1,-0.00001072,-0.00004171,-0.00001618,-0.00002496,0.00000750,-0.000002
 16,0.00006443,-0.00001439,-0.00008681,-0.00008059,-0.00000887,-0.00003
 463,-0.00011775,0.00000687,-0.00006999,-0.00010236,-0.00003055,-0.0000
 3232,-0.00003187,-0.00001945,-0.00010305,-0.00004397,0.00005083,0.0000
 0654,0.00004792,0.00016842,0.00005582,0.00004693,0.00000578,0.00001722
 ,0.00003282,0.00001425,0.00001931,-0.00000615,0.00001449,0.00002537,-0
 .00001052,-0.00003410,-0.00000827,0.00002339,0.00000048,-0.00000548,-0
 .00005292,0.00000128,-0.00001495,0.00002934,0.00000790,-0.00006920,-0.
 00022740,-0.00011753,0.00000377,-0.00000061,-0.00000221,-0.00000184,0.
 00002938,0.00000481,-0.00004865,-0.00008806,-0.00002044,0.00000947,-0.
 00000184,0.00000860,-0.00001662,0.00002506,-0.00003560,-0.00001390,0.0
 0000395,-0.00000287,-0.00003522,-0.00003476,-0.00000557,-0.00000609,-0
 .00001134,0.00000418,-0.00000807,0.00000383,-0.00001103,0.00001496,0.0
 0003059,-0.00001321,-0.00001664,-0.00000870,-0.00000434,0.00002283,-0.
 00000280,-0.00001315,0.00001789,-0.00000665,0.00003407,0.00001985,-0.0
 0000921,0.00000809,-0.00008483,-0.00001200,-0.00008121,0.00000273,0.00
 000171,0.00000433,0.00000806,-0.00000549,-0.00000491,0.00000249,0.0000
 0496,-0.00000740,-0.00000617,-0.00000107,0.00000058,0.00467496,0.00713
 103,-0.00018472,0.02076773,-0.01152217,-0.02985988,-0.01770827,-0.0500
 2093,0.02263759,-0.00852925,0.00040328,0.01643407,0.00765886,0.0541829
 5,-0.00048139,-0.00032972,0.00032947,0.00025097,0.00031480,-0.00145401
 ,0.00079136,0.00031551,-0.00032114,0.00000062,0.00006824,0.00013418,-0
 .00026548,-0.00124246,0.00108921,0.00012624,0.00034682,0.00003680,0.00
 010321,0.00010395,0.00019593,-0.00020394,0.00028304,0.00000048,0.00084
 221,0.00000481,-0.00001516,-0.00000580,0.00002719,-0.00002943,-0.00001
 470,-0.00002279,-0.00000388,-0.00002113,0.00001720,-0.00001084,-0.0000
 4707,-0.00006207,0.00000510,0.00002921,-0.00003990,0.00004568,-0.00015
 951,-0.00026816,0.00003887,-0.00001291,-0.00000915,-0.00000634,-0.0002
 1809,-0.00011430,-0.00021146,0.00034154,0.00044529,-0.00022919,-0.0000
 1875,-0.00000148,0.00004096,0.00001875,0.00000504,0.00001102,-0.000006
 95,-0.00000476,0.00000467,0.00002249,0.00000105,-0.00000920,-0.0000064
 3,0.00000764,-0.00000433,-0.00001517,-0.00009775,-0.00005865,-0.000016
 08,0.00001959,-0.00001917,0.00006456,0.00014267,0.00022536,-0.00001100
 ,0.00000915,0.00000382,0.00000291,-0.00000964,-0.00002970,-0.00019936,
 -0.00022499,-0.00023968,-0.00012055,0.00001797,-0.00000038,-0.00000316
 ,0.00003437,-0.00005913,-0.00000970,-0.00000680,-0.00001868,-0.0000103
 1,0.00000174,-0.00000695,-0.00000260,-0.00000160,-0.00000134,0.0000131
 6,0.00002216,0.00000195,0.00003630,0.00005162,-0.00001665,-0.00000505,
 -0.00000715,-0.00000028,-0.00003686,0.00000010,-0.00000311,0.00000825,
 -0.00000554,0.00001773,0.00000169,-0.00000353,0.00001639,-0.00007637,0
 .00002596,-0.00003288,0.00000527,0.00000029,0.00000182,0.00000367,-0.0
 0000210,0.00000571,-0.00000184,-0.00000704,0.00000726,-0.00000002,0.00
 000466,-0.00000186,0.00051585,0.00231115,0.00085509,0.00228627,-0.0073
 4329,0.00275237,0.11710909,0.01988878,-0.23310125,-0.00480389,-0.00018
 483,0.00589697,-0.12970915,-0.01757552,0.24151253,0.00090726,-0.000072
 16,-0.00048109,-0.00085335,-0.00032774,0.00172067,-0.00000982,0.000443
 85,0.00030102,-0.00004937,-0.00005552,-0.00027024,0.00018643,0.0008598
 9,-0.00136838,-0.00008161,0.00011730,-0.00020392,-0.00023200,-0.000272
 09,-0.00003496,-0.00010523,-0.00012453,-0.00005469,0.00014183,-0.00000
 959,0.00000236,0.00006249,-0.00004903,0.00002213,-0.00000814,0.0000825
 9,-0.00001488,0.00000828,-0.00003669,0.00001033,0.00007338,0.00006592,
 -0.00000019,0.00003816,0.00008193,-0.00000231,-0.00008397,-0.00006603,
 -0.00004455,0.00001192,0.00001926,0.00000353,0.00002635,-0.00004885,0.
 00001464,0.00007641,-0.00001345,-0.00008847,-0.00009802,0.00003218,-0.
 00002821,0.00001529,-0.00006462,-0.00002546,-0.00002620,0.00003332,-0.
 00002583,-0.00001723,0.00000741,0.00002714,0.00000013,-0.00001859,0.00
 000778,-0.00001813,0.00000123,-0.00005507,-0.00000078,-0.00000570,-0.0
 0000733,0.00006852,-0.00003038,0.00006532,0.00001029,-0.00000551,-0.00
 001763,-0.00000517,-0.00000743,-0.00003107,-0.00012895,-0.00010252,-0.
 00000499,-0.00000291,-0.00000143,0.00000543,0.00000942,-0.00003010,0.0
 0005904,0.00004586,-0.00003073,0.00006250,0.00003182,0.00002904,0.0000
 0616,0.00000425,0.00001197,-0.00000440,0.00000771,0.00000567,0.0000111
 6,0.00001351,-0.00000991,0.00000590,0.00001537,0.00000506,0.00000591,0
 .00000944,-0.00001264,-0.00001399,-0.00001033,0.00000247,-0.00002092,-
 0.00004012,0.00005559,-0.00003084,0.00021853,-0.00007997,-0.00001905,-
 0.00001391,-0.00000622,-0.00000595,-0.00002347,0.00002655,-0.00000731,
 0.00000413,0.00000666,-0.00000086,0.00000857,0.00000384,-0.00000216,0.
 00143880,-0.00314156,0.00242864,-0.01010564,0.01251508,-0.00886704,-0.
 12929285,0.03903073,-0.11362016,-0.00952333,0.00737612,-0.01667782,0.0
 1009933,-0.00555211,0.01390964,0.13719706,-0.00098498,0.00013584,0.000
 47761,0.00083009,0.00037750,-0.00150226,0.00011815,-0.00052094,-0.0001
 1662,-0.00000516,0.00004429,0.00022428,-0.00058523,-0.00081735,0.00151
 406,0.00004678,-0.00008374,0.00008900,0.00023911,0.00029256,0.00002164
 ,0.00002391,0.00008966,-0.00002431,0.00006298,0.00016791,0.00013527,-0
 .00006007,0.00008634,-0.00009006,0.00000518,-0.00008263,0.00002519,0.0
 0000224,0.00000387,-0.00000637,-0.00006214,-0.00007421,0.00000255,0.00
 001247,-0.00011635,0.00005347,0.00001984,-0.00000529,-0.00003968,-0.00
 000849,-0.00001968,-0.00002510,-0.00002974,0.00007508,0.00002618,-0.00
 004726,0.00001931,-0.00002319,0.00010467,-0.00001093,0.00004717,0.0000
 3627,0.00004746,0.00005297,0.00002189,-0.00002602,0.00003420,0.0000180
 8,0.00000853,-0.00002921,-0.00000097,0.00001863,-0.00001359,-0.0000346
 1,-0.00008033,-0.00006452,-0.00001443,0.00004716,-0.00001851,-0.000021
 39,0.00004475,-0.00000011,-0.00001209,0.00001091,0.00001127,-0.0001235
 5,0.00007341,-0.00002451,-0.00010825,-0.00031298,0.00013816,-0.0000174
 4,0.00003534,0.00000520,0.00001362,0.00000056,-0.00010338,-0.00004233,
 0.00001572,-0.00006522,-0.00002870,-0.00002891,-0.00000261,-0.00000409
 ,-0.00000742,0.00000179,-0.00001014,0.00000278,-0.00001172,0.00003762,
 0.00005080,-0.00002115,-0.00001731,-0.00001082,-0.00000492,-0.00000603
 ,-0.00000193,-0.00000909,0.00005468,-0.00002234,0.00007619,0.00004783,
 -0.00003171,0.00004607,-0.00031674,0.00004464,0.00001818,0.00001660,0.
 00000474,0.00001148,0.00002053,-0.00001943,0.00001234,-0.00000451,-0.0
 0000626,0.00000282,-0.00000466,0.00000190,-0.00000164,0.00347274,0.007
 86176,0.00043408,0.02303950,-0.02593711,0.01808470,0.03349109,-0.06479
 426,0.05417566,-0.00969951,0.00776812,-0.01538909,0.00115248,0.0012126
 4,0.00309377,-0.05063856,0.07446843,0.00079816,-0.00017687,-0.00023766
 ,-0.00086760,-0.00037821,0.00058230,-0.00014936,0.00046577,-0.00016534
 ,0.00008971,0.00001867,-0.00005129,0.00007149,0.00022139,-0.00109287,0
 .00009767,0.00009142,0.00001027,-0.00019770,-0.00027521,0.00003537,0.0
 0014910,-0.00005739,0.00017709,-0.00016468,-0.00015300,-0.00019586,0.0
 0004102,-0.00005786,-0.00008491,-0.00001726,0.00004170,-0.00001672,-0.
 00001882,0.00003788,0.00000484,0.00006078,0.00004835,0.00000421,-0.000
 02895,0.00012560,-0.00006703,0.00005492,0.00005625,0.00008830,-0.00001
 539,-0.00001074,0.00005714,-0.00005343,-0.00008466,-0.00002134,-0.0000
 8482,-0.00000980,0.00012629,-0.00009290,0.00008321,0.00003093,-0.00000
 533,0.00000786,0.00000854,-0.00001711,0.00002225,0.00001253,-0.0000120
 0,-0.00000975,0.00002968,0.00000035,-0.00002045,0.00001300,0.00003122,
 0.00011817,0.00011042,0.00002127,-0.00005492,0.00003330,-0.00010694,-0
 .00009009,-0.00011600,0.00000186,-0.00001359,0.00001646,0.00019744,-0.
 00005863,0.00006637,0.00003788,0.00035152,-0.00001271,0.00016114,-0.00
 006385,0.00002044,0.00006737,0.00000374,-0.00003226,0.00002515,-0.0000
 3914,0.00004767,0.00002402,0.00002449,0.00000077,0.00000399,0.00000688
 ,-0.00000069,0.00000580,-0.00000507,0.00000884,-0.00005872,-0.00007214
 ,0.00001767,0.00001923,0.00001459,0.00000452,0.00001666,-0.00000444,-0
 .00000905,0.00001868,-0.00001008,0.00001445,-0.00001986,0.00002574,0.0
 0001217,-0.00002179,-0.00001788,-0.00003543,0.00000206,-0.00000566,0.0
 0000163,-0.00001736,0.00002557,-0.00000228,0.00000256,-0.00000296,0.00
 000312,0.00000435,-0.00000344,0.00000230,0.00124924,0.00031009,0.00095
 528,0.00643305,-0.00385247,0.01404871,-0.11662700,0.05776551,-0.215729
 87,0.00094258,0.00085673,-0.00121248,-0.01541220,0.00603332,-0.0173446
 7,0.12336047,-0.06122842,0.21988382\\0.00000073,0.00000029,0.00000007,
 -0.00000005,-0.00000022,-0.00000006,-0.00000041,0.00000006,-0.00000040
 ,-0.00000045,0.00000026,-0.00000004,0.00000006,-0.00000027,0.00000013,
 0.00000005,0.00000032,0.00000023,-0.00000088,-0.00000068,-0.00000004,-
 0.00000005,0.00000089,-0.00000013,-0.00000004,0.00000037,-0.00000088,0
 .00000054,0.00000036,0.00000043,0.,0.00000007,0.00000077,0.00000017,-0
 .00000005,0.00000062,-0.00000046,0.00000073,-0.00000040,0.00000040,-0.
 00000014,0.00000025,-0.00000015,0.00000023,-0.00000058,-0.00000017,0.0
 0000046,-0.00000015,-0.00000017,-0.00000010,-0.00000044,0.00000015,-0.
 00000083,-0.00000044,-0.00000039,-0.00000002,-0.00000012,0.00000003,-0
 .00000032,0.00000065,0.00000008,-0.00000011,0.00000069,-0.00000001,0.0
 0000033,0.00000044,0.00000020,0.00000021,0.00000068,0.00000013,-0.0000
 0042,-0.00000025,0.00000020,-0.00000060,0.00000050,0.00000011,0.000000
 09,-0.00000043,-0.00000030,0.00000039,-0.00000093,0.00000019,-0.000000
 53,-0.00000035,0.00000014,-0.00000046,-0.00000019,-0.00000021,0.000000
 02,-0.00000126,0.00000008,-0.00000036,0.00000049,-0.00000019,0.0000005
 2,0.00000067,0.00000024,0.00000048,0.00000009,-0.00000004,0.00000001,0
 .00000072,0.00000019,-0.00000050,-0.00000011,0.00000016,-0.00000024,-0
 .00000037,-0.00000005,-0.00000025,-0.00000009,-0.00000022,0.00000037,-
 0.00000108,0.00000011,0.00000030,0.00000027,0.00000002,0.00000009,0.00
 000058,-0.00000003,0.,0.00000013,-0.00000007,0.00000051,0.00000055,0.0
 0000014,0.00000019,0.00000066,-0.00000016,0.00000049,0.00000059,-0.000
 00005,-0.00000019,0.00000046,-0.00000008,-0.00000061,-0.00000018,0.000
 00018,0.00000009,0.,0.00000021,-0.00000056,-0.00000025,0.00000015,-0.0
 0000015,-0.00000055,-0.00000011,-0.00000016,-0.00000028,0.00000005,-0.
 00000032,-0.00000065\\\@


 SOME PEOPLE TRY TO PULL THE WOOL OVER YOUR EYES
 USING THE WRONG YARN.
 Job cpu time:       0 days 11 hours  7 minutes 12.8 seconds.
 Elapsed time:       0 days  0 hours 16 minutes 44.6 seconds.
 File lengths (MBytes):  RWF=   2189 Int=      0 D2E=      0 Chk=     27 Scr=      1
 Normal termination of Gaussian 16 at Tue Oct 22 22:58:44 2019.
