 Entering Gaussian System, Link 0=g03
 Input=ethyl_scan_1.com
 Output=ethyl_scan_1.log
 Initial command:
 /home/g03/l1.exe /scratch/cfgold/Gau-16107.inp -scrdir=/scratch/cfgold/
 Entering Link 1 = /home/g03/l1.exe PID=     16109.
  
 Copyright (c) 1988,1990,1992,1993,1995,1998,2003,2004, Gaussian, Inc.
                  All Rights Reserved.
  
 This is the Gaussian(R) 03 program.  It is based on the
 the Gaussian(R) 98 system (copyright 1998, Gaussian, Inc.),
 the Gaussian(R) 94 system (copyright 1995, Gaussian, Inc.),
 the Gaussian 92(TM) system (copyright 1992, Gaussian, Inc.),
 the Gaussian 90(TM) system (copyright 1990, Gaussian, Inc.),
 the Gaussian 88(TM) system (copyright 1988, Gaussian, Inc.),
 the Gaussian 86(TM) system (copyright 1986, Carnegie Mellon
 University), and the Gaussian 82(TM) system (copyright 1983,
 Carnegie Mellon University). Gaussian is a federally registered
 trademark of Gaussian, Inc.
  
 This software contains proprietary and confidential information,
 including trade secrets, belonging to Gaussian, Inc.
  
 This software is provided under written license and may be
 used, copied, transmitted, or stored only in accord with that
 written license.
  
 The following legend is applicable only to US Government
 contracts under FAR:
  
                    RESTRICTED RIGHTS LEGEND
  
 Use, reproduction and disclosure by the US Government is
 subject to restrictions as set forth in subparagraphs (a)
 and (c) of the Commercial Computer Software - Restricted
 Rights clause in FAR 52.227-19.
  
 Gaussian, Inc.
 340 Quinnipiac St., Bldg. 40, Wallingford CT 06492
  
  
 ---------------------------------------------------------------
 Warning -- This program may not be used in any manner that
 competes with the business of Gaussian, Inc. or will provide
 assistance to any competitor of Gaussian, Inc.  The licensee
 of this program is prohibited from giving any competitor of
 Gaussian, Inc. access to this program.  By using this program,
 the user acknowledges that Gaussian, Inc. is engaged in the
 business of creating and licensing software in the field of
 computational chemistry and represents and warrants to the
 licensee that it is not a competitor of Gaussian, Inc. and that
 it will not use this program in any manner prohibited above.
 ---------------------------------------------------------------
  

 Cite this work as:
 Gaussian 03, Revision D.01,
 M. J. Frisch, G. W. Trucks, H. B. Schlegel, G. E. Scuseria, 
 M. A. Robb, J. R. Cheeseman, J. A. Montgomery, Jr., T. Vreven, 
 K. N. Kudin, J. C. Burant, J. M. Millam, S. S. Iyengar, J. Tomasi, 
 V. Barone, B. Mennucci, M. Cossi, G. Scalmani, N. Rega, 
 G. A. Petersson, H. Nakatsuji, M. Hada, M. Ehara, K. Toyota, 
 R. Fukuda, J. Hasegawa, M. Ishida, T. Nakajima, Y. Honda, O. Kitao, 
 H. Nakai, M. Klene, X. Li, J. E. Knox, H. P. Hratchian, J. B. Cross, 
 V. Bakken, C. Adamo, J. Jaramillo, R. Gomperts, R. E. Stratmann, 
 O. Yazyev, A. J. Austin, R. Cammi, C. Pomelli, J. W. Ochterski, 
 P. Y. Ayala, K. Morokuma, G. A. Voth, P. Salvador, J. J. Dannenberg, 
 V. G. Zakrzewski, S. Dapprich, A. D. Daniels, M. C. Strain, 
 O. Farkas, D. K. Malick, A. D. Rabuck, K. Raghavachari, 
 J. B. Foresman, J. V. Ortiz, Q. Cui, A. G. Baboul, S. Clifford, 
 J. Cioslowski, B. B. Stefanov, G. Liu, A. Liashenko, P. Piskorz, 
 I. Komaromi, R. L. Martin, D. J. Fox, T. Keith, M. A. Al-Laham, 
 C. Y. Peng, A. Nanayakkara, M. Challacombe, P. M. W. Gill, 
 B. Johnson, W. Chen, M. W. Wong, C. Gonzalez, and J. A. Pople, 
 Gaussian, Inc., Wallingford CT, 2004.
 
 ******************************************
 Gaussian 03:  AM64L-G03RevD.01 13-Oct-2005
                19-Jan-2010 
 ******************************************
 %chk=ethyl_scan_1.chk
 %mem=900MB
 %nproc=8
 Will use up to    8 processors via shared memory.
 ---------------------------------------------------------------
 # opt=(calcfc,modredundant) freq ub3lyp/6-31+g(d,p) scfcyc=9000
 ---------------------------------------------------------------
 1/10=4,14=-1,18=120,26=3,38=1/1,3;
 2/9=110,17=6,18=5,40=1/2;
 3/5=1,6=6,7=111,11=2,16=1,25=1,30=1,74=-5/1,2,3;
 4/7=2/1;
 5/5=2,7=9000,38=5/2;
 8/6=4,10=90,11=11/1;
 11/6=1,8=1,9=11,15=111,16=1/1,2,10;
 10/6=1,7=6/2;
 6/7=2,8=2,9=2,10=2,28=1/1;
 7/10=1,18=20,25=1/1,2,3,16;
 1/10=4,14=-1,18=20/3(3);
 2/9=110/2;
 6/7=2,8=2,9=2,10=2,19=2,28=1/1;
 99//99;
 2/9=110/2;
 3/5=1,6=6,7=111,11=2,16=1,25=1,30=1,74=-5/1,2,3;
 4/5=5,7=2,16=3/1;
 5/5=2,7=9000,38=5/2;
 7//1,2,3,16;
 1/14=-1,18=20/3(-5);
 2/9=110/2;
 6/7=2,8=2,9=2,10=2,19=2,28=1/1;
 99/9=1/99;
 -------------------
 Title Card Required
 -------------------
 Symbolic Z-matrix:
 Charge =  0 Multiplicity = 2
 C
 C                    1    B1
 H                    1    B2       2    A1
 H                    1    B3       2    A2       3    D1       0
 H                    2    B4       1    A3       3    D2       0
 H                    2    B5       1    A4       3    D3       0
 H                    2    B6       1    A5       3    D4       0
       Variables:
  B1                    1.48754                  
  B2                    1.08307                  
  B3                    1.08308                  
  B4                    1.09429                  
  B5                    1.10267                  
  B6                    1.09423                  
  A1                  120.98594                  
  A2                  120.97692                  
  A3                  111.86913                  
  A4                  111.81741                  
  A5                  111.8702                   
  D1                  172.09655                  
  D2                  154.55385                  
  D3                  -86.26931                  
  D4                   32.92527                  
 
 The following ModRedundant input section has been read:
 D    3    1    2    5 S  36 10.000                                            

 GradGradGradGradGradGradGradGradGradGradGradGradGradGradGradGradGradGrad
 Berny optimization.
 Initialization pass.
                           ----------------------------
                           !    Initial Parameters    !
                           ! (Angstroms and Degrees)  !
 --------------------------                            --------------------------
 ! Name  Definition              Value          Derivative Info.                !
 --------------------------------------------------------------------------------
 ! R1    R(1,2)                  1.4875         calculate D2E/DX2 analytically  !
 ! R2    R(1,3)                  1.0831         calculate D2E/DX2 analytically  !
 ! R3    R(1,4)                  1.0831         calculate D2E/DX2 analytically  !
 ! R4    R(2,5)                  1.0943         calculate D2E/DX2 analytically  !
 ! R5    R(2,6)                  1.1027         calculate D2E/DX2 analytically  !
 ! R6    R(2,7)                  1.0942         calculate D2E/DX2 analytically  !
 ! A1    A(2,1,3)              120.9859         calculate D2E/DX2 analytically  !
 ! A2    A(2,1,4)              120.9769         calculate D2E/DX2 analytically  !
 ! A3    A(3,1,4)              117.5849         calculate D2E/DX2 analytically  !
 ! A4    A(1,2,5)              111.8691         calculate D2E/DX2 analytically  !
 ! A5    A(1,2,6)              111.8174         calculate D2E/DX2 analytically  !
 ! A6    A(1,2,7)              111.8702         calculate D2E/DX2 analytically  !
 ! A7    A(5,2,6)              106.3547         calculate D2E/DX2 analytically  !
 ! A8    A(5,2,7)              108.2337         calculate D2E/DX2 analytically  !
 ! A9    A(6,2,7)              106.3681         calculate D2E/DX2 analytically  !
 ! D1    D(3,1,2,5)            154.5539         Scan                            !
 ! D2    D(3,1,2,6)            -86.2693         calculate D2E/DX2 analytically  !
 ! D3    D(3,1,2,7)             32.9253         calculate D2E/DX2 analytically  !
 ! D4    D(4,1,2,5)            -33.3496         calculate D2E/DX2 analytically  !
 ! D5    D(4,1,2,6)             85.8272         calculate D2E/DX2 analytically  !
 ! D6    D(4,1,2,7)           -154.9782         calculate D2E/DX2 analytically  !
 --------------------------------------------------------------------------------
 Trust Radius=3.00D-01 FncErr=1.00D-07 GrdErr=1.00D-06
 Number of optimizations in scan=  37
 Number of steps in this run=  31 maximum allowed number of steps= 100.
 GradGradGradGradGradGradGradGradGradGradGradGradGradGradGradGradGradGrad

                          Input orientation:                          
 ---------------------------------------------------------------------
 Center     Atomic     Atomic              Coordinates (Angstroms)
 Number     Number      Type              X           Y           Z
 ---------------------------------------------------------------------
    1          6             0        0.000000    0.000000    0.000000
    2          6             0        0.000000    0.000000    1.487537
    3          1             0        0.928512    0.000000   -0.557597
    4          1             0       -0.919783   -0.127687   -0.557452
    5          1             0       -0.917022    0.436340    1.895146
    6          1             0        0.066608   -1.021517    1.897343
    7          1             0        0.852372    0.551958    1.895144
 ---------------------------------------------------------------------
                    Distance matrix (angstroms):
                    1          2          3          4          5
     1  C    0.000000
     2  C    1.487537   0.000000
     3  H    1.083074   2.246043   0.000000
     4  H    1.083078   2.245949   1.852701   0.000000
     5  H    2.150094   1.094289   3.100377   2.516620   0.000000
     6  H    2.155886   1.102667   2.795194   2.792476   1.758659
     7  H    2.150062   1.094230   2.515231   3.101238   1.773168
                    6          7
     6  H    0.000000
     7  H    1.758765   0.000000
 Stoichiometry    C2H5(2)
 Framework group  C1[X(C2H5)]
 Deg. of freedom    15
 Full point group                 C1
 Largest Abelian subgroup         C1      NOp   1
 Largest concise Abelian subgroup C1      NOp   1
                         Standard orientation:                         
 ---------------------------------------------------------------------
 Center     Atomic     Atomic              Coordinates (Angstroms)
 Number     Number      Type              X           Y           Z
 ---------------------------------------------------------------------
    1          6             0        0.793840   -0.000004   -0.018056
    2          6             0       -0.693611    0.000051   -0.001999
    3          1             0        1.352129    0.926280    0.039908
    4          1             0        1.351917   -0.926420    0.039921
    5          1             0       -1.106609   -0.884707   -0.496068
    6          1             0       -1.092343   -0.003881    1.026044
    7          1             0       -1.106470    0.888449   -0.489476
 ---------------------------------------------------------------------
 Rotational constants (GHZ):    103.7545797     22.7286400     21.0640246
 Standard basis: 6-31+G(d,p) (6D, 7F)
 There are    63 symmetry adapted basis functions of A   symmetry.
 Integral buffers will be    131072 words long.
 Raffenetti 2 integral format.
 Two-electron integral symmetry is turned on.
    63 basis functions,    99 primitive gaussians,    63 cartesian basis functions
     9 alpha electrons        8 beta electrons
       nuclear repulsion energy        36.9323990245 Hartrees.
 NAtoms=    7 NActive=    7 NUniq=    7 SFac= 7.50D-01 NAtFMM=   80 NAOKFM=F Big=F
 One-electron integrals computed using PRISM.
 NBasis=    63 RedAO= T  NBF=    63
 NBsUse=    63 1.00D-06 NBFU=    63
 Harris functional with IExCor=  402 diagonalized for initial guess.
 ExpMin= 4.38D-02 ExpMax= 3.05D+03 ExpMxC= 4.57D+02 IAcc=2 IRadAn=         4 AccDes= 0.00D+00
 HarFok:  IExCor= 402 AccDes= 0.00D+00 IRadAn=         4 IDoV=1
 ScaDFX=  1.000000  1.000000  1.000000  1.000000
 Initial guess orbital symmetries:
 Alpha Orbitals:
       Occupied  (A) (A) (A) (A) (A) (A) (A) (A) (A)
       Virtual   (A) (A) (A) (A) (A) (A) (A) (A) (A) (A) (A) (A)
                 (A) (A) (A) (A) (A) (A) (A) (A) (A) (A) (A) (A)
                 (A) (A) (A) (A) (A) (A) (A) (A) (A) (A) (A) (A)
                 (A) (A) (A) (A) (A) (A) (A) (A) (A) (A) (A) (A)
                 (A) (A) (A) (A) (A) (A)
 Beta  Orbitals:
       Occupied  (A) (A) (A) (A) (A) (A) (A) (A)
       Virtual   (A) (A) (A) (A) (A) (A) (A) (A) (A) (A) (A) (A)
                 (A) (A) (A) (A) (A) (A) (A) (A) (A) (A) (A) (A)
                 (A) (A) (A) (A) (A) (A) (A) (A) (A) (A) (A) (A)
                 (A) (A) (A) (A) (A) (A) (A) (A) (A) (A) (A) (A)
                 (A) (A) (A) (A) (A) (A) (A)
 The electronic state of the initial guess is 2-A.
 <S**2> of initial guess= 0.7500
 Requested convergence on RMS density matrix=1.00D-08 within9000 cycles.
 Requested convergence on MAX density matrix=1.00D-06.
 Requested convergence on             energy=1.00D-06.
 No special actions if energy rises.
 Keep R1 and R2 integrals in memory in canonical form, NReq=    86886702.
 SCF Done:  E(UB+HF-LYP) =  -79.1700865801     A.U. after   12 cycles
             Convg  =    0.3230D-08             -V/T =  2.0106
             S**2   =   0.7538
 Annihilation of the first spin contaminant:
 S**2 before annihilation     0.7538,   after     0.7500
 Range of M.O.s used for correlation:     1    63
 NBasis=    63 NAE=     9 NBE=     8 NFC=     0 NFV=     0
 NROrb=     63 NOA=     9 NOB=     8 NVA=    54 NVB=    55

 **** Warning!!: The largest alpha MO coefficient is  0.26832563D+02


 **** Warning!!: The largest beta MO coefficient is  0.26857645D+02

 Symmetrizing basis deriv contribution to polar:
 IMax=3 JMax=2 DiffMx= 0.00D+00
 G2DrvN: will do    8 centers at a time, making    1 passes doing MaxLOS=2.
 FoFDir/FoFCou used for L=0 through L=2.
 DoAtom=TTTTTTT
          Differentiating once with respect to electric field.
                with respect to dipole field.
          Differentiating once with respect to nuclear coordinates.
          Store integrals in memory, NReq=     4888399.
          There are  24 degrees of freedom in the 1st order CPHF.
    21 vectors were produced by pass  0.
 AX will form  21 AO Fock derivatives at one time.
    21 vectors were produced by pass  1.
    21 vectors were produced by pass  2.
    21 vectors were produced by pass  3.
    14 vectors were produced by pass  4.
     4 vectors were produced by pass  5.
     1 vectors were produced by pass  6.
 Inv2:  IOpt= 1 Iter= 1 AM= 1.92D-15 Conv= 1.00D-12.
 Inverted reduced A of dimension  103 with in-core refinement.
 Isotropic polarizability for W=    0.000000       24.65 Bohr**3.
 End of Minotr Frequency-dependent properties file   721 does not exist.

 **********************************************************************

            Population analysis using the SCF density.

 **********************************************************************

 Orbital symmetries:
 Alpha Orbitals:
       Occupied  (A) (A) (A) (A) (A) (A) (A) (A) (A)
       Virtual   (A) (A) (A) (A) (A) (A) (A) (A) (A) (A) (A) (A)
                 (A) (A) (A) (A) (A) (A) (A) (A) (A) (A) (A) (A)
                 (A) (A) (A) (A) (A) (A) (A) (A) (A) (A) (A) (A)
                 (A) (A) (A) (A) (A) (A) (A) (A) (A) (A) (A) (A)
                 (A) (A) (A) (A) (A) (A)
 Beta  Orbitals:
       Occupied  (A) (A) (A) (A) (A) (A) (A) (A)
       Virtual   (A) (A) (A) (A) (A) (A) (A) (A) (A) (A) (A) (A)
                 (A) (A) (A) (A) (A) (A) (A) (A) (A) (A) (A) (A)
                 (A) (A) (A) (A) (A) (A) (A) (A) (A) (A) (A) (A)
                 (A) (A) (A) (A) (A) (A) (A) (A) (A) (A) (A) (A)
                 (A) (A) (A) (A) (A) (A) (A)
 The electronic state is 2-A.
 Alpha  occ. eigenvalues --  -10.19672 -10.18695  -0.76020  -0.61255  -0.45414
 Alpha  occ. eigenvalues --   -0.41651  -0.39559  -0.36125  -0.20499
 Alpha virt. eigenvalues --    0.01904   0.03031   0.05117   0.05877   0.08273
 Alpha virt. eigenvalues --    0.08725   0.09844   0.14889   0.17739   0.17848
 Alpha virt. eigenvalues --    0.22642   0.27301   0.27320   0.30825   0.60836
 Alpha virt. eigenvalues --    0.63445   0.65688   0.68033   0.68995   0.72305
 Alpha virt. eigenvalues --    0.88672   0.90666   0.90801   0.97805   1.01257
 Alpha virt. eigenvalues --    1.08288   1.29489   1.31717   1.43892   1.55834
 Alpha virt. eigenvalues --    1.80858   1.87845   1.96220   1.96307   2.04158
 Alpha virt. eigenvalues --    2.11425   2.11619   2.23030   2.32446   2.40111
 Alpha virt. eigenvalues --    2.50196   2.52204   2.61137   2.68816   2.83825
 Alpha virt. eigenvalues --    2.84630   2.90031   3.21950   3.29219   3.41498
 Alpha virt. eigenvalues --    3.46435   3.52301   4.25732   4.52888
  Beta  occ. eigenvalues --  -10.18777 -10.18322  -0.74367  -0.58873  -0.44773
  Beta  occ. eigenvalues --   -0.40169  -0.38759  -0.35676
  Beta virt. eigenvalues --   -0.05709   0.02020   0.03264   0.05126   0.06223
  Beta virt. eigenvalues --    0.08243   0.08709   0.11301   0.15121   0.17957
  Beta virt. eigenvalues --    0.18956   0.24176   0.27752   0.28181   0.31214
  Beta virt. eigenvalues --    0.61325   0.63704   0.67028   0.69775   0.72906
  Beta virt. eigenvalues --    0.73481   0.90476   0.91042   0.91469   0.99390
  Beta virt. eigenvalues --    1.01422   1.08801   1.30555   1.33405   1.48159
  Beta virt. eigenvalues --    1.55964   1.83744   1.89204   1.96492   2.01206
  Beta virt. eigenvalues --    2.04768   2.11786   2.12343   2.23163   2.33172
  Beta virt. eigenvalues --    2.41743   2.51764   2.54415   2.62566   2.69168
  Beta virt. eigenvalues --    2.84450   2.85141   2.90454   3.22453   3.29906
  Beta virt. eigenvalues --    3.41765   3.47112   3.52945   4.28063   4.53887
          Condensed to atoms (all electrons):
              1          2          3          4          5          6
     1  C    5.326303   0.283100   0.386408   0.386288  -0.054168  -0.053550
     2  C    0.283100   5.084876  -0.026912  -0.026847   0.411632   0.389838
     3  H    0.386408  -0.026912   0.533431  -0.031645   0.003587   0.000291
     4  H    0.386288  -0.026847  -0.031645   0.533526  -0.005432   0.000251
     5  H   -0.054168   0.411632   0.003587  -0.005432   0.549542  -0.032883
     6  H   -0.053550   0.389838   0.000291   0.000251  -0.032883   0.569756
     7  H   -0.054064   0.411677  -0.005473   0.003593  -0.026305  -0.032819
              7
     1  C   -0.054064
     2  C    0.411677
     3  H   -0.005473
     4  H    0.003593
     5  H   -0.026305
     6  H   -0.032819
     7  H    0.549432
 Mulliken atomic charges:
              1
     1  C   -0.220317
     2  C   -0.527364
     3  H    0.140313
     4  H    0.140266
     5  H    0.154025
     6  H    0.159116
     7  H    0.153961
 Sum of Mulliken charges=   0.00000
 Atomic charges with hydrogens summed into heavy atoms:
              1
     1  C    0.060261
     2  C   -0.060261
     3  H    0.000000
     4  H    0.000000
     5  H    0.000000
     6  H    0.000000
     7  H    0.000000
 Sum of Mulliken charges=   0.00000
          Atomic-Atomic Spin Densities.
              1          2          3          4          5          6
     1  C    1.296642  -0.106589   0.004931   0.004952  -0.013764  -0.038209
     2  C   -0.106589  -0.051660  -0.009340  -0.009359   0.011475   0.019867
     3  H    0.004931  -0.009340  -0.046261   0.000969   0.000019  -0.000300
     4  H    0.004952  -0.009359   0.000969  -0.046248   0.000745  -0.000299
     5  H   -0.013764   0.011475   0.000019   0.000745   0.024942  -0.011954
     6  H   -0.038209   0.019867  -0.000300  -0.000299  -0.011954   0.108977
     7  H   -0.013481   0.011292   0.000744   0.000017   0.004732  -0.011798
              7
     1  C   -0.013481
     2  C    0.011292
     3  H    0.000744
     4  H    0.000017
     5  H    0.004732
     6  H   -0.011798
     7  H    0.024308
 Mulliken atomic spin densities:
              1
     1  C    1.134483
     2  C   -0.134314
     3  H   -0.049238
     4  H   -0.049223
     5  H    0.016195
     6  H    0.066284
     7  H    0.015814
 Sum of Mulliken spin densities=   1.00000
 APT atomic charges:
              1
     1  C   -0.062289
     2  C    0.066173
     3  H    0.019876
     4  H    0.019746
     5  H   -0.013108
     6  H   -0.017268
     7  H   -0.013130
 Sum of APT charges=   0.00000
 APT Atomic charges with hydrogens summed into heavy atoms:
              1
     1  C   -0.022667
     2  C    0.022667
     3  H    0.000000
     4  H    0.000000
     5  H    0.000000
     6  H    0.000000
     7  H    0.000000
 Sum of APT charges=   0.00000
 Electronic spatial extent (au):  <R**2>=    99.8527
 Charge=     0.0000 electrons
 Dipole moment (field-independent basis, Debye):
    X=    -0.3220    Y=    -0.0003    Z=     0.1449  Tot=     0.3531
 Quadrupole moment (field-independent basis, Debye-Ang):
   XX=   -14.6005   YY=   -13.7805   ZZ=   -15.6356
   XY=     0.0003   XZ=     0.1645   YZ=     0.0001
 Traceless Quadrupole moment (field-independent basis, Debye-Ang):
   XX=     0.0717   YY=     0.8917   ZZ=    -0.9634
   XY=     0.0003   XZ=     0.1645   YZ=     0.0001
 Octapole moment (field-independent basis, Debye-Ang**2):
  XXX=    -0.4198  YYY=     0.0060  ZZZ=     0.8337  XYY=     0.3692
  XXY=     0.0005  XXZ=     0.2424  XZZ=    -1.9918  YZZ=    -0.0063
  YYZ=    -0.4240  XYZ=    -0.0002
 Hexadecapole moment (field-independent basis, Debye-Ang**3):
 XXXX=   -90.3853 YYYY=   -30.0374 ZZZZ=   -27.4535 XXXY=     0.0008
 XXXZ=     0.6101 YYYX=    -0.0074 YYYZ=     0.0003 ZZZX=    -0.2519
 ZZZY=    -0.0001 XXYY=   -18.0466 XXZZ=   -20.7623 YYZZ=    -9.9207
 XXYZ=     0.0004 YYXZ=     0.8431 ZZXY=     0.0072
 N-N= 3.693239902450D+01 E-N=-2.562851194967D+02  KE= 7.834286061242D+01
  Exact polarizability:  28.191   0.005  23.057  -0.558   0.000  22.707
 Approx polarizability:  32.321   0.008  29.150  -0.749   0.000  27.575
                          Isotropic Fermi Contact Couplings
        Atom                 a.u.       MegaHertz       Gauss      10(-4) cm-1
     1  C(13)              0.10767     121.04627      43.19232      40.37669
     2  C(13)             -0.02677     -30.09807     -10.73974     -10.03964
     3  H(1)              -0.01450     -64.82814     -23.13229     -21.62434
     4  H(1)              -0.01450     -64.80711     -23.12479     -21.61732
     5  H(1)               0.00845      37.78790      13.48366      12.60469
     6  H(1)               0.03380     151.08933      53.91243      50.39798
     7  H(1)               0.00825      36.87024      13.15622      12.29859
 --------------------------------------------------------
       Center         ----  Spin Dipole Couplings  ----
                      3XX-RR        3YY-RR        3ZZ-RR
 --------------------------------------------------------
     1   Atom       -0.524421     -0.518940      1.043361
     2   Atom        0.013279     -0.019646      0.006368
     3   Atom       -0.034484      0.034429      0.000056
     4   Atom       -0.034511      0.034464      0.000047
     5   Atom        0.011817     -0.003720     -0.008097
     6   Atom        0.011954     -0.011342     -0.000612
     7   Atom        0.011799     -0.003706     -0.008092
 --------------------------------------------------------
                        XY            XZ            YZ
 --------------------------------------------------------
     1   Atom       -0.000002     -0.047126      0.000005
     2   Atom        0.000002     -0.003125      0.000010
     3   Atom        0.062173      0.001007      0.005624
     4   Atom       -0.062150      0.001007     -0.005625
     5   Atom        0.009885      0.003559      0.001546
     6   Atom        0.000044     -0.009739     -0.000051
     7   Atom       -0.009909      0.003494     -0.001502
 --------------------------------------------------------


 ---------------------------------------------------------------------------------
              Anisotropic Spin Dipole Couplings in Principal Axis System
 ---------------------------------------------------------------------------------

       Atom             a.u.   MegaHertz   Gauss  10(-4) cm-1        Axes

              Baa    -0.5258   -70.562   -25.178   -23.537  0.9995  0.0002  0.0300
     1 C(13)  Bbb    -0.5189   -69.637   -24.848   -23.228 -0.0002  1.0000  0.0000
              Bcc     1.0448   140.199    50.026    46.765 -0.0300  0.0000  0.9995
 
              Baa    -0.0196    -2.636    -0.941    -0.879 -0.0001  1.0000 -0.0004
     2 C(13)  Bbb     0.0052     0.693     0.247     0.231  0.3594  0.0004  0.9332
              Bcc     0.0145     1.943     0.693     0.648  0.9332 -0.0001 -0.3594
 
              Baa    -0.0712   -37.971   -13.549   -12.666  0.8607 -0.5083  0.0280
     3 H(1)   Bbb    -0.0003    -0.155    -0.055    -0.052 -0.0621 -0.0503  0.9968
              Bcc     0.0715    38.126    13.604    12.717  0.5052  0.8597  0.0749
 
              Baa    -0.0712   -37.966   -13.547   -12.664  0.8609  0.5081  0.0280
     4 H(1)   Bbb    -0.0003    -0.160    -0.057    -0.053 -0.0621  0.0503  0.9968
              Bcc     0.0715    38.126    13.604    12.717 -0.5050  0.8599 -0.0748
 
              Baa    -0.0088    -4.690    -1.674    -1.565 -0.3440  0.4137  0.8429
     5 H(1)   Bbb    -0.0084    -4.495    -1.604    -1.499 -0.3008  0.8019 -0.5163
              Bcc     0.0172     9.185     3.277     3.064  0.8895  0.4312  0.1514
 
              Baa    -0.0113    -6.052    -2.159    -2.019  0.0001  1.0000  0.0049
     6 H(1)   Bbb    -0.0059    -3.158    -1.127    -1.053  0.4785 -0.0044  0.8781
              Bcc     0.0173     9.210     3.286     3.072  0.8781  0.0022 -0.4785
 
              Baa    -0.0088    -4.689    -1.673    -1.564 -0.3612 -0.4655  0.8080
     7 H(1)   Bbb    -0.0084    -4.487    -1.601    -1.497  0.2802  0.7723  0.5701
              Bcc     0.0172     9.176     3.274     3.061  0.8894 -0.4323  0.1485
 

 ---------------------------------------------------------------------------------

 ***** Axes restored to original set *****
 -------------------------------------------------------------------
 Center     Atomic                   Forces (Hartrees/Bohr)
 Number     Number              X              Y              Z
 -------------------------------------------------------------------
    1          6          -0.000016540    0.000363195   -0.000075006
    2          6           0.000029758   -0.000416116    0.000278589
    3          1           0.001279587   -0.000026091   -0.000835802
    4          1          -0.001270838   -0.000198736   -0.000835570
    5          1          -0.001010999    0.000554335    0.000483771
    6          1           0.000060384   -0.000963285    0.000499945
    7          1           0.000928648    0.000686697    0.000484072
 -------------------------------------------------------------------
 Cartesian Forces:  Max     0.001279587 RMS     0.000668757

 GradGradGradGradGradGradGradGradGradGradGradGradGradGradGradGradGradGrad
 Berny optimization.
 Internal  Forces:  Max     0.001746118 RMS     0.000758869
 Search for a local minimum.
 Step number   1 out of a maximum of  31 on scan point     1 out of    37
 All quantities printed in internal units (Hartrees-Bohrs-Radians)
 Second derivative matrix not updated -- analytic derivatives used.
     Eigenvalues ---    0.00361   0.03663   0.05725   0.10253   0.10666
     Eigenvalues ---    0.11970   0.13562   0.16127   0.30874   0.33061
     Eigenvalues ---    0.33724   0.34963   0.36801   0.370091000.00000
     Eigenvalues --- 1000.000001000.000001000.000001000.000001000.00000
     Eigenvalues --- 1000.00000
 RFO step:  Lambda=-3.46289414D-05.
 Linear search not attempted -- first point.
 Iteration  1 RMS(Cart)=  0.00282162 RMS(Int)=  0.00000382
 Iteration  2 RMS(Cart)=  0.00000234 RMS(Int)=  0.00000139
 Iteration  3 RMS(Cart)=  0.00000000 RMS(Int)=  0.00000139
 Iteration  1 RMS(Cart)=  0.00000006 RMS(Int)=  0.00000008
 Variable       Old X    -DE/DX   Delta X   Delta X   Delta X     New X
                                 (Linear)    (Quad)   (Total)
    R1        2.81104   0.00175   0.00000   0.00511   0.00511   2.81615
    R2        2.04671   0.00153   0.00000   0.00413   0.00413   2.05085
    R3        2.04672   0.00153   0.00000   0.00416   0.00416   2.05088
    R4        2.06791   0.00125   0.00000   0.00360   0.00360   2.07151
    R5        2.08374   0.00108   0.00000   0.00293   0.00293   2.08666
    R6        2.06779   0.00125   0.00000   0.00357   0.00357   2.07136
    A1        2.11160   0.00004   0.00000   0.00005   0.00004   2.11165
    A2        2.11145   0.00003   0.00000  -0.00009  -0.00009   2.11135
    A3        2.05224  -0.00008   0.00000  -0.00053  -0.00053   2.05171
    A4        1.95248  -0.00002   0.00000  -0.00086  -0.00086   1.95162
    A5        1.95158   0.00019   0.00000   0.00146   0.00146   1.95304
    A6        1.95250  -0.00002   0.00000  -0.00083  -0.00083   1.95168
    A7        1.85624  -0.00004   0.00000   0.00060   0.00060   1.85684
    A8        1.88903  -0.00007   0.00000  -0.00103  -0.00103   1.88800
    A9        1.85647  -0.00004   0.00000   0.00073   0.00073   1.85721
    D1        2.69747  -0.00004   0.00000   0.00000   0.00000   2.69747
    D2       -1.50568   0.00001   0.00000   0.00118   0.00118  -1.50451
    D3        0.57465   0.00008   0.00000   0.00255   0.00255   0.57720
    D4       -0.58206  -0.00007   0.00000  -0.00500  -0.00500  -0.58706
    D5        1.49797  -0.00002   0.00000  -0.00382  -0.00382   1.49414
    D6       -2.70488   0.00005   0.00000  -0.00245  -0.00246  -2.70733
         Item               Value     Threshold  Converged?
 Maximum Force            0.001746     0.000450     NO 
 RMS     Force            0.000777     0.000300     NO 
 Maximum Displacement     0.005114     0.001800     NO 
 RMS     Displacement     0.002821     0.001200     NO 
 Predicted change in Energy=-1.731446D-05
 GradGradGradGradGradGradGradGradGradGradGradGradGradGradGradGradGradGrad

                          Input orientation:                          
 ---------------------------------------------------------------------
 Center     Atomic     Atomic              Coordinates (Angstroms)
 Number     Number      Type              X           Y           Z
 ---------------------------------------------------------------------
    1          6             0       -0.000080    0.001296   -0.001452
    2          6             0        0.000059   -0.000581    1.488790
    3          1             0        0.930230    0.000427   -0.560303
    4          1             0       -0.921405   -0.129004   -0.560031
    5          1             0       -0.918100    0.437710    1.896866
    6          1             0        0.066235   -1.023484    1.899376
    7          1             0        0.853749    0.552729    1.896875
 ---------------------------------------------------------------------
                    Distance matrix (angstroms):
                    1          2          3          4          5
     1  C    0.000000
     2  C    1.490244   0.000000
     3  H    1.085261   2.250333   0.000000
     4  H    1.085278   2.250168   1.856153   0.000000
     5  H    2.153330   1.096194   3.105675   2.521412   0.000000
     6  H    2.160491   1.104215   2.800875   2.797179   1.761820
     7  H    2.153312   1.096117   2.519645   3.106818   1.775578
                    6          7
     6  H    0.000000
     7  H    1.761997   0.000000
 Stoichiometry    C2H5(2)
 Framework group  C1[X(C2H5)]
 Deg. of freedom    15
 Full point group                 C1
 Largest Abelian subgroup         C1      NOp   1
 Largest concise Abelian subgroup C1      NOp   1
                         Standard orientation:                         
 ---------------------------------------------------------------------
 Center     Atomic     Atomic              Coordinates (Angstroms)
 Number     Number      Type              X           Y           Z
 ---------------------------------------------------------------------
    1          6             0        0.795234    0.000000   -0.018665
    2          6             0       -0.694912    0.000074   -0.001623
    3          1             0        1.354765    0.927958    0.041403
    4          1             0        1.354410   -0.928195    0.041369
    5          1             0       -1.108107   -0.885259   -0.498710
    6          1             0       -1.095049   -0.005241    1.027529
    7          1             0       -1.107946    0.890297   -0.489863
 ---------------------------------------------------------------------
 Rotational constants (GHZ):    103.3870704     22.6457069     20.9891044
 Standard basis: 6-31+G(d,p) (6D, 7F)
 There are    63 symmetry adapted basis functions of A   symmetry.
 Integral buffers will be    131072 words long.
 Raffenetti 2 integral format.
 Two-electron integral symmetry is turned on.
    63 basis functions,    99 primitive gaussians,    63 cartesian basis functions
     9 alpha electrons        8 beta electrons
       nuclear repulsion energy        36.8661881049 Hartrees.
 NAtoms=    7 NActive=    7 NUniq=    7 SFac= 7.50D-01 NAtFMM=   80 NAOKFM=F Big=F
 One-electron integrals computed using PRISM.
 NBasis=    63 RedAO= T  NBF=    63
 NBsUse=    63 1.00D-06 NBFU=    63
 Initial guess read from the read-write file:
 Initial guess orbital symmetries:
 Alpha Orbitals:
       Occupied  (A) (A) (A) (A) (A) (A) (A) (A) (A)
       Virtual   (A) (A) (A) (A) (A) (A) (A) (A) (A) (A) (A) (A)
                 (A) (A) (A) (A) (A) (A) (A) (A) (A) (A) (A) (A)
                 (A) (A) (A) (A) (A) (A) (A) (A) (A) (A) (A) (A)
                 (A) (A) (A) (A) (A) (A) (A) (A) (A) (A) (A) (A)
                 (A) (A) (A) (A) (A) (A)
 Beta  Orbitals:
       Occupied  (A) (A) (A) (A) (A) (A) (A) (A)
       Virtual   (A) (A) (A) (A) (A) (A) (A) (A) (A) (A) (A) (A)
                 (A) (A) (A) (A) (A) (A) (A) (A) (A) (A) (A) (A)
                 (A) (A) (A) (A) (A) (A) (A) (A) (A) (A) (A) (A)
                 (A) (A) (A) (A) (A) (A) (A) (A) (A) (A) (A) (A)
                 (A) (A) (A) (A) (A) (A) (A)
 <S**2> of initial guess= 0.7538
 Requested convergence on RMS density matrix=1.00D-08 within9000 cycles.
 Requested convergence on MAX density matrix=1.00D-06.
 Requested convergence on             energy=1.00D-06.
 No special actions if energy rises.
 Keep R1 and R2 integrals in memory in canonical form, NReq=    86886702.
 SCF Done:  E(UB+HF-LYP) =  -79.1701039151     A.U. after    9 cycles
             Convg  =    0.2793D-08             -V/T =  2.0108
             S**2   =   0.7538
 Annihilation of the first spin contaminant:
 S**2 before annihilation     0.7538,   after     0.7500
 ***** Axes restored to original set *****
 -------------------------------------------------------------------
 Center     Atomic                   Forces (Hartrees/Bohr)
 Number     Number              X              Y              Z
 -------------------------------------------------------------------
    1          6          -0.000000895    0.000012439   -0.000002169
    2          6           0.000002972   -0.000002131    0.000005323
    3          1           0.000007868    0.000000644   -0.000005431
    4          1          -0.000008680    0.000004589   -0.000005536
    5          1          -0.000007205   -0.000005641    0.000004956
    6          1           0.000000324   -0.000008610   -0.000002070
    7          1           0.000005616   -0.000001291    0.000004927
 -------------------------------------------------------------------
 Cartesian Forces:  Max     0.000012439 RMS     0.000005628

 GradGradGradGradGradGradGradGradGradGradGradGradGradGradGradGradGradGrad
 Berny optimization.
 Internal  Forces:  Max     0.000012883 RMS     0.000004975
 Search for a local minimum.
 Step number   2 out of a maximum of  31 on scan point     1 out of    37
 All quantities printed in internal units (Hartrees-Bohrs-Radians)
 Update second derivatives using D2CorX and points  1  2
 Trust test= 1.00D+00 RLast= 1.24D-02 DXMaxT set to 3.00D-01
     Eigenvalues ---    0.00361   0.03664   0.05725   0.10253   0.10666
     Eigenvalues ---    0.11970   0.13562   0.16126   0.30875   0.33057
     Eigenvalues ---    0.33724   0.34864   0.36801   0.368981000.00000
     Eigenvalues --- 1000.000001000.000001000.000001000.000001000.00000
     Eigenvalues --- 1000.00000
 RFO step:  Lambda= 0.00000000D+00.
 Quartic linear search produced a step of  0.00639.
 Iteration  1 RMS(Cart)=  0.00003496 RMS(Int)=  0.00000001
 Iteration  2 RMS(Cart)=  0.00000000 RMS(Int)=  0.00000001
 Iteration  1 RMS(Cart)=  0.00000003 RMS(Int)=  0.00000004
 Variable       Old X    -DE/DX   Delta X   Delta X   Delta X     New X
                                 (Linear)    (Quad)   (Total)
    R1        2.81615   0.00001   0.00003   0.00001   0.00004   2.81619
    R2        2.05085   0.00001   0.00003   0.00000   0.00003   2.05087
    R3        2.05088   0.00001   0.00003   0.00000   0.00003   2.05091
    R4        2.07151   0.00001   0.00002   0.00000   0.00002   2.07153
    R5        2.08666   0.00000   0.00002  -0.00001   0.00001   2.08668
    R6        2.07136   0.00001   0.00002   0.00000   0.00002   2.07138
    A1        2.11165   0.00000   0.00000   0.00000   0.00000   2.11164
    A2        2.11135   0.00000   0.00000  -0.00001  -0.00001   2.11135
    A3        2.05171   0.00000   0.00000   0.00000   0.00000   2.05171
    A4        1.95162   0.00000  -0.00001   0.00000  -0.00001   1.95161
    A5        1.95304   0.00000   0.00001  -0.00001   0.00000   1.95305
    A6        1.95168   0.00000  -0.00001   0.00000   0.00000   1.95167
    A7        1.85684   0.00000   0.00000   0.00000   0.00000   1.85684
    A8        1.88800   0.00000  -0.00001   0.00001   0.00000   1.88800
    A9        1.85721   0.00000   0.00000   0.00000   0.00001   1.85721
    D1        2.69747   0.00000   0.00000   0.00000   0.00000   2.69747
    D2       -1.50451   0.00000   0.00001  -0.00001   0.00000  -1.50451
    D3        0.57720   0.00000   0.00002  -0.00001   0.00001   0.57721
    D4       -0.58706   0.00000  -0.00003  -0.00009  -0.00012  -0.58718
    D5        1.49414   0.00000  -0.00002  -0.00010  -0.00012   1.49402
    D6       -2.70733   0.00000  -0.00002  -0.00010  -0.00011  -2.70745
         Item               Value     Threshold  Converged?
 Maximum Force            0.000013     0.000450     YES
 RMS     Force            0.000005     0.000300     YES
 Maximum Displacement     0.000099     0.001800     YES
 RMS     Displacement     0.000035     0.001200     YES
 Predicted change in Energy=-7.281774D-10
 Optimization completed.
    -- Stationary point found.
                           ----------------------------
                           !   Optimized Parameters   !
                           ! (Angstroms and Degrees)  !
 --------------------------                            --------------------------
 ! Name  Definition              Value          Derivative Info.                !
 --------------------------------------------------------------------------------
 ! R1    R(1,2)                  1.4902         -DE/DX =    0.0                 !
 ! R2    R(1,3)                  1.0853         -DE/DX =    0.0                 !
 ! R3    R(1,4)                  1.0853         -DE/DX =    0.0                 !
 ! R4    R(2,5)                  1.0962         -DE/DX =    0.0                 !
 ! R5    R(2,6)                  1.1042         -DE/DX =    0.0                 !
 ! R6    R(2,7)                  1.0961         -DE/DX =    0.0                 !
 ! A1    A(2,1,3)              120.9884         -DE/DX =    0.0                 !
 ! A2    A(2,1,4)              120.9717         -DE/DX =    0.0                 !
 ! A3    A(3,1,4)              117.5544         -DE/DX =    0.0                 !
 ! A4    A(1,2,5)              111.8196         -DE/DX =    0.0                 !
 ! A5    A(1,2,6)              111.9012         -DE/DX =    0.0                 !
 ! A6    A(1,2,7)              111.8228         -DE/DX =    0.0                 !
 ! A7    A(5,2,6)              106.3893         -DE/DX =    0.0                 !
 ! A8    A(5,2,7)              108.1746         -DE/DX =    0.0                 !
 ! A9    A(6,2,7)              106.41           -DE/DX =    0.0                 !
 ! D1    D(3,1,2,5)            154.5539         -DE/DX =    0.0                 !
 ! D2    D(3,1,2,6)            -86.2018         -DE/DX =    0.0                 !
 ! D3    D(3,1,2,7)             33.0712         -DE/DX =    0.0                 !
 ! D4    D(4,1,2,5)            -33.6362         -DE/DX =    0.0                 !
 ! D5    D(4,1,2,6)             85.6082         -DE/DX =    0.0                 !
 ! D6    D(4,1,2,7)           -155.1188         -DE/DX =    0.0                 !
 --------------------------------------------------------------------------------
 Iteration  1 RMS(Cart)=  0.02198996 RMS(Int)=  0.02615600
 Iteration  2 RMS(Cart)=  0.00063534 RMS(Int)=  0.02614645
 Iteration  3 RMS(Cart)=  0.00002051 RMS(Int)=  0.02614644
 Iteration  4 RMS(Cart)=  0.00000071 RMS(Int)=  0.02614644
 Iteration  1 RMS(Cart)=  0.01039556 RMS(Int)=  0.01232144
 Iteration  2 RMS(Cart)=  0.00491061 RMS(Int)=  0.01376878
 Iteration  3 RMS(Cart)=  0.00231651 RMS(Int)=  0.01528490
 Iteration  4 RMS(Cart)=  0.00109201 RMS(Int)=  0.01613120
 Iteration  5 RMS(Cart)=  0.00051460 RMS(Int)=  0.01655407
 Iteration  6 RMS(Cart)=  0.00024246 RMS(Int)=  0.01675817
 Iteration  7 RMS(Cart)=  0.00011423 RMS(Int)=  0.01685536
 Iteration  8 RMS(Cart)=  0.00005382 RMS(Int)=  0.01690137
 Iteration  9 RMS(Cart)=  0.00002535 RMS(Int)=  0.01692310
 Iteration 10 RMS(Cart)=  0.00001194 RMS(Int)=  0.01693334
 Iteration 11 RMS(Cart)=  0.00000563 RMS(Int)=  0.01693817
 Iteration 12 RMS(Cart)=  0.00000265 RMS(Int)=  0.01694045
 Iteration 13 RMS(Cart)=  0.00000125 RMS(Int)=  0.01694152
 Iteration 14 RMS(Cart)=  0.00000059 RMS(Int)=  0.01694203
 GradGradGradGradGradGradGradGradGradGradGradGradGradGradGradGradGradGrad

                          Input orientation:                          
 ---------------------------------------------------------------------
 Center     Atomic     Atomic              Coordinates (Angstroms)
 Number     Number      Type              X           Y           Z
 ---------------------------------------------------------------------
    1          6             0        0.001599    0.030111   -0.003243
    2          6             0        0.010707    0.031314    1.486995
    3          1             0        0.928208   -0.055829   -0.562181
    4          1             0       -0.923556   -0.119763   -0.550535
    5          1             0       -0.938211    0.391137    1.902107
    6          1             0        0.068337   -1.004122    1.866408
    7          1             0        0.863604    0.566245    1.920571
 ---------------------------------------------------------------------
                    Distance matrix (angstroms):
                    1          2          3          4          5
     1  C    0.000000
     2  C    1.490267   0.000000
     3  H    1.085542   2.246893   0.000000
     4  H    1.085312   2.246598   1.852904   0.000000
     5  H    2.154981   1.096465   3.123462   2.505332   0.000000
     6  H    2.137683   1.104266   2.745302   2.758179   1.720802
     7  H    2.175213   1.096162   2.560314   3.125846   1.810398
                    6          7
     6  H    0.000000
     7  H    1.761089   0.000000
 Stoichiometry    C2H5(2)
 Framework group  C1[X(C2H5)]
 Deg. of freedom    15
 Full point group                 C1
 Largest Abelian subgroup         C1      NOp   1
 Largest concise Abelian subgroup C1      NOp   1
                         Standard orientation:                         
 ---------------------------------------------------------------------
 Center     Atomic     Atomic              Coordinates (Angstroms)
 Number     Number      Type              X           Y           Z
 ---------------------------------------------------------------------
    1          6             0       -0.795626   -0.001646   -0.035366
    2          6             0        0.694425   -0.005246   -0.010294
    3          1             0       -1.353503   -0.923334    0.097549
    4          1             0       -1.347918    0.928900    0.048058
    5          1             0        1.113218    0.921402   -0.420383
    6          1             0        1.055863    0.002054    1.033119
    7          1             0        1.139546   -0.887673   -0.484384
 ---------------------------------------------------------------------
 Rotational constants (GHZ):    103.2640763     22.7187157     20.9624668
 Standard basis: 6-31+G(d,p) (6D, 7F)
 There are    63 symmetry adapted basis functions of A   symmetry.
 Integral buffers will be    131072 words long.
 Raffenetti 2 integral format.
 Two-electron integral symmetry is turned on.
    63 basis functions,    99 primitive gaussians,    63 cartesian basis functions
     9 alpha electrons        8 beta electrons
       nuclear repulsion energy        36.8728630958 Hartrees.
 NAtoms=    7 NActive=    7 NUniq=    7 SFac= 7.50D-01 NAtFMM=   80 NAOKFM=F Big=F
 One-electron integrals computed using PRISM.
 NBasis=    63 RedAO= T  NBF=    63
 NBsUse=    63 1.00D-06 NBFU=    63
 Initial guess read from the read-write file:
 Initial guess orbital symmetries:
 Alpha Orbitals:
       Occupied  (A) (A) (A) (A) (A) (A) (A) (A) (A)
       Virtual   (A) (A) (A) (A) (A) (A) (A) (A) (A) (A) (A) (A)
                 (A) (A) (A) (A) (A) (A) (A) (A) (A) (A) (A) (A)
                 (A) (A) (A) (A) (A) (A) (A) (A) (A) (A) (A) (A)
                 (A) (A) (A) (A) (A) (A) (A) (A) (A) (A) (A) (A)
                 (A) (A) (A) (A) (A) (A)
 Beta  Orbitals:
       Occupied  (A) (A) (A) (A) (A) (A) (A) (A)
       Virtual   (A) (A) (A) (A) (A) (A) (A) (A) (A) (A) (A) (A)
                 (A) (A) (A) (A) (A) (A) (A) (A) (A) (A) (A) (A)
                 (A) (A) (A) (A) (A) (A) (A) (A) (A) (A) (A) (A)
                 (A) (A) (A) (A) (A) (A) (A) (A) (A) (A) (A) (A)
                 (A) (A) (A) (A) (A) (A) (A)
 <S**2> of initial guess= 0.7818
 Harris functional with IExCor=  402 diagonalized for initial guess.
 ExpMin= 4.38D-02 ExpMax= 3.05D+03 ExpMxC= 4.57D+02 IAcc=2 IRadAn=         4 AccDes= 0.00D+00
 HarFok:  IExCor= 402 AccDes= 0.00D+00 IRadAn=         4 IDoV=1
 ScaDFX=  1.000000  1.000000  1.000000  1.000000
 Requested convergence on RMS density matrix=1.00D-08 within9000 cycles.
 Requested convergence on MAX density matrix=1.00D-06.
 Requested convergence on             energy=1.00D-06.
 No special actions if energy rises.
 Keep R1 and R2 integrals in memory in canonical form, NReq=    86886702.
 SCF Done:  E(UB+HF-LYP) =  -79.1693927902     A.U. after   13 cycles
             Convg  =    0.4095D-08             -V/T =  2.0108
             S**2   =   0.7538
 Annihilation of the first spin contaminant:
 S**2 before annihilation     0.7538,   after     0.7500
 ***** Axes restored to original set *****
 -------------------------------------------------------------------
 Center     Atomic                   Forces (Hartrees/Bohr)
 Number     Number              X              Y              Z
 -------------------------------------------------------------------
    1          6           0.001304431    0.000561886    0.000531387
    2          6          -0.005050658   -0.008582106   -0.000337279
    3          1           0.000205005    0.000900672   -0.000054524
    4          1          -0.000214319    0.000589881    0.000090991
    5          1           0.002628358    0.006229449   -0.000144918
    6          1           0.003606635   -0.001609866    0.000587459
    7          1          -0.002479451    0.001910084   -0.000673116
 -------------------------------------------------------------------
 Cartesian Forces:  Max     0.008582106 RMS     0.002884792

 GradGradGradGradGradGradGradGradGradGradGradGradGradGradGradGradGradGrad
 Berny optimization.
 Internal  Forces:  Max     0.004335939 RMS     0.001963917
 Search for a local minimum.
 Step number   1 out of a maximum of  31 on scan point     2 out of    37
 All quantities printed in internal units (Hartrees-Bohrs-Radians)
 Second derivative matrix not updated -- first step.
     Eigenvalues ---    0.00362   0.03648   0.05724   0.10252   0.10664
     Eigenvalues ---    0.11951   0.13542   0.16118   0.30865   0.33058
     Eigenvalues ---    0.33725   0.34863   0.36801   0.368981000.00000
     Eigenvalues --- 1000.000001000.000001000.000001000.000001000.00000
     Eigenvalues --- 1000.00000
 RFO step:  Lambda=-1.24139876D-03.
 Linear search not attempted -- first point.
 Iteration  1 RMS(Cart)=  0.04896161 RMS(Int)=  0.00201725
 Iteration  2 RMS(Cart)=  0.00179939 RMS(Int)=  0.00055077
 Iteration  3 RMS(Cart)=  0.00000078 RMS(Int)=  0.00055077
 Iteration  1 RMS(Cart)=  0.00000106 RMS(Int)=  0.00000125
 Iteration  2 RMS(Cart)=  0.00000050 RMS(Int)=  0.00000140
 Variable       Old X    -DE/DX   Delta X   Delta X   Delta X     New X
                                 (Linear)    (Quad)   (Total)
    R1        2.81620  -0.00058   0.00000   0.00039   0.00039   2.81658
    R2        2.05138   0.00013   0.00000   0.00041   0.00041   2.05178
    R3        2.05094   0.00006   0.00000  -0.00004  -0.00004   2.05091
    R4        2.07202  -0.00028   0.00000  -0.00250  -0.00250   2.06952
    R5        2.08676   0.00190   0.00000   0.00066   0.00066   2.08742
    R6        2.07145  -0.00126   0.00000   0.00183   0.00183   2.07327
    A1        2.10567   0.00013   0.00000   0.00028  -0.00021   2.10546
    A2        2.10550  -0.00012   0.00000   0.00830   0.00781   2.11331
    A3        2.04547   0.00017   0.00000   0.00389   0.00339   2.04886
    A4        1.95364   0.00001   0.00000   0.00199   0.00076   1.95440
    A5        1.92106   0.00181   0.00000   0.02852   0.02803   1.94909
    A6        1.98306  -0.00213   0.00000  -0.02942  -0.02997   1.95309
    A7        1.79548   0.00384   0.00000   0.06441   0.06332   1.85880
    A8        1.94280  -0.00283   0.00000  -0.04894  -0.05009   1.89270
    A9        1.85571   0.00001   0.00000  -0.00581  -0.00563   1.85008
    D1        2.87200  -0.00434   0.00000   0.00000   0.00000   2.87200
    D2       -1.42577   0.00144   0.00000   0.09701   0.09749  -1.32829
    D3        0.65296   0.00132   0.00000   0.09020   0.08966   0.74262
    D4       -0.52197  -0.00347   0.00000   0.05879   0.05884  -0.46312
    D5        1.46344   0.00231   0.00000   0.15581   0.15633   1.61977
    D6       -2.74101   0.00219   0.00000   0.14900   0.14851  -2.59251
         Item               Value     Threshold  Converged?
 Maximum Force            0.003418     0.000450     NO 
 RMS     Force            0.001507     0.000300     NO 
 Maximum Displacement     0.133412     0.001800     NO 
 RMS     Displacement     0.048928     0.001200     NO 
 Predicted change in Energy=-6.669934D-04
 GradGradGradGradGradGradGradGradGradGradGradGradGradGradGradGradGradGrad

                          Input orientation:                          
 ---------------------------------------------------------------------
 Center     Atomic     Atomic              Coordinates (Angstroms)
 Number     Number      Type              X           Y           Z
 ---------------------------------------------------------------------
    1          6             0        0.000723    0.014142   -0.001963
    2          6             0       -0.001130    0.004262    1.488474
    3          1             0        0.928771   -0.095292   -0.554793
    4          1             0       -0.925619   -0.049165   -0.563874
    5          1             0       -0.940565    0.388530    1.899736
    6          1             0        0.122425   -1.017411    1.889838
    7          1             0        0.826083    0.594027    1.902703
 ---------------------------------------------------------------------
                    Distance matrix (angstroms):
                    1          2          3          4          5
     1  C    0.000000
     2  C    1.490471   0.000000
     3  H    1.085758   2.247124   0.000000
     4  H    1.085293   2.251592   1.854987   0.000000
     5  H    2.154681   1.095142   3.123013   2.502233   0.000000
     6  H    2.158198   1.104614   2.734358   2.838415   1.762588
     7  H    2.155281   1.097128   2.554406   3.092920   1.778562
                    6          7
     6  H    0.000000
     7  H    1.758418   0.000000
 Stoichiometry    C2H5(2)
 Framework group  C1[X(C2H5)]
 Deg. of freedom    15
 Full point group                 C1
 Largest Abelian subgroup         C1      NOp   1
 Largest concise Abelian subgroup C1      NOp   1
                         Standard orientation:                         
 ---------------------------------------------------------------------
 Center     Atomic     Atomic              Coordinates (Angstroms)
 Number     Number      Type              X           Y           Z
 ---------------------------------------------------------------------
    1          6             0       -0.795440   -0.000009   -0.025784
    2          6             0        0.694834    0.002044   -0.001643
    3          1             0       -1.348801   -0.930589    0.055960
    4          1             0       -1.358414    0.924372    0.054478
    5          1             0        1.109247    0.950594   -0.359205
    6          1             0        1.086507   -0.145999    1.020535
    7          1             0        1.115098   -0.810583   -0.607206
 ---------------------------------------------------------------------
 Rotational constants (GHZ):    103.3033926     22.6479265     20.9883172
 Standard basis: 6-31+G(d,p) (6D, 7F)
 There are    63 symmetry adapted basis functions of A   symmetry.
 Integral buffers will be    131072 words long.
 Raffenetti 2 integral format.
 Two-electron integral symmetry is turned on.
    63 basis functions,    99 primitive gaussians,    63 cartesian basis functions
     9 alpha electrons        8 beta electrons
       nuclear repulsion energy        36.8629169988 Hartrees.
 NAtoms=    7 NActive=    7 NUniq=    7 SFac= 7.50D-01 NAtFMM=   80 NAOKFM=F Big=F
 One-electron integrals computed using PRISM.
 NBasis=    63 RedAO= T  NBF=    63
 NBsUse=    63 1.00D-06 NBFU=    63
 Initial guess read from the read-write file:
 Initial guess orbital symmetries:
 Alpha Orbitals:
       Occupied  (A) (A) (A) (A) (A) (A) (A) (A) (A)
       Virtual   (A) (A) (A) (A) (A) (A) (A) (A) (A) (A) (A) (A)
                 (A) (A) (A) (A) (A) (A) (A) (A) (A) (A) (A) (A)
                 (A) (A) (A) (A) (A) (A) (A) (A) (A) (A) (A) (A)
                 (A) (A) (A) (A) (A) (A) (A) (A) (A) (A) (A) (A)
                 (A) (A) (A) (A) (A) (A)
 Beta  Orbitals:
       Occupied  (A) (A) (A) (A) (A) (A) (A) (A)
       Virtual   (A) (A) (A) (A) (A) (A) (A) (A) (A) (A) (A) (A)
                 (A) (A) (A) (A) (A) (A) (A) (A) (A) (A) (A) (A)
                 (A) (A) (A) (A) (A) (A) (A) (A) (A) (A) (A) (A)
                 (A) (A) (A) (A) (A) (A) (A) (A) (A) (A) (A) (A)
                 (A) (A) (A) (A) (A) (A) (A)
 <S**2> of initial guess= 0.7538
 Harris functional with IExCor=  402 diagonalized for initial guess.
 ExpMin= 4.38D-02 ExpMax= 3.05D+03 ExpMxC= 4.57D+02 IAcc=2 IRadAn=         4 AccDes= 0.00D+00
 HarFok:  IExCor= 402 AccDes= 0.00D+00 IRadAn=         4 IDoV=1
 ScaDFX=  1.000000  1.000000  1.000000  1.000000
 Requested convergence on RMS density matrix=1.00D-08 within9000 cycles.
 Requested convergence on MAX density matrix=1.00D-06.
 Requested convergence on             energy=1.00D-06.
 No special actions if energy rises.
 Keep R1 and R2 integrals in memory in canonical form, NReq=    86886702.
 SCF Done:  E(UB+HF-LYP) =  -79.1700621941     A.U. after   10 cycles
             Convg  =    0.6017D-08             -V/T =  2.0108
             S**2   =   0.7538
 Annihilation of the first spin contaminant:
 S**2 before annihilation     0.7538,   after     0.7500
 ***** Axes restored to original set *****
 -------------------------------------------------------------------
 Center     Atomic                   Forces (Hartrees/Bohr)
 Number     Number              X              Y              Z
 -------------------------------------------------------------------
    1          6          -0.000070550   -0.000831930    0.000066346
    2          6          -0.000054437   -0.000978002   -0.000024872
    3          1           0.000023854    0.000508166    0.000053795
    4          1           0.000022139    0.000305181    0.000048975
    5          1           0.000236725    0.000554648   -0.000059534
    6          1           0.000038555    0.000133075   -0.000060405
    7          1          -0.000196285    0.000308862   -0.000024305
 -------------------------------------------------------------------
 Cartesian Forces:  Max     0.000978002 RMS     0.000348046

 GradGradGradGradGradGradGradGradGradGradGradGradGradGradGradGradGradGrad
 Berny optimization.
 Internal  Forces:  Max     0.000607125 RMS     0.000216489
 Search for a local minimum.
 Step number   2 out of a maximum of  31 on scan point     2 out of    37
 All quantities printed in internal units (Hartrees-Bohrs-Radians)
 Update second derivatives using D2CorX and points  1  2
 Trust test= 1.00D+00 RLast= 2.75D-01 DXMaxT set to 4.24D-01
     Eigenvalues ---    0.00356   0.03644   0.05753   0.10253   0.10667
     Eigenvalues ---    0.11969   0.13558   0.16128   0.30887   0.33089
     Eigenvalues ---    0.33731   0.34852   0.36801   0.369011000.00000
     Eigenvalues --- 1000.000001000.000001000.000001000.000001000.00000
     Eigenvalues --- 1000.00000
 RFO step:  Lambda=-2.21219219D-05.
 Quartic linear search produced a step of  0.09478.
 Iteration  1 RMS(Cart)=  0.01470867 RMS(Int)=  0.00030596
 Iteration  2 RMS(Cart)=  0.00023439 RMS(Int)=  0.00014388
 Iteration  3 RMS(Cart)=  0.00000003 RMS(Int)=  0.00014388
 Iteration  1 RMS(Cart)=  0.00000153 RMS(Int)=  0.00000181
 Iteration  2 RMS(Cart)=  0.00000072 RMS(Int)=  0.00000202
 Variable       Old X    -DE/DX   Delta X   Delta X   Delta X     New X
                                 (Linear)    (Quad)   (Total)
    R1        2.81658  -0.00017   0.00004  -0.00031  -0.00028   2.81631
    R2        2.05178  -0.00006   0.00004  -0.00036  -0.00032   2.05147
    R3        2.05091  -0.00006   0.00000  -0.00052  -0.00052   2.05039
    R4        2.06952  -0.00003  -0.00024  -0.00006  -0.00030   2.06922
    R5        2.08742  -0.00014   0.00006  -0.00116  -0.00110   2.08632
    R6        2.07327   0.00001   0.00017   0.00052   0.00069   2.07397
    A1        2.10546   0.00000  -0.00002   0.00156   0.00119   2.10665
    A2        2.11331   0.00002   0.00074   0.00264   0.00302   2.11633
    A3        2.04886   0.00005   0.00032   0.00245   0.00241   2.05128
    A4        1.95440  -0.00014   0.00007  -0.00143  -0.00148   1.95292
    A5        1.94909   0.00020   0.00266   0.00067   0.00328   1.95237
    A6        1.95309  -0.00015  -0.00284   0.00094  -0.00195   1.95113
    A7        1.85880   0.00026   0.00600  -0.00185   0.00404   1.86284
    A8        1.89270  -0.00028  -0.00475   0.00020  -0.00466   1.88804
    A9        1.85008   0.00013  -0.00053   0.00147   0.00096   1.85104
    D1        2.87200  -0.00061   0.00000   0.00000   0.00000   2.87200
    D2       -1.32829  -0.00023   0.00924  -0.00287   0.00641  -1.32188
    D3        0.74262  -0.00004   0.00850   0.00009   0.00852   0.75114
    D4       -0.46312  -0.00014   0.00558   0.04119   0.04679  -0.41633
    D5        1.61977   0.00023   0.01482   0.03832   0.05320   1.67297
    D6       -2.59251   0.00043   0.01408   0.04128   0.05531  -2.53720
         Item               Value     Threshold  Converged?
 Maximum Force            0.000315     0.000450     YES
 RMS     Force            0.000120     0.000300     YES
 Maximum Displacement     0.045975     0.001800     NO 
 RMS     Displacement     0.014711     0.001200     NO 
 Predicted change in Energy=-1.558184D-05
 GradGradGradGradGradGradGradGradGradGradGradGradGradGradGradGradGradGrad

                          Input orientation:                          
 ---------------------------------------------------------------------
 Center     Atomic     Atomic              Coordinates (Angstroms)
 Number     Number      Type              X           Y           Z
 ---------------------------------------------------------------------
    1          6             0        0.000512    0.002340   -0.001493
    2          6             0       -0.001364   -0.000575    1.488827
    3          1             0        0.928338   -0.104846   -0.554808
    4          1             0       -0.925874   -0.024835   -0.565706
    5          1             0       -0.943190    0.380990    1.896700
    6          1             0        0.133655   -1.017004    1.898132
    7          1             0        0.818611    0.603023    1.898469
 ---------------------------------------------------------------------
                    Distance matrix (angstroms):
                    1          2          3          4          5
     1  C    0.000000
     2  C    1.490325   0.000000
     3  H    1.085590   2.247591   0.000000
     4  H    1.085019   2.253090   1.855969   0.000000
     5  H    2.153390   1.094983   3.122266   2.495683   0.000000
     6  H    2.159946   1.104033   2.735045   2.859632   1.764649
     7  H    2.154057   1.097495   2.555717   3.083763   1.775738
                    6          7
     6  H    0.000000
     7  H    1.758878   0.000000
 Stoichiometry    C2H5(2)
 Framework group  C1[X(C2H5)]
 Deg. of freedom    15
 Full point group                 C1
 Largest Abelian subgroup         C1      NOp   1
 Largest concise Abelian subgroup C1      NOp   1
                         Standard orientation:                         
 ---------------------------------------------------------------------
 Center     Atomic     Atomic              Coordinates (Angstroms)
 Number     Number      Type              X           Y           Z
 ---------------------------------------------------------------------
    1          6             0       -0.795269   -0.000004   -0.019266
    2          6             0        0.694946    0.002419   -0.001311
    3          1             0       -1.348805   -0.931860    0.041953
    4          1             0       -1.360548    0.924072    0.042462
    5          1             0        1.105780    0.960118   -0.337488
    6          1             0        1.094175   -0.176450    1.012351
    7          1             0        1.111337   -0.790372   -0.635817
 ---------------------------------------------------------------------
 Rotational constants (GHZ):    103.3901368     22.6445484     20.9862522
 Standard basis: 6-31+G(d,p) (6D, 7F)
 There are    63 symmetry adapted basis functions of A   symmetry.
 Integral buffers will be    131072 words long.
 Raffenetti 2 integral format.
 Two-electron integral symmetry is turned on.
    63 basis functions,    99 primitive gaussians,    63 cartesian basis functions
     9 alpha electrons        8 beta electrons
       nuclear repulsion energy        36.8650892914 Hartrees.
 NAtoms=    7 NActive=    7 NUniq=    7 SFac= 7.50D-01 NAtFMM=   80 NAOKFM=F Big=F
 One-electron integrals computed using PRISM.
 NBasis=    63 RedAO= T  NBF=    63
 NBsUse=    63 1.00D-06 NBFU=    63
 Initial guess read from the read-write file:
 Initial guess orbital symmetries:
 Alpha Orbitals:
       Occupied  (A) (A) (A) (A) (A) (A) (A) (A) (A)
       Virtual   (A) (A) (A) (A) (A) (A) (A) (A) (A) (A) (A) (A)
                 (A) (A) (A) (A) (A) (A) (A) (A) (A) (A) (A) (A)
                 (A) (A) (A) (A) (A) (A) (A) (A) (A) (A) (A) (A)
                 (A) (A) (A) (A) (A) (A) (A) (A) (A) (A) (A) (A)
                 (A) (A) (A) (A) (A) (A)
 Beta  Orbitals:
       Occupied  (A) (A) (A) (A) (A) (A) (A) (A)
       Virtual   (A) (A) (A) (A) (A) (A) (A) (A) (A) (A) (A) (A)
                 (A) (A) (A) (A) (A) (A) (A) (A) (A) (A) (A) (A)
                 (A) (A) (A) (A) (A) (A) (A) (A) (A) (A) (A) (A)
                 (A) (A) (A) (A) (A) (A) (A) (A) (A) (A) (A) (A)
                 (A) (A) (A) (A) (A) (A) (A)
 <S**2> of initial guess= 0.7538
 Harris functional with IExCor=  402 diagonalized for initial guess.
 ExpMin= 4.38D-02 ExpMax= 3.05D+03 ExpMxC= 4.57D+02 IAcc=2 IRadAn=         4 AccDes= 0.00D+00
 HarFok:  IExCor= 402 AccDes= 0.00D+00 IRadAn=         4 IDoV=1
 ScaDFX=  1.000000  1.000000  1.000000  1.000000
 Requested convergence on RMS density matrix=1.00D-08 within9000 cycles.
 Requested convergence on MAX density matrix=1.00D-06.
 Requested convergence on             energy=1.00D-06.
 No special actions if energy rises.
 Keep R1 and R2 integrals in memory in canonical form, NReq=    86886702.
 SCF Done:  E(UB+HF-LYP) =  -79.1700799281     A.U. after    9 cycles
             Convg  =    0.2825D-08             -V/T =  2.0108
             S**2   =   0.7538
 Annihilation of the first spin contaminant:
 S**2 before annihilation     0.7538,   after     0.7500
 ***** Axes restored to original set *****
 -------------------------------------------------------------------
 Center     Atomic                   Forces (Hartrees/Bohr)
 Number     Number              X              Y              Z
 -------------------------------------------------------------------
    1          6          -0.000003230   -0.000320251   -0.000010623
    2          6          -0.000081844   -0.000183520   -0.000036790
    3          1           0.000015479    0.000220261    0.000009836
    4          1           0.000002962    0.000045624    0.000017836
    5          1           0.000051382    0.000171270    0.000026282
    6          1           0.000000152    0.000031740   -0.000032236
    7          1           0.000015098    0.000034876    0.000025695
 -------------------------------------------------------------------
 Cartesian Forces:  Max     0.000320251 RMS     0.000105219

 GradGradGradGradGradGradGradGradGradGradGradGradGradGradGradGradGradGrad
 Berny optimization.
 Internal  Forces:  Max     0.000193946 RMS     0.000061704
 Search for a local minimum.
 Step number   3 out of a maximum of  31 on scan point     2 out of    37
 All quantities printed in internal units (Hartrees-Bohrs-Radians)
 Update second derivatives using D2CorX and points  1  2  3
 Trust test= 1.14D+00 RLast= 9.09D-02 DXMaxT set to 4.24D-01
     Eigenvalues ---    0.00304   0.03736   0.05763   0.10252   0.10667
     Eigenvalues ---    0.11972   0.13590   0.16131   0.30903   0.33060
     Eigenvalues ---    0.33731   0.34877   0.36801   0.368931000.00000
     Eigenvalues --- 1000.000001000.000001000.000001000.000001000.00000
     Eigenvalues --- 1000.00000
 RFO step:  Lambda=-1.15361345D-07.
 Quartic linear search produced a step of  0.13160.
 Iteration  1 RMS(Cart)=  0.00208582 RMS(Int)=  0.00001921
 Iteration  2 RMS(Cart)=  0.00000530 RMS(Int)=  0.00001825
 Iteration  3 RMS(Cart)=  0.00000000 RMS(Int)=  0.00001825
 Iteration  1 RMS(Cart)=  0.00000053 RMS(Int)=  0.00000063
 Variable       Old X    -DE/DX   Delta X   Delta X   Delta X     New X
                                 (Linear)    (Quad)   (Total)
    R1        2.81631  -0.00002  -0.00004  -0.00002  -0.00005   2.81625
    R2        2.05147  -0.00001  -0.00004  -0.00003  -0.00008   2.05139
    R3        2.05039  -0.00001  -0.00007  -0.00003  -0.00010   2.05029
    R4        2.06922   0.00003  -0.00004   0.00008   0.00004   2.06926
    R5        2.08632  -0.00004  -0.00014  -0.00005  -0.00019   2.08613
    R6        2.07397   0.00004   0.00009   0.00012   0.00022   2.07418
    A1        2.10665   0.00001   0.00016   0.00006   0.00017   2.10682
    A2        2.11633  -0.00001   0.00040  -0.00006   0.00029   2.11662
    A3        2.05128   0.00002   0.00032   0.00017   0.00044   2.05171
    A4        1.95292   0.00002  -0.00019   0.00036   0.00017   1.95309
    A5        1.95237   0.00001   0.00043  -0.00043   0.00000   1.95237
    A6        1.95113  -0.00002  -0.00026   0.00028   0.00003   1.95116
    A7        1.86284   0.00006   0.00053  -0.00025   0.00028   1.86312
    A8        1.88804  -0.00008  -0.00061   0.00022  -0.00039   1.88765
    A9        1.85104   0.00001   0.00013  -0.00022  -0.00009   1.85094
    D1        2.87200  -0.00019   0.00000   0.00000   0.00000   2.87200
    D2       -1.32188  -0.00009   0.00084  -0.00037   0.00048  -1.32140
    D3        0.75114  -0.00009   0.00112  -0.00075   0.00037   0.75151
    D4       -0.41633  -0.00004   0.00616   0.00139   0.00755  -0.40878
    D5        1.67297   0.00006   0.00700   0.00103   0.00803   1.68100
    D6       -2.53720   0.00006   0.00728   0.00065   0.00793  -2.52927
         Item               Value     Threshold  Converged?
 Maximum Force            0.000043     0.000450     YES
 RMS     Force            0.000021     0.000300     YES
 Maximum Displacement     0.006558     0.001800     NO 
 RMS     Displacement     0.002086     0.001200     NO 
 Predicted change in Energy=-3.054005D-07
 GradGradGradGradGradGradGradGradGradGradGradGradGradGradGradGradGradGrad

                          Input orientation:                          
 ---------------------------------------------------------------------
 Center     Atomic     Atomic              Coordinates (Angstroms)
 Number     Number      Type              X           Y           Z
 ---------------------------------------------------------------------
    1          6             0        0.000472    0.000421   -0.001477
    2          6             0       -0.001443   -0.001047    1.488816
    3          1             0        0.928308   -0.106216   -0.554803
    4          1             0       -0.925854   -0.021365   -0.565921
    5          1             0       -0.943677    0.379807    1.896469
    6          1             0        0.135208   -1.016764    1.899074
    7          1             0        0.817674    0.604257    1.897964
 ---------------------------------------------------------------------
                    Distance matrix (angstroms):
                    1          2          3          4          5
     1  C    0.000000
     2  C    1.490296   0.000000
     3  H    1.085550   2.247638   0.000000
     4  H    1.084966   2.253196   1.856136   0.000000
     5  H    2.153498   1.095005   3.122384   2.494919   0.000000
     6  H    2.159841   1.103932   2.734889   2.862319   1.764770
     7  H    2.154138   1.097609   2.555988   3.082534   1.775595
                    6          7
     6  H    0.000000
     7  H    1.758826   0.000000
 Stoichiometry    C2H5(2)
 Framework group  C1[X(C2H5)]
 Deg. of freedom    15
 Full point group                 C1
 Largest Abelian subgroup         C1      NOp   1
 Largest concise Abelian subgroup C1      NOp   1
                         Standard orientation:                         
 ---------------------------------------------------------------------
 Center     Atomic     Atomic              Coordinates (Angstroms)
 Number     Number      Type              X           Y           Z
 ---------------------------------------------------------------------
    1          6             0       -0.795262    0.000000   -0.018261
    2          6             0        0.694936    0.002474   -0.001350
    3          1             0       -1.348822   -0.931998    0.039788
    4          1             0       -1.360729    0.924099    0.040385
    5          1             0        1.105635    0.961436   -0.334147
    6          1             0        1.094859   -0.180686    1.011161
    7          1             0        1.111014   -0.787693   -0.639520
 ---------------------------------------------------------------------
 Rotational constants (GHZ):    103.4010002     22.6445239     20.9855560
 Standard basis: 6-31+G(d,p) (6D, 7F)
 There are    63 symmetry adapted basis functions of A   symmetry.
 Integral buffers will be    131072 words long.
 Raffenetti 2 integral format.
 Two-electron integral symmetry is turned on.
    63 basis functions,    99 primitive gaussians,    63 cartesian basis functions
     9 alpha electrons        8 beta electrons
       nuclear repulsion energy        36.8652683109 Hartrees.
 NAtoms=    7 NActive=    7 NUniq=    7 SFac= 7.50D-01 NAtFMM=   80 NAOKFM=F Big=F
 One-electron integrals computed using PRISM.
 NBasis=    63 RedAO= T  NBF=    63
 NBsUse=    63 1.00D-06 NBFU=    63
 Initial guess read from the read-write file:
 Initial guess orbital symmetries:
 Alpha Orbitals:
       Occupied  (A) (A) (A) (A) (A) (A) (A) (A) (A)
       Virtual   (A) (A) (A) (A) (A) (A) (A) (A) (A) (A) (A) (A)
                 (A) (A) (A) (A) (A) (A) (A) (A) (A) (A) (A) (A)
                 (A) (A) (A) (A) (A) (A) (A) (A) (A) (A) (A) (A)
                 (A) (A) (A) (A) (A) (A) (A) (A) (A) (A) (A) (A)
                 (A) (A) (A) (A) (A) (A)
 Beta  Orbitals:
       Occupied  (A) (A) (A) (A) (A) (A) (A) (A)
       Virtual   (A) (A) (A) (A) (A) (A) (A) (A) (A) (A) (A) (A)
                 (A) (A) (A) (A) (A) (A) (A) (A) (A) (A) (A) (A)
                 (A) (A) (A) (A) (A) (A) (A) (A) (A) (A) (A) (A)
                 (A) (A) (A) (A) (A) (A) (A) (A) (A) (A) (A) (A)
                 (A) (A) (A) (A) (A) (A) (A)
 <S**2> of initial guess= 0.7538
 Requested convergence on RMS density matrix=1.00D-08 within9000 cycles.
 Requested convergence on MAX density matrix=1.00D-06.
 Requested convergence on             energy=1.00D-06.
 No special actions if energy rises.
 Keep R1 and R2 integrals in memory in canonical form, NReq=    86886702.
 SCF Done:  E(UB+HF-LYP) =  -79.1700803003     A.U. after    8 cycles
             Convg  =    0.3739D-08             -V/T =  2.0108
             S**2   =   0.7538
 Annihilation of the first spin contaminant:
 S**2 before annihilation     0.7538,   after     0.7500
 ***** Axes restored to original set *****
 -------------------------------------------------------------------
 Center     Atomic                   Forces (Hartrees/Bohr)
 Number     Number              X              Y              Z
 -------------------------------------------------------------------
    1          6          -0.000013137   -0.000196051    0.000001302
    2          6          -0.000063228   -0.000122503    0.000001418
    3          1           0.000019391    0.000173526   -0.000001675
    4          1          -0.000002369    0.000005965   -0.000001496
    5          1           0.000057327    0.000138917    0.000002195
    6          1           0.000001348   -0.000000735   -0.000004584
    7          1           0.000000670    0.000000882    0.000002840
 -------------------------------------------------------------------
 Cartesian Forces:  Max     0.000196051 RMS     0.000072628

 GradGradGradGradGradGradGradGradGradGradGradGradGradGradGradGradGradGrad
 Berny optimization.
 Internal  Forces:  Max     0.000157519 RMS     0.000047275
 Search for a local minimum.
 Step number   4 out of a maximum of  31 on scan point     2 out of    37
 All quantities printed in internal units (Hartrees-Bohrs-Radians)
 Update second derivatives using D2CorX and points  1  2  3  4
 Trust test= 1.22D+00 RLast= 1.36D-02 DXMaxT set to 4.24D-01
     Eigenvalues ---    0.00282   0.03577   0.05778   0.10262   0.10669
     Eigenvalues ---    0.11975   0.13585   0.16144   0.30846   0.33049
     Eigenvalues ---    0.33723   0.34877   0.36802   0.369151000.00000
     Eigenvalues --- 1000.000001000.000001000.000001000.000001000.00000
     Eigenvalues --- 1000.00000
 RFO step:  Lambda= 0.00000000D+00.
 Quartic linear search produced a step of  0.05688.
 Iteration  1 RMS(Cart)=  0.00011938 RMS(Int)=  0.00000018
 Iteration  2 RMS(Cart)=  0.00000002 RMS(Int)=  0.00000018
 Iteration  1 RMS(Cart)=  0.00000025 RMS(Int)=  0.00000029
 Variable       Old X    -DE/DX   Delta X   Delta X   Delta X     New X
                                 (Linear)    (Quad)   (Total)
    R1        2.81625   0.00000   0.00000   0.00001   0.00001   2.81626
    R2        2.05139   0.00000   0.00000   0.00001   0.00000   2.05139
    R3        2.05029   0.00000  -0.00001   0.00001   0.00000   2.05029
    R4        2.06926   0.00000   0.00000   0.00000   0.00000   2.06926
    R5        2.08613   0.00000  -0.00001   0.00000  -0.00001   2.08612
    R6        2.07418   0.00000   0.00001   0.00000   0.00001   2.07419
    A1        2.10682   0.00000   0.00001   0.00000   0.00001   2.10683
    A2        2.11662   0.00001   0.00002   0.00002   0.00004   2.11666
    A3        2.05171   0.00000   0.00002  -0.00002   0.00001   2.05172
    A4        1.95309   0.00000   0.00001  -0.00001   0.00000   1.95308
    A5        1.95237   0.00003   0.00000  -0.00001  -0.00001   1.95236
    A6        1.95116  -0.00003   0.00000   0.00001   0.00001   1.95117
    A7        1.86312   0.00005   0.00002  -0.00001   0.00001   1.86313
    A8        1.88765  -0.00005  -0.00002   0.00001  -0.00001   1.88763
    A9        1.85094   0.00000  -0.00001   0.00001   0.00001   1.85095
    D1        2.87200  -0.00016   0.00000   0.00000   0.00000   2.87201
    D2       -1.32140  -0.00007   0.00003  -0.00003   0.00000  -1.32140
    D3        0.75151  -0.00007   0.00002  -0.00001   0.00001   0.75152
    D4       -0.40878  -0.00006   0.00043   0.00002   0.00045  -0.40833
    D5        1.68100   0.00003   0.00046  -0.00001   0.00045   1.68145
    D6       -2.52927   0.00003   0.00045   0.00001   0.00046  -2.52881
         Item               Value     Threshold  Converged?
 Maximum Force            0.000003     0.000450     YES
 RMS     Force            0.000002     0.000300     YES
 Maximum Displacement     0.000374     0.001800     YES
 RMS     Displacement     0.000119     0.001200     YES
 Predicted change in Energy=-1.747955D-09
 Optimization completed.
    -- Stationary point found.
                           ----------------------------
                           !   Optimized Parameters   !
                           ! (Angstroms and Degrees)  !
 --------------------------                            --------------------------
 ! Name  Definition              Value          Derivative Info.                !
 --------------------------------------------------------------------------------
 ! R1    R(1,2)                  1.4903         -DE/DX =    0.0                 !
 ! R2    R(1,3)                  1.0856         -DE/DX =    0.0                 !
 ! R3    R(1,4)                  1.085          -DE/DX =    0.0                 !
 ! R4    R(2,5)                  1.095          -DE/DX =    0.0                 !
 ! R5    R(2,6)                  1.1039         -DE/DX =    0.0                 !
 ! R6    R(2,7)                  1.0976         -DE/DX =    0.0                 !
 ! A1    A(2,1,3)              120.7118         -DE/DX =    0.0                 !
 ! A2    A(2,1,4)              121.2734         -DE/DX =    0.0                 !
 ! A3    A(3,1,4)              117.5545         -DE/DX =    0.0                 !
 ! A4    A(1,2,5)              111.9036         -DE/DX =    0.0                 !
 ! A5    A(1,2,6)              111.8625         -DE/DX =    0.0                 !
 ! A6    A(1,2,7)              111.7933         -DE/DX =    0.0                 !
 ! A7    A(5,2,6)              106.749          -DE/DX =    0.0001              !
 ! A8    A(5,2,7)              108.1541         -DE/DX =   -0.0001              !
 ! A9    A(6,2,7)              106.0513         -DE/DX =    0.0                 !
 ! D1    D(3,1,2,5)            164.5537         -DE/DX =   -0.0002              !
 ! D2    D(3,1,2,6)            -75.7108         -DE/DX =   -0.0001              !
[...]
              Bcc     0.0172     9.163     3.269     3.056  0.8786  0.0030 -0.4775
 
              Baa    -0.0088    -4.683    -1.671    -1.562 -0.3748 -0.5089  0.7749
     7 H(1)   Bbb    -0.0084    -4.484    -1.600    -1.496  0.2595  0.7448  0.6147
              Bcc     0.0172     9.168     3.271     3.058  0.8900 -0.4315  0.1471
 

 ---------------------------------------------------------------------------------

 Full mass-weighted force constant matrix:
 Low frequencies ---  -28.9841  -18.4742   -0.0006    0.0007    0.0008   10.6673
 Low frequencies ---  103.1729  484.4692  813.3493
 Diagonal vibrational polarizability:
        0.2198185       0.3627985       8.5636205
 Harmonic frequencies (cm**-1), IR intensities (KM/Mole), Raman scattering
 activities (A**4/AMU), depolarization ratios for plane and unpolarized
 incident light, reduced masses (AMU), force constants (mDyne/A),
 and normal coordinates:
                     1                      2                      3
                     A                      A                      A
 Frequencies --   103.1628               484.4690               813.3490
 Red. masses --     1.0081                 1.2170                 1.0503
 Frc consts  --     0.0063                 0.1683                 0.4094
 IR Inten    --     0.0142                73.6074                 2.5808
 Atom AN      X      Y      Z        X      Y      Z        X      Y      Z
   1   6     0.00   0.00   0.00     0.00   0.00   0.14     0.00  -0.05   0.00
   2   6     0.00   0.00   0.00     0.00   0.00  -0.01     0.00  -0.04   0.00
   3   1    -0.02  -0.02   0.57     0.06   0.01  -0.68    -0.46   0.24  -0.01
   4   1     0.02  -0.02  -0.56     0.06  -0.01  -0.68     0.46   0.24   0.01
   5   1     0.00  -0.16   0.29     0.07   0.00  -0.07    -0.41   0.18  -0.04
   6   1     0.00   0.37   0.00    -0.18   0.00  -0.08     0.00   0.21   0.00
   7   1     0.00  -0.16  -0.29     0.07   0.00  -0.07     0.42   0.18   0.04
                     4                      5                      6
                     A                      A                      A
 Frequencies --   978.6404              1065.5386              1192.7004
 Red. masses --     1.3259                 3.3002                 1.4716
 Frc consts  --     0.7482                 2.2076                 1.2334
 IR Inten    --     0.8421                 0.1115                 2.1197
 Atom AN      X      Y      Z        X      Y      Z        X      Y      Z
   1   6     0.02   0.00  -0.09     0.33   0.00   0.01     0.00   0.13   0.00
   2   6    -0.02   0.00   0.14    -0.31   0.00  -0.02     0.00  -0.16   0.00
   3   1     0.04  -0.02   0.06     0.43  -0.04   0.03     0.44  -0.14  -0.01
   4   1     0.04   0.02   0.06     0.43   0.04   0.03    -0.44  -0.14   0.01
   5   1     0.33   0.06  -0.27    -0.44   0.03   0.02    -0.44   0.12  -0.10
   6   1    -0.76   0.00  -0.16    -0.17   0.00   0.02     0.00   0.29   0.00
   7   1     0.32  -0.06  -0.27    -0.44  -0.03   0.02     0.45   0.11   0.10
                     7                      8                      9
                     A                      A                      A
 Frequencies --  1403.9177              1471.1288              1485.8665
 Red. masses --     1.1882                 1.1000                 1.0352
 Frc consts  --     1.3798                 1.4026                 1.3466
 IR Inten    --     1.6616                 3.5535                 6.4516
 Atom AN      X      Y      Z        X      Y      Z        X      Y      Z
   1   6     0.02   0.00   0.00     0.08   0.00   0.01     0.00   0.02   0.00
   2   6     0.13   0.00  -0.02    -0.01   0.00   0.04     0.00   0.04   0.00
   3   1    -0.13   0.08   0.00    -0.43   0.30  -0.03     0.07  -0.02   0.02
   4   1    -0.13  -0.08   0.00    -0.43  -0.30  -0.03    -0.03   0.01  -0.02
   5   1    -0.45   0.10   0.25    -0.12   0.26  -0.34    -0.34  -0.03   0.37
   6   1    -0.57   0.00  -0.25     0.21   0.00   0.10     0.01  -0.68   0.00
   7   1    -0.45  -0.11   0.24    -0.12  -0.25  -0.34     0.31  -0.06  -0.41
                    10                     11                     12
                     A                      A                      A
 Frequencies --  1488.2607              2960.8134              3051.0742
 Red. masses --     1.1341                 1.0596                 1.0705
 Frc consts  --     1.4801                 5.4729                 5.8713
 IR Inten    --     3.4442                28.3424                25.5458
 Atom AN      X      Y      Z        X      Y      Z        X      Y      Z
   1   6    -0.08   0.00   0.01     0.00   0.00   0.00     0.00   0.00   0.00
   2   6     0.06   0.00   0.04    -0.03   0.00   0.06    -0.04   0.00  -0.07
   3   1     0.34  -0.25   0.02     0.00   0.00   0.00     0.00   0.00   0.00
   4   1     0.35   0.25   0.02     0.00   0.00   0.00     0.00   0.00   0.00
   5   1    -0.25   0.35  -0.35     0.06   0.14   0.10     0.25   0.57   0.31
   6   1     0.14   0.04   0.05     0.33   0.00  -0.91    -0.09   0.00   0.20
   7   1    -0.29  -0.34  -0.31     0.06  -0.14   0.10     0.25  -0.56   0.29
                    13                     14                     15
                     A                      A                      A
 Frequencies --  3097.2440              3157.7540              3259.2051
 Red. masses --     1.1025                 1.0510                 1.1186
 Frc consts  --     6.2312                 6.1747                 7.0005
 IR Inten    --    23.4207                16.4100                16.1997
 Atom AN      X      Y      Z        X      Y      Z        X      Y      Z
   1   6     0.00  -0.01   0.00    -0.06   0.00  -0.01     0.00   0.10   0.00
   2   6     0.00   0.09   0.00     0.00   0.00   0.00     0.00   0.01   0.00
   3   1     0.02   0.04   0.01     0.35   0.61   0.03    -0.37  -0.60  -0.04
   4   1    -0.02   0.04  -0.01     0.35  -0.61   0.03     0.37  -0.60   0.04
   5   1    -0.26  -0.56  -0.32     0.00   0.00   0.00    -0.02  -0.04  -0.02
   6   1     0.00   0.03   0.00     0.00   0.00   0.00     0.00   0.00   0.00
   7   1     0.26  -0.57   0.32     0.00   0.00   0.00     0.02  -0.04   0.02

 -------------------
 - Thermochemistry -
 -------------------
 Temperature   298.150 Kelvin.  Pressure   1.00000 Atm.
 Atom  1 has atomic number  6 and mass  12.00000
 Atom  2 has atomic number  6 and mass  12.00000
 Atom  3 has atomic number  1 and mass   1.00783
 Atom  4 has atomic number  1 and mass   1.00783
 Atom  5 has atomic number  1 and mass   1.00783
 Atom  6 has atomic number  1 and mass   1.00783
 Atom  7 has atomic number  1 and mass   1.00783
 Molecular mass:    29.03913 amu.
 Principal axes and moments of inertia in atomic units:
                           1         2         3
     EIGENVALUES --    17.45663  79.69654  85.98662
           X            0.99999   0.00002   0.00413
           Y           -0.00002   1.00000   0.00000
           Z           -0.00413   0.00000   0.99999
 This molecule is an asymmetric top.
 Rotational symmetry number  1.
 Rotational temperatures (Kelvin)      4.96166     1.08680     1.00729
 Rotational constants (GHZ):         103.38428    22.64516    20.98863
 Zero-point vibrational energy     155593.0 (Joules/Mol)
                                   37.18763 (Kcal/Mol)
 Warning -- explicit consideration of   2 degrees of freedom as
           vibrations may cause significant error
 Vibrational temperatures:    148.43   697.04  1170.23  1408.04  1533.07
          (Kelvin)           1716.03  2019.92  2116.62  2137.83  2141.27
                             4259.94  4389.81  4456.24  4543.30  4689.26
 
 Zero-point correction=                           0.059262 (Hartree/Particle)
 Thermal correction to Energy=                    0.063243
 Thermal correction to Enthalpy=                  0.064187
 Thermal correction to Gibbs Free Energy=         0.035018
 Sum of electronic and zero-point Energies=            -79.110842
 Sum of electronic and thermal Energies=               -79.106861
 Sum of electronic and thermal Enthalpies=             -79.105917
 Sum of electronic and thermal Free Energies=          -79.135085
 
                     E (Thermal)             CV                S
                      KCal/Mol        Cal/Mol-Kelvin    Cal/Mol-Kelvin
 Total                   39.686             11.088             61.391
 Electronic               0.000              0.000              1.377
 Translational            0.889              2.981             36.032
 Rotational               0.889              2.981             19.420
 Vibrational             37.908              5.127              4.561
 Vibration  1             0.605              1.947              3.394
 Vibration  2             0.841              1.284              0.698
                       Q            Log10(Q)             Ln(Q)
 Total Bot       0.780993D-16        -16.107353        -37.088550
 Total V=0       0.141689D+12         11.151337         25.676903
 Vib (Bot)       0.162153D-26        -26.790075        -61.686427
 Vib (Bot)  1    0.198812D+01          0.298443          0.687191
 Vib (Bot)  2    0.343891D+00         -0.463580         -1.067432
 Vib (V=0)       0.294181D+01          0.468615          1.079026
 Vib (V=0)  1    0.255003D+01          0.406546          0.936106
 Vib (V=0)  2    0.110684D+01          0.044087          0.101514
 Electronic      0.200000D+01          0.301030          0.693147
 Translational   0.615078D+07          6.788930         15.632090
 Rotational      0.391527D+04          3.592762          8.272640
 ***** Axes restored to original set *****
 -------------------------------------------------------------------
 Center     Atomic                   Forces (Hartrees/Bohr)
 Number     Number              X              Y              Z
 -------------------------------------------------------------------
    1          6          -0.000007159   -0.000001232   -0.000004344
    2          6          -0.000000848   -0.000004788    0.000001779
    3          1           0.000000522   -0.000002552    0.000000280
    4          1          -0.000006446   -0.000002536    0.000002309
    5          1           0.000008905    0.000006952    0.000006244
    6          1           0.000002653    0.000000122   -0.000007243
    7          1           0.000002374    0.000004033    0.000000975
 -------------------------------------------------------------------
 Cartesian Forces:  Max     0.000008905 RMS     0.000004406

 GradGradGradGradGradGradGradGradGradGradGradGradGradGradGradGradGradGrad
 Berny optimization.
 Internal  Forces:  Max     0.000008226 RMS     0.000003102
 Search for a local minimum.
 Step number   1 out of a maximum of   2 on scan point     1 out of    37
 All quantities printed in internal units (Hartrees-Bohrs-Radians)
 Second derivative matrix not updated -- analytic derivatives used.
     Eigenvalues ---    0.00359   0.03659   0.05711   0.10233   0.10631
     Eigenvalues ---    0.11926   0.13541   0.16091   0.30561   0.32661
     Eigenvalues ---    0.33350   0.34570   0.36336   0.365451000.00000
     Eigenvalues --- 1000.000001000.000001000.000001000.000001000.00000
     Eigenvalues --- 1000.00000
 Angle between quadratic step and forces=  39.71 degrees.
 Linear search not attempted -- first point.
 Iteration  1 RMS(Cart)=  0.00002810 RMS(Int)=  0.00000000
 Iteration  2 RMS(Cart)=  0.00000000 RMS(Int)=  0.00000000
 Iteration  1 RMS(Cart)=  0.00000000 RMS(Int)=  0.00000000
 Variable       Old X    -DE/DX   Delta X   Delta X   Delta X     New X
                                 (Linear)    (Quad)   (Total)
    R1        2.81619   0.00000   0.00000   0.00001   0.00001   2.81619
    R2        2.05088   0.00000   0.00000  -0.00001  -0.00001   2.05087
    R3        2.05091   0.00000   0.00000  -0.00001  -0.00001   2.05091
    R4        2.07153   0.00000   0.00000   0.00000   0.00000   2.07153
    R5        2.08668   0.00000   0.00000  -0.00001  -0.00001   2.08668
    R6        2.07138   0.00000   0.00000   0.00000   0.00000   2.07138
    A1        2.11164   0.00000   0.00000   0.00000   0.00000   2.11164
    A2        2.11136   0.00000   0.00000  -0.00001  -0.00001   2.11135
    A3        2.05170   0.00000   0.00000   0.00000   0.00000   2.05171
    A4        1.95155   0.00001   0.00000   0.00006   0.00006   1.95161
    A5        1.95309   0.00000   0.00000  -0.00004  -0.00004   1.95305
    A6        1.95169   0.00000   0.00000  -0.00001  -0.00001   1.95167
    A7        1.85687   0.00000   0.00000  -0.00002  -0.00002   1.85684
    A8        1.88799   0.00000   0.00000   0.00001   0.00001   1.88800
    A9        1.85721   0.00000   0.00000   0.00000   0.00000   1.85721
    D1        2.69747   0.00001   0.00000   0.00000   0.00000   2.69747
    D2       -1.50449   0.00000   0.00000  -0.00002  -0.00002  -1.50451
    D3        0.57725   0.00000   0.00000  -0.00004  -0.00004   0.57721
    D4       -0.58716   0.00000   0.00000   0.00000   0.00000  -0.58716
    D5        1.49406   0.00000   0.00000  -0.00002  -0.00002   1.49404
    D6       -2.70738   0.00000   0.00000  -0.00005  -0.00005  -2.70743
         Item               Value     Threshold  Converged?
 Maximum Force            0.000008     0.000450     YES
 RMS     Force            0.000003     0.000300     YES
 Maximum Displacement     0.000084     0.001800     YES
 RMS     Displacement     0.000028     0.001200     YES
 Predicted change in Energy=-4.842637D-10
 Optimization completed.
    -- Stationary point found.
                           ----------------------------
                           !   Optimized Parameters   !
                           ! (Angstroms and Degrees)  !
 --------------------------                            --------------------------
 ! Name  Definition              Value          Derivative Info.                !
 --------------------------------------------------------------------------------
 ! R1    R(1,2)                  1.4903         -DE/DX =    0.0                 !
 ! R2    R(1,3)                  1.0853         -DE/DX =    0.0                 !
 ! R3    R(1,4)                  1.0853         -DE/DX =    0.0                 !
 ! R4    R(2,5)                  1.0962         -DE/DX =    0.0                 !
 ! R5    R(2,6)                  1.1042         -DE/DX =    0.0                 !
 ! R6    R(2,7)                  1.0961         -DE/DX =    0.0                 !
 ! A1    A(2,1,3)              120.9881         -DE/DX =    0.0                 !
 ! A2    A(2,1,4)              120.9718         -DE/DX =    0.0                 !
 ! A3    A(3,1,4)              117.5539         -DE/DX =    0.0                 !
 ! A4    A(1,2,5)              111.8158         -DE/DX =    0.0                 !
 ! A5    A(1,2,6)              111.9036         -DE/DX =    0.0                 !
 ! A6    A(1,2,7)              111.8233         -DE/DX =    0.0                 !
 ! A7    A(5,2,6)              106.3907         -DE/DX =    0.0                 !
 ! A8    A(5,2,7)              108.1741         -DE/DX =    0.0                 !
 ! A9    A(6,2,7)              106.4101         -DE/DX =    0.0                 !
 ! D1    D(3,1,2,5)            154.5538         -DE/DX =    0.0                 !
 ! D2    D(3,1,2,6)            -86.201          -DE/DX =    0.0                 !
 ! D3    D(3,1,2,7)             33.0741         -DE/DX =    0.0                 !
 ! D4    D(4,1,2,5)            -33.6417         -DE/DX =    0.0                 !
 ! D5    D(4,1,2,6)             85.6035         -DE/DX =    0.0                 !
 ! D6    D(4,1,2,7)           -155.1215         -DE/DX =    0.0                 !
 --------------------------------------------------------------------------------
 Iteration  1 RMS(Cart)=  0.02198998 RMS(Int)=  0.02615602
 Iteration  2 RMS(Cart)=  0.00063534 RMS(Int)=  0.02614647
 Iteration  3 RMS(Cart)=  0.00002051 RMS(Int)=  0.02614647
 Iteration  4 RMS(Cart)=  0.00000071 RMS(Int)=  0.02614647
 Iteration  1 RMS(Cart)=  0.01039555 RMS(Int)=  0.01232143
 Iteration  2 RMS(Cart)=  0.00491061 RMS(Int)=  0.01376877
 Iteration  3 RMS(Cart)=  0.00231650 RMS(Int)=  0.01528488
 Iteration  4 RMS(Cart)=  0.00109201 RMS(Int)=  0.01613118
 Iteration  5 RMS(Cart)=  0.00051460 RMS(Int)=  0.01655405
 Iteration  6 RMS(Cart)=  0.00024246 RMS(Int)=  0.01675815
 Iteration  7 RMS(Cart)=  0.00011423 RMS(Int)=  0.01685534
 Iteration  8 RMS(Cart)=  0.00005382 RMS(Int)=  0.01690135
 Iteration  9 RMS(Cart)=  0.00002535 RMS(Int)=  0.01692308
 Iteration 10 RMS(Cart)=  0.00001194 RMS(Int)=  0.01693332
 Iteration 11 RMS(Cart)=  0.00000563 RMS(Int)=  0.01693815
 Iteration 12 RMS(Cart)=  0.00000265 RMS(Int)=  0.01694043
 Iteration 13 RMS(Cart)=  0.00000125 RMS(Int)=  0.01694150
 Iteration 14 RMS(Cart)=  0.00000059 RMS(Int)=  0.01694200
 GradGradGradGradGradGradGradGradGradGradGradGradGradGradGradGradGradGrad

 1\1\GINC-NODE31\Scan\UB3LYP\6-31+G(d,p)\C2H5(2)\CFGOLD\19-Jan-2010\0\\
 #N Geom=AllCheck Guess=Read SCRF=Check GenChk UB3LYP/6-31+G(d,p) Freq\
 \Title Card Required\\0,2\C,-0.0309966032,-0.0662539707,-0.0001114723\
 C,-0.0048244324,-0.0185552642,1.4891568074\H,-0.6143626415,0.648300878
 ,-0.5718844796\H,0.6314189586,-0.7275372335,-0.5494562804\H,0.22463984
 05,-0.9982460206,1.9241507156\H,0.7652706542,0.6775858025,1.8655283771
 \H,-0.9604581464,0.3237989845,1.9027380727\\Version=AM64L-G03RevD.01\S
 tate=2-A\HF=-79.1701039,0.0001049,-0.0005079,0.0016724,0.0008152,-0.00
 01496,0.0000001,0.,-0.0006339,0.0241798,0.0056259,0.0000044,-0.0000066
 ,0.0195841,0.0243698,-0.0000523,0.0003544,0.0029181,0.0490709,-0.00236
 07,-0.0369629,-0.0000782,0.0000039,0.0007916,-0.0094465,0.,0.,0.,0.,0.
 ,0.,0.,0.,0.,0.,0.,0.\S2=0.753788,0.001312,0.000091,0.,-0.000564,0.005
 203,0.001894,-0.007353,-0.000001,0.000001,0.000031,0.000291,-0.000079,
 0.000005,0.000257,-0.000134,0.002676,-0.000874,-0.005214,-0.000073,0.0
 50631,-0.00498,-0.031835,-0.00582,-0.011719,0.,0.,0.,0.,0.,0.,0.,0.,0.
 ,0.,0.,0.\S2-1=0.,-0.002964,0.,-0.00704,-0.000044,-0.000011,0.001408,-
 0.003561,0.001752,0.000036,-0.002511,-0.000747,0.027703,-0.055433,0.00
 0665,-0.000003,0.119225,-0.008514,-0.005769,-0.000046,-0.041987,0.0040
 21,-0.015839,-0.001088,0.02149,0.,0.,0.,0.,0.,0.,0.,0.,0.,0.,0.,0.\S2A
 =0.75001,0.000308,0.,-0.000005,-0.000837,-0.000108,-0.000004,0.011709,
 -0.002512,0.000174,-0.000236,0.002292,0.000518,0.000002,-0.013921,-0.0
 00349,-0.003192,-0.000827,0.002618,-0.008355,0.003892,-0.002398,0.0000
 1,0.006127,0.000226,0.,0.,0.,0.,0.,0.,0.,0.,0.,0.,0.,0.\RMSD=1.842e-09
 ,-1.340e-04,-4.749e-05,-4.300e-09,-3.126e-08,-2.431e-04,-3.111e-03,-8.
 710e-08,-3.286e-05,-2.886e-04,-1.227e-02,3.864e-06,1.080e-02,-1.947e-0
 7,-1.319e-03,-1.219e-03,2.244e-02,-1.387e-04,1.427e-04,1.330e-02,1.661
 e-04,-8.904e-03,1.902e-05,-9.139e-04,-9.937e-03,0.000e+00,0.000e+00,0.
 000e+00,0.000e+00,0.000e+00,0.000e+00,0.000e+00,0.000e+00,0.000e+00,0.
 000e+00,0.000e+00,0.000e+00\ZeroPoint=0.0592623,0.0052034,0.0018939,-0
 .0073526,-0.0000014,0.0000008,0.0000315,0.0002858,-0.0000573,0.0000031
 ,0.000263,-0.0001226,0.002663,-0.0000034,-0.0063513,-0.0000055,0.05133
 2,-0.0049801,-0.0318352,0.0000932,0.0000049,0.0001205,-0.0008455,0.000
 0069,0.0143199,0.,0.,0.,0.,0.,0.,0.,0.,0.,0.,0.,0.\Thermal=0.0632429,-
 0.0000047,-0.0008372,-0.0001078,-0.0000036,0.0117094,-0.0025123,0.0001
 743,-0.0002355,0.0022936,0.0005048,0.000002,-0.0139211,-0.0003375,-0.0
 031543,0.0027958,0.0001415,-0.0083547,0.0038921,-0.0023977,0.0000101,0
 .0000843,-0.0021385,0.0000001,0.0515241,0.,0.,0.,0.,0.,0.,0.,0.,0.,0.,
 0.,0.\PG=C01 [X(C2H5)]\\@



 WE LOSE BECAUSE WE WIN

 GAMBLERS,

 RECOLLECTING WHICH,

 TOSS THEIR DICE AGAIN....


                          EMILY DICKINSON  BOLTS OF MELODY NO. 533
 Job cpu time:  0 days  0 hours  3 minutes  7.9 seconds.
 File lengths (MBytes):  RWF=     22 Int=      0 D2E=      0 Chk=     11 Scr=      1
 Normal termination of Gaussian 03 at Tue Jan 19 22:13:27 2010.
