 Entering Gaussian System, Link 0=/Local/ce_dana/g09/g09
 Initial command:
 /Local/ce_dana/g09/l1.exe "/storage/ce_dana/alongd/scratch/g09/Gau-122152.inp" -scrdir="/storage/ce_dana/alongd/scratch/g09/"
 Entering Link 1 = /Local/ce_dana/g09/l1.exe PID=    122156.
  
 Copyright (c) 1988,1990,1992,1993,1995,1998,2003,2009,2013,
            Gaussian, Inc.  All Rights Reserved.
  
 This is part of the Gaussian(R) 09 program.  It is based on
 the Gaussian(R) 03 system (copyright 2003, Gaussian, Inc.),
 the Gaussian(R) 98 system (copyright 1998, Gaussian, Inc.),
 the Gaussian(R) 94 system (copyright 1995, Gaussian, Inc.),
 the Gaussian 92(TM) system (copyright 1992, Gaussian, Inc.),
 the Gaussian 90(TM) system (copyright 1990, Gaussian, Inc.),
 the Gaussian 88(TM) system (copyright 1988, Gaussian, Inc.),
 the Gaussian 86(TM) system (copyright 1986, Carnegie Mellon
 University), and the Gaussian 82(TM) system (copyright 1983,
 Carnegie Mellon University). Gaussian is a federally registered
 trademark of Gaussian, Inc.
  
 This software contains proprietary and confidential information,
 including trade secrets, belonging to Gaussian, Inc.
  
 This software is provided under written license and may be
 used, copied, transmitted, or stored only in accord with that
 written license.
  
 The following legend is applicable only to US Government
 contracts under FAR:
  
                    RESTRICTED RIGHTS LEGEND
  
 Use, reproduction and disclosure by the US Government is
 subject to restrictions as set forth in subparagraphs (a)
 and (c) of the Commercial Computer Software - Restricted
 Rights clause in FAR 52.227-19.
  
 Gaussian, Inc.
 340 Quinnipiac St., Bldg. 40, Wallingford CT 06492
  
  
 ---------------------------------------------------------------
 Warning -- This program may not be used in any manner that
 competes with the business of Gaussian, Inc. or will provide
 assistance to any competitor of Gaussian, Inc.  The licensee
 of this program is prohibited from giving any competitor of
 Gaussian, Inc. access to this program.  By using this program,
 the user acknowledges that Gaussian, Inc. is engaged in the
 business of creating and licensing software in the field of
 computational chemistry and represents and warrants to the
 licensee that it is not a competitor of Gaussian, Inc. and that
 it will not use this program in any manner prohibited above.
 ---------------------------------------------------------------
  

 Cite this work as:
 Gaussian 09, Revision D.01,
 M. J. Frisch, G. W. Trucks, H. B. Schlegel, G. E. Scuseria, 
 M. A. Robb, J. R. Cheeseman, G. Scalmani, V. Barone, B. Mennucci, 
 G. A. Petersson, H. Nakatsuji, M. Caricato, X. Li, H. P. Hratchian, 
 A. F. Izmaylov, J. Bloino, G. Zheng, J. L. Sonnenberg, M. Hada, 
 M. Ehara, K. Toyota, R. Fukuda, J. Hasegawa, M. Ishida, T. Nakajima, 
 Y. Honda, O. Kitao, H. Nakai, T. Vreven, J. A. Montgomery, Jr., 
 J. E. Peralta, F. Ogliaro, M. Bearpark, J. J. Heyd, E. Brothers, 
 K. N. Kudin, V. N. Staroverov, T. Keith, R. Kobayashi, J. Normand, 
 K. Raghavachari, A. Rendell, J. C. Burant, S. S. Iyengar, J. Tomasi, 
 M. Cossi, N. Rega, J. M. Millam, M. Klene, J. E. Knox, J. B. Cross, 
 V. Bakken, C. Adamo, J. Jaramillo, R. Gomperts, R. E. Stratmann, 
 O. Yazyev, A. J. Austin, R. Cammi, C. Pomelli, J. W. Ochterski, 
 R. L. Martin, K. Morokuma, V. G. Zakrzewski, G. A. Voth, 
 P. Salvador, J. J. Dannenberg, S. Dapprich, A. D. Daniels, 
 O. Farkas, J. B. Foresman, J. V. Ortiz, J. Cioslowski, 
 and D. J. Fox, Gaussian, Inc., Wallingford CT, 2013.
 
 ******************************************
 Gaussian 09:  ES64L-G09RevD.01 24-Apr-2013
                12-Nov-2022 
 ******************************************
 %chk=check.chk
 %mem=7168mb
 %NProcShared=10
 Will use up to   10 processors via shared memory.
 ----------------------------------------------------------------------
 #P guess=read b2plypd3/def2tzvp freq IOp(7/33=1) scf=(tight, direct) i
 ntegral=(grid=ultrafine, Acc2E=12) IOp(2/9=2000) scf=xqc
 ----------------------------------------------------------------------
 1/10=4,30=1,38=1/1,3;
 2/9=2000,12=2,17=6,18=5,40=1/2;
 3/5=44,7=101,11=9,16=1,25=1,30=1,71=2,74=-60,75=-5,116=-2,140=1/1,2,3;
 4/5=1/1;
 5/5=2,8=3,13=1,32=2,38=6,87=12,98=1/2,8;
 8/6=3,8=1,10=1,19=11,30=-1,87=12/1;
 9/15=3,16=-3,87=12/6;
 11/6=1,8=1,15=11,17=12,24=-1,27=1,28=-2,29=300,32=6,42=3,87=12/1,2,10;
 10/6=2,21=1,87=12/2;
 8/6=4,8=1,10=1,19=11,30=-1,87=12/11,4;
 10/5=1,20=4,87=12/2;
 11/12=2,14=11,16=1,17=2,28=-2,42=3,87=12/2,10,12;
 6/7=2,8=2,9=2,10=2/1;
 7/8=1,10=1,12=2,25=1,33=1,44=2,87=12/1,2,3,16;
 1/10=4,30=1/3;
 99//99;
 Leave Link    1 at Sat Nov 12 23:46:29 2022, MaxMem=   939524096 cpu:         0.1
 (Enter /Local/ce_dana/g09/l101.exe)
 ----------------------
 2-Methyl-2-propanamine
 ----------------------
 Symbolic Z-matrix:
 Charge =  0 Multiplicity = 1
 C                     0.62055   1.27852  -0.00644 
 C                    -0.07932  -0.07495   0.09283 
 C                    -1.24107  -0.13404  -0.90704 
 C                     0.91152  -1.19976  -0.19806 
 N                    -0.52963  -0.23546   1.48494 
 H                    -0.07281   2.09003   0.22646 
 H                     1.45      1.32791   0.69843 
 H                     1.00387   1.44561  -1.01382 
 H                    -0.89276  -0.01367  -1.93501 
 H                    -1.75942  -1.09267  -0.83706 
 H                    -1.9649    0.65746  -0.70174 
 H                     1.74247  -1.16313   0.50582 
 H                     1.30501  -1.11935  -1.21214 
 H                     0.42791  -2.17478  -0.10329 
 H                    -1.01179  -1.12194   1.59299 
 H                    -1.20096   0.48926   1.71756 
 
 NAtoms=     16 NQM=       16 NQMF=       0 NMMI=      0 NMMIF=      0
                NMic=       0 NMicF=      0.
                    Isotopes and Nuclear Properties:
 (Nuclear quadrupole moments (NQMom) in fm**2, nuclear magnetic moments (NMagM)
  in nuclear magnetons)

  Atom         1           2           3           4           5           6           7           8           9          10
 IAtWgt=          12          12          12          12          14           1           1           1           1           1
 AtmWgt=  12.0000000  12.0000000  12.0000000  12.0000000  14.0030740   1.0078250   1.0078250   1.0078250   1.0078250   1.0078250
 NucSpn=           0           0           0           0           2           1           1           1           1           1
 AtZEff=   0.0000000   0.0000000   0.0000000   0.0000000   0.0000000   0.0000000   0.0000000   0.0000000   0.0000000   0.0000000
 NQMom=    0.0000000   0.0000000   0.0000000   0.0000000   2.0440000   0.0000000   0.0000000   0.0000000   0.0000000   0.0000000
 NMagM=    0.0000000   0.0000000   0.0000000   0.0000000   0.4037610   2.7928460   2.7928460   2.7928460   2.7928460   2.7928460
 AtZNuc=   6.0000000   6.0000000   6.0000000   6.0000000   7.0000000   1.0000000   1.0000000   1.0000000   1.0000000   1.0000000

  Atom        11          12          13          14          15          16
 IAtWgt=           1           1           1           1           1           1
 AtmWgt=   1.0078250   1.0078250   1.0078250   1.0078250   1.0078250   1.0078250
 NucSpn=           1           1           1           1           1           1
 AtZEff=   0.0000000   0.0000000   0.0000000   0.0000000   0.0000000   0.0000000
 NQMom=    0.0000000   0.0000000   0.0000000   0.0000000   0.0000000   0.0000000
 NMagM=    2.7928460   2.7928460   2.7928460   2.7928460   2.7928460   2.7928460
 AtZNuc=   1.0000000   1.0000000   1.0000000   1.0000000   1.0000000   1.0000000
 Leave Link  101 at Sat Nov 12 23:46:29 2022, MaxMem=   939524096 cpu:         0.1
 (Enter /Local/ce_dana/g09/l103.exe)

 GradGradGradGradGradGradGradGradGradGradGradGradGradGradGradGradGradGrad
 Berny optimization.
 Initialization pass.
 Trust Radius=3.00D-01 FncErr=1.00D-07 GrdErr=1.00D-07
 Number of steps in this run=      2 maximum allowed number of steps=      2.
 GradGradGradGradGradGradGradGradGradGradGradGradGradGradGradGradGradGrad

 Leave Link  103 at Sat Nov 12 23:46:29 2022, MaxMem=   939524096 cpu:         0.0
 (Enter /Local/ce_dana/g09/l202.exe)
                          Input orientation:                          
 ---------------------------------------------------------------------
 Center     Atomic      Atomic             Coordinates (Angstroms)
 Number     Number       Type             X           Y           Z
 ---------------------------------------------------------------------
      1          6           0        0.620551    1.278522   -0.006440
      2          6           0       -0.079324   -0.074953    0.092831
      3          6           0       -1.241067   -0.134041   -0.907035
      4          6           0        0.911518   -1.199761   -0.198056
      5          7           0       -0.529632   -0.235457    1.484938
      6          1           0       -0.072805    2.090029    0.226459
      7          1           0        1.450003    1.327910    0.698427
      8          1           0        1.003869    1.445605   -1.013822
      9          1           0       -0.892757   -0.013666   -1.935010
     10          1           0       -1.759424   -1.092667   -0.837059
     11          1           0       -1.964900    0.657461   -0.701742
     12          1           0        1.742467   -1.163129    0.505824
     13          1           0        1.305011   -1.119345   -1.212140
     14          1           0        0.427911   -2.174785   -0.103289
     15          1           0       -1.011793   -1.121941    1.592987
     16          1           0       -1.200959    0.489260    1.717562
 ---------------------------------------------------------------------
                    Distance matrix (angstroms):
                    1          2          3          4          5
     1  C    0.000000
     2  C    1.526949   0.000000
     3  C    2.504402   1.533907   0.000000
     4  C    2.502652   1.526950   2.504403   0.000000
     5  N    2.416456   1.471904   2.497591   2.416457   0.000000
     6  H    1.092487   2.169112   2.756108   3.460032   2.683346
     7  H    1.089618   2.161854   3.457841   2.735465   2.642285
     8  H    1.090719   2.170273   2.747075   2.769831   3.379556
     9  H    2.771143   2.185765   1.092036   2.771144   3.446316
    10  H    3.460744   2.173286   1.092041   2.748404   2.763850
    11  H    2.748403   2.173286   1.092042   3.460745   2.763850
    12  H    2.735465   2.161854   3.457841   1.089617   2.642286
    13  H    2.769831   2.170274   2.747076   1.090720   3.379557
    14  H    3.460032   2.169112   2.756108   1.092487   2.683346
    15  H    3.314353   2.053327   2.697892   2.629262   1.014893
    16  H    2.629262   2.053327   2.697892   3.314354   1.014893
                    6          7          8          9         10
     6  H    0.000000
     7  H    1.767066   0.000000
     8  H    1.764315   1.773326   0.000000
     9  H    3.125668   3.771384   2.564225   0.000000
    10  H    3.755703   4.303177   3.756309   1.766593   0.000000
    11  H    2.548300   3.751205   3.087419   1.766593   1.767337
    12  H    3.735812   2.515533   3.108109   3.771385   3.751205
    13  H    3.777304   3.108110   2.590171   2.564225   3.087420
    14  H    4.306749   3.735812   3.777303   3.125668   2.548300
    15  H    3.614671   3.586425   4.177396   3.699893   2.542623
    16  H    2.461418   2.961346   3.638175   3.699893   3.056217
                   11         12         13         14         15
    11  H    0.000000
    12  H    4.303177   0.000000
    13  H    3.756310   1.773326   0.000000
    14  H    3.755703   1.767066   1.764315   0.000000
    15  H    3.056218   2.961346   3.638176   2.461418   0.000000
    16  H    2.542623   3.586426   4.177397   3.614672   1.627044
                   16
    16  H    0.000000
 Stoichiometry    C4H11N
 Framework group  C1[X(C4H11N)]
 Deg. of freedom    42
 Full point group                 C1      NOp   1
 Largest Abelian subgroup         C1      NOp   1
 Largest concise Abelian subgroup C1      NOp   1
                         Standard orientation:                         
 ---------------------------------------------------------------------
 Center     Atomic      Atomic             Coordinates (Angstroms)
 Number     Number       Type             X           Y           Z
 ---------------------------------------------------------------------
      1          6           0        1.251315   -0.798283   -0.354182
      2          6           0       -0.000000   -0.005099    0.015474
      3          6           0        0.000018    1.339620   -0.722496
      4          6           0       -1.251337   -0.798250   -0.354180
      5          7           0        0.000003    0.158641    1.478242
      6          1           0        2.153371   -0.251777   -0.069307
      7          1           0        1.257743   -1.757203    0.163212
      8          1           0        1.295071   -0.977682   -1.429156
      9          1           0        0.000015    1.203164   -1.805973
     10          1           0       -0.883642    1.923525   -0.456499
     11          1           0        0.883694    1.923501   -0.456500
     12          1           0       -1.257790   -1.757169    0.163214
     13          1           0       -1.295100   -0.977648   -1.429155
     14          1           0       -2.153378   -0.251719   -0.069304
     15          1           0       -0.813511    0.692307    1.767038
     16          1           0        0.813533    0.692285    1.767037
 ---------------------------------------------------------------------
 Rotational constants (GHZ):      4.6216346      4.5912805      4.5089196
 Leave Link  202 at Sat Nov 12 23:46:29 2022, MaxMem=   939524096 cpu:         0.0
 (Enter /Local/ce_dana/g09/l301.exe)
 Standard basis: def2TZVP (5D, 7F)
 Ernie: Thresh=  0.10000D-02 Tol=  0.10000D-05 Strict=F.
 There are   246 symmetry adapted cartesian basis functions of A   symmetry.
 There are   221 symmetry adapted basis functions of A   symmetry.
   221 basis functions,   343 primitive gaussians,   246 cartesian basis functions
    21 alpha electrons       21 beta electrons
       nuclear repulsion energy       200.1794215102 Hartrees.
 IExCor=  419 DFT=T Ex+Corr=B2PLYPD3 ExCW=0 ScaHFX=  0.530000
 ScaDFX=  0.470000  0.470000  0.730000  0.730000 ScalE2=  0.270000  0.270000
 IRadAn=      5 IRanWt=     -1 IRanGd=            0 ICorTp=0 IEmpDi=141
 NAtoms=   16 NActive=   16 NUniq=   16 SFac= 1.00D+00 NAtFMM=   60 NAOKFM=F Big=F
 Integral buffers will be    131072 words long.
 Regular integral format.
 Two-electron integral symmetry is turned on.
 R6Disp:  Grimme-D3(BJ) Dispersion energy=       -0.0091406928 Hartrees.
 Nuclear repulsion after empirical dispersion term =      200.1702808174 Hartrees.
 Leave Link  301 at Sat Nov 12 23:46:29 2022, MaxMem=   939524096 cpu:         0.1
 (Enter /Local/ce_dana/g09/l302.exe)
 NPDir=0 NMtPBC=     1 NCelOv=     1 NCel=       1 NClECP=     1 NCelD=      1
         NCelK=      1 NCelE2=     1 NClLst=     1 CellRange=     0.0.
 One-electron integrals computed using PRISM.
   1 Symmetry operations used in ECPInt.
 ECPInt:  NShTT=    4950 NPrTT=   14004 LenC2=    4938 LenP2D=   12012.
 LDataN:  DoStor=T MaxTD1= 6 Len=  172
 NBasis=   221 RedAO= T EigKep=  2.05D-04  NBF=   221
 NBsUse=   221 1.00D-06 EigRej= -1.00D+00 NBFU=   221
 Precomputing XC quadrature grid using
 IXCGrd= 4 IRadAn=           5 IRanWt=          -1 IRanGd=           0 AccXCQ= 0.00D+00.
 Generated NRdTot=       0 NPtTot=           0 NUsed=           0 NTot=          32
 NSgBfM=   246   246   246   246   246 MxSgAt=    16 MxSgA2=    16.
 Leave Link  302 at Sat Nov 12 23:46:30 2022, MaxMem=   939524096 cpu:         2.7
 (Enter /Local/ce_dana/g09/l303.exe)
 DipDrv:  MaxL=1.
 Leave Link  303 at Sat Nov 12 23:46:30 2022, MaxMem=   939524096 cpu:         0.2
 (Enter /Local/ce_dana/g09/l401.exe)
 Initial guess from the checkpoint file:  "check.chk"
 B after Tr=     0.000000   -0.000000   -0.000000
         Rot=    1.000000    0.000000   -0.000000    0.000007 Ang=   0.00 deg.
 Guess basis will be translated and rotated to current coordinates.
 JPrj=2 DoOrth=T DoCkMO=T.
 Leave Link  401 at Sat Nov 12 23:46:30 2022, MaxMem=   939524096 cpu:         0.9
 (Enter /Local/ce_dana/g09/l502.exe)
 Closed shell SCF:
 Using DIIS extrapolation, IDIIS=  1040.
 Integral symmetry usage will be decided dynamically.
 Keep R1 ints in memory in canonical form, NReq=308623512.
 IVT=      191778 IEndB=      191778 NGot=   939524096 MDV=   638435073
 LenX=   638435073 LenY=   638374116
 Requested convergence on RMS density matrix=1.00D-08 within  64 cycles.
 Requested convergence on MAX density matrix=1.00D-06.
 Requested convergence on             energy=1.00D-06.
 No special actions if energy rises.
 FoFCou: FMM=F IPFlag=           0 FMFlag=           0 FMFlg1=           0
         NFxFlg=           0 DoJE=F BraDBF=F KetDBF=F FulRan=T
         wScrn=  0.000000 ICntrl=     600 IOpCl=  0 I1Cent=           0 NGrid=           0
         NMat0=    1 NMatS0=  24531 NMatT0=    0 NMatD0=    1 NMtDS0=    0 NMtDT0=    0
 Symmetry not used in FoFCou.

 Cycle   1  Pass 1  IDiag  1:
 E= -213.388669652452    
 DIIS: error= 3.97D-08 at cycle   1 NSaved=   1.
 NSaved= 1 IEnMin= 1 EnMin= -213.388669652452     IErMin= 1 ErrMin= 3.97D-08
 ErrMax= 3.97D-08  0.00D+00 EMaxC= 1.00D-01 BMatC= 7.92D-13 BMatP= 7.92D-13
 IDIUse=1 WtCom= 1.00D+00 WtEn= 0.00D+00
 Coeff-Com:  0.100D+01
 Coeff:      0.100D+01
 Gap=     0.365 Goal=   None    Shift=    0.000
 RMSDP=5.17D-09 MaxDP=1.59D-07              OVMax= 2.36D-07

 SCF Done:  E(RB2PLYPD3) =  -213.388669652     A.U. after    1 cycles
            NFock=  1  Conv=0.52D-08     -V/T= 2.0035
 KE= 2.126387655651D+02 PE=-8.959506601996D+02 EE= 2.697529441647D+02
 Leave Link  502 at Sat Nov 12 23:46:37 2022, MaxMem=   939524096 cpu:        56.9
 (Enter /Local/ce_dana/g09/l508.exe)
 QCSCF skips out because SCF is already converged.
 Leave Link  508 at Sat Nov 12 23:46:37 2022, MaxMem=   939524096 cpu:         0.0
 (Enter /Local/ce_dana/g09/l801.exe)
 DoSCS=T DFT=T ScalE2(SS,OS)=  0.270000  0.270000
 ExpMin= 9.52D-02 ExpMax= 1.97D+04 ExpMxC= 6.73D+02 IAcc=3 IRadAn=         5 AccDes= 0.00D+00
 HarFok:  IExCor=  205 AccDes= 0.00D+00 IRadAn=         5 IDoV=-2 UseB2=F ITyADJ=14
 ICtDFT= 12500011 ScaDFX=  1.000000  1.000000  1.000000  1.000000
 Largest valence mixing into a core orbital is  9.47D-05
 Largest core mixing into a valence orbital is  2.10D-05
 Range of M.O.s used for correlation:     6   221
 NBasis=   221 NAE=    21 NBE=    21 NFC=     5 NFV=     0
 NROrb=    216 NOA=    16 NOB=    16 NVA=   200 NVB=   200

 **** Warning!!: The largest alpha MO coefficient is  0.18508797D+02

 Leave Link  801 at Sat Nov 12 23:46:37 2022, MaxMem=   939524096 cpu:         0.8
 (Enter /Local/ce_dana/g09/l906.exe)
 DoSCS=T DFT=T ScalE2(SS,OS)=  0.270000  0.270000
 Frozen-core derivative calculation, NFC=   5 NFV=   0.
 FulOut=F Deriv=T AODrv=T NAtomX=    16
   MMem=           0  MDisk=          16 MDiskD=          16
  W3Min=     1141686 MinDsk=     4745279 NBas6D=         246
 NBas2D=       30834    NTT=       30381    LW2=     7400000
    MDV=   938874602 MDiskM=       19042 NBas2p=       30821
 Disk-based method using ON**2 memory for 16 occupieds at a time.
 Permanent disk used for amplitudes=    21819000 words.
 Estimated scratch disk usage=   433353871 words.
 IMap=   1   2   3   4   5   6   7   8   9  10  11  12  13  14  15  16  17  18  19  20
 IMap=  21
 Actual    scratch disk usage=   418534031 words.
 JobTyp=1 Pass  1:  I=   6 to  21 NPSUse= 10 ParTrn=T ParDer=T DoDerP=T.
 (rs|ai) integrals will be sorted in core.
 Spin components of T(2) and E(2):
     alpha-alpha T2 =       0.5177487291D-01 E2=     -0.3424483510D-01
     alpha-beta  T2 =       0.3143581478D+00 E2=     -0.2253158059D+00
     beta-beta   T2 =       0.5177487291D-01 E2=     -0.3424483510D-01
 The integrals were generated   1 times.
 E2(B2PLYPD3) =    -0.2938054761D+00 E(B2PLYPD3) =    -0.21368247512859D+03
 Leave Link  906 at Sun Nov 13 00:00:50 2022, MaxMem=   939524096 cpu:      8482.5
 (Enter /Local/ce_dana/g09/l1101.exe)
 Using compressed Sx but separate Hx and Fx, NAtomX=    16.
 Will process     17 centers per pass.
   1 Symmetry operations used in ECPInt.
 ECPInt:  NShTT=    4950 NPrTT=   14004 LenC2=    4938 LenP2D=   12012.
 LDataN:  DoStor=T MaxTD1= 7 Len=  274
 R6Disp: Adding Grimme-D3(BJ) dispersion energy 1st derivatives to the gradient.
 Leave Link 1101 at Sun Nov 13 00:00:51 2022, MaxMem=   939524096 cpu:         5.4
 (Enter /Local/ce_dana/g09/l1102.exe)
 Leave Link 1102 at Sun Nov 13 00:00:51 2022, MaxMem=   939524096 cpu:         0.0
 (Enter /Local/ce_dana/g09/l1110.exe)
 Forming Gx(P) for the SCF density, NAtomX=    16.
 Integral derivatives from FoFJK, PRISM(SPDF).
 Do as many integral derivatives as possible in FoFJK.
 G2DrvN: MDV=     939523864.
 G2DrvN: will do    17 centers at a time, making    1 passes.
 Calling FoFCou, ICntrl=  3107 FMM=F I1Cent=   0 AccDes= 1.00D-12.
 FoFJK:  IHMeth= 1 ICntrl=    3107 DoSepK=F KAlg= 0 I1Cent=   0 FoldK=F
 IRaf=         0 NMat=   1 IRICut=       1 DoRegI=T DoRafI=F ISym2E= 0.
 FoFCou: FMM=F IPFlag=           0 FMFlag=      100000 FMFlg1=           0
         NFxFlg=           0 DoJE=F BraDBF=F KetDBF=F FulRan=T
         wScrn=  0.000000 ICntrl=    3107 IOpCl=  0 I1Cent=           0 NGrid=           0
         NMat0=    1 NMatS0=      1 NMatT0=    0 NMatD0=    1 NMtDS0=    0 NMtDT0=    0
 Symmetry not used in FoFCou.
 End of G2Drv F.D. properties file   721 does not exist.
 End of G2Drv F.D. properties file   722 does not exist.
 End of G2Drv F.D. properties file   788 does not exist.
 Leave Link 1110 at Sun Nov 13 00:02:43 2022, MaxMem=   939524096 cpu:      1122.2
 (Enter /Local/ce_dana/g09/l1002.exe)
 Minotr:  Closed shell wavefunction.
          IDoAtm=1111111111111111
          Frozen-core window.
          Direct CPHF calculation.
          Differentiating once with respect to electric field.
                with respect to dipole field.
          Differentiating once with respect to nuclear coordinates.
          Requested convergence is 1.0D-08 RMS, and 1.0D-07 maximum.
          Secondary convergence is 1.0D-12 RMS, and 1.0D-12 maximum.
          NewPWx=T KeepS1=T KeepF1=T KeepIn=T MapXYZ=F SortEE=F KeepMc=T.
          MDV=     939523716 using IRadAn=       1.
 Generate precomputed XC quadrature information.
 Keep R1 ints in memory in canonical form, NReq=308438597.
 FoFCou: FMM=F IPFlag=           0 FMFlag=           0 FMFlg1=           0
         NFxFlg=           0 DoJE=F BraDBF=F KetDBF=F FulRan=T
         wScrn=  0.000000 ICntrl=     600 IOpCl=  0 I1Cent=           0 NGrid=           0
         NMat0=    1 NMatS0=  24531 NMatT0=    0 NMatD0=    1 NMtDS0=    0 NMtDT0=    0
 Symmetry not used in FoFCou.
          Solving linear equations simultaneously, MaxMat=       0.
          There are    51 degrees of freedom in the 1st order CPHF.  IDoFFX=6 NUNeed=    51.
     48 vectors produced by pass  0 Test12= 8.24D-15 1.96D-09 XBig12= 2.38D+01 1.32D+00.
 AX will form    48 AO Fock derivatives at one time.
     48 vectors produced by pass  1 Test12= 8.24D-15 1.96D-09 XBig12= 9.98D-01 2.08D-01.
     48 vectors produced by pass  2 Test12= 8.24D-15 1.96D-09 XBig12= 1.72D-02 3.57D-02.
     48 vectors produced by pass  3 Test12= 8.24D-15 1.96D-09 XBig12= 1.07D-04 1.90D-03.
     48 vectors produced by pass  4 Test12= 8.24D-15 1.96D-09 XBig12= 4.26D-07 9.53D-05.
     48 vectors produced by pass  5 Test12= 8.24D-15 1.96D-09 XBig12= 1.02D-09 5.43D-06.
     19 vectors produced by pass  6 Test12= 8.24D-15 1.96D-09 XBig12= 2.66D-12 2.13D-07.
      3 vectors produced by pass  7 Test12= 8.24D-15 1.96D-09 XBig12= 6.84D-15 1.28D-08.
 InvSVY:  IOpt=1 It=  1 EMax= 7.99D-15
 Solved reduced A of dimension   310 with    51 vectors.
 FullF1:  Do perturbations    1 to    51.
 Saving first derivative matrices.
 End of Minotr F.D. properties file   721 does not exist.
 End of Minotr F.D. properties file   722 does not exist.
 End of Minotr F.D. properties file   788 does not exist.
 Leave Link 1002 at Sun Nov 13 00:05:40 2022, MaxMem=   939524096 cpu:      1749.7
 (Enter /Local/ce_dana/g09/l811.exe)
 MDV=   939524096.
 DoSCS=T DFT=T ScalE2(SS,OS)=  0.270000  0.270000
 Form MO integral derivatives with frozen-active canonical formalism.
 MOERI=1 MOERIx=1 NAtoms=    16 NAtomX=    16.
 Discarding MO integrals.
 MO basis two electron integral derivatives will not be stored on disk.
 IAlg= 3 DoFC=T DoPWx=T Debug=F.
 Frozen-core window:  NFC=   5 NFV=   0.
 Reordered first order wavefunction length =     35280000
 In DefCFB: NBatch=  1 ICI= 21 ICA=200 LFMax= 40
            Large arrays: LIAPS=   913348800 LIARS=   260366400 words.
 In StABat: MaxSiz= 36 MinSiz= 30 NAtomB=  7
 DoIAMN: NPSUse= 10.
 Leave Link  811 at Sun Nov 13 00:11:10 2022, MaxMem=   939524096 cpu:      2284.8
 (Enter /Local/ce_dana/g09/l804.exe)
 Frozen-core window:  NFC=   5 NFV=   0.
 Closed-shell transformation, MDV=   939524096 ITran=4 ISComp=1.
 Semi-Direct transformation.
 ModeAB=           2 MOrb=            21 LenV=     937957211
 LASXX=    106303155 LTotXX=   106303155 LenRXX=   106303155
 LTotAB=   107726661 MaxLAS=   140998221 LenRXY=   140998221
 NonZer=   212606310 LenScr=   320160768 LnRSAI=           0
 LnScr1=           0 LExtra=           0 Total=    567462144
 MaxDsk=          -1 SrtSym=           F ITran=            4
 DoSDTr:  NPSUse= 10
 JobTyp=0 Pass  1:  I=   1 to  21.
 (rs|ai) integrals will be sorted in core.
 Complete sort for first half transformation.
 First half transformation complete.
 Begin second half transformation for I=  10.
 Begin second half transformation for I=  20.
 Begin second half transformation for I=  10.
 Begin second half transformation for I=  20.
 Complete sort for second half transformation.
 Second half transformation complete.
 SymMOI:  orbitals are not symmetric.
 DoSCS=T DFT=T ScalE2(SS,OS)=  0.270000  0.270000
 Spin components of T(2) and E(2):
     alpha-alpha T2 =       0.5177487291D-01 E2=     -0.3424483510D-01
     alpha-beta  T2 =       0.3143581478D+00 E2=     -0.2253158059D+00
     beta-beta   T2 =       0.5177487291D-01 E2=     -0.3424483510D-01
 E2(B2PLYPD3) =    -0.2938054761D+00 E(B2PLYPD3) =    -0.21368247512858D+03
 Leave Link  804 at Sun Nov 13 00:12:19 2022, MaxMem=   939524096 cpu:       296.7
 (Enter /Local/ce_dana/g09/l1002.exe)
 Minotr:  Closed shell wavefunction.
          Computing MP2/KS-MP2 derivatives.
          Using Z-Vector for PSCF gradient.
          Skipping F1 and S1 gradient terms here.
          IDoAtm=1111111111111111
          Frozen-core window.
          Direct CPHF calculation.
          Differentiating once with respect to electric field.
                with respect to dipole field.
          Differentiating once with respect to nuclear coordinates.
          Requested convergence is 1.0D-10 RMS, and 1.0D-09 maximum.
          NewPWx=T KeepS1=F KeepF1=F KeepIn=T MapXYZ=F SortEE=F KeepMc=T.
          MDV=     939523716 using IRadAn=       5.
 Using stored XC quadrature information.
 Keep R1 ints in memory in canonical form, NReq=308433856.
 FoFCou: FMM=F IPFlag=           0 FMFlag=           0 FMFlg1=           0
         NFxFlg=           0 DoJE=F BraDBF=F KetDBF=F FulRan=T
         wScrn=  0.000000 ICntrl=     600 IOpCl=  0 I1Cent=           0 NGrid=           0
         NMat0=    1 NMatS0=  24531 NMatT0=    0 NMatD0=    1 NMtDS0=    0 NMtDT0=    0
 Symmetry not used in FoFCou.
          Solving linear equations separately, MaxMat=       0.
          There are     1 degrees of freedom in the 1st order CPHF.  IDoFFX=0 NUNeed=     1.
 LinEq1:  Iter=  0 NonCon=     1 RMS=1.14D-03 Max=1.64D-02 NDo=     1
 AX will form     1 AO Fock derivatives at one time.
 LinEq1:  Iter=  1 NonCon=     1 RMS=4.16D-04 Max=6.55D-03 NDo=     1
 LinEq1:  Iter=  2 NonCon=     1 RMS=1.07D-04 Max=1.49D-03 NDo=     1
 LinEq1:  Iter=  3 NonCon=     1 RMS=3.88D-05 Max=4.12D-04 NDo=     1
 LinEq1:  Iter=  4 NonCon=     1 RMS=1.17D-05 Max=2.52D-04 NDo=     1
 LinEq1:  Iter=  5 NonCon=     1 RMS=2.94D-06 Max=4.95D-05 NDo=     1
 LinEq1:  Iter=  6 NonCon=     1 RMS=1.02D-06 Max=1.70D-05 NDo=     1
 LinEq1:  Iter=  7 NonCon=     1 RMS=4.52D-07 Max=7.45D-06 NDo=     1
 LinEq1:  Iter=  8 NonCon=     1 RMS=1.48D-07 Max=1.64D-06 NDo=     1
 LinEq1:  Iter=  9 NonCon=     1 RMS=2.76D-08 Max=3.70D-07 NDo=     1
 LinEq1:  Iter= 10 NonCon=     1 RMS=5.93D-09 Max=7.89D-08 NDo=     1
 LinEq1:  Iter= 11 NonCon=     1 RMS=2.56D-09 Max=2.93D-08 NDo=     1
 LinEq1:  Iter= 12 NonCon=     1 RMS=6.55D-10 Max=7.15D-09 NDo=     1
 LinEq1:  Iter= 13 NonCon=     1 RMS=1.61D-10 Max=2.87D-09 NDo=     1
 LinEq1:  Iter= 14 NonCon=     0 RMS=2.88D-11 Max=3.16D-10 NDo=     1
 Linear equations converged to 1.000D-10 1.000D-09 after    14 iterations.
 End of Minotr F.D. properties file   721 does not exist.
 End of Minotr F.D. properties file   722 does not exist.
 End of Minotr F.D. properties file   788 does not exist.
 Leave Link 1002 at Sun Nov 13 00:13:27 2022, MaxMem=   939524096 cpu:       561.3
 (Enter /Local/ce_dana/g09/l1102.exe)
 Use density number 2.
 Symmetrizing basis deriv contribution to polar:
 IMax=3 JMax=2 DiffMx= 0.00D+00
 Leave Link 1102 at Sun Nov 13 00:13:27 2022, MaxMem=   939524096 cpu:         0.1
 (Enter /Local/ce_dana/g09/l1110.exe)
 Forming Gx(P) for generalized density number  2 NAtomX=    16.
 Integral derivatives from FoFJK, PRISM(SPDF).
 Do as many integral derivatives as possible in FoFJK.
 G2DrvN: MDV=     939523864.
 G2DrvN: will do    17 centers at a time, making    1 passes.
 Calling FoFCou, ICntrl=  3107 FMM=F I1Cent=   0 AccDes= 1.00D-12.
 FoFJK:  IHMeth= 1 ICntrl=    3107 DoSepK=F KAlg= 0 I1Cent=   0 FoldK=F
 IRaf=         0 NMat=   1 IRICut=       1 DoRegI=T DoRafI=F ISym2E= 0.
 FoFCou: FMM=F IPFlag=           0 FMFlag=      100000 FMFlg1=           0
         NFxFlg=           0 DoJE=F BraDBF=F KetDBF=F FulRan=T
         wScrn=  0.000000 ICntrl=    3107 IOpCl=  0 I1Cent=           0 NGrid=           0
         NMat0=    1 NMatS0=      1 NMatT0=    0 NMatD0=    1 NMtDS0=    0 NMtDT0=    0
 Symmetry not used in FoFCou.
 End of G2Drv F.D. properties file   721 does not exist.
 End of G2Drv F.D. properties file   722 does not exist.
 End of G2Drv F.D. properties file   788 does not exist.
 Leave Link 1110 at Sun Nov 13 00:15:21 2022, MaxMem=   939524096 cpu:      1140.7
 (Enter /Local/ce_dana/g09/l1112.exe)
 MP22nd: MDV=     939524096
 DoSCS=T DFT=T ScalE2(SS,OS)=  0.270000  0.270000
 Using stored XC quadrature information.
 This link is doing NAtomX=    16 total of    51 degrees of freedom.
 Using ON3 I/O method in MakUI.
 Frozen-core window:  NFC=   5 NFV=   0.
 Using Ix for Sx.
 Use MO integrals over full window.
 Using OV2 memory method for fx*t*t/D, MaxI=    21 DoOO2=F NP=  10.
 R2 and R3 integrals will be kept in memory, NReq=   930570030.
 FoFCou: FMM=F IPFlag=           0 FMFlag=           0 FMFlg1=           0
         NFxFlg=           0 DoJE=F BraDBF=F KetDBF=F FulRan=T
         wScrn=  0.000000 ICntrl=     600 IOpCl=  0 I1Cent=           0 NGrid=           0
         NMat0=    1 NMatS0=      1 NMatT0=    0 NMatD0=    1 NMtDS0=    0 NMtDT0=    0
 Symmetry not used in FoFCou.
 CoulSu:  requested number of processors reduced to:   7 ShMem   1 Linda.
 DD1Dir will call FoFMem   3 times, MxPair=       224
 NAB=   231 NAA=   210 NBB=     0.
 DD1Dir:  Pass   1 NRAB=   112 NRAA=     0 NRBB=     0 NR=   224.
 DD1Dir:  Pass   2 NRAB=   112 NRAA=     0 NRBB=     0 NR=   224.
 DD1Dir:  Pass   3 NRAB=     7 NRAA=   210 NRBB=     0 NR=   224.
 Symmetry is being used.
 FoFJK:  IHMeth= 1 ICntrl=       0 DoSepK=F KAlg= 0 I1Cent=   0 FoldK=F
 IRaf=         0 NMat=  51 IRICut=     127 DoRegI=T DoRafI=T ISym2E= 2.
 R6Disp: Adding Grimme-D3(BJ) dispersion energy 1st derivatives to the gradient.
 Discarding MO integrals.
 Leave Link 1112 at Sun Nov 13 00:25:10 2022, MaxMem=   939524096 cpu:      5234.4
 (Enter /Local/ce_dana/g09/l601.exe)
 Copying SCF densities to generalized density rwf, IOpCl= 0 IROHF=0.

 **********************************************************************

            Population analysis using the SCF density.

 **********************************************************************

 Orbital symmetries:
       Occupied  (A) (A) (A) (A) (A) (A) (A) (A) (A) (A) (A) (A)
                 (A) (A) (A) (A) (A) (A) (A) (A) (A)
       Virtual   (A) (A) (A) (A) (A) (A) (A) (A) (A) (A) (A) (A)
                 (A) (A) (A) (A) (A) (A) (A) (A) (A) (A) (A) (A)
                 (A) (A) (A) (A) (A) (A) (A) (A) (A) (A) (A) (A)
                 (A) (A) (A) (A) (A) (A) (A) (A) (A) (A) (A) (A)
                 (A) (A) (A) (A) (A) (A) (A) (A) (A) (A) (A) (A)
                 (A) (A) (A) (A) (A) (A) (A) (A) (A) (A) (A) (A)
                 (A) (A) (A) (A) (A) (A) (A) (A) (A) (A) (A) (A)
                 (A) (A) (A) (A) (A) (A) (A) (A) (A) (A) (A) (A)
                 (A) (A) (A) (A) (A) (A) (A) (A) (A) (A) (A) (A)
                 (A) (A) (A) (A) (A) (A) (A) (A) (A) (A) (A) (A)
                 (A) (A) (A) (A) (A) (A) (A) (A) (A) (A) (A) (A)
                 (A) (A) (A) (A) (A) (A) (A) (A) (A) (A) (A) (A)
                 (A) (A) (A) (A) (A) (A) (A) (A) (A) (A) (A) (A)
                 (A) (A) (A) (A) (A) (A) (A) (A) (A) (A) (A) (A)
                 (A) (A) (A) (A) (A) (A) (A) (A) (A) (A) (A) (A)
                 (A) (A) (A) (A) (A) (A) (A) (A) (A) (A) (A) (A)
                 (A) (A) (A) (A) (A) (A) (A) (A)
 The electronic state is 1-A.
 Alpha  occ. eigenvalues --  -14.80831 -10.64409 -10.59685 -10.59387 -10.59386
 Alpha  occ. eigenvalues --   -1.01610  -0.87485  -0.79022  -0.79021  -0.63395
 Alpha  occ. eigenvalues --   -0.55726  -0.53431  -0.50997  -0.48574  -0.45850
 Alpha  occ. eigenvalues --   -0.44065  -0.42662  -0.41954  -0.39352  -0.38464
 Alpha  occ. eigenvalues --   -0.30212
 Alpha virt. eigenvalues --    0.06246   0.11749   0.11902   0.13040   0.13172
 Alpha virt. eigenvalues --    0.13574   0.15517   0.17961   0.18577   0.20090
 Alpha virt. eigenvalues --    0.20813   0.21494   0.21517   0.22052   0.23452
 Alpha virt. eigenvalues --    0.26939   0.28138   0.32235   0.32287   0.35556
 Alpha virt. eigenvalues --    0.37196   0.39380   0.40887   0.41727   0.42884
 Alpha virt. eigenvalues --    0.44978   0.47453   0.49890   0.50372   0.50607
 Alpha virt. eigenvalues --    0.51344   0.52890   0.53780   0.54476   0.55189
 Alpha virt. eigenvalues --    0.56013   0.56420   0.58361   0.59759   0.60105
 Alpha virt. eigenvalues --    0.61671   0.62961   0.68216   0.77443   0.77986
 Alpha virt. eigenvalues --    0.80236   0.83494   0.85894   0.91745   0.92328
 Alpha virt. eigenvalues --    0.92560   0.96458   0.99561   0.99933   1.07569
 Alpha virt. eigenvalues --    1.07627   1.11274   1.14127   1.16855   1.19967
 Alpha virt. eigenvalues --    1.20473   1.26729   1.27608   1.34069   1.34255
 Alpha virt. eigenvalues --    1.37850   1.44333   1.48346   1.50431   1.54834
 Alpha virt. eigenvalues --    1.57180   1.61216   1.63384   1.64627   1.65080
 Alpha virt. eigenvalues --    1.65636   1.66494   1.69924   1.73105   1.73118
 Alpha virt. eigenvalues --    1.74701   1.75508   1.75973   1.82360   1.82426
 Alpha virt. eigenvalues --    1.86453   1.88533   1.94142   2.02718   2.02855
 Alpha virt. eigenvalues --    2.06279   2.09859   2.11298   2.13967   2.14331
 Alpha virt. eigenvalues --    2.17830   2.23697   2.25221   2.25750   2.28784
 Alpha virt. eigenvalues --    2.29644   2.33321   2.40824   2.42162   2.42260
 Alpha virt. eigenvalues --    2.45021   2.50138   2.50486   2.52119   2.52579
 Alpha virt. eigenvalues --    2.54321   2.55262   2.57785   2.58129   2.61005
 Alpha virt. eigenvalues --    2.64931   2.67335   2.68260   2.69037   2.73729
 Alpha virt. eigenvalues --    2.74338   2.78072   2.79747   2.80059   2.83816
 Alpha virt. eigenvalues --    2.84417   2.90258   2.94613   2.95834   2.97491
 Alpha virt. eigenvalues --    3.00803   3.03355   3.03887   3.15268   3.20152
 Alpha virt. eigenvalues --    3.20882   3.23990   3.27322   3.27520   3.33877
 Alpha virt. eigenvalues --    3.34521   3.35152   3.42388   3.43469   3.46611
 Alpha virt. eigenvalues --    3.48656   3.49864   3.51741   3.51825   3.53557
 Alpha virt. eigenvalues --    3.55695   3.58259   3.59806   3.65151   3.74696
 Alpha virt. eigenvalues --    3.79530   3.80596   3.82550   3.83232   3.85606
 Alpha virt. eigenvalues --    3.95566   4.01611   4.06792   4.14815   4.18844
 Alpha virt. eigenvalues --    4.19840   4.23523   4.26311   4.27746   4.28550
 Alpha virt. eigenvalues --    4.34225   4.42623   4.46050   4.48756   4.56359
 Alpha virt. eigenvalues --    4.56620   4.57667   4.60049   4.63277   4.72111
 Alpha virt. eigenvalues --    4.72253   4.91298   4.93095   5.00884   5.01019
 Alpha virt. eigenvalues --    5.02035   5.08737   5.09897   5.15743   5.35748
 Alpha virt. eigenvalues --    5.41523   5.49848   5.51200   5.75228   6.03535
 Alpha virt. eigenvalues --   22.81859  22.85700  22.86257  23.09104  32.59289
          Condensed to atoms (all electrons):
               1          2          3          4          5          6
     1  C    4.962559   0.335148  -0.075159  -0.060808  -0.049196   0.402223
     2  C    0.335148   4.895811   0.388703   0.335148   0.236632  -0.027102
     3  C   -0.075159   0.388703   4.956212  -0.075158  -0.059952  -0.012340
     4  C   -0.060808   0.335148  -0.075158   4.962558  -0.049196   0.012017
     5  N   -0.049196   0.236632  -0.059952  -0.049196   6.705279  -0.006734
     6  H    0.402223  -0.027102  -0.012340   0.012017  -0.006734   0.578253
     7  H    0.417139  -0.042344   0.011744  -0.005892   0.002170  -0.023553
     8  H    0.414181  -0.040231  -0.002703  -0.008677   0.008379  -0.026697
     9  H   -0.004226  -0.046537   0.402577  -0.004226   0.012353   0.000894
    10  H    0.013280  -0.038586   0.403754  -0.009694  -0.001150  -0.000156
    11  H   -0.009694  -0.038586   0.403754   0.013280  -0.001150   0.003946
    12  H   -0.005892  -0.042344   0.011743   0.417139   0.002170  -0.000232
    13  H   -0.008677  -0.040231  -0.002703   0.414181   0.008379  -0.000235
    14  H    0.012017  -0.027102  -0.012340   0.402223  -0.006734  -0.000491
    15  H    0.009716  -0.037499   0.000268  -0.014756   0.364529  -0.000205
    16  H   -0.014756  -0.037499   0.000268   0.009716   0.364529   0.004230
               7          8          9         10         11         12
     1  C    0.417139   0.414181  -0.004226   0.013280  -0.009694  -0.005892
     2  C   -0.042344  -0.040231  -0.046537  -0.038586  -0.038586  -0.042344
     3  C    0.011744  -0.002703   0.402577   0.403754   0.403754   0.011743
     4  C   -0.005892  -0.008677  -0.004226  -0.009694   0.013280   0.417139
     5  N    0.002170   0.008379   0.012353  -0.001150  -0.001150   0.002170
     6  H   -0.023553  -0.026697   0.000894  -0.000156   0.003946  -0.000232
     7  H    0.544387  -0.022381  -0.000475  -0.000508  -0.000317   0.003109
     8  H   -0.022381   0.577678  -0.000552  -0.000373  -0.000217   0.000724
     9  H   -0.000475  -0.000552   0.585657  -0.021850  -0.021850  -0.000475
    10  H   -0.000508  -0.000373  -0.021850   0.574435  -0.024433  -0.000317
    11  H   -0.000317  -0.000217  -0.021850  -0.024433   0.574435  -0.000508
    12  H    0.003109   0.000724  -0.000475  -0.000317  -0.000508   0.544387
    13  H    0.000724   0.003497  -0.000552  -0.000217  -0.000373  -0.022381
    14  H   -0.000232  -0.000235   0.000894   0.003946  -0.000156  -0.023553
    15  H   -0.000398  -0.000744   0.000366   0.004325  -0.000041  -0.000748
    16  H   -0.000748  -0.000115   0.000366  -0.000041   0.004325  -0.000398
              13         14         15         16
     1  C   -0.008677   0.012017   0.009716  -0.014756
     2  C   -0.040231  -0.027102  -0.037499  -0.037499
     3  C   -0.002703  -0.012340   0.000268   0.000268
     4  C    0.414181   0.402223  -0.014756   0.009716
     5  N    0.008379  -0.006734   0.364529   0.364529
     6  H   -0.000235  -0.000491  -0.000205   0.004230
     7  H    0.000724  -0.000232  -0.000398  -0.000748
     8  H    0.003497  -0.000235  -0.000744  -0.000115
     9  H   -0.000552   0.000894   0.000366   0.000366
    10  H   -0.000217   0.003946   0.004325  -0.000041
    11  H   -0.000373  -0.000156  -0.000041   0.004325
    12  H   -0.022381  -0.023553  -0.000748  -0.000398
    13  H    0.577678  -0.026697  -0.000115  -0.000744
    14  H   -0.026697   0.578253   0.004230  -0.000205
    15  H   -0.000115   0.004230   0.506113  -0.035447
    16  H   -0.000744  -0.000205  -0.035447   0.506113
 Mulliken charges:
               1
     1  C   -0.337855
     2  C    0.226618
     3  C   -0.338668
     4  C   -0.337854
     5  N   -0.530307
     6  H    0.096183
     7  H    0.117575
     8  H    0.098464
     9  H    0.097638
    10  H    0.097584
    11  H    0.097584
    12  H    0.117575
    13  H    0.098464
    14  H    0.096183
    15  H    0.200407
    16  H    0.200408
 Sum of Mulliken charges =  -0.00000
 Mulliken charges with hydrogens summed into heavy atoms:
               1
     1  C   -0.025632
     2  C    0.226618
     3  C   -0.045862
     4  C   -0.025632
     5  N   -0.129492
 APT charges:
               1
     1  C    0.031342
     2  C    0.353626
     3  C    0.003097
     4  C    0.031342
     5  N   -0.474244
     6  H   -0.028629
     7  H   -0.009607
     8  H   -0.015279
     9  H   -0.026235
    10  H   -0.027566
    11  H   -0.027566
    12  H   -0.009607
    13  H   -0.015280
    14  H   -0.028629
    15  H    0.121616
    16  H    0.121616
 Sum of APT charges =  -0.00000
 APT charges with hydrogens summed into heavy atoms:
               1
     1  C   -0.022173
     2  C    0.353626
     3  C   -0.078270
     4  C   -0.022173
     5  N   -0.231011
 Electronic spatial extent (au):  <R**2>=            463.2717
 Charge=             -0.0000 electrons
 Dipole moment (field-independent basis, Debye):
    X=              0.0000    Y=              1.1207    Z=             -0.5358  Tot=              1.2422
 Quadrupole moment (field-independent basis, Debye-Ang):
   XX=            -33.5082   YY=            -34.7180   ZZ=            -35.7397
   XY=             -0.0000   XZ=              0.0000   YZ=              2.9609
 Traceless Quadrupole moment (field-independent basis, Debye-Ang):
   XX=              1.1471   YY=             -0.0627   ZZ=             -1.0844
   XY=             -0.0000   XZ=              0.0000   YZ=              2.9609
 Octapole moment (field-independent basis, Debye-Ang**2):
  XXX=              0.0002  YYY=             -0.9476  ZZZ=             -1.2705  XYY=             -0.0001
  XXY=              3.3371  XXZ=              4.8416  XZZ=              0.0001  YZZ=              5.4383
  YYZ=              3.1747  XYZ=             -0.0000
 Hexadecapole moment (field-independent basis, Debye-Ang**3):
 XXXX=           -224.8751 YYYY=           -223.1783 ZZZZ=           -199.5045 XXXY=              0.0000
 XXXZ=              0.0001 YYYX=             -0.0000 YYYZ=              2.2605 ZZZX=              0.0002
 ZZZY=             15.9120 XXYY=            -73.7393 XXZZ=            -67.5318 YYZZ=            -70.3952
 XXYZ=              3.1447 YYXZ=             -0.0001 ZZXY=             -0.0000
 N-N= 2.001702808174D+02 E-N=-8.959506577625D+02  KE= 2.126387655651D+02
  Exact polarizability:  59.607  -0.000  58.641   0.000   0.416  57.960
 Approx polarizability:  64.819  -0.000  62.854   0.000   0.930  64.691
 No NMR shielding tensors so no spin-rotation constants.
 Leave Link  601 at Sun Nov 13 00:25:11 2022, MaxMem=   939524096 cpu:         1.6
 (Enter /Local/ce_dana/g09/l701.exe)
 Compute integral second derivatives.
 ... and contract with generalized density number  2.
 Use density number 2.
 R6Disp: Adding Grimme-D3(BJ) dispersion energy 2nd derivatives to the Hessian.
 Entering OneElI...
 Calculate overlap and kinetic energy integrals
    NBasis = 246  MinDer = 2  MaxDer = 2
 Requested accuracy = 0.1000D-14
 PrsmSu:  NPrtUS=  10 ThrOK=T IAlg=1 NPAlg=1 LenDen=           0.
 Prism:   IPart=     0 DynPar=F LinDyn=F Incr=           4.
 PRISM was handed    93809107 working-precision words and  4944 shell-pairs
 PRISM was handed    93809107 working-precision words and  4944 shell-pairs
 PRISM was handed    93809107 working-precision words and  4944 shell-pairs
 PRISM was handed    93809107 working-precision words and  4944 shell-pairs
 PRISM was handed    93809107 working-precision words and  4944 shell-pairs
 PRISM was handed    93809107 working-precision words and  4944 shell-pairs
 PRISM was handed    93809107 working-precision words and  4944 shell-pairs
 PRISM was handed    93809107 working-precision words and  4944 shell-pairs
 PRISM was handed    93809107 working-precision words and  4944 shell-pairs
 PRISM was handed    93809107 working-precision words and  4944 shell-pairs
 IPart=  1 NShTot=         507 NBatch=          44 AvBLen=        11.5
 IPart=  8 NShTot=         480 NBatch=          37 AvBLen=        13.0
 IPart=  5 NShTot=         486 NBatch=          39 AvBLen=        12.5
 IPart=  4 NShTot=         502 NBatch=          42 AvBLen=        12.0
 IPart=  0 NShTot=         513 NBatch=          44 AvBLen=        11.7
 IPart=  9 NShTot=         479 NBatch=          37 AvBLen=        12.9
 IPart=  3 NShTot=         505 NBatch=          44 AvBLen=        11.5
 IPart=  6 NShTot=         484 NBatch=          38 AvBLen=        12.7
 IPart=  2 NShTot=         506 NBatch=          44 AvBLen=        11.5
 IPart=  7 NShTot=         482 NBatch=          38 AvBLen=        12.7
 PrSmSu:  NxtVal=             41.
 Entering OneElI...
 Calculate potential energy integrals
    NBasis = 246  MinDer = 2  MaxDer = 2
 Requested accuracy = 0.1000D-14
 PrsmSu:  NPrtUS=  10 ThrOK=T IAlg=1 NPAlg=1 LenDen=           0.
 Prism:   IPart=     0 DynPar=F LinDyn=F Incr=          78.
 PRISM was handed    93823688 working-precision words and  4902 shell-pairs
 PRISM was handed    93823688 working-precision words and  4902 shell-pairs
 PRISM was handed    93823688 working-precision words and  4902 shell-pairs
 PRISM was handed    93823688 working-precision words and  4902 shell-pairs
 PRISM was handed    93823688 working-precision words and  4902 shell-pairs
 PRISM was handed    93823688 working-precision words and  4902 shell-pairs
 PRISM was handed    93823688 working-precision words and  4902 shell-pairs
 PRISM was handed    93823688 working-precision words and  4902 shell-pairs
 PRISM was handed    93823688 working-precision words and  4902 shell-pairs
 PRISM was handed    93823688 working-precision words and  4902 shell-pairs
 IPart=  8 NShTot=        7632 NBatch=         477 AvBLen=        16.0
 IPart=  3 NShTot=        7968 NBatch=         498 AvBLen=        16.0
 IPart=  2 NShTot=        8016 NBatch=         501 AvBLen=        16.0
 IPart=  6 NShTot=        7728 NBatch=         483 AvBLen=        16.0
 IPart=  7 NShTot=        7696 NBatch=         481 AvBLen=        16.0
 IPart=  0 NShTot=        8096 NBatch=         506 AvBLen=        16.0
 IPart=  9 NShTot=        7568 NBatch=         473 AvBLen=        16.0
 IPart=  4 NShTot=        7936 NBatch=         496 AvBLen=        16.0
 IPart=  1 NShTot=        8032 NBatch=         502 AvBLen=        16.0
 IPart=  5 NShTot=        7760 NBatch=         485 AvBLen=        16.0
 PrSmSu:  NxtVal=            781.
   1 Symmetry operations used in ECPInt.
 ECPInt:  NShTT=    4950 NPrTT=   14004 LenC2=    4938 LenP2D=   12012.
 LDataN:  DoStor=F MaxTD1= 8 Len=  415
 LDataN:  DoStor=T MaxTD1= 8 Len=  415
 ECPSu:  NPrtUS=  10 ThrOK=T
 Polarizability after L701:
                1             2             3 
      1  0.596065D+02
      2 -0.700010D-05  0.586406D+02
      3  0.115332D-04  0.415674D+00  0.579595D+02
 Dipole Derivatives after L701:
                 1             2             3             4             5 
      1   0.850880D-02  0.537335D-01  0.448185D-02  0.210290D+00  0.179297D-05
      2   0.566298D-01  0.230553D-01 -0.691834D-02  0.140694D-05  0.329233D+00
      3   0.473191D-01 -0.718217D-02  0.624622D-01  0.000000D+00  0.364561D-01
                 6             7             8             9            10 
      1   0.000000D+00  0.794252D-01 -0.196215D-05  0.000000D+00  0.850582D-02
      2  -0.361362D-01 -0.186176D-05 -0.610141D-01  0.480300D-01 -0.566294D-01
      3   0.521357D+00  0.137933D-05  0.111168D+00 -0.911858D-02 -0.473190D-01
                11            12            13            14            15 
      1  -0.537335D-01 -0.448167D-02 -0.249184D+00 -0.219954D-05  0.118487D-05
      2   0.230579D-01 -0.691766D-02 -0.242540D-05 -0.436578D+00  0.109945D+00
      3  -0.718056D-02  0.624627D-01  0.162434D-05  0.156083D+00 -0.736971D+00
                16            17            18            19            20 
      1  -0.115092D+00 -0.113864D+00 -0.600609D-01  0.456970D-01  0.350453D-01
      2  -0.565008D-01 -0.135996D-01 -0.391501D-01 -0.119135D-01 -0.101384D+00
      3  -0.286057D-01 -0.439460D-01  0.428063D-01  0.171242D-01  0.632563D-01
                21            22            23            24            25 
      1  -0.956117D-02  0.456243D-01  0.148177D-01  0.308497D-01  0.652036D-01
      2   0.966367D-01  0.775814D-02  0.543826D-01 -0.503220D-01  0.000000D+00
      3   0.268668D-01 -0.214609D-01 -0.186551D-01 -0.145845D+00  0.000000D+00
                26            27            28            29            30 
      1   0.000000D+00  0.000000D+00 -0.942428D-01  0.713273D-01  0.656010D-01
      2   0.350191D-01  0.183450D-01  0.119856D+00 -0.217721D-01 -0.351087D-01
      3  -0.406485D-01 -0.178928D+00  0.389355D-01 -0.153606D-02  0.333166D-01
                31            32            33            34            35 
      1  -0.942481D-01 -0.713253D-01 -0.656018D-01  0.456963D-01 -0.350491D-01
      2  -0.119854D+00 -0.217667D-01 -0.351068D-01  0.119097D-01 -0.101383D+00
      3  -0.389353D-01 -0.153494D-02  0.333167D-01 -0.171225D-01  0.632566D-01
                36            37            38            39            40 
      1   0.956367D-02  0.456236D-01 -0.148175D-01 -0.308514D-01 -0.115087D+00
      2   0.966362D-01 -0.775798D-02  0.543831D-01 -0.503212D-01  0.565034D-01
      3   0.268668D-01  0.214601D-01 -0.186557D-01 -0.145846D+00  0.286047D-01
                41            42            43            44            45 
      1   0.113866D+00  0.600602D-01  0.566435D-01  0.134082D+00 -0.337923D-01
      2  -0.136043D-01 -0.391518D-01  0.104168D+00  0.125982D+00 -0.352298D-01
      3  -0.439469D-01  0.428060D-01  0.158726D-01 -0.123468D+00  0.182224D+00
                46            47            48 
      1   0.566372D-01 -0.134080D+00  0.337915D-01
      2  -0.104167D+00  0.125989D+00 -0.352305D-01
      3  -0.158757D-01 -0.123467D+00  0.182223D+00
 Hessian after L701:
                1             2             3             4             5 
      1  0.111025D+02
      2  0.156161D+01  0.128421D+02
      3  0.906877D+00 -0.486758D+00  0.134464D+02
      4 -0.238430D+01 -0.190313D+01 -0.950208D+00  0.161059D+02
      5 -0.190570D+01 -0.430138D+01  0.599074D+00 -0.833870D-05  0.158030D+02
      6 -0.935892D+00  0.596061D+00 -0.523887D+01  0.364885D-05  0.331184D+00
      7  0.367896D-01 -0.200649D+00  0.491633D-01 -0.563211D+01  0.476954D-04
      8 -0.135272D+00  0.206662D+00 -0.865194D-01  0.478985D-04 -0.207994D+01
      9  0.456671D-02 -0.309982D-01 -0.551135D-01 -0.272023D-04 -0.200056D+01
     10  0.404248D+00  0.470016D-01  0.666935D-02 -0.238420D+01  0.190565D+01
     11 -0.470153D-01 -0.128546D+00  0.807373D-02  0.190308D+01 -0.430147D+01
     12 -0.667003D-02  0.807377D-02 -0.146425D+00  0.950218D+00  0.599045D+00
     13 -0.733729D-01 -0.141334D+00 -0.331233D+00 -0.620859D+01  0.551796D-05
     14 -0.120954D+00 -0.130334D+00  0.190541D+00  0.550660D-05 -0.582669D+01
     15 -0.267619D+00  0.156530D+00  0.131522D+00  0.130834D-04  0.476616D+00
     16 -0.195056D+01  0.103623D+01  0.563937D+00 -0.456604D-03 -0.289921D-01
     17  0.880168D+00 -0.315151D+01  0.274434D+00  0.409289D-01  0.446074D-01
     18  0.475332D+00  0.272709D+00 -0.350011D+01 -0.591970D-02  0.151217D-01
     19 -0.374976D+01 -0.131716D+00  0.101729D+00  0.309353D-01  0.613769D-01
     20  0.183144D-01 -0.180395D+01 -0.105688D+01  0.524923D-02  0.599675D-01
     21  0.186298D-01 -0.952380D+00 -0.320898D+01 -0.498381D-02 -0.137339D-01
     22 -0.369719D+01 -0.319379D-01 -0.263423D+00  0.639377D-01  0.444288D-02
     23 -0.607386D-02 -0.360632D+01  0.503054D+00 -0.630706D-02  0.609492D-01
     24 -0.109051D+00  0.418843D+00 -0.133998D+01  0.372627D-01 -0.293918D-01
     25 -0.162704D-01 -0.275586D-01  0.217572D-01  0.829301D-01  0.000000D+00
     26 -0.213957D-01  0.979555D-02 -0.297068D-01  0.000000D+00  0.102131D+00
     27  0.252271D-01 -0.517989D-01  0.175604D-01  0.000000D+00  0.251634D-01
     28  0.524284D-01 -0.136123D+00  0.190794D-02  0.443216D-01 -0.241909D-02
     29 -0.141385D+00  0.105288D+00  0.125594D-02  0.654433D-01  0.261685D-01
     30  0.405127D-02 -0.174928D-02 -0.625926D-01 -0.320286D-01  0.152509D-01
     31 -0.653586D-02  0.123476D-01 -0.257376D-02  0.443198D-01  0.241881D-02
     32  0.399558D-02  0.144272D-01  0.514604D-02 -0.654436D-01  0.261704D-01
     33 -0.103137D-02  0.201685D-01 -0.152695D-01  0.320289D-01  0.152500D-01
     34  0.183287D-01  0.186976D-01 -0.119079D-01  0.309336D-01 -0.613761D-01
     35  0.375434D-01  0.517601D-02 -0.101052D-01 -0.524833D-02  0.599692D-01
     36 -0.304327D-01 -0.183623D-01 -0.163568D-01  0.498351D-02 -0.137340D-01
     37  0.638311D-02  0.428339D-02  0.206994D-01  0.639376D-01 -0.444289D-02
     38 -0.338150D-02 -0.144205D-01  0.213565D-02  0.630694D-02  0.609491D-01
     39  0.378479D-01  0.122084D-01  0.127113D-01 -0.372634D-01 -0.293905D-01
     40  0.197406D+00 -0.480978D-01 -0.309261D-01 -0.457067D-03  0.289935D-01
     41 -0.487244D-01 -0.515022D-01  0.411251D-02 -0.409279D-01  0.446078D-01
     42 -0.264225D-01  0.314095D-02 -0.548191D-01  0.592031D-02  0.151215D-01
     43  0.448894D-01 -0.661140D-01 -0.102008D+00  0.714426D-01 -0.225394D-01
     44 -0.715991D-01 -0.660881D-02  0.725242D-01 -0.306018D-03  0.110464D+00
     45 -0.102314D+00  0.701043D-01  0.458239D-01  0.111236D+00 -0.250988D-02
     46  0.150591D-01  0.648701D-02  0.195395D-01  0.714429D-01  0.225405D-01
     47 -0.131301D-03  0.111174D-01  0.961294D-02  0.307211D-03  0.110463D+00
     48  0.690115D-02 -0.157930D-01 -0.155044D-01 -0.111236D+00 -0.250686D-02
                6             7             8             9            10 
      6  0.148423D+02
      7 -0.274330D-04  0.137017D+02
      8 -0.202637D+01 -0.398344D-04  0.107845D+02
      9 -0.448685D+01  0.211058D-04  0.161339D+01  0.126964D+02
     10  0.935903D+00  0.367985D-01  0.135277D+00 -0.456771D-02  0.111024D+02
     11  0.596033D+00  0.200654D+00  0.206653D+00 -0.309984D-01 -0.156156D+01
     12 -0.523887D+01 -0.491658D-01 -0.865182D-01 -0.551139D-01 -0.906886D+00
     13  0.125364D-04 -0.155273D+00  0.266466D-05 -0.440631D-05 -0.733646D-01
     14  0.441389D+00  0.262234D-05  0.590080D-01 -0.356209D+00  0.120953D+00
     15  0.410841D-01 -0.234473D-05 -0.193862D+00  0.218966D+00  0.267624D+00
     16 -0.513852D-01  0.319926D-02  0.114109D-01  0.596969D-02  0.197409D+00
     17  0.159810D-01  0.176771D-01 -0.140062D-01 -0.265371D-02  0.487176D-01
     18  0.297980D-01  0.183532D-01 -0.103290D-01  0.162882D-02  0.264222D-01
     19 -0.392524D-01 -0.296390D-01 -0.802292D-01  0.272549D-01  0.183272D-01
     20  0.266158D-01 -0.797010D-01  0.157225D+00 -0.665932D-01 -0.375437D-01
     21  0.648921D-01  0.264358D-01 -0.653885D-01 -0.387089D-01  0.304322D-01
     22  0.109887D+00 -0.184234D-01 -0.348945D-01 -0.195086D-01  0.638304D-02
     23 -0.711447D-01 -0.406041D-01  0.396337D-01  0.384298D-01  0.338092D-02
     24 -0.486156D-01 -0.357659D-01  0.578643D-01 -0.352647D-02 -0.378475D-01
     25  0.132123D-05 -0.362061D+01  0.000000D+00  0.382883D-05 -0.162691D-01
     26  0.108237D+00  0.000000D+00 -0.363353D+01  0.138483D+00  0.213963D-01
     27 -0.717871D-01  0.611409D-05  0.304729D+00 -0.123904D+01 -0.252284D-01
     28  0.581700D-02 -0.213097D+01 -0.100501D+01 -0.450484D+00 -0.653634D-02
     29 -0.299108D-01 -0.114197D+01 -0.292316D+01  0.360239D+00 -0.399495D-02
     30  0.613754D-01 -0.374537D+00  0.268331D+00 -0.354661D+01  0.103191D-02
     31 -0.581788D-02 -0.213091D+01  0.100499D+01  0.450493D+00  0.524359D-01
     32 -0.299107D-01  0.114195D+01 -0.292322D+01  0.360225D+00  0.141386D+00
     33  0.613752D-01  0.374542D+00  0.268320D+00 -0.354661D+01 -0.405148D-02
     34  0.392532D-01 -0.296347D-01  0.802340D-01 -0.272567D-01 -0.374976D+01
     35  0.266148D-01  0.797058D-01  0.157221D+00 -0.665925D-01 -0.182640D-01
     36  0.648919D-01 -0.264375D-01 -0.653877D-01 -0.387087D-01 -0.186545D-01
     37 -0.109889D+00 -0.184213D-01  0.348962D-01  0.195097D-01 -0.369718D+01
     38 -0.711417D-01  0.406057D-01  0.396316D-01  0.384292D-01  0.607663D-02
     39 -0.486153D-01  0.357675D-01  0.578633D-01 -0.352654D-02  0.109064D+00
     40  0.513858D-01  0.319850D-02 -0.114112D-01 -0.596981D-02 -0.195062D+01
     41  0.159796D-01 -0.176775D-01 -0.140055D-01 -0.265354D-02 -0.880202D+00
     42  0.297981D-01 -0.183535D-01 -0.103285D-01  0.162879D-02 -0.475326D+00
     43  0.288691D-01 -0.784328D-02  0.772000D-02 -0.706275D-01  0.150588D-01
     44  0.351886D-01 -0.220679D-02 -0.313100D-01  0.403248D-02  0.131251D-03
     45 -0.309708D-01 -0.340682D-01 -0.128988D-01  0.475650D-01 -0.690161D-02
     46 -0.288681D-01 -0.784326D-02 -0.772063D-02  0.706277D-01  0.448934D-01
     47  0.351895D-01  0.220618D-02 -0.313098D-01  0.403066D-02  0.715978D-01
     48 -0.309704D-01  0.340679D-01 -0.128997D-01  0.475648D-01  0.102316D+00
               11            12            13            14            15 
     11  0.128422D+02
     12 -0.486732D+00  0.134464D+02
     13  0.141333D+00  0.331239D+00  0.115005D+02
     14 -0.130341D+00  0.190532D+00  0.289434D-04  0.139122D+02
     15  0.156523D+00  0.131521D+00 -0.313267D-04 -0.195856D+01  0.761389D+01
     16  0.480911D-01  0.309258D-01  0.380307D-01 -0.134120D-01 -0.196918D-01
     17 -0.515047D-01  0.411159D-02  0.385728D-02 -0.182932D-01 -0.100443D-02
     18  0.314017D-02 -0.548191D-01 -0.820379D-02  0.984324D-02 -0.290955D-01
     19 -0.186979D-01  0.119076D-01 -0.229789D-01 -0.348877D-01 -0.478753D-01
     20  0.517744D-02 -0.101054D-01 -0.757920D-01  0.181688D-01  0.830934D-01
     21 -0.183630D-01 -0.163568D-01 -0.322302D-01  0.347801D-01 -0.665234D-02
     22 -0.428387D-02 -0.206993D-01 -0.259433D-01 -0.175206D-01 -0.875110D-01
     23 -0.144205D-01  0.213622D-02 -0.229518D-01 -0.434862D-01  0.644182D-01
     24  0.122093D-01  0.127114D-01 -0.879697D-01  0.490281D-01  0.174253D+00
     25  0.275592D-01 -0.217579D-01 -0.679625D-01  0.000000D+00  0.000000D+00
     26  0.979423D-02 -0.297062D-01  0.000000D+00 -0.644782D-01 -0.570033D-01
     27 -0.517983D-01  0.175604D-01  0.000000D+00 -0.651240D-01  0.224678D+00
     28 -0.123470D-01  0.257389D-02 -0.147164D-01 -0.495696D-01  0.332624D-01
     29  0.144278D-01  0.514592D-02 -0.236471D-01 -0.394790D-02 -0.247249D-01
     30  0.201684D-01 -0.152695D-01  0.151147D-01 -0.170167D-01 -0.168193D-01
     31  0.136125D+00 -0.190809D-02 -0.147145D-01  0.495699D-01 -0.332630D-01
     32  0.105280D+00  0.125576D-02  0.236473D-01 -0.394993D-02 -0.247240D-01
     33 -0.174936D-02 -0.625925D-01 -0.151151D-01 -0.170163D-01 -0.168193D-01
     34  0.131767D+00 -0.101756D+00 -0.229758D-01  0.348889D-01  0.478775D-01
     35 -0.180396D+01 -0.105687D+01  0.757933D-01  0.181658D-01  0.830919D-01
     36 -0.952378D+00 -0.320898D+01  0.322312D-01  0.347791D-01 -0.665245D-02
     37  0.319404D-01  0.263439D+00 -0.259419D-01  0.175202D-01  0.875130D-01
     38 -0.360632D+01  0.503045D+00  0.229514D-01 -0.434872D-01  0.644157D-01
     39  0.418838D+00 -0.133997D+01  0.879713D-01  0.490256D-01  0.174253D+00
     40 -0.103627D+01 -0.563931D+00  0.380310D-01  0.134106D-01  0.196917D-01
     41 -0.315145D+01  0.274452D+00 -0.385889D-02 -0.182934D-01 -0.100500D-02
     42  0.272724D+00 -0.350011D+01  0.820401D-02  0.984304D-02 -0.290956D-01
     43 -0.648719D-02 -0.195393D-01 -0.243538D+01 -0.142064D+01 -0.859144D+00
     44  0.111177D-01  0.961341D-02 -0.140444D+01 -0.386211D+01  0.588109D+00
     45 -0.157928D-01 -0.155044D-01 -0.106857D+01  0.702096D+00 -0.430251D+01
     46  0.661128D-01  0.102010D+00 -0.243530D+01  0.142061D+01  0.859157D+00
     47 -0.661239D-02  0.725212D-01  0.140441D+01 -0.386218D+01  0.588084D+00
     48  0.701014D-01  0.458234D-01  0.106859D+01  0.702066D+00 -0.430251D+01
               16            17            18            19            20 
     16  0.163782D+01
     17 -0.842153D+00  0.322380D+01
     18 -0.440660D+00 -0.243511D+00  0.352854D+01
     19  0.241926D-01 -0.933152D-01  0.303612D-01  0.362698D+01
     20 -0.842610D-01 -0.754954D-01  0.333031D-01  0.288850D+00  0.159889D+01
     21  0.103962D-01  0.214604D-02  0.665869D-01 -0.826809D-01  0.921195D+00
     22  0.340550D-01 -0.342052D-01 -0.958413D-01  0.621755D-01 -0.749942D-02
     23 -0.442964D-01  0.370364D-01 -0.843449D-01  0.100660D-02  0.387454D-01
     24 -0.809587D-01 -0.554174D-01 -0.465642D-01 -0.771106D-02  0.701165D-01
     25  0.870977D-02 -0.553712D-02  0.995986D-02 -0.117392D-02 -0.831762D-03
     26 -0.894519D-02 -0.223936D-02 -0.618271D-02  0.397766D-03 -0.199021D-03
     27  0.231983D-01 -0.378530D-02  0.731399D-02  0.949536D-03 -0.955333D-02
     28  0.105213D-01  0.979077D-04  0.253644D-02 -0.804749D-03 -0.325039D-02
     29 -0.807023D-02 -0.200276D-02 -0.149196D-02  0.501062D-02 -0.124091D-02
     30 -0.679652D-03 -0.298123D-03 -0.229661D-02 -0.176558D-02  0.301834D-02
     31 -0.998561D-02 -0.165362D-01  0.184623D-02 -0.165862D-02  0.728056D-02
     32 -0.416720D-01  0.217917D-01 -0.115910D-01  0.838054D-04  0.928866D-02
     33  0.327109D-02 -0.617721D-02 -0.176367D-01  0.720242D-04  0.107092D-02
     34  0.356057D-02  0.293827D-02  0.397703D-03  0.330127D-01 -0.110129D-01
     35  0.106347D-01  0.394097D-02  0.112992D-02  0.110114D-01 -0.245304D-01
     36 -0.443899D-02 -0.251562D-02 -0.235825D-02 -0.490379D-02  0.458645D-02
     37  0.359630D-02  0.214418D-02  0.210348D-02  0.827167D-02 -0.937210D-02
     38  0.282354D-02 -0.611200D-03  0.105611D-02 -0.304813D-02 -0.471204D-02
     39  0.102162D-01  0.432135D-02  0.230309D-02  0.133429D-01 -0.142875D-01
     40 -0.196977D-02  0.432845D-02  0.216865D-02  0.356023D-02 -0.106347D-01
     41 -0.432843D-02 -0.233080D-03 -0.444775D-03 -0.293829D-02  0.394136D-02
     42 -0.216865D-02 -0.444717D-03  0.282966D-03 -0.397678D-03  0.112994D-02
     43  0.119411D-01  0.213906D-02 -0.132015D-02  0.121284D-02 -0.992836D-02
     44 -0.659480D-02 -0.301495D-02  0.585926D-03 -0.211272D-02  0.707760D-02
     45 -0.701837D-02 -0.774829D-03 -0.976037D-03 -0.100742D-02  0.480737D-02
     46 -0.100646D-01 -0.112499D-01 -0.175365D-01 -0.265407D-02  0.101333D-01
     47 -0.264695D-01 -0.122679D-01  0.210065D-01 -0.791692D-03  0.116500D-01
     48 -0.409133D-01  0.155882D-01  0.174040D-01 -0.225771D-04  0.847823D-02
               21            22            23            24            25 
     21  0.324661D+01
     22  0.113745D-01  0.353259D+01
     23  0.100257D+00  0.123730D+00  0.348936D+01
     24 -0.921901D-01  0.356923D+00 -0.545520D+00  0.136553D+01
     25  0.569133D-03 -0.117048D-02 -0.835317D-02 -0.342761D-02  0.359007D+01
     26 -0.627930D-03 -0.651788D-02  0.621570D-02  0.407643D-02 -0.106023D-05
     27  0.502900D-02  0.552762D-02 -0.110284D-01 -0.143102D-01 -0.194050D-05
     28  0.259130D-02  0.112697D-02 -0.407162D-02 -0.787464D-02  0.192081D-01
     29 -0.209291D-02 -0.222526D-02  0.200175D-02  0.686364D-02  0.430323D-01
     30  0.507511D-04 -0.100819D-02  0.158447D-02  0.175480D-02  0.983193D-01
     31 -0.262302D-02 -0.424530D-02  0.400686D-02  0.659143D-02  0.192060D-01
     32 -0.389788D-02 -0.192957D-02  0.115835D-01  0.136811D-01 -0.430321D-01
     33 -0.204662D-02 -0.869237D-03  0.570060D-02  0.187242D-02 -0.983212D-01
     34  0.490385D-02  0.827198D-02  0.304777D-02 -0.133433D-01 -0.117392D-02
     35  0.458631D-02  0.937174D-02 -0.471238D-02 -0.142872D-01  0.831774D-03
     36 -0.187723D-01 -0.113473D-01 -0.187321D-02  0.809449D-02 -0.569140D-03
     37  0.113472D-01  0.385423D-01 -0.330221D-02 -0.122827D-01 -0.117009D-02
     38 -0.187351D-02  0.330071D-02 -0.171539D-01 -0.176950D-02  0.835336D-02
     39  0.809447D-02  0.122826D-01 -0.176984D-02 -0.262482D-01  0.342770D-02
     40  0.443891D-02  0.359613D-02 -0.282365D-02 -0.102160D-01  0.871011D-02
     41 -0.251575D-02 -0.214430D-02 -0.611054D-03  0.432165D-02  0.553681D-02
     42 -0.235826D-02 -0.210345D-02  0.105617D-02  0.230310D-02 -0.996002D-02
     43  0.210175D-02 -0.910821D-03  0.104551D-02 -0.227923D-02 -0.152095D-02
     44 -0.157031D-02  0.291482D-02 -0.422336D-04  0.234710D-03 -0.654708D-04
     45 -0.258169D-02  0.715070D-02 -0.485563D-02 -0.340839D-02 -0.368117D-02
     46 -0.702660D-03 -0.280078D-02  0.256605D-02  0.795049D-02 -0.152093D-02
     47 -0.520784D-03 -0.601783D-03  0.122234D-02  0.914639D-02  0.654335D-04
     48 -0.261989D-02 -0.833497D-03  0.390021D-02  0.832495D-02  0.368116D-02
               26            27            28            29            30 
     26  0.351355D+01
     27  0.100415D-01  0.110921D+01
     28  0.260288D-01  0.660452D-01  0.219216D+01
     29  0.308265D-01 -0.653091D-01  0.117226D+01  0.263914D+01
     30 -0.656281D-01 -0.451338D-01  0.310185D+00 -0.211312D+00  0.354399D+01
     31 -0.260286D-01 -0.660470D-01 -0.135164D+00 -0.749735D-02 -0.160436D-01
     32  0.308284D-01 -0.653072D-01  0.750331D-02  0.831732D-01  0.621380D-02
     33 -0.656253D-01 -0.451335D-01  0.160440D-01  0.621337D-02  0.683861D-01
     34 -0.397740D-03 -0.949783D-03 -0.165882D-02 -0.835160D-04 -0.719963D-04
     35 -0.199032D-03 -0.955331D-02 -0.728026D-02  0.928887D-02  0.107093D-02
     36 -0.627915D-03  0.502900D-02  0.262291D-02 -0.389794D-02 -0.204663D-02
     37  0.651811D-02 -0.552794D-02 -0.424536D-02  0.193002D-02  0.869398D-03
     38  0.621532D-02 -0.110282D-01 -0.400641D-02  0.115835D-01  0.570057D-02
     39  0.407633D-02 -0.143103D-01 -0.659104D-02  0.136813D-01  0.187243D-02
     40  0.894489D-02 -0.231984D-01 -0.998403D-02  0.416729D-01 -0.327128D-02
     41 -0.223976D-02 -0.378465D-02  0.165371D-01  0.217901D-01 -0.617715D-02
     42 -0.618246D-02  0.731403D-02 -0.184657D-02 -0.115911D-01 -0.176367D-01
     43  0.433469D-03 -0.139472D-01 -0.265064D-01  0.929176D-02 -0.626789D-02
     44 -0.323637D-02  0.406872D-02  0.169123D-03 -0.853797D-02 -0.180048D-01
     45 -0.181176D-02  0.180113D-01  0.121833D-01 -0.358337D-01  0.287353D-01
     46 -0.433517D-03  0.139474D-01  0.108224D-01 -0.976351D-02  0.610226D-02
     47 -0.323636D-02  0.406836D-02  0.148607D-02 -0.479210D-02 -0.115269D-02
     48 -0.181186D-02  0.180113D-01  0.110274D-01 -0.723505D-02  0.223366D-02
               31            32            33            34            35 
     31  0.219209D+01
     32 -0.117224D+01  0.263920D+01
     33 -0.310189D+00 -0.211302D+00  0.354399D+01
     34 -0.804798D-03 -0.501063D-02  0.176566D-02  0.362697D+01
     35  0.325040D-02 -0.124084D-02  0.301828D-02 -0.288903D+00  0.159891D+01
     36 -0.259135D-02 -0.209284D-02  0.507493D-04  0.827049D-01  0.921191D+00
     37  0.112715D-02  0.222529D-02  0.100824D-02  0.621757D-01  0.749889D-02
     38  0.407164D-02  0.200157D-02  0.158443D-02 -0.100709D-02  0.387453D-01
     39  0.787484D-02  0.686343D-02  0.175479D-02  0.771274D-02  0.701163D-01
     40  0.105215D-01  0.806986D-02  0.679628D-03  0.241973D-01  0.842583D-01
     41 -0.982812D-04 -0.200300D-02 -0.298142D-03  0.933125D-01 -0.755003D-01
     42 -0.253649D-02 -0.149190D-02 -0.229661D-02 -0.303602D-01  0.333038D-01
     43  0.108226D-01  0.976308D-02 -0.610230D-02 -0.265433D-02 -0.101329D-01
     44 -0.148648D-02 -0.479231D-02 -0.115253D-02  0.792080D-03  0.116503D-01
     45 -0.110276D-01 -0.723477D-02  0.223369D-02  0.228079D-04  0.847826D-02
     46 -0.265066D-01 -0.929133D-02  0.626749D-02  0.121316D-02  0.992852D-02
     47 -0.168675D-03 -0.853775D-02 -0.180050D-01  0.211287D-02  0.707729D-02
     48 -0.121842D-01 -0.358333D-01  0.287353D-01  0.100754D-02  0.480733D-02
               36            37            38            39            40 
     36  0.324662D+01
     37 -0.113720D-01  0.353258D+01
     38  0.100257D+00 -0.123732D+00  0.348936D+01
     39 -0.921902D-01 -0.356940D+00 -0.545508D+00  0.136552D+01
     40 -0.103961D-01  0.340574D-01  0.442964D-01  0.809569D-01  0.163787D+01
     41  0.214614D-02  0.342052D-01  0.370342D-01 -0.554195D-01  0.842198D+00
     42  0.665869D-01  0.958388D-01 -0.843476D-01 -0.465645D-01  0.440654D+00
     43  0.702643D-03 -0.280085D-02 -0.256593D-02 -0.795023D-02 -0.100635D-01
     44 -0.520788D-03  0.601903D-03  0.122238D-02  0.914660D-02  0.264694D-01
     45 -0.261989D-02  0.833619D-03  0.390019D-02  0.832498D-02  0.409138D-01
     46 -0.210180D-02 -0.910939D-03 -0.104550D-02  0.227925D-02  0.119413D-01
     47 -0.157026D-02 -0.291480D-02 -0.421322D-04  0.234672D-03  0.659440D-02
     48 -0.258169D-02 -0.715082D-02 -0.485543D-02 -0.340836D-02  0.701832D-02
               41            42            43            44            45 
     41  0.322375D+01
     42 -0.243525D+00  0.352854D+01
     43  0.112499D-01  0.175371D-01  0.259606D+01
     44 -0.122690D-01  0.210059D-01  0.147725D+01  0.364385D+01
     45  0.155871D-01  0.174040D-01  0.105111D+01 -0.736024D+00  0.404555D+01
     46 -0.213949D-02  0.132015D-02 -0.263742D+00 -0.195126D-01  0.111372D-01
     47 -0.301508D-02  0.585883D-03  0.195233D-01  0.146541D+00  0.127625D-01
     48 -0.775029D-03 -0.976046D-03 -0.111362D-01  0.127628D-01  0.144923D+00
               46            47            48 
     46  0.259597D+01
     47 -0.147722D+01  0.364392D+01
     48 -0.105113D+01 -0.735994D+00  0.404555D+01
 Leave Link  701 at Sun Nov 13 00:25:12 2022, MaxMem=   939524096 cpu:         6.1
 (Enter /Local/ce_dana/g09/l702.exe)
 L702 exits ... SP integral derivatives will be done elsewhere.
 Leave Link  702 at Sun Nov 13 00:25:12 2022, MaxMem=   939524096 cpu:         0.0
 (Enter /Local/ce_dana/g09/l703.exe)
 Compute integral second derivatives, UseDBF=F ICtDFT=           0.
 Integral derivatives from FoFJK, PRISM(SPDF).
 ICntrl=  10100127.
 Calling FoFJK, ICntrl=  10100127 FMM=F ISym2X=0 I1Cent= 0 IOpClX= 0 NMat=1 NMatS=1 NMatT=0.
 FoFJK:  IHMeth= 1 ICntrl=10100127 DoSepK=F KAlg= 0 I1Cent=   0 FoldK=F
 IRaf=         0 NMat=   1 IRICut=       1 DoRegI=T DoRafI=F ISym2E= 0.
 FoFCou: FMM=F IPFlag=           0 FMFlag=      100000 FMFlg1=         800
         NFxFlg=           0 DoJE=F BraDBF=F KetDBF=F FulRan=T
         wScrn=  0.000000 ICntrl=10100127 IOpCl=  0 I1Cent=           0 NGrid=           0
         NMat0=    1 NMatS0=      1 NMatT0=    0 NMatD0=    1 NMtDS0=    0 NMtDT0=    0
 Symmetry not used in FoFCou.
 FoFCou:  KetSym=F NOpSet=  1 NOpAb=1 NOp=  1.
 FoFCou:  CnvScl= 1.00D+00 Thresh= 1.00D-12 IAcrcy=      10.
 PrismS was handed   939156049 working-precision words and  4936 shell-pairs
 FoFCou: LinMIO=F DoNuc=F BraDBF=F KetDBF=F HaveP=T PDBF=F HaveZ=T HaveW=F
         NIJTC =      10 NIJTAt=       0 NIJTCD=       0 NIJTT =      10
         IJTBeg=       1 IJTEnd=      10 KLTBeg=       1 KLTEnd=      10
         IPTBeg=       1 IPTEnd=      10 IPTBCv=       1 IPTECv=      10
         IZTBeg=       1 IZTEnd=      10 IZTBCv=       1 IZTECv=      10
         IWTBeg=      11 IWTEnd=      10 IWTBCv=      11 IWTECv=      10
         INTBeg=       1 INTEnd=       0 IFTBCv=       1 IFTECv=      10
 NCel replicated for PrismC:     1
 CoulSu:  IncDef=  1024 NBBP=       12184516 NTPThr=   100 NPartT=   10 Incr=        1024 LDynOK=F.
 CoulSu:  NPrtUS=  10 ThrOK=T IAlg=1 NPAlg=1 LenDen=           0 LWGrdD=           0 DoCopy=F.
 Enter PrismC: JobTyp=22 DoJE=F Cont=F.
 PrismC:  IPart=     0 DynPar=T LinDyn=F Incr=        1024 UseFst=F UseS4=T IGathr=2.
 PrismC was handed    93827304 working-precision words and  4936 shell-pairs
 Enter PrismC: JobTyp=22 DoJE=F Cont=F.
 Enter PrismC: JobTyp=22 DoJE=F Cont=F.
 PrismC was handed    93827304 working-precision words and  4936 shell-pairs
 Enter PrismC: JobTyp=22 DoJE=F Cont=F.
 PrismC was handed    93827304 working-precision words and  4936 shell-pairs
 Enter PrismC: JobTyp=22 DoJE=F Cont=F.
 PrismC was handed    93827304 working-precision words and  4936 shell-pairs
 Enter PrismC: JobTyp=22 DoJE=F Cont=F.
 PrismC was handed    93827304 working-precision words and  4936 shell-pairs
 Enter PrismC: JobTyp=22 DoJE=F Cont=F.
 Enter PrismC: JobTyp=22 DoJE=F Cont=F.
 PrismC was handed    93827304 working-precision words and  4936 shell-pairs
 PrismC was handed    93827304 working-precision words and  4936 shell-pairs
 Enter PrismC: JobTyp=22 DoJE=F Cont=F.
 PrismC was handed    93827304 working-precision words and  4936 shell-pairs
 PrismC was handed    93827304 working-precision words and  4936 shell-pairs
 Enter PrismC: JobTyp=22 DoJE=F Cont=F.
 PrismC was handed    93827304 working-precision words and  4936 shell-pairs
 IPart=  0 NShTot=     1115927 NShNF=     1115927 NShFF=           0 NBatch=       29832 AvBLen=        37.4
 IPart=  1 NShTot=     1076968 NShNF=     1076968 NShFF=           0 NBatch=       29704 AvBLen=        36.3
 IPart=  2 NShTot=     1114789 NShNF=     1114789 NShFF=           0 NBatch=       30978 AvBLen=        36.0
 IPart=  7 NShTot=     1071872 NShNF=     1071872 NShFF=           0 NBatch=       29895 AvBLen=        35.9
 IPart=  6 NShTot=     1165987 NShNF=     1165987 NShFF=           0 NBatch=       31865 AvBLen=        36.6
 IPart=  8 NShTot=     1073476 NShNF=     1073476 NShFF=           0 NBatch=       28922 AvBLen=        37.1
 IPart=  3 NShTot=     1107631 NShNF=     1107631 NShFF=           0 NBatch=       30832 AvBLen=        35.9
 IPart=  5 NShTot=     1107464 NShNF=     1107464 NShFF=           0 NBatch=       30257 AvBLen=        36.6
 IPart=  4 NShTot=     1086248 NShNF=     1086248 NShFF=           0 NBatch=       29653 AvBLen=        36.6
 IPart=  9 NShTot=     1094538 NShNF=     1094538 NShFF=           0 NBatch=       31096 AvBLen=        35.2
 CoulSu:  NxtVal=       13123585.
 ReadGW:  IGet=0 IStart=           1 Next=           1 LGW=           0.
 Remaining memory in FofDFT      895.94 Mw
 CkSvGd:  ISavGI=        -1 IRadAn=       5 IRASav=       5 ISavGd=        -1.
 CalDSu:  NPrtUS=  10 ThrOK=T IAlg=1 NPAlg=2 DoDPD=T LenP=       30381 LenD1P=             0.
 IPart=  0 IRanGd=          0 ScrnBf=T ScrnGd=T RCrit=4.00D+00 DoMicB=T.
 IPart=  4        29948 of        33952 points in      34 batches and      197 microbatches, Max-NSigAt=      16 Max-NSgAt2=      16
 IPart=  1        32907 of        36988 points in      31 batches and      156 microbatches, Max-NSigAt=      16 Max-NSgAt2=      16
 IPart=  9        31967 of        36390 points in      35 batches and      170 microbatches, Max-NSigAt=      16 Max-NSgAt2=      16
 IPart=  7        29849 of        32526 points in      29 batches and      165 microbatches, Max-NSigAt=      16 Max-NSgAt2=      16
 IPart=  6        31068 of        36852 points in      35 batches and      194 microbatches, Max-NSigAt=      16 Max-NSgAt2=      16
 IPart=  3        30759 of        34536 points in      31 batches and      175 microbatches, Max-NSigAt=      16 Max-NSgAt2=      16
 IPart=  0        31591 of        34752 points in      29 batches and      160 microbatches, Max-NSigAt=      16 Max-NSgAt2=      16
 IPart=  8        31891 of        36366 points in      32 batches and      159 microbatches, Max-NSigAt=      16 Max-NSgAt2=      16
 IPart=  2        32561 of        37308 points in      35 batches and      183 microbatches, Max-NSigAt=      16 Max-NSgAt2=      16
 IPart=  5        31619 of        35302 points in      30 batches and      152 microbatches, Max-NSigAt=      16 Max-NSgAt2=      16
 Polarizability after L703:
                1             2             3 
      1  0.596065D+02
      2 -0.700010D-05  0.586406D+02
      3  0.115332D-04  0.415674D+00  0.579595D+02
 Dipole Derivatives after L703:
                 1             2             3             4             5 
      1   0.850880D-02  0.537335D-01  0.448185D-02  0.210290D+00  0.179297D-05
      2   0.566298D-01  0.230553D-01 -0.691834D-02  0.140694D-05  0.329233D+00
      3   0.473191D-01 -0.718217D-02  0.624622D-01  0.000000D+00  0.364561D-01
                 6             7             8             9            10 
      1   0.000000D+00  0.794252D-01 -0.196215D-05  0.000000D+00  0.850582D-02
      2  -0.361362D-01 -0.186176D-05 -0.610141D-01  0.480300D-01 -0.566294D-01
      3   0.521357D+00  0.137933D-05  0.111168D+00 -0.911858D-02 -0.473190D-01
                11            12            13            14            15 
      1  -0.537335D-01 -0.448167D-02 -0.249184D+00 -0.219954D-05  0.118487D-05
      2   0.230579D-01 -0.691766D-02 -0.242540D-05 -0.436578D+00  0.109945D+00
      3  -0.718056D-02  0.624627D-01  0.162434D-05  0.156083D+00 -0.736971D+00
                16            17            18            19            20 
      1  -0.115092D+00 -0.113864D+00 -0.600609D-01  0.456970D-01  0.350453D-01
      2  -0.565008D-01 -0.135996D-01 -0.391501D-01 -0.119135D-01 -0.101384D+00
      3  -0.286057D-01 -0.439460D-01  0.428063D-01  0.171242D-01  0.632563D-01
                21            22            23            24            25 
      1  -0.956117D-02  0.456243D-01  0.148177D-01  0.308497D-01  0.652036D-01
      2   0.966367D-01  0.775814D-02  0.543826D-01 -0.503220D-01  0.000000D+00
      3   0.268668D-01 -0.214609D-01 -0.186551D-01 -0.145845D+00  0.000000D+00
                26            27            28            29            30 
      1   0.000000D+00  0.000000D+00 -0.942428D-01  0.713273D-01  0.656010D-01
      2   0.350191D-01  0.183450D-01  0.119856D+00 -0.217721D-01 -0.351087D-01
      3  -0.406485D-01 -0.178928D+00  0.389355D-01 -0.153606D-02  0.333166D-01
                31            32            33            34            35 
      1  -0.942481D-01 -0.713253D-01 -0.656018D-01  0.456963D-01 -0.350491D-01
      2  -0.119854D+00 -0.217667D-01 -0.351068D-01  0.119097D-01 -0.101383D+00
      3  -0.389353D-01 -0.153494D-02  0.333167D-01 -0.171225D-01  0.632566D-01
                36            37            38            39            40 
      1   0.956367D-02  0.456236D-01 -0.148175D-01 -0.308514D-01 -0.115087D+00
      2   0.966362D-01 -0.775798D-02  0.543831D-01 -0.503212D-01  0.565034D-01
      3   0.268668D-01  0.214601D-01 -0.186557D-01 -0.145846D+00  0.286047D-01
                41            42            43            44            45 
      1   0.113866D+00  0.600602D-01  0.566435D-01  0.134082D+00 -0.337923D-01
      2  -0.136043D-01 -0.391518D-01  0.104168D+00  0.125982D+00 -0.352298D-01
      3  -0.439469D-01  0.428060D-01  0.158726D-01 -0.123468D+00  0.182224D+00
                46            47            48 
      1   0.566372D-01 -0.134080D+00  0.337915D-01
      2  -0.104167D+00  0.125989D+00 -0.352305D-01
      3  -0.158757D-01 -0.123467D+00  0.182223D+00
 Hessian after L703:
                1             2             3             4             5 
      1  0.502688D+00
      2  0.460409D-01  0.554374D+00
      3  0.192731D-01 -0.174112D-01  0.582578D+00
      4 -0.149241D+00  0.446790D-01  0.134741D-01  0.533385D+00
      5  0.470863D-01 -0.106738D+00 -0.101047D-01  0.000000D+00  0.500924D+00
      6  0.212341D-01 -0.128262D-01 -0.788077D-01  0.000000D+00  0.120004D-01
[...]
    Z7        1.31984   0.00000   0.00000  -0.00000  -0.00000   1.31983
    X8        1.89704   0.00000   0.00000   0.00000   0.00000   1.89704
    Y8        2.73180   0.00000   0.00000   0.00000   0.00000   2.73180
    Z8       -1.91585  -0.00000   0.00000  -0.00000  -0.00000  -1.91585
    X9       -1.68707   0.00000   0.00000   0.00000   0.00000  -1.68707
    Y9       -0.02582   0.00000   0.00000   0.00000   0.00000  -0.02582
    Z9       -3.65664   0.00000   0.00000   0.00000   0.00000  -3.65664
   X10       -3.32483   0.00000   0.00000   0.00000   0.00000  -3.32483
   Y10       -2.06484   0.00000   0.00000  -0.00000  -0.00000  -2.06484
   Z10       -1.58181  -0.00000   0.00000  -0.00000  -0.00000  -1.58181
   X11       -3.71312   0.00000   0.00000  -0.00000  -0.00000  -3.71312
   Y11        1.24242  -0.00000   0.00000  -0.00000  -0.00000   1.24242
   Z11       -1.32610  -0.00000   0.00000  -0.00000  -0.00000  -1.32610
   X12        3.29279   0.00000   0.00000   0.00000   0.00000   3.29279
   Y12       -2.19800  -0.00000   0.00000   0.00000   0.00000  -2.19799
   Z12        0.95587   0.00000   0.00000  -0.00000  -0.00000   0.95587
   X13        2.46611   0.00000   0.00000  -0.00000  -0.00000   2.46611
   Y13       -2.11526  -0.00000   0.00000  -0.00000  -0.00000  -2.11526
   Z13       -2.29061   0.00000   0.00000  -0.00000  -0.00000  -2.29061
   X14        0.80863   0.00000   0.00000   0.00000   0.00000   0.80864
   Y14       -4.10975   0.00000   0.00000  -0.00000  -0.00000  -4.10975
   Z14       -0.19519   0.00000   0.00000   0.00000   0.00000  -0.19518
   X15       -1.91201  -0.00000   0.00000  -0.00000  -0.00000  -1.91201
   Y15       -2.12016  -0.00000   0.00000   0.00000   0.00000  -2.12016
   Z15        3.01031  -0.00000   0.00000  -0.00000  -0.00000   3.01031
   X16       -2.26948  -0.00000   0.00000   0.00000   0.00000  -2.26948
   Y16        0.92457  -0.00000   0.00000   0.00000  -0.00000   0.92457
   Z16        3.24572  -0.00000   0.00000  -0.00000  -0.00000   3.24572
         Item               Value     Threshold  Converged?
 Maximum Force            0.000001     0.000450     YES
 RMS     Force            0.000000     0.000300     YES
 Maximum Displacement     0.000005     0.001800     YES
 RMS     Displacement     0.000002     0.001200     YES
 Predicted change in Energy=-1.763370D-12
 Optimization completed.
    -- Stationary point found.
 GradGradGradGradGradGradGradGradGradGradGradGradGradGradGradGradGradGrad

 Leave Link  103 at Sun Nov 13 00:30:07 2022, MaxMem=   939524096 cpu:         0.1
 (Enter /Local/ce_dana/g09/l9999.exe)

 Test job not archived.
 1\1\GINC-TECH-WN196\Freq\RB2PLYPD3-FC\def2TZVP\C4H11N1\ALONGD\13-Nov-2
 022\0\\#P guess=read b2plypd3/def2tzvp freq IOp(7/33=1) scf=(tight, di
 rect) integral=(grid=ultrafine, Acc2E=12) IOp(2/9=2000) scf=xqc\\2-Met
 hyl-2-propanamine\\0,1\C,0.620551,1.278522,-0.00644\C,-0.079324,-0.074
 953,0.092831\C,-1.241067,-0.134041,-0.907035\C,0.911518,-1.199761,-0.1
 98056\N,-0.529632,-0.235457,1.484938\H,-0.072805,2.090029,0.226459\H,1
 .450003,1.32791,0.698427\H,1.003869,1.445605,-1.013822\H,-0.892757,-0.
 013666,-1.93501\H,-1.759424,-1.092667,-0.837059\H,-1.9649,0.657461,-0.
 701742\H,1.742467,-1.163129,0.505824\H,1.305011,-1.119345,-1.21214\H,0
 .427911,-2.174785,-0.103289\H,-1.011793,-1.121941,1.592987\H,-1.200959
 ,0.48926,1.717562\\Version=ES64L-G09RevD.01\State=1-A\HF=-213.3886697\
 MP2=-213.6824751\RMSD=5.169e-09\RMSF=2.948e-07\ZeroPoint=0.1490268\The
 rmal=0.1558062\Dipole=-0.3795412,-0.0223555,-0.2871916\DipoleDeriv=0.0
 353741,-0.049848,-0.0090496,-0.0615818,-0.0067527,0.0292083,-0.0053927
 ,-0.011931,0.065405,0.335289,0.0202651,-0.072292,0.0147073,0.2144713,-
 0.0317471,-0.0004065,-0.0233075,0.5111191,-0.0262467,-0.0035303,-0.114
 7998,-0.0083646,0.0787521,-0.0039961,-0.0522762,0.0033447,-0.0432129,0
 .0080059,0.0530963,0.0070765,0.0648701,0.0248264,-0.0379126,0.0028979,
 0.0031655,0.0611941,-0.3944365,-0.0103318,-0.0869383,-0.0138642,-0.253
 1671,0.0304579,-0.0412495,0.0358222,-0.7751294,-0.0501518,0.1283859,0.
 0413072,0.0662655,-0.0881534,-0.0243725,0.033981,-0.0441285,0.0524194,
 -0.0605785,-0.038278,-0.0868895,0.0045009,0.0426586,0.013542,-0.112688
 9,-0.0256477,-0.0109004,0.0357613,-0.0262126,0.0555731,-0.010849,0.040
 0612,-0.0033047,0.0824948,0.0498762,-0.1216609,0.0226443,-0.0112251,0.
 0805546,-0.0067082,0.0623165,0.0271534,0.0221356,0.0202946,-0.1636656,
 -0.0036155,-0.071246,-0.0178601,-0.1155742,-0.1214584,0.0004453,0.0079
 768,0.0399503,0.0423756,-0.0517091,0.0884328,-0.0022156,0.1276199,-0.0
 638594,-0.0231941,0.0384382,-0.0548926,0.0328704,-0.0661626,0.0253778,
 -0.0774984,-0.0122897,0.0486335,-0.0240601,-0.1178088,0.0073678,-0.011
 2907,0.0302186,0.0148142,0.0534792,-0.0053985,0.046285,0.0420292,0.089
 2734,-0.0037886,-0.1223424,-0.0075017,-0.1127749,0.0187641,-0.04992,-0
 .1386033,0.0049192,0.0165927,0.0235601,0.0602193,0.1230946,-0.1246386,
 0.0966444,-0.0990697,0.0355952,-0.0065125,0.0170937,-0.0710514,0.20615
 95,0.0700148,0.1177134,0.1141442,0.1056562,0.0783945,0.0073445,0.01893
 86,0.0513658,0.2164401\Polar=58.7876653,-0.0765327,59.5892012,-0.25364
 81,0.1075979,57.8297988\PG=C01 [X(C4H11N1)]\NImag=0\\0.55936084,-0.042
 92314,0.49090880,0.00599477,0.00328637,0.58936975,-0.09946058,-0.04467
 009,-0.00025951,0.50521479,-0.04091364,-0.16067911,-0.00193646,-0.0027
 4341,0.53279328,0.00191163,0.00545234,-0.07464706,-0.00728890,0.003490
 07,0.47717651,-0.01847197,-0.00615665,-0.01285054,-0.13865178,-0.00321
 750,-0.04900935,0.51057406,-0.02734758,-0.00513812,-0.02010726,-0.0036
 6638,-0.07911857,-0.00367035,-0.00341001,0.57950834,-0.00374140,-0.003
 69035,0.00155797,-0.04320360,-0.00298872,-0.10592103,-0.06083181,-0.00
 293525,0.52527298,0.01011976,-0.00800538,-0.00338144,-0.12182918,0.048
 93847,0.01151131,-0.02564975,0.02321743,-0.00049065,0.53674363,0.01892
 640,-0.03371672,-0.00634633,0.05311162,-0.13605686,-0.01523719,0.00394
 853,-0.00116482,0.00222875,0.05190797,0.51634182,-0.00206727,0.0001963
 5,0.00103809,0.00829259,-0.00848119,-0.07689997,-0.01624031,0.01572708
 ,0.00476253,0.01558244,-0.01393983,0.58655308,-0.00775804,-0.00602551,
 0.01995062,-0.07680995,-0.00204412,0.06111365,0.00891970,0.00253013,-0
 .02127509,-0.01211392,0.00093493,0.02852865,0.40607409,-0.01591324,-0.
 00985519,0.03761917,0.00188590,-0.10041796,0.01285002,0.00006310,0.001
 29769,0.00116368,0.01301264,0.00049080,-0.03006008,-0.01988540,0.68321
 421,0.00838417,0.00661387,-0.01329992,0.01028442,0.00688234,-0.1730422
 0,0.01063250,0.00490984,-0.04597623,0.01177054,-0.00238030,-0.01928997
 ,-0.16801640,0.00711684,0.33891857,-0.15653734,0.12362843,0.03650346,0
 .00841717,-0.01188625,-0.00330344,0.00124182,-0.00026409,0.00011638,-0
 .00064727,-0.00247205,0.00013677,0.00100934,0.00013167,-0.00128089,0.1
 6810978,0.12231998,-0.18657428,-0.04083572,0.02115113,-0.02302273,-0.0
 0709377,0.00165169,0.00096528,0.00056753,-0.00472432,-0.00475971,0.001
 06547,0.00077561,0.00207415,-0.00122081,-0.13430533,0.20658309,0.03593
 371,-0.04110731,-0.05970951,-0.00119113,0.00179349,-0.00154632,0.00039
 215,-0.00043739,-0.00024069,-0.00015016,0.00038077,0.00001833,-0.00072
 152,0.00049649,0.00057070,-0.04036645,0.04539669,0.06018761,-0.2021502
 2,-0.00664015,-0.13166270,-0.01317509,0.00016636,-0.01080545,-0.000709
 08,-0.00362534,0.00141395,0.00049189,0.00111434,0.00030705,0.00103191,
 0.00141331,0.00004484,-0.01539876,-0.00146440,-0.01333947,0.21854900,-
 0.00483131,-0.04732960,-0.00472119,-0.02329594,-0.00218560,-0.02057767
 ,-0.00217127,-0.00549045,0.00119168,-0.00104510,0.00164663,-0.00072458
 ,0.00143801,0.00169184,-0.00081531,0.01774938,0.00103104,0.01655486,0.
 00883155,0.05178807,-0.13325015,-0.00660244,-0.16102958,0.00181471,0.0
 0042282,-0.00061930,0.00051528,-0.00038305,0.00053210,0.00003406,0.000
 13905,-0.00017437,0.00058744,0.00038883,0.00095518,0.00687762,0.000671
 20,0.00522062,0.14619356,0.00688202,0.17157742,-0.08008680,-0.01397499
 ,0.08431341,-0.00601782,0.00050651,0.01394918,0.00017039,0.00040903,0.
 00060740,0.00020500,0.00085045,-0.00023693,-0.00099726,-0.00353332,0.0
 0018794,-0.00768944,-0.00398829,0.01949559,0.01053427,0.00379742,-0.02
 309102,0.08326944,-0.01327950,-0.05310473,0.03313339,-0.00791770,-0.00
 201154,0.02735447,0.00065924,0.00081155,0.00043286,-0.00019023,0.00151
 681,0.00090312,-0.00286330,-0.00655431,0.00115752,0.00770261,0.0039100
 6,-0.02317437,0.00072889,-0.00100410,-0.00119116,0.01648456,0.05683252
 ,0.08574282,0.03569936,-0.27532599,-0.00081001,-0.00146048,-0.00334291
 ,-0.00025798,-0.00039973,-0.00004713,-0.00011126,-0.00040841,-0.000027
 11,0.00055212,0.00185266,0.00109553,0.00141702,0.00088895,-0.00569164,
 0.00841252,0.00255554,-0.01761127,-0.09462319,-0.03882312,0.29917235,0
 .00080849,0.00036793,0.00023264,0.00994010,0.00295994,-0.02014777,-0.0
 7762735,-0.00979574,0.08163008,0.00089708,-0.00017860,0.00011194,-0.00
 205062,0.00011619,-0.00676133,-0.00005803,-0.00010282,0.00006999,0.000
 16690,0.00027511,0.00016358,-0.00024231,-0.00037323,-0.00013669,0.0813
 2788,0.00011893,-0.00002186,-0.00033650,0.00052315,-0.00185104,-0.0011
 6662,-0.00968087,-0.05119693,0.02728807,-0.00007915,-0.00010657,0.0003
 2513,-0.00000858,0.00142949,-0.00023355,0.00001549,-0.00001851,-0.0001
 1029,0.00011137,-0.00004834,0.00013297,-0.00043219,0.00001735,-0.00021
 504,0.01087402,0.05061043,0.00110531,0.00046708,0.00027010,0.01136859,
 0.00253359,-0.01750814,0.08014431,0.02711364,-0.27692862,0.00117357,-0
 .00025135,0.00026621,-0.00514758,-0.00004409,-0.00583390,-0.00012330,0
 .00003828,-0.00003777,-0.00009780,0.00008331,0.00038562,-0.00061135,-0
 .00054240,0.00062833,-0.08851413,-0.03017795,0.30290172,-0.00385489,0.
 00115243,-0.00404156,-0.01340046,-0.02356227,0.00330379,-0.10321307,-0
 .10668950,0.00915160,0.00107671,-0.00147928,0.00060438,0.00123049,0.00
 110137,0.00210783,0.00022759,-0.00014108,-0.00010945,-0.00063561,-0.00
 177310,-0.00025079,0.00022733,0.00039141,-0.00001180,-0.00549475,-0.00
 895846,0.00019642,0.11250978,-0.00057879,0.00133303,-0.00112959,-0.000
 09331,-0.00308091,0.00172273,-0.10754316,-0.25139791,0.01721287,0.0005
 6271,0.00061103,0.00011100,0.00132565,0.00115770,-0.00048044,0.0001307
 6,0.00042058,0.00020653,-0.00039242,-0.00003705,0.00003299,0.00020804,
 0.00006681,0.00007509,-0.00058037,-0.00238768,-0.00004299,0.11895018,0
 .27245937,-0.00317263,0.00024598,-0.00296973,-0.01031842,-0.01955629,-
 0.00033647,0.01013384,0.01782222,-0.04865947,0.00107021,-0.00056932,0.
 00034251,0.00052211,-0.00056681,0.00273938,0.00010130,0.00027607,-0.00
 006270,-0.00092404,-0.00114974,0.00042687,-0.00021410,-0.00004792,0.00
 031862,0.01378113,0.02778839,-0.00121970,-0.00762521,-0.01907638,0.050
 52820,0.00087357,0.00143948,0.00083218,-0.01834350,0.01945720,0.006963
 88,-0.15857084,0.12451652,0.03410598,-0.00357961,-0.00164065,-0.004482
 89,0.00181211,-0.00123011,0.00179120,0.00006480,-0.00102513,-0.0003561
 4,0.00046337,-0.00020449,-0.00003690,-0.00008471,-0.00001102,-0.000045
 10,-0.00710984,0.00720188,0.00139452,0.01074865,-0.01157599,-0.0035670
 5,0.17384850,-0.00063711,0.00070714,0.00010028,-0.00129209,-0.00068362
 ,-0.00093582,0.12520039,-0.18702792,-0.03809627,-0.00008599,0.00095515
 ,0.00076081,-0.00120977,0.00041626,0.00062375,-0.00004324,0.00044009,-
 0.00015175,0.00001508,0.00013427,0.00013502,-0.00005802,-0.00003375,0.
 00010827,-0.00363346,0.00314192,0.00082228,0.01935832,-0.01991216,-0.0
 0599539,-0.13809089,0.20119040,0.00081365,0.00083311,0.00044953,-0.014
 58892,0.01621341,0.00220929,0.03531991,-0.03844777,-0.05767143,-0.0030
 6837,-0.00034667,-0.00286713,0.00021304,0.00033866,0.00289920,0.000124
 80,-0.00028466,0.00013811,0.00019654,0.00017783,-0.00004328,0.00004939
 ,-0.00016981,-0.00002058,0.01959074,-0.02327782,-0.00513421,-0.0021409
 1,0.00222948,-0.00049501,-0.03536182,0.04238300,0.06045817,0.00057192,
 -0.00137363,-0.00009074,-0.01800866,-0.00154410,-0.01535617,-0.0022241
 2,0.00408888,0.00234675,-0.20113490,-0.00926753,-0.13142370,0.00171488
 ,-0.00137382,-0.00037030,0.00016756,-0.00013210,0.00028831,0.00069564,
 0.00052343,0.00017238,0.00000872,0.00005445,0.00009991,0.00024417,-0.0
 0003260,-0.00007933,0.00040737,0.00001160,0.00022859,-0.00111362,0.000
 31254,-0.00110190,0.21877176,0.00078651,0.00143096,0.00100845,0.019355
 52,-0.00023669,0.01720719,0.00281617,-0.00376494,-0.00153970,-0.010780
 94,-0.04801411,-0.00854951,-0.00150194,0.00092457,0.00082582,-0.000257
 82,0.00028913,-0.00014743,-0.00026160,-0.00046874,-0.00037371,-0.00003
 775,-0.00008686,0.00002331,-0.00023494,-0.00008326,-0.00017153,0.00026
 475,0.00022959,-0.00009008,0.00155388,0.00029943,0.00085545,0.00791768
 ,0.05127161,0.00017316,0.00014376,-0.00003873,0.00516828,0.00009808,0.
 00226541,0.00089982,-0.00024037,0.00032162,-0.13365711,-0.00711686,-0.
 16136190,0.00042479,-0.00022126,0.00103948,0.00022839,0.00009582,0.000
 07930,0.00003464,0.00028249,0.00025941,-0.00014348,0.00002079,-0.00006
 942,0.00015853,-0.00016258,0.00034327,0.00002764,-0.00009826,-0.000082
 60,0.00002696,-0.00011571,0.00056840,0.14589805,0.00876636,0.17187252,
 0.00041839,-0.00108524,-0.00019738,-0.00713118,-0.00477900,0.01944148,
 0.00044984,-0.00058786,0.00059969,-0.08159606,-0.00693492,0.08617231,-
 0.00269916,0.00427949,0.00117972,-0.00009841,-0.00012487,-0.00021688,0
 .00000680,0.00008002,-0.00012551,0.00042797,0.00026635,-0.00024570,-0.
 00042478,0.00043685,-0.00064226,-0.00009763,0.00003883,0.00001640,0.00
 034935,-0.00010661,-0.00023886,0.01067898,0.00255615,-0.02312826,0.085
 72589,-0.00005247,0.00134989,-0.00072139,0.00629751,0.00270139,-0.0225
 4211,-0.00068909,0.00051399,-0.00018098,-0.00788469,-0.04951757,0.0222
 0721,0.00354971,-0.00425502,-0.00196699,-0.00009788,0.00028972,0.00022
 786,-0.00004806,-0.00007714,-0.00005397,-0.00001965,-0.00046287,0.0003
 0817,0.00030078,0.00011162,0.00030042,0.00000176,-0.00002999,0.0001752
 0,-0.00032070,-0.00003972,-0.00005248,0.00074481,-0.00106464,-0.001696
 01,0.00631813,0.05179961,-0.00022077,0.00060215,-0.00007358,-0.0001032
 0,0.00224532,-0.00694249,-0.00046181,0.00042538,-0.00002902,0.08803166
 ,0.02002737,-0.27740255,0.00158825,-0.00257142,0.00049814,-0.00013732,
 -0.00009037,0.00030601,0.00009504,-0.00000202,-0.00007721,-0.00017228,
 -0.00050552,0.00047393,-0.00011954,0.00009016,0.00071653,-0.00001752,-
 0.00011796,-0.00001142,-0.00004389,-0.00012884,0.00030314,0.00848228,0
 .00196728,-0.01769542,-0.09738751,-0.02235583,0.30174749,-0.00247166,0
 .00290544,0.00087356,0.00872312,0.01992336,-0.00203306,0.00154690,0.00
 037189,0.00027167,-0.10207898,-0.10586086,0.01094351,0.00123127,-0.000
 09637,-0.00157217,0.00080411,0.00120464,0.00005257,0.00009535,0.000174
 12,0.00027360,-0.00013318,0.00001655,-0.00014580,-0.00007671,-0.000009
 71,-0.00011326,-0.00016042,-0.00010451,0.00004588,0.00023726,-0.000200
 27,0.00012792,-0.01091396,-0.02174618,0.00388144,-0.00597075,-0.009751
 74,0.00011093,0.10891059,0.00518700,-0.00262770,-0.00150391,-0.0132051
 9,-0.02352829,0.00299505,-0.00154537,0.00064630,-0.00036095,-0.1044765
 5,-0.25097526,0.02075809,-0.00084815,0.00174665,0.00108469,-0.00060544
 ,-0.00170376,0.00003489,0.00004511,0.00033860,-0.00000101,0.00004963,0
 .00035123,0.00006194,0.00008055,-0.00001036,-0.00006321,0.00093642,0.0
 0059418,0.00035906,0.00010158,0.00047215,-0.00016468,0.00002527,-0.000
 61166,0.00005426,-0.00051094,-0.00172644,0.00008315,0.11369276,0.27668
 341,0.00078163,-0.00086368,-0.00028929,-0.00296600,-0.00575373,-0.0013
 4678,0.00001485,0.00064619,-0.00022679,0.01053175,0.02091447,-0.049766
 76,-0.00073671,-0.00046885,0.00067627,-0.00003644,-0.00039906,0.000614
 23,0.00025612,0.00024722,0.00010203,-0.00014490,-0.00026552,0.00027927
 ,0.00005627,0.00012796,-0.00002725,-0.00023691,0.00013648,0.00020924,-
 0.00004945,-0.00014071,-0.00012393,-0.00898110,-0.01971318,0.00237857,
 0.01372071,0.02786685,-0.00177384,-0.01259676,-0.02238913,0.04928637,-
 0.00124491,0.00058250,0.00422751,-0.00834747,-0.01084278,-0.00570705,0
 .00085529,0.00125344,-0.00010824,-0.00004097,-0.00117959,-0.00050066,-
 0.12045803,-0.17543013,0.04602166,0.00019961,-0.00007332,-0.00014583,0
 .00044224,0.00043229,-0.00001173,-0.00001118,-0.00142835,0.00055132,-0
 .00014270,-0.00010627,0.00003580,0.00043819,-0.00023073,-0.00003026,-0
 .00004309,0.00018882,-0.00007167,-0.00042014,-0.00012316,0.00010319,0.
 00034069,0.00043852,-0.00038287,0.00006358,0.00101970,0.00056546,0.119
 09921,0.00002414,0.00131445,0.00207053,-0.00387884,-0.00501452,-0.0019
 8132,0.00103093,0.00052143,-0.00144877,0.00044908,0.00182470,-0.000402
 93,-0.13670553,-0.33150885,0.03188828,0.00003617,0.00040045,-0.0001671
 6,0.00014312,0.00008026,-0.00012673,-0.00037405,-0.00002742,-0.0000015
 8,-0.00004348,0.00028232,-0.00060393,0.00039348,0.00021611,0.00060690,
 0.00002317,-0.00023358,0.00019151,0.00010083,-0.00004185,0.00009648,0.
 00009820,-0.00016144,0.00014182,-0.00048405,-0.00002131,-0.00013809,0.
 15775008,0.35770230,0.00177575,-0.00024347,-0.00636205,0.01805016,0.03
 499499,-0.00743164,0.00070960,0.00142778,0.00163576,-0.00031380,0.0011
 0515,0.00116275,0.02718451,0.00415929,-0.04098655,-0.00028897,-0.00004
 407,-0.00004173,0.00022088,-0.00013452,0.00011342,0.00111268,0.0017144
 8,0.00017539,0.00000057,-0.00053060,0.00050606,-0.00078724,-0.00080058
 ,-0.00057730,-0.00016157,-0.00007435,-0.00012572,-0.00028265,-0.000228
 01,-0.00003396,-0.00046137,-0.00014610,0.00001218,0.00018434,-0.000986
 33,0.00001602,-0.04002042,-0.03248399,0.05197845,-0.00011656,0.0007785
 7,-0.00044427,-0.01111951,0.00958123,-0.00454372,0.00135995,-0.0010008
 1,-0.00059272,-0.00086343,-0.00178075,0.00427215,-0.20013680,0.1954587
 2,0.08559628,0.00018746,-0.00102140,0.00036472,-0.00040861,0.00001991,
 0.00013387,0.00041957,-0.00024074,-0.00038818,-0.00015753,0.00002615,-
 0.00008951,-0.00000928,-0.00012848,-0.00004775,0.00044761,0.00028230,0
 .00013647,0.00055441,-0.00030634,-0.00009603,-0.00037994,0.00121306,0.
 00073855,0.00019346,0.00005362,-0.00017853,0.00926966,-0.01856324,-0.0
 0692249,0.20075956,-0.00088619,0.00200305,0.00042016,-0.00156189,0.002
 39278,0.00213298,-0.00095613,0.00003508,0.00115554,-0.00081596,0.00092
 467,0.00010385,0.16053826,-0.24185203,-0.05400554,0.00053761,-0.000324
 59,0.00020411,-0.00013717,-0.00006969,-0.00007281,0.00011261,-0.000220
 77,-0.00026492,-0.00003187,0.00013143,0.00053884,0.00005359,-0.0002427
 0,-0.00022189,-0.00019474,0.00017393,-0.00047858,-0.00005570,-0.000072
 53,0.00009300,0.00005545,0.00056861,0.00018933,-0.00003508,0.00037225,
 0.00019276,0.02774899,-0.02533304,-0.00772967,-0.18437180,0.26151355,-
 0.00016438,-0.00103312,0.00105999,0.02575094,-0.02849726,-0.01206690,0
 .00088954,-0.00145097,0.00161744,0.00146726,0.00180069,-0.00635372,0.0
 5523213,-0.03205314,-0.05096367,0.00003107,0.00096844,0.00019544,-0.00
 034569,0.00015008,-0.00001765,-0.00047832,0.00000320,-0.00000737,-0.00
 011600,0.00045827,0.00067177,-0.00017027,0.00001904,-0.00015041,-0.001
 00992,0.00070545,-0.00054453,0.00016963,0.00015929,0.00015404,0.001513
 42,-0.00136984,-0.00005189,-0.00030438,0.00003809,-0.00000738,-0.00452
 620,0.00235897,-0.00004106,-0.07793884,0.05774284,0.06650591\\-0.00000
 042,-0.00000043,-0.00000076,0.00000032,0.00000013,-0.00000041,0.000000
 22,-0.00000004,0.00000057,0.00000023,0.00000021,0.00000033,0.00000025,
 -0.00000024,0.00000024,-0.00000006,0.00000010,-0.00000006,0.00000041,0
 .00000009,-0.00000005,-0.00000030,-0.00000005,0.00000002,-0.00000030,-
 0.00000003,-0.00000010,-0.00000030,-0.00000021,0.00000038,-0.00000042,
 0.00000017,0.00000044,-0.00000003,0.00000002,-0.00000048,-0.00000012,0
 .00000005,-0.00000055,-0.00000019,-0.00000011,-0.00000011,0.00000048,0
 .00000023,0.00000023,0.00000025,0.00000012,0.00000031\\\@


 REPARTEE - WHAT YOU THINK OF AFTER YOU BECOME A DEPARTEE.
 Job cpu time:       0 days  6 hours 38 minutes 15.7 seconds.
 File lengths (MBytes):  RWF=   9613 Int=      0 D2E=      0 Chk=      6 Scr=      1
 Normal termination of Gaussian 09 at Sun Nov 13 00:30:09 2022.
