 Entering Gaussian System, Link 0=g03
 Input=BenzylRot1.gjf
 Output=BenzylRot1.log
 Initial command:
 /opt/g03/l1.exe /scratch/laitcl/Gau-19409.inp -scrdir=/scratch/laitcl/
 Entering Link 1 = /opt/g03/l1.exe PID=     19411.
  
 Copyright (c) 1988,1990,1992,1993,1995,1998,2003,2004, Gaussian, Inc.
                  All Rights Reserved.
  
 This is the Gaussian(R) 03 program.  It is based on the
 the Gaussian(R) 98 system (copyright 1998, Gaussian, Inc.),
 the Gaussian(R) 94 system (copyright 1995, Gaussian, Inc.),
 the Gaussian 92(TM) system (copyright 1992, Gaussian, Inc.),
 the Gaussian 90(TM) system (copyright 1990, Gaussian, Inc.),
 the Gaussian 88(TM) system (copyright 1988, Gaussian, Inc.),
 the Gaussian 86(TM) system (copyright 1986, Carnegie Mellon
 University), and the Gaussian 82(TM) system (copyright 1983,
 Carnegie Mellon University). Gaussian is a federally registered
 trademark of Gaussian, Inc.
  
 This software contains proprietary and confidential information,
 including trade secrets, belonging to Gaussian, Inc.
  
 This software is provided under written license and may be
 used, copied, transmitted, or stored only in accord with that
 written license.
  
 The following legend is applicable only to US Government
 contracts under FAR:
  
                    RESTRICTED RIGHTS LEGEND
  
 Use, reproduction and disclosure by the US Government is
 subject to restrictions as set forth in subparagraphs (a)
 and (c) of the Commercial Computer Software - Restricted
 Rights clause in FAR 52.227-19.
  
 Gaussian, Inc.
 340 Quinnipiac St., Bldg. 40, Wallingford CT 06492
  
  
 ---------------------------------------------------------------
 Warning -- This program may not be used in any manner that
 competes with the business of Gaussian, Inc. or will provide
 assistance to any competitor of Gaussian, Inc.  The licensee
 of this program is prohibited from giving any competitor of
 Gaussian, Inc. access to this program.  By using this program,
 the user acknowledges that Gaussian, Inc. is engaged in the
 business of creating and licensing software in the field of
 computational chemistry and represents and warrants to the
 licensee that it is not a competitor of Gaussian, Inc. and that
 it will not use this program in any manner prohibited above.
 ---------------------------------------------------------------
  

 Cite this work as:
 Gaussian 03, Revision D.01,
 M. J. Frisch, G. W. Trucks, H. B. Schlegel, G. E. Scuseria, 
 M. A. Robb, J. R. Cheeseman, J. A. Montgomery, Jr., T. Vreven, 
 K. N. Kudin, J. C. Burant, J. M. Millam, S. S. Iyengar, J. Tomasi, 
 V. Barone, B. Mennucci, M. Cossi, G. Scalmani, N. Rega, 
 G. A. Petersson, H. Nakatsuji, M. Hada, M. Ehara, K. Toyota, 
 R. Fukuda, J. Hasegawa, M. Ishida, T. Nakajima, Y. Honda, O. Kitao, 
 H. Nakai, M. Klene, X. Li, J. E. Knox, H. P. Hratchian, J. B. Cross, 
 V. Bakken, C. Adamo, J. Jaramillo, R. Gomperts, R. E. Stratmann, 
 O. Yazyev, A. J. Austin, R. Cammi, C. Pomelli, J. W. Ochterski, 
 P. Y. Ayala, K. Morokuma, G. A. Voth, P. Salvador, J. J. Dannenberg, 
 V. G. Zakrzewski, S. Dapprich, A. D. Daniels, M. C. Strain, 
 O. Farkas, D. K. Malick, A. D. Rabuck, K. Raghavachari, 
 J. B. Foresman, J. V. Ortiz, Q. Cui, A. G. Baboul, S. Clifford, 
 J. Cioslowski, B. B. Stefanov, G. Liu, A. Liashenko, P. Piskorz, 
 I. Komaromi, R. L. Martin, D. J. Fox, T. Keith, M. A. Al-Laham, 
 C. Y. Peng, A. Nanayakkara, M. Challacombe, P. M. W. Gill, 
 B. Johnson, W. Chen, M. W. Wong, C. Gonzalez, and J. A. Pople, 
 Gaussian, Inc., Wallingford CT, 2004.
 
 ******************************************
 Gaussian 03:  AM64L-G03RevD.01 13-Oct-2005
                 7-Mar-2017 
 ******************************************
 %chk=BenzylRot1.chk
 %mem=1000mb
 %nproc=8
 Will use up to    8 processors via shared memory.
 ---------------------------------
 # opt=(addred) b3lyp/cbsb7 nosymm
 ---------------------------------
 1/14=-1,18=120,26=3,38=1/1,3;
 2/9=110,15=1,17=6,18=5,40=1/2;
 3/5=4,6=6,7=700,11=2,16=1,25=1,30=1,74=-5/1,2,3;
 4//1;
 5/5=2,38=5/2;
 6/7=2,8=2,9=2,10=2,28=1/1;
 7/30=1/1,2,3,16;
 1/14=-1,18=20/3(3);
 2/9=110,15=1/2;
 6/7=2,8=2,9=2,10=2,19=2,28=1/1;
 99//99;
 2/9=110,15=1/2;
 3/5=4,6=6,7=700,11=2,16=1,25=1,30=1,74=-5/1,2,3;
 4/5=5,16=3/1;
 5/5=2,38=5/2;
 7/30=1/1,2,3,16;
 1/14=-1,18=20/3(-5);
 2/9=110,15=1/2;
 6/7=2,8=2,9=2,10=2,19=2,28=1/1;
 99/9=1/99;
 --------------------------
 Benzyl Rot1 Hindered Rotor
 --------------------------
 Symbolic Z-matrix:
 Charge =  0 Multiplicity = 2
 C                     0.        0.       -1.90931 
 C                     0.        1.20973  -1.20462 
 C                     0.        1.21637   0.17817 
 C                     0.        0.        0.92089 
 C                     0.       -1.21637   0.17817 
 C                     0.       -1.20973  -1.20462 
 H                     0.        0.       -2.99302 
 H                     0.        2.14897  -1.74692 
 H                     0.        2.15757   0.71765 
 H                     0.       -2.15757   0.71765 
 H                     0.       -2.14897  -1.74692 
 C                     0.        0.        2.32493 
 H                     0.        0.92727   2.88399 
 H                     0.       -0.92727   2.88399 
 
 The following ModRedundant input section has been read:
 D    3    4   12   13 S  36 10.000                                            

 GradGradGradGradGradGradGradGradGradGradGradGradGradGradGradGradGradGrad
 Berny optimization.
 Initialization pass.
                           ----------------------------
                           !    Initial Parameters    !
                           ! (Angstroms and Degrees)  !
 --------------------------                            --------------------------
 ! Name  Definition              Value          Derivative Info.                !
 --------------------------------------------------------------------------------
 ! R1    R(1,2)                  1.4            estimate D2E/DX2                !
 ! R2    R(1,6)                  1.4            estimate D2E/DX2                !
 ! R3    R(1,7)                  1.0837         estimate D2E/DX2                !
 ! R4    R(2,3)                  1.3828         estimate D2E/DX2                !
 ! R5    R(2,8)                  1.0846         estimate D2E/DX2                !
 ! R6    R(3,4)                  1.4252         estimate D2E/DX2                !
 ! R7    R(3,9)                  1.0848         estimate D2E/DX2                !
 ! R8    R(4,5)                  1.4252         estimate D2E/DX2                !
 ! R9    R(4,12)                 1.404          estimate D2E/DX2                !
 ! R10   R(5,6)                  1.3828         estimate D2E/DX2                !
 ! R11   R(5,10)                 1.0848         estimate D2E/DX2                !
 ! R12   R(6,11)                 1.0846         estimate D2E/DX2                !
 ! R13   R(12,13)                1.0828         estimate D2E/DX2                !
 ! R14   R(12,14)                1.0828         estimate D2E/DX2                !
 ! A1    A(2,1,6)              119.5568         estimate D2E/DX2                !
 ! A2    A(2,1,7)              120.2216         estimate D2E/DX2                !
 ! A3    A(6,1,7)              120.2216         estimate D2E/DX2                !
 ! A4    A(1,2,3)              120.4967         estimate D2E/DX2                !
 ! A5    A(1,2,8)              119.7771         estimate D2E/DX2                !
 ! A6    A(3,2,8)              119.7262         estimate D2E/DX2                !
 ! A7    A(2,3,4)              121.1333         estimate D2E/DX2                !
 ! A8    A(2,3,9)              120.0957         estimate D2E/DX2                !
 ! A9    A(4,3,9)              118.771          estimate D2E/DX2                !
 ! A10   A(3,4,5)              117.1832         estimate D2E/DX2                !
 ! A11   A(3,4,12)             121.4084         estimate D2E/DX2                !
 ! A12   A(5,4,12)             121.4084         estimate D2E/DX2                !
 ! A13   A(4,5,6)              121.1333         estimate D2E/DX2                !
 ! A14   A(4,5,10)             118.771          estimate D2E/DX2                !
 ! A15   A(6,5,10)             120.0957         estimate D2E/DX2                !
 ! A16   A(1,6,5)              120.4967         estimate D2E/DX2                !
 ! A17   A(1,6,11)             119.7771         estimate D2E/DX2                !
 ! A18   A(5,6,11)             119.7262         estimate D2E/DX2                !
 ! A19   A(4,12,13)            121.0862         estimate D2E/DX2                !
 ! A20   A(4,12,14)            121.0862         estimate D2E/DX2                !
 ! A21   A(13,12,14)           117.8276         estimate D2E/DX2                !
 ! D1    D(6,1,2,3)              0.0            estimate D2E/DX2                !
 ! D2    D(6,1,2,8)            180.0            estimate D2E/DX2                !
 ! D3    D(7,1,2,3)            180.0            estimate D2E/DX2                !
 ! D4    D(7,1,2,8)              0.0            estimate D2E/DX2                !
 ! D5    D(2,1,6,5)              0.0            estimate D2E/DX2                !
 ! D6    D(2,1,6,11)           180.0            estimate D2E/DX2                !
 ! D7    D(7,1,6,5)            180.0            estimate D2E/DX2                !
 ! D8    D(7,1,6,11)             0.0            estimate D2E/DX2                !
 ! D9    D(1,2,3,4)              0.0            estimate D2E/DX2                !
 ! D10   D(1,2,3,9)            180.0            estimate D2E/DX2                !
 ! D11   D(8,2,3,4)            180.0            estimate D2E/DX2                !
 ! D12   D(8,2,3,9)              0.0            estimate D2E/DX2                !
 ! D13   D(2,3,4,5)              0.0            estimate D2E/DX2                !
 ! D14   D(2,3,4,12)           180.0            estimate D2E/DX2                !
 ! D15   D(9,3,4,5)            180.0            estimate D2E/DX2                !
 ! D16   D(9,3,4,12)             0.0            estimate D2E/DX2                !
 ! D17   D(3,4,5,6)              0.0            estimate D2E/DX2                !
 ! D18   D(3,4,5,10)           180.0            estimate D2E/DX2                !
 ! D19   D(12,4,5,6)           180.0            estimate D2E/DX2                !
 ! D20   D(12,4,5,10)            0.0            estimate D2E/DX2                !
 ! D21   D(3,4,12,13)            0.0            Scan                            !
 ! D22   D(3,4,12,14)          180.0            estimate D2E/DX2                !
 ! D23   D(5,4,12,13)          180.0            estimate D2E/DX2                !
 ! D24   D(5,4,12,14)            0.0            estimate D2E/DX2                !
 ! D25   D(4,5,6,1)              0.0            estimate D2E/DX2                !
 ! D26   D(4,5,6,11)           180.0            estimate D2E/DX2                !
 ! D27   D(10,5,6,1)           180.0            estimate D2E/DX2                !
 ! D28   D(10,5,6,11)            0.0            estimate D2E/DX2                !
 --------------------------------------------------------------------------------
 Trust Radius=3.00D-01 FncErr=1.00D-07 GrdErr=1.00D-06
 Number of optimizations in scan=  37
 Number of steps in this run=  73 maximum allowed number of steps= 100.
 GradGradGradGradGradGradGradGradGradGradGradGradGradGradGradGradGradGrad

                          Input orientation:                          
 ---------------------------------------------------------------------
 Center     Atomic     Atomic              Coordinates (Angstroms)
 Number     Number      Type              X           Y           Z
 ---------------------------------------------------------------------
    1          6             0        0.000000    0.000000   -1.909310
    2          6             0        0.000000    1.209730   -1.204620
    3          6             0        0.000000    1.216370    0.178170
    4          6             0        0.000000    0.000000    0.920890
    5          6             0        0.000000   -1.216370    0.178170
    6          6             0        0.000000   -1.209730   -1.204620
    7          1             0        0.000000    0.000000   -2.993020
    8          1             0        0.000000    2.148970   -1.746920
    9          1             0        0.000000    2.157570    0.717650
   10          1             0        0.000000   -2.157570    0.717650
   11          1             0        0.000000   -2.148970   -1.746920
   12          6             0        0.000000    0.000000    2.324930
   13          1             0        0.000000    0.927270    2.883990
   14          1             0        0.000000   -0.927270    2.883990
 ---------------------------------------------------------------------
                    Distance matrix (angstroms):
                    1          2          3          4          5
     1  C    0.000000
     2  C    1.400012   0.000000
     3  C    2.416015   1.382806   0.000000
     4  C    2.830200   2.445657   1.425198   0.000000
     5  C    2.416015   2.792502   2.432740   1.425198   0.000000
     6  C    1.400012   2.419460   2.792502   2.445657   1.382806
     7  H    1.083710   2.159125   3.396469   3.913910   3.396469
     8  H    2.155097   1.084556   2.139092   3.425680   3.877046
     9  H    3.399416   2.143250   1.084848   2.167121   3.416798
    10  H    3.399416   3.877348   3.416798   2.167121   1.084848
    11  H    2.155097   3.402199   3.877046   3.425680   2.139092
    12  C    4.234240   3.731108   2.467415   1.404040   2.467415
    13  H    4.882167   4.098355   2.721220   2.171081   3.452051
    14  H    4.882167   4.613404   3.452051   2.171081   2.721220
                    6          7          8          9         10
     6  C    0.000000
     7  H    2.159125   0.000000
     8  H    3.402199   2.484117   0.000000
     9  H    3.877348   4.292340   2.464585   0.000000
    10  H    2.143250   4.292340   4.961894   4.315140   0.000000
    11  H    1.084556   2.484117   4.297940   4.961894   2.464585
    12  C    3.731108   5.317950   4.604132   2.690438   2.690438
    13  H    4.613404   5.949712   4.789351   2.491318   3.769518
    14  H    4.098355   5.949712   5.559549   3.769518   2.491318
                   11         12         13         14
    11  H    0.000000
    12  C    4.604132   0.000000
    13  H    5.559549   1.082764   0.000000
    14  H    4.789351   1.082764   1.854540   0.000000
 Symmetry turned off by external request.
 Stoichiometry    C7H7(2)
 Framework group  C2V[C2(HCCC),SGV(C4H6)]
 Deg. of freedom    13
 Full point group                 C2V
 Rotational constants (GHZ):      5.5501593      2.7072571      1.8196622
 Standard basis: CBSB7 (5D, 7F)
 Integral buffers will be    131072 words long.
 Raffenetti 2 integral format.
 Two-electron integral symmetry is turned off.
   168 basis functions,   280 primitive gaussians,   175 cartesian basis functions
    25 alpha electrons       24 beta electrons
       nuclear repulsion energy       260.1086041667 Hartrees.
 NAtoms=   14 NActive=   14 NUniq=   14 SFac= 7.50D-01 NAtFMM=   80 NAOKFM=F Big=F
 One-electron integrals computed using PRISM.
 NBasis=   168 RedAO= T  NBF=   168
 NBsUse=   168 1.00D-06 NBFU=   168
 Harris functional with IExCor=  402 diagonalized for initial guess.
 ExpMin= 1.03D-01 ExpMax= 4.56D+03 ExpMxC= 6.82D+02 IAcc=1 IRadAn=         1 AccDes= 1.00D-06
 HarFok:  IExCor= 402 AccDes= 1.00D-06 IRadAn=         1 IDoV=1
 ScaDFX=  1.000000  1.000000  1.000000  1.000000
 <S**2> of initial guess= 0.7500
 Requested convergence on RMS density matrix=1.00D-08 within 128 cycles.
 Requested convergence on MAX density matrix=1.00D-06.
 Requested convergence on             energy=1.00D-06.
 No special actions if energy rises.
 Integral accuracy reduced to 1.0D-05 until final iterations.
 Initial convergence to 1.0D-05 achieved.  Increase integral accuracy.
 SCF Done:  E(UB+HF-LYP) =  -270.983927995     A.U. after   18 cycles
             Convg  =    0.9337D-08             -V/T =  2.0045
             S**2   =   0.7812
 Annihilation of the first spin contaminant:
 S**2 before annihilation     0.7812,   after     0.7507

 **********************************************************************

            Population analysis using the SCF density.

 **********************************************************************

 Alpha  occ. eigenvalues --  -10.18557 -10.17781 -10.17751 -10.17749 -10.17719
 Alpha  occ. eigenvalues --  -10.17492 -10.17487  -0.86252  -0.77981  -0.75266
 Alpha  occ. eigenvalues --   -0.68160  -0.60953  -0.58488  -0.51631  -0.47264
 Alpha  occ. eigenvalues --   -0.46557  -0.42692  -0.42156  -0.40065  -0.38230
 Alpha  occ. eigenvalues --   -0.35959  -0.34192  -0.29891  -0.26527  -0.18781
 Alpha virt. eigenvalues --   -0.01207   0.01155   0.04541   0.06751   0.07082
 Alpha virt. eigenvalues --    0.09985   0.10569   0.13574   0.13958   0.14722
 Alpha virt. eigenvalues --    0.21803   0.27187   0.27651   0.29076   0.30266
 Alpha virt. eigenvalues --    0.32980   0.33114   0.36444   0.37737   0.39527
 Alpha virt. eigenvalues --    0.41184   0.41557   0.43165   0.44075   0.44148
 Alpha virt. eigenvalues --    0.44397   0.47830   0.48802   0.49192   0.52067
 Alpha virt. eigenvalues --    0.55942   0.59345   0.59527   0.60413   0.61986
 Alpha virt. eigenvalues --    0.62530   0.62908   0.64764   0.68645   0.72561
 Alpha virt. eigenvalues --    0.73281   0.75166   0.75764   0.80220   0.80945
 Alpha virt. eigenvalues --    0.83894   0.88117   0.91958   0.94674   0.95538
 Alpha virt. eigenvalues --    0.98450   1.02950   1.04122   1.05322   1.06780
 Alpha virt. eigenvalues --    1.07970   1.13471   1.14724   1.23993   1.31716
 Alpha virt. eigenvalues --    1.38001   1.39995   1.42574   1.46603   1.47361
 Alpha virt. eigenvalues --    1.49169   1.52375   1.54212   1.54792   1.56062
 Alpha virt. eigenvalues --    1.58756   1.64151   1.64332   1.65700   1.72889
 Alpha virt. eigenvalues --    1.74087   1.74348   1.76862   1.82101   1.82473
 Alpha virt. eigenvalues --    1.83634   1.84764   1.89442   1.90851   1.91153
 Alpha virt. eigenvalues --    1.92173   1.96051   2.01555   2.08139   2.08692
 Alpha virt. eigenvalues --    2.08764   2.09925   2.18747   2.23818   2.27132
 Alpha virt. eigenvalues --    2.29867   2.31243   2.36028   2.36916   2.45092
 Alpha virt. eigenvalues --    2.46972   2.54614   2.54985   2.59732   2.61046
 Alpha virt. eigenvalues --    2.61596   2.63138   2.64787   2.65168   2.65254
 Alpha virt. eigenvalues --    2.67196   2.69823   2.71044   2.75070   2.77134
 Alpha virt. eigenvalues --    2.83903   2.84944   2.88530   2.91285   3.03890
 Alpha virt. eigenvalues --    3.09412   3.13401   3.30445   3.30656   3.35967
 Alpha virt. eigenvalues --    3.46168   3.47275   3.54898   3.62823   3.75702
 Alpha virt. eigenvalues --    3.96508   4.01857   4.10869   4.12034   4.35678
 Alpha virt. eigenvalues --    4.81388  23.52834  23.85694  23.89867  24.01034
 Alpha virt. eigenvalues --   24.04317  24.11147  24.18416
  Beta  occ. eigenvalues --  -10.18803 -10.17666 -10.17663 -10.17408 -10.17408
  Beta  occ. eigenvalues --  -10.17394 -10.16688  -0.85858  -0.77170  -0.74955
  Beta  occ. eigenvalues --   -0.66350  -0.60744  -0.57965  -0.51286  -0.46959
  Beta  occ. eigenvalues --   -0.46301  -0.42609  -0.41828  -0.39558  -0.37094
  Beta  occ. eigenvalues --   -0.35699  -0.34095  -0.27400  -0.25622
  Beta virt. eigenvalues --   -0.08840  -0.00407   0.03195   0.04635   0.07068
  Beta virt. eigenvalues --    0.07139   0.10208   0.10640   0.13726   0.14139
  Beta virt. eigenvalues --    0.15546   0.21866   0.27236   0.27885   0.29192
  Beta virt. eigenvalues --    0.30692   0.33186   0.33210   0.38026   0.38984
  Beta virt. eigenvalues --    0.39758   0.41690   0.43704   0.43958   0.44205
  Beta virt. eigenvalues --    0.44526   0.44632   0.48064   0.49450   0.51022
  Beta virt. eigenvalues --    0.52439   0.56169   0.59698   0.59731   0.60422
  Beta virt. eigenvalues --    0.62260   0.63006   0.63084   0.65168   0.69418
  Beta virt. eigenvalues --    0.72571   0.73727   0.75627   0.76008   0.80617
  Beta virt. eigenvalues --    0.81478   0.84014   0.88467   0.92447   0.95324
  Beta virt. eigenvalues --    0.95632   0.99368   1.03206   1.04388   1.06886
  Beta virt. eigenvalues --    1.07857   1.08322   1.14267   1.15309   1.24242
  Beta virt. eigenvalues --    1.32305   1.38947   1.40020   1.42666   1.47058
  Beta virt. eigenvalues --    1.47488   1.50318   1.53425   1.54448   1.55033
  Beta virt. eigenvalues --    1.56234   1.59008   1.64443   1.64686   1.65624
  Beta virt. eigenvalues --    1.73122   1.74320   1.75965   1.77115   1.82731
  Beta virt. eigenvalues --    1.83158   1.84026   1.86281   1.89997   1.90888
  Beta virt. eigenvalues --    1.91071   1.92632   1.96238   2.02985   2.08057
  Beta virt. eigenvalues --    2.08915   2.09235   2.11064   2.19567   2.23863
  Beta virt. eigenvalues --    2.27276   2.30036   2.32121   2.36639   2.37155
  Beta virt. eigenvalues --    2.45142   2.47292   2.55285   2.55432   2.59777
  Beta virt. eigenvalues --    2.61134   2.61639   2.63376   2.64807   2.65326
  Beta virt. eigenvalues --    2.67335   2.67860   2.70207   2.71492   2.75271
  Beta virt. eigenvalues --    2.79746   2.84484   2.85157   2.89381   2.91346
  Beta virt. eigenvalues --    3.04387   3.09737   3.13509   3.30542   3.30882
  Beta virt. eigenvalues --    3.36191   3.46313   3.47419   3.55401   3.63062
  Beta virt. eigenvalues --    3.77126   3.96695   4.02200   4.11155   4.12280
  Beta virt. eigenvalues --    4.36585   4.81682  23.52981  23.86147  23.90009
  Beta virt. eigenvalues --   24.01575  24.04628  24.11214  24.18514
          Condensed to atoms (all electrons):
              1          2          3          4          5          6
     1  C    4.903976   0.503327  -0.063679  -0.035520  -0.063679   0.503327
     2  C    0.503327   4.838222   0.543805  -0.047714  -0.033326  -0.055841
     3  C   -0.063679   0.543805   4.885804   0.480322  -0.060749  -0.033326
     4  C   -0.035520  -0.047714   0.480322   4.902375   0.480322  -0.047714
     5  C   -0.063679  -0.033326  -0.060749   0.480322   4.885804   0.543805
     6  C    0.503327  -0.055841  -0.033326  -0.047714   0.543805   4.838222
     7  H    0.415267  -0.041618   0.007448  -0.000355   0.007448  -0.041618
     8  H   -0.043377   0.414840  -0.041047   0.008021  -0.000354   0.007326
     9  H    0.007930  -0.039049   0.414897  -0.046276   0.007657  -0.000719
    10  H    0.007930  -0.000719   0.007657  -0.046276   0.414897  -0.039049
    11  H   -0.043377   0.007326  -0.000354   0.008021  -0.041047   0.414840
    12  C    0.000550   0.005437  -0.068854   0.494822  -0.068854   0.005437
    13  H    0.000007   0.000405  -0.008711  -0.033629   0.006831  -0.000435
    14  H    0.000007  -0.000435   0.006831  -0.033629  -0.008711   0.000405
              7          8          9         10         11         12
     1  C    0.415267  -0.043377   0.007930   0.007930  -0.043377   0.000550
     2  C   -0.041618   0.414840  -0.039049  -0.000719   0.007326   0.005437
     3  C    0.007448  -0.041047   0.414897   0.007657  -0.000354  -0.068854
     4  C   -0.000355   0.008021  -0.046276  -0.046276   0.008021   0.494822
     5  C    0.007448  -0.000354   0.007657   0.414897  -0.041047  -0.068854
     6  C   -0.041618   0.007326  -0.000719  -0.039049   0.414840   0.005437
     7  H    0.573333  -0.007760  -0.000344  -0.000344  -0.007760   0.000033
     8  H   -0.007760   0.577784  -0.008999   0.000079  -0.000388  -0.000347
     9  H   -0.000344  -0.008999   0.580842  -0.000352   0.000079  -0.007397
    10  H   -0.000344   0.000079  -0.000352   0.580842  -0.008999  -0.007397
    11  H   -0.007760  -0.000388   0.000079  -0.008999   0.577784  -0.000347
    12  C    0.000033  -0.000347  -0.007397  -0.007397  -0.000347   5.003527
    13  H   -0.000002  -0.000025   0.003633  -0.000031   0.000020   0.405080
    14  H   -0.000002   0.000020  -0.000031   0.003633  -0.000025   0.405080
             13         14
     1  C    0.000007   0.000007
     2  C    0.000405  -0.000435
     3  C   -0.008711   0.006831
     4  C   -0.033629  -0.033629
     5  C    0.006831  -0.008711
     6  C   -0.000435   0.000405
     7  H   -0.000002  -0.000002
     8  H   -0.000025   0.000020
     9  H    0.003633  -0.000031
    10  H   -0.000031   0.003633
    11  H    0.000020  -0.000025
    12  C    0.405080   0.405080
    13  H    0.559765  -0.038231
    14  H   -0.038231   0.559765
 Mulliken atomic charges:
              1
     1  C   -0.092690
     2  C   -0.094660
     3  C   -0.070043
     4  C   -0.082770
     5  C   -0.070043
     6  C   -0.094660
     7  H    0.096276
     8  H    0.094228
     9  H    0.088130
    10  H    0.088130
    11  H    0.094228
    12  C   -0.166770
    13  H    0.105322
    14  H    0.105322
 Sum of Mulliken charges=   0.00000
 Atomic charges with hydrogens summed into heavy atoms:
              1
     1  C    0.003585
     2  C   -0.000432
     3  C    0.018087
     4  C   -0.082770
     5  C    0.018087
     6  C   -0.000432
     7  H    0.000000
     8  H    0.000000
     9  H    0.000000
    10  H    0.000000
    11  H    0.000000
    12  C    0.043873
    13  H    0.000000
    14  H    0.000000
 Sum of Mulliken charges=   0.00000
          Atomic-Atomic Spin Densities.
              1          2          3          4          5          6
     1  C    0.315257  -0.001780  -0.015136  -0.001120  -0.015136  -0.001780
     2  C   -0.001780  -0.136841   0.004292   0.001658   0.001157  -0.000077
     3  C   -0.015136   0.004292   0.262133   0.005840   0.009041   0.001157
     4  C   -0.001120   0.001658   0.005840  -0.166490   0.005840   0.001658
     5  C   -0.015136   0.001157   0.009041   0.005840   0.262133   0.004292
     6  C   -0.001780  -0.000077   0.001157   0.001658   0.004292  -0.136841
     7  H    0.002262   0.000187  -0.000144  -0.000065  -0.000144   0.000187
     8  H   -0.000392   0.000192  -0.000587   0.000142  -0.000042   0.000049
     9  H   -0.000145   0.000758   0.001617   0.000831  -0.000199  -0.000003
    10  H   -0.000145  -0.000003  -0.000199   0.000831   0.001617   0.000758
    11  H   -0.000392   0.000049  -0.000042   0.000142  -0.000587   0.000192
    12  C    0.000896  -0.000577  -0.022655  -0.034130  -0.022655  -0.000577
    13  H   -0.000003  -0.000100   0.001065  -0.004840  -0.000642   0.000064
    14  H   -0.000003   0.000064  -0.000642  -0.004840   0.001065  -0.000100
              7          8          9         10         11         12
     1  C    0.002262  -0.000392  -0.000145  -0.000145  -0.000392   0.000896
     2  C    0.000187   0.000192   0.000758  -0.000003   0.000049  -0.000577
     3  C   -0.000144  -0.000587   0.001617  -0.000199  -0.000042  -0.022655
     4  C   -0.000065   0.000142   0.000831   0.000831   0.000142  -0.034130
     5  C   -0.000144  -0.000042  -0.000199   0.001617  -0.000587  -0.022655
     6  C    0.000187   0.000049  -0.000003   0.000758   0.000192  -0.000577
     7  H   -0.018629   0.000162   0.000010   0.000010   0.000162   0.000001
     8  H    0.000162   0.006393   0.000058  -0.000002  -0.000002  -0.000005
     9  H    0.000010   0.000058  -0.016010   0.000006  -0.000002   0.000358
    10  H    0.000010  -0.000002   0.000006  -0.016010   0.000058   0.000358
    11  H    0.000162  -0.000002  -0.000002   0.000058   0.006393  -0.000005
    12  C    0.000001  -0.000005   0.000358   0.000358  -0.000005   0.853420
    13  H    0.000000  -0.000001  -0.000133  -0.000044   0.000000   0.007301
    14  H    0.000000   0.000000  -0.000044  -0.000133  -0.000001   0.007301
             13         14
     1  C   -0.000003  -0.000003
     2  C   -0.000100   0.000064
     3  C    0.001065  -0.000642
     4  C   -0.004840  -0.004840
     5  C   -0.000642   0.001065
     6  C    0.000064  -0.000100
     7  H    0.000000   0.000000
     8  H   -0.000001   0.000000
     9  H   -0.000133  -0.000044
    10  H   -0.000044  -0.000133
    11  H    0.000000  -0.000001
    12  C    0.007301   0.007301
    13  H   -0.044985   0.004093
    14  H    0.004093  -0.044985
 Mulliken atomic spin densities:
              1
     1  C    0.282384
     2  C   -0.131020
     3  C    0.245741
     4  C   -0.194543
     5  C    0.245741
     6  C   -0.131020
     7  H   -0.015999
     8  H    0.005965
     9  H   -0.012897
    10  H   -0.012897
    11  H    0.005965
    12  C    0.789031
    13  H   -0.038225
    14  H   -0.038225
 Sum of Mulliken spin densities=   1.00000
 Electronic spatial extent (au):  <R**2>=   681.1141
 Charge=     0.0000 electrons
 Dipole moment (field-independent basis, Debye):
    X=     0.0000    Y=     0.0000    Z=    -0.1321  Tot=     0.1321
 Quadrupole moment (field-independent basis, Debye-Ang):
   XX=   -46.2860   YY=   -37.2493   ZZ=   -37.6774
   XY=     0.0000   XZ=     0.0000   YZ=     0.0000
 Traceless Quadrupole moment (field-independent basis, Debye-Ang):
   XX=    -5.8818   YY=     3.1549   ZZ=     2.7269
   XY=     0.0000   XZ=     0.0000   YZ=     0.0000
 Octapole moment (field-independent basis, Debye-Ang**2):
  XXX=     0.0000  YYY=     0.0000  ZZZ=     4.2031  XYY=     0.0000
  XXY=     0.0000  XXZ=     2.9291  XZZ=     0.0000  YZZ=     0.0000
  YYZ=     3.0476  XYZ=     0.0000
 Hexadecapole moment (field-independent basis, Debye-Ang**3):
 XXXX=   -52.5204 YYYY=  -288.5239 ZZZZ=  -553.4920 XXXY=     0.0000
 XXXZ=     0.0000 YYYX=     0.0000 YYYZ=     0.0000 ZZZX=     0.0000
 ZZZY=     0.0000 XXYY=   -67.2902 XXZZ=  -119.6861 YYZZ=  -134.7096
 XXYZ=     0.0000 YYXZ=     0.0000 ZZXY=     0.0000
 N-N= 2.601086041667D+02 E-N=-1.148509757910D+03  KE= 2.697752030781D+02
                          Isotropic Fermi Contact Couplings
        Atom                 a.u.       MegaHertz       Gauss      10(-4) cm-1
     1  C(13)              0.01854      20.84772       7.43899       6.95405
     2  C(13)             -0.01762     -19.80497      -7.06691      -6.60623
     3  C(13)              0.01774      19.94841       7.11809       6.65407
     4  C(13)             -0.03581     -40.25639     -14.36448     -13.42809
     5  C(13)              0.01774      19.94841       7.11809       6.65407
     6  C(13)             -0.01762     -19.80497      -7.06691      -6.60623
     7  H(1)              -0.00383     -17.14103      -6.11635      -5.71763
     8  H(1)               0.00140       6.27345       2.23852       2.09260
     9  H(1)              -0.00332     -14.85623      -5.30107      -4.95551
    10  H(1)              -0.00332     -14.85623      -5.30107      -4.95551
    11  H(1)               0.00140       6.27345       2.23852       2.09260
    12  C(13)              0.04536      50.99487      18.19624      17.01006
    13  H(1)              -0.01013     -45.27536     -16.15537     -15.10223
    14  H(1)              -0.01013     -45.27536     -16.15537     -15.10223
 --------------------------------------------------------
       Center         ----  Spin Dipole Couplings  ----
                      3XX-RR        3YY-RR        3ZZ-RR
 --------------------------------------------------------
     1   Atom        0.297829     -0.155339     -0.142489
     2   Atom       -0.113683      0.052003      0.061680
     3   Atom        0.261113     -0.130830     -0.130284
     4   Atom       -0.149598      0.058833      0.090765
     5   Atom        0.261113     -0.130830     -0.130284
     6   Atom       -0.113683      0.052003      0.061680
     7   Atom       -0.000612     -0.020341      0.020953
     8   Atom       -0.004138     -0.000725      0.004862
     9   Atom       -0.004448      0.011938     -0.007490
    10   Atom       -0.004448      0.011938     -0.007490
    11   Atom       -0.004138     -0.000725      0.004862
    12   Atom        0.840591     -0.416290     -0.424301
    13   Atom       -0.002572      0.026950     -0.024378
    14   Atom       -0.002572      0.026950     -0.024378
 --------------------------------------------------------
                        XY            XZ            YZ
 --------------------------------------------------------
     1   Atom        0.000000      0.000000      0.000000
     2   Atom        0.000000      0.000000      0.004485
     3   Atom        0.000000      0.000000     -0.001045
     4   Atom        0.000000      0.000000      0.000000
     5   Atom        0.000000      0.000000      0.001045
     6   Atom        0.000000      0.000000     -0.004485
     7   Atom        0.000000      0.000000      0.000000
     8   Atom        0.000000      0.000000      0.003493
     9   Atom        0.000000      0.000000      0.009473
    10   Atom        0.000000      0.000000     -0.009473
    11   Atom        0.000000      0.000000     -0.003493
    12   Atom        0.000000      0.000000      0.000000
    13   Atom        0.000000      0.000000      0.047072
    14   Atom        0.000000      0.000000     -0.047072
 --------------------------------------------------------


 ---------------------------------------------------------------------------------
              Anisotropic Spin Dipole Couplings in Principal Axis System
 ---------------------------------------------------------------------------------

       Atom             a.u.   MegaHertz   Gauss  10(-4) cm-1        Axes

              Baa    -0.1553   -20.845    -7.438    -6.953  0.0000  1.0000  0.0000
     1 C(13)  Bbb    -0.1425   -19.121    -6.823    -6.378  0.0000  0.0000  1.0000
              Bcc     0.2978    39.966    14.261    13.331  1.0000  0.0000  0.0000
 
              Baa    -0.1137   -15.255    -5.443    -5.089  1.0000  0.0000  0.0000
     2 C(13)  Bbb     0.0502     6.742     2.406     2.249  0.0000  0.9310 -0.3651
              Bcc     0.0634     8.513     3.038     2.840  0.0000  0.3651  0.9310
 
              Baa    -0.1316   -17.664    -6.303    -5.892  0.0000  0.7914  0.6113
     3 C(13)  Bbb    -0.1295   -17.375    -6.200    -5.796  0.0000 -0.6113  0.7914
              Bcc     0.2611    35.039    12.503    11.688  1.0000  0.0000  0.0000
 
              Baa    -0.1496   -20.075    -7.163    -6.696  1.0000  0.0000  0.0000
     4 C(13)  Bbb     0.0588     7.895     2.817     2.633  0.0000  1.0000  0.0000
              Bcc     0.0908    12.180     4.346     4.063  0.0000  0.0000  1.0000
 
              Baa    -0.1316   -17.664    -6.303    -5.892  0.0000  0.7914 -0.6113
     5 C(13)  Bbb    -0.1295   -17.375    -6.200    -5.796  0.0000  0.6113  0.7914
              Bcc     0.2611    35.039    12.503    11.688  1.0000  0.0000  0.0000
 
              Baa    -0.1137   -15.255    -5.443    -5.089  1.0000  0.0000  0.0000
     6 C(13)  Bbb     0.0502     6.742     2.406     2.249  0.0000  0.9310  0.3651
              Bcc     0.0634     8.513     3.038     2.840  0.0000 -0.3651  0.9310
 
              Baa    -0.0203   -10.853    -3.873    -3.620  0.0000  1.0000  0.0000
     7 H(1)   Bbb    -0.0006    -0.326    -0.116    -0.109  1.0000  0.0000  0.0000
              Bcc     0.0210    11.180     3.989     3.729  0.0000  0.0000  1.0000
 
              Baa    -0.0041    -2.208    -0.788    -0.736  1.0000  0.0000  0.0000
     8 H(1)   Bbb    -0.0024    -1.283    -0.458    -0.428  0.0000  0.9012 -0.4333
              Bcc     0.0065     3.490     1.245     1.164  0.0000  0.4333  0.9012
 
              Baa    -0.0113    -6.053    -2.160    -2.019  0.0000 -0.3769  0.9263
     9 H(1)   Bbb    -0.0044    -2.373    -0.847    -0.792  1.0000  0.0000  0.0000
              Bcc     0.0158     8.426     3.007     2.811  0.0000  0.9263  0.3769
 
              Baa    -0.0113    -6.053    -2.160    -2.019  0.0000  0.3769  0.9263
    10 H(1)   Bbb    -0.0044    -2.373    -0.847    -0.792  1.0000  0.0000  0.0000
              Bcc     0.0158     8.426     3.007     2.811  0.0000  0.9263 -0.3769
 
              Baa    -0.0041    -2.208    -0.788    -0.736  1.0000  0.0000  0.0000
    11 H(1)   Bbb    -0.0024    -1.283    -0.458    -0.428  0.0000  0.9012  0.4333
              Bcc     0.0065     3.490     1.245     1.164  0.0000 -0.4333  0.9012
 
              Baa    -0.4243   -56.937   -20.317   -18.992  0.0000  0.0000  1.0000
    12 C(13)  Bbb    -0.4163   -55.862   -19.933   -18.634  0.0000  1.0000  0.0000
              Bcc     0.8406   112.799    40.250    37.626  1.0000  0.0000  0.0000
 
              Baa    -0.0523   -27.919    -9.962    -9.313  0.0000 -0.5105  0.8599
    13 H(1)   Bbb    -0.0026    -1.372    -0.490    -0.458  1.0000  0.0000  0.0000
              Bcc     0.0549    29.292    10.452     9.771  0.0000  0.8599  0.5105
 
              Baa    -0.0523   -27.919    -9.962    -9.313  0.0000  0.5105  0.8599
    14 H(1)   Bbb    -0.0026    -1.372    -0.490    -0.458  1.0000  0.0000  0.0000
              Bcc     0.0549    29.292    10.452     9.771  0.0000  0.8599 -0.5105
 

 ---------------------------------------------------------------------------------

 -------------------------------------------------------------------
 Center     Atomic                   Forces (Hartrees/Bohr)
 Number     Number              X              Y              Z
 -------------------------------------------------------------------
    1          6           0.000000000    0.000000000   -0.000057380
    2          6           0.000000000    0.000045815    0.000023746
    3          6           0.000000000    0.000090571   -0.000090513
    4          6           0.000000000    0.000000000    0.000186351
    5          6           0.000000000   -0.000090571   -0.000090513
    6          6           0.000000000   -0.000045815    0.000023746
    7          1           0.000000000    0.000000000   -0.000008629
    8          1           0.000000000    0.000009016   -0.000014729
    9          1           0.000000000   -0.000002462    0.000026717
   10          1           0.000000000    0.000002462    0.000026717
   11          1           0.000000000   -0.000009016   -0.000014729
   12          6           0.000000000    0.000000000   -0.000097010
   13          1           0.000000000   -0.000012682    0.000043113
   14          1           0.000000000    0.000012682    0.000043113
 -------------------------------------------------------------------
 Cartesian Forces:  Max     0.000186351 RMS     0.000046725

 GradGradGradGradGradGradGradGradGradGradGradGradGradGradGradGradGradGrad
 Berny optimization.
 Internal  Forces:  Max     0.000118494 RMS     0.000027876
 Search for a local minimum.
 Step number   1 out of a maximum of  73 on scan point     1 out of    37
 All quantities printed in internal units (Hartrees-Bohrs-Radians)
 Second derivative matrix not updated -- first step.
     Eigenvalues ---    0.01799   0.01911   0.02002   0.02035   0.02047
     Eigenvalues ---    0.02089   0.02146   0.02160   0.02213   0.02225
     Eigenvalues ---    0.16000   0.16000   0.16000   0.16000   0.16000
     Eigenvalues ---    0.16000   0.16000   0.22000   0.22000   0.23451
     Eigenvalues ---    0.25000   0.35415   0.35415   0.35449   0.35449
     Eigenvalues ---    0.35550   0.35662   0.35662   0.39369   0.40396
     Eigenvalues ---    0.44272   0.44378   0.44958   0.46785   0.48593
     Eigenvalues --- 1000.000001000.000001000.000001000.000001000.00000
     Eigenvalues --- 1000.000001000.000001000.000001000.000001000.00000
     Eigenvalues --- 1000.000001000.000001000.000001000.000001000.00000
     Eigenvalues --- 1000.000001000.000001000.000001000.000001000.00000
     Eigenvalues --- 1000.000001000.000001000.000001000.000001000.00000
     Eigenvalues --- 1000.000001000.000001000.00000
 RFO step:  Lambda=-1.49304998D-07.
 Linear search not attempted -- first point.
 Iteration  1 RMS(Cart)=  0.00013046 RMS(Int)=  0.00000001
 Iteration  2 RMS(Cart)=  0.00000001 RMS(Int)=  0.00000000
 Iteration  1 RMS(Cart)=  0.00000000 RMS(Int)=  0.00000000
 Variable       Old X    -DE/DX   Delta X   Delta X   Delta X     New X
                                 (Linear)    (Quad)   (Total)
    R1        2.64564   0.00007   0.00000   0.00014   0.00014   2.64578
    R2        2.64564   0.00007   0.00000   0.00014   0.00014   2.64578
    R3        2.04792   0.00001   0.00000   0.00002   0.00002   2.04794
    R4        2.61312   0.00002   0.00000   0.00005   0.00005   2.61317
    R5        2.04951   0.00002   0.00000   0.00004   0.00004   2.04956
    R6        2.69323   0.00012   0.00000   0.00029   0.00029   2.69352
    R7        2.05007   0.00001   0.00000   0.00003   0.00003   2.05010
    R8        2.69323   0.00012   0.00000   0.00029   0.00029   2.69352
    R9        2.65325  -0.00001   0.00000  -0.00002  -0.00002   2.65323
   R10        2.61312   0.00002   0.00000   0.00005   0.00005   2.61317
   R11        2.05007   0.00001   0.00000   0.00003   0.00003   2.05010
   R12        2.04951   0.00002   0.00000   0.00004   0.00004   2.04956
   R13        2.04613   0.00001   0.00000   0.00003   0.00003   2.04616
   R14        2.04613   0.00001   0.00000   0.00003   0.00003   2.04616
    A1        2.08666   0.00001   0.00000   0.00002   0.00002   2.08668
    A2        2.09826   0.00000   0.00000  -0.00001  -0.00001   2.09825
    A3        2.09826   0.00000   0.00000  -0.00001  -0.00001   2.09825
    A4        2.10306   0.00000   0.00000   0.00000   0.00000   2.10306
    A5        2.09050  -0.00001   0.00000  -0.00005  -0.00005   2.09045
    A6        2.08962   0.00001   0.00000   0.00005   0.00005   2.08967
    A7        2.11417   0.00001   0.00000   0.00004   0.00004   2.11422
    A8        2.09607   0.00002   0.00000   0.00014   0.00014   2.09620
    A9        2.07294  -0.00003   0.00000  -0.00018  -0.00018   2.07277
   A10        2.04523  -0.00003   0.00000  -0.00011  -0.00011   2.04512
   A11        2.11898   0.00001   0.00000   0.00005   0.00005   2.11903
   A12        2.11898   0.00001   0.00000   0.00005   0.00005   2.11903
   A13        2.11417   0.00001   0.00000   0.00004   0.00004   2.11422
   A14        2.07294  -0.00003   0.00000  -0.00018  -0.00018   2.07277
   A15        2.09607   0.00002   0.00000   0.00014   0.00014   2.09620
   A16        2.10306   0.00000   0.00000   0.00000   0.00000   2.10306
   A17        2.09050  -0.00001   0.00000  -0.00005  -0.00005   2.09045
   A18        2.08962   0.00001   0.00000   0.00005   0.00005   2.08967
   A19        2.11335   0.00003   0.00000   0.00019   0.00019   2.11354
   A20        2.11335   0.00003   0.00000   0.00019   0.00019   2.11354
   A21        2.05648  -0.00006   0.00000  -0.00037  -0.00037   2.05611
    D1        0.00000   0.00000   0.00000   0.00000   0.00000   0.00000
    D2        3.14159   0.00000   0.00000   0.00000   0.00000   3.14159
    D3        3.14159   0.00000   0.00000   0.00000   0.00000   3.14159
    D4        0.00000   0.00000   0.00000   0.00000   0.00000   0.00000
    D5        0.00000   0.00000   0.00000   0.00000   0.00000   0.00000
    D6        3.14159   0.00000   0.00000   0.00000   0.00000   3.14159
    D7        3.14159   0.00000   0.00000   0.00000   0.00000   3.14159
    D8        0.00000   0.00000   0.00000   0.00000   0.00000   0.00000
    D9        0.00000   0.00000   0.00000   0.00000   0.00000   0.00000
   D10        3.14159   0.00000   0.00000   0.00000   0.00000   3.14159
   D11        3.14159   0.00000   0.00000   0.00000   0.00000   3.14159
   D12        0.00000   0.00000   0.00000   0.00000   0.00000   0.00000
   D13        0.00000   0.00000   0.00000   0.00000   0.00000   0.00000
   D14        3.14159   0.00000   0.00000   0.00000   0.00000   3.14159
   D15        3.14159   0.00000   0.00000   0.00000   0.00000   3.14159
   D16        0.00000   0.00000   0.00000   0.00000   0.00000   0.00000
   D17        0.00000   0.00000   0.00000   0.00000   0.00000   0.00000
   D18        3.14159   0.00000   0.00000   0.00000   0.00000   3.14159
   D19        3.14159   0.00000   0.00000   0.00000   0.00000   3.14159
   D20        0.00000   0.00000   0.00000   0.00000   0.00000   0.00000
   D21        0.00000   0.00000   0.00000   0.00000   0.00000   0.00000
   D22        3.14159   0.00000   0.00000   0.00000   0.00000   3.14159
   D23        3.14159   0.00000   0.00000   0.00000   0.00000   3.14159
   D24        0.00000   0.00000   0.00000   0.00000   0.00000   0.00000
   D25        0.00000   0.00000   0.00000   0.00000   0.00000   0.00000
   D26        3.14159   0.00000   0.00000   0.00000   0.00000   3.14159
   D27        3.14159   0.00000   0.00000   0.00000   0.00000   3.14159
   D28        0.00000   0.00000   0.00000   0.00000   0.00000   0.00000
         Item               Value     Threshold  Converged?
 Maximum Force            0.000118     0.000450     YES
 RMS     Force            0.000028     0.000300     YES
 Maximum Displacement     0.000485     0.001800     YES
 RMS     Displacement     0.000130     0.001200     YES
 Predicted change in Energy=-7.465245D-08
 Optimization completed.
    -- Stationary point found.
                           ----------------------------
                           !   Optimized Parameters   !
                           ! (Angstroms and Degrees)  !
 --------------------------                            --------------------------
 ! Name  Definition              Value          Derivative Info.                !
 --------------------------------------------------------------------------------
 ! R1    R(1,2)                  1.4            -DE/DX =    0.0001              !
 ! R2    R(1,6)                  1.4            -DE/DX =    0.0001              !
 ! R3    R(1,7)                  1.0837         -DE/DX =    0.0                 !
 ! R4    R(2,3)                  1.3828         -DE/DX =    0.0                 !
 ! R5    R(2,8)                  1.0846         -DE/DX =    0.0                 !
 ! R6    R(3,4)                  1.4252         -DE/DX =    0.0001              !
 ! R7    R(3,9)                  1.0848         -DE/DX =    0.0                 !
 ! R8    R(4,5)                  1.4252         -DE/DX =    0.0001              !
 ! R9    R(4,12)                 1.404          -DE/DX =    0.0                 !
 ! R10   R(5,6)                  1.3828         -DE/DX =    0.0                 !
 ! R11   R(5,10)                 1.0848         -DE/DX =    0.0                 !
 ! R12   R(6,11)                 1.0846         -DE/DX =    0.0                 !
 ! R13   R(12,13)                1.0828         -DE/DX =    0.0                 !
 ! R14   R(12,14)                1.0828         -DE/DX =    0.0                 !
 ! A1    A(2,1,6)              119.5568         -DE/DX =    0.0                 !
 ! A2    A(2,1,7)              120.2216         -DE/DX =    0.0                 !
 ! A3    A(6,1,7)              120.2216         -DE/DX =    0.0                 !
 ! A4    A(1,2,3)              120.4967         -DE/DX =    0.0                 !
 ! A5    A(1,2,8)              119.7771         -DE/DX =    0.0                 !
 ! A6    A(3,2,8)              119.7262         -DE/DX =    0.0                 !
 ! A7    A(2,3,4)              121.1333         -DE/DX =    0.0                 !
 ! A8    A(2,3,9)              120.0957         -DE/DX =    0.0                 !
 ! A9    A(4,3,9)              118.771          -DE/DX =    0.0                 !
 ! A10   A(3,4,5)              117.1832         -DE/DX =    0.0                 !
 ! A11   A(3,4,12)             121.4084         -DE/DX =    0.0                 !
 ! A12   A(5,4,12)             121.4084         -DE/DX =    0.0                 !
 ! A13   A(4,5,6)              121.1333         -DE/DX =    0.0                 !
 ! A14   A(4,5,10)             118.771          -DE/DX =    0.0                 !
 ! A15   A(6,5,10)             120.0957         -DE/DX =    0.0                 !
 ! A16   A(1,6,5)              120.4967         -DE/DX =    0.0                 !
 ! A17   A(1,6,11)             119.7771         -DE/DX =    0.0                 !
 ! A18   A(5,6,11)             119.7262         -DE/DX =    0.0                 !
 ! A19   A(4,12,13)            121.0862         -DE/DX =    0.0                 !
 ! A20   A(4,12,14)            121.0862         -DE/DX =    0.0                 !
 ! A21   A(13,12,14)           117.8276         -DE/DX =   -0.0001              !
 ! D1    D(6,1,2,3)              0.0            -DE/DX =    0.0                 !
 ! D2    D(6,1,2,8)            180.0            -DE/DX =    0.0                 !
 ! D3    D(7,1,2,3)            180.0            -DE/DX =    0.0                 !
 ! D4    D(7,1,2,8)              0.0            -DE/DX =    0.0                 !
 ! D5    D(2,1,6,5)              0.0            -DE/DX =    0.0                 !
 ! D6    D(2,1,6,11)           180.0            -DE/DX =    0.0                 !
 ! D7    D(7,1,6,5)            180.0            -DE/DX =    0.0                 !
 ! D8    D(7,1,6,11)             0.0            -DE/DX =    0.0                 !
 ! D9    D(1,2,3,4)              0.0            -DE/DX =    0.0                 !
 ! D10   D(1,2,3,9)            180.0            -DE/DX =    0.0                 !
 ! D11   D(8,2,3,4)            180.0            -DE/DX =    0.0                 !
 ! D12   D(8,2,3,9)              0.0            -DE/DX =    0.0                 !
 ! D13   D(2,3,4,5)              0.0            -DE/DX =    0.0                 !
 ! D14   D(2,3,4,12)           180.0            -DE/DX =    0.0                 !
 ! D15   D(9,3,4,5)            180.0            -DE/DX =    0.0                 !
 ! D16   D(9,3,4,12)             0.0            -DE/DX =    0.0                 !
 ! D17   D(3,4,5,6)              0.0            -DE/DX =    0.0                 !
 ! D18   D(3,4,5,10)           180.0            -DE/DX =    0.0                 !
 ! D19   D(12,4,5,6)           180.0            -DE/DX =    0.0                 !
 ! D20   D(12,4,5,10)            0.0            -DE/DX =    0.0                 !
 ! D21   D(3,4,12,13)            0.0            -DE/DX =    0.0                 !
 ! D22   D(3,4,12,14)          180.0            -DE/DX =    0.0                 !
 ! D23   D(5,4,12,13)          180.0            -DE/DX =    0.0                 !
 ! D24   D(5,4,12,14)            0.0            -DE/DX =    0.0                 !
 ! D25   D(4,5,6,1)              0.0            -DE/DX =    0.0                 !
 ! D26   D(4,5,6,11)           180.0            -DE/DX =    0.0                 !
 ! D27   D(10,5,6,1)           180.0            -DE/DX =    0.0                 !
 ! D28   D(10,5,6,11)            0.0            -DE/DX =    0.0                 !
 --------------------------------------------------------------------------------
 Iteration  1 RMS(Cart)=  0.01509890 RMS(Int)=  0.01424831
 Iteration  2 RMS(Cart)=  0.00061595 RMS(Int)=  0.01423597
 Iteration  3 RMS(Cart)=  0.00000156 RMS(Int)=  0.01423597
 Iteration  4 RMS(Cart)=  0.00000004 RMS(Int)=  0.01423597
 Iteration  1 RMS(Cart)=  0.00633707 RMS(Int)=  0.00597265
 Iteration  2 RMS(Cart)=  0.00266574 RMS(Int)=  0.00665989
 Iteration  3 RMS(Cart)=  0.00112059 RMS(Int)=  0.00729287
 Iteration  4 RMS(Cart)=  0.00047098 RMS(Int)=  0.00760342
 Iteration  5 RMS(Cart)=  0.00019794 RMS(Int)=  0.00774065
 Iteration  6 RMS(Cart)=  0.00008319 RMS(Int)=  0.00779942
 Iteration  7 RMS(Cart)=  0.00003496 RMS(Int)=  0.00782432
 Iteration  8 RMS(Cart)=  0.00001469 RMS(Int)=  0.00783481
 Iteration  9 RMS(Cart)=  0.00000618 RMS(Int)=  0.00783923
 Iteration 10 RMS(Cart)=  0.00000260 RMS(Int)=  0.00784108
 Iteration 11 RMS(Cart)=  0.00000109 RMS(Int)=  0.00784186
 Iteration 12 RMS(Cart)=  0.00000046 RMS(Int)=  0.00784219
 GradGradGradGradGradGradGradGradGradGradGradGradGradGradGradGradGradGrad

                          Input orientation:                          
 ---------------------------------------------------------------------
 Center     Atomic     Atomic              Coordinates (Angstroms)
 Number     Number      Type              X           Y           Z
 ---------------------------------------------------------------------
    1          6             0       -0.007399   -0.000101   -1.909361
    2          6             0        0.004626    1.209777   -1.205112
    3          6             0        0.011067    1.216902    0.177687
    4          6             0       -0.005289    0.001118    0.921721
    5          6             0       -0.000960   -1.215406    0.178742
    6          6             0       -0.007337   -1.209422   -1.204063
    7          1             0       -0.011009   -0.000554   -2.993078
    8          1             0        0.011739    2.148779   -1.747826
    9          1             0        0.026050    2.158288    0.716682
   10          1             0        0.004713   -2.156420    0.718553
   11          1             0       -0.009512   -2.148917   -1.745962
   12          6             0        0.031130    0.001559    2.325310
   13          1             0       -0.088913    0.921446    2.884643
   14          1             0        0.041095   -0.927049    2.882095
 ---------------------------------------------------------------------
                    Distance matrix (angstroms):
                    1          2          3          4          5
     1  C    0.000000
     2  C    1.399969   0.000000
     3  C    2.416031   1.382832   0.000000
     4  C    2.831083   2.446299   1.425478   0.000000
     5  C    2.416026   2.792239   2.432338   1.425471   0.000000
     6  C    1.399966   2.419229   2.792243   2.446297   1.382832
     7  H    1.083723   2.159159   3.396533   3.914804   3.396529
     8  H    2.155027   1.084580   2.139158   3.426255   3.876799
     9  H    3.399391   2.143228   1.084873   2.167120   3.416420
    10  H    3.399381   3.877083   3.416413   2.167105   1.084866
    11  H    2.155021   3.401992   3.876801   3.426252   2.139159
    12  C    4.234847   3.731538   2.467741   1.404061   2.467750
    13  H    4.882455   4.100974   2.724867   2.169576   3.449026
    14  H    4.880536   4.612225   3.451268   2.169495   2.719014
                    6          7          8          9         10
     6  C    0.000000
     7  H    2.159155   0.000000
     8  H    3.401993   2.484110   0.000000
     9  H    3.877093   4.292353   2.464568   0.000000
    10  H    2.143223   4.292343   4.961634   4.314761   0.000000
    11  H    1.084579   2.484102   4.297749   4.961643   2.464568
    12  C    3.731545   5.318556   4.604494   2.690574   2.690583
    13  H    4.611374   5.950106   4.793355   2.498609   3.764833
    14  H    4.096189   5.948005   5.558575   3.769423   2.488692
                   11         12         13         14
    11  H    0.000000
    12  C    4.604504   0.000000
    13  H    5.556613   1.083262   0.000000
    14  H    4.786902   1.082785   1.853064   0.000000
 Symmetry turned off by external request.
 Stoichiometry    C7H7(2)
 Framework group  C1[X(C7H7)]
 Deg. of freedom    36
 Full point group                 C1
 Rotational constants (GHZ):      5.5510496      2.7063942      1.8196116
 Standard basis: CBSB7 (5D, 7F)
 Integral buffers will be    131072 words long.
 Raffenetti 2 integral format.
 Two-electron integral symmetry is turned off.
   168 basis functions,   280 primitive gaussians,   175 cartesian basis functions
    25 alpha electrons       24 beta electrons
       nuclear repulsion energy       260.0979091215 Hartrees.
 NAtoms=   14 NActive=   14 NUniq=   14 SFac= 7.50D-01 NAtFMM=   80 NAOKFM=F Big=F
 One-electron integrals computed using PRISM.
 NBasis=   168 RedAO= T  NBF=   168
 NBsUse=   168 1.00D-06 NBFU=   168
 Initial guess read from the read-write file:
 <S**2> of initial guess= 0.7812
 Harris functional with IExCor=  402 diagonalized for initial guess.
 ExpMin= 1.03D-01 ExpMax= 4.56D+03 ExpMxC= 6.82D+02 IAcc=1 IRadAn=         1 AccDes= 1.00D-06
 HarFok:  IExCor= 402 AccDes= 1.00D-06 IRadAn=         1 IDoV=1
 ScaDFX=  1.000000  1.000000  1.000000  1.000000
 Requested convergence on RMS density matrix=1.00D-08 within 128 cycles.
 Requested convergence on MAX density matrix=1.00D-06.
 Requested convergence on             energy=1.00D-06.
 No special actions if energy rises.
 Integral accuracy reduced to 1.0D-05 until final iterations.
 Initial convergence to 1.0D-05 achieved.  Increase integral accuracy.
 SCF Done:  E(UB+HF-LYP) =  -270.983465223     A.U. after   14 cycles
             Convg  =    0.8857D-08             -V/T =  2.0045
             S**2   =   0.7811
 Annihilation of the first spin contaminant:
 S**2 before annihilation     0.7811,   after     0.7507
 -------------------------------------------------------------------
 Center     Atomic                   Forces (Hartrees/Bohr)
 Number     Number              X              Y              Z
 -------------------------------------------------------------------
    1          6           0.000111680   -0.000015145    0.000017995
    2          6           0.000002773    0.000034722   -0.000025549
    3          6          -0.002379276    0.000007568    0.000226588
    4          6           0.005310913   -0.000064702   -0.001080547
    5          6          -0.000236586    0.000072600    0.000200229
    6          6           0.000043633   -0.000027849   -0.000058219
    7          1          -0.000060191   -0.000000158    0.000001104
    8          1           0.000092387    0.000001834    0.000007840
    9          1          -0.000078556    0.000004696    0.000015736
   10          1          -0.000158648   -0.000009334    0.000013061
   11          1          -0.000040306   -0.000003579    0.000005246
   12          6          -0.006232860   -0.000071659    0.000514640
   13          1           0.002984233    0.000140182    0.000040623
   14          1           0.000640804   -0.000069175    0.000121252
 -------------------------------------------------------------------
 Cartesian Forces:  Max     0.006232860 RMS     0.001411969

 GradGradGradGradGradGradGradGradGradGradGradGradGradGradGradGradGradGrad
 Berny optimization.
 Internal  Forces:  Max     0.003085664 RMS     0.000532292
 Search for a local minimum.
 Step number   1 out of a maximum of  73 on scan point     2 out of    37
 All quantities printed in internal units (Hartrees-Bohrs-Radians)
 Second derivative matrix not updated -- first step.
     Eigenvalues ---    0.01800   0.01918   0.02002   0.02048   0.02073
     Eigenvalues ---    0.02089   0.02146   0.02160   0.02213   0.02225
     Eigenvalues ---    0.16000   0.16000   0.16000   0.16000   0.16000
     Eigenvalues ---    0.16000   0.16000   0.21998   0.22000   0.23441
     Eigenvalues ---    0.24969   0.35415   0.35415   0.35449   0.35449
     Eigenvalues ---    0.35550   0.35662   0.35662   0.39369   0.40393
     Eigenvalues ---    0.44272   0.44378   0.44958   0.46785   0.48593
     Eigenvalues --- 1000.000001000.000001000.000001000.000001000.00000
     Eigenvalues --- 1000.000001000.000001000.000001000.000001000.00000
     Eigenvalues --- 1000.000001000.000001000.000001000.000001000.00000
     Eigenvalues --- 1000.000001000.000001000.000001000.000001000.00000
     Eigenvalues --- 1000.000001000.000001000.000001000.000001000.00000
     Eigenvalues --- 1000.000001000.000001000.00000
 RFO step:  Lambda=-3.94718032D-05.
 Linear search not attempted -- first point.
 Iteration  1 RMS(Cart)=  0.00665003 RMS(Int)=  0.00007469
 Iteration  2 RMS(Cart)=  0.00006899 RMS(Int)=  0.00002038
 Iteration  3 RMS(Cart)=  0.00000001 RMS(Int)=  0.00002038
 Iteration  1 RMS(Cart)=  0.00000057 RMS(Int)=  0.00000054
 Variable       Old X    -DE/DX   Delta X   Delta X   Delta X     New X
                                 (Linear)    (Quad)   (Total)
    R1        2.64556   0.00005   0.00000   0.00012   0.00012   2.64568
    R2        2.64555   0.00004   0.00000   0.00008   0.00008   2.64563
    R3        2.04794   0.00000   0.00000   0.00000   0.00000   2.04794
    R4        2.61317   0.00001   0.00000   0.00003   0.00003   2.61320
    R5        2.04956   0.00000   0.00000   0.00000   0.00000   2.04955
    R6        2.69376  -0.00016   0.00000  -0.00038  -0.00038   2.69338
    R7        2.05011   0.00001   0.00000   0.00003   0.00003   2.05014
    R8        2.69375  -0.00016   0.00000  -0.00039  -0.00039   2.69336
    R9        2.65329   0.00061   0.00000   0.00135   0.00135   2.65464
   R10        2.61317   0.00004   0.00000   0.00008   0.00008   2.61325
   R11        2.05010   0.00001   0.00000   0.00004   0.00004   2.05014
   R12        2.04956   0.00000   0.00000   0.00000   0.00000   2.04956
   R13        2.04707  -0.00019   0.00000  -0.00053  -0.00053   2.04653
   R14        2.04617   0.00013   0.00000   0.00036   0.00036   2.04652
    A1        2.08644   0.00003   0.00000   0.00017   0.00017   2.08661
    A2        2.09836  -0.00001   0.00000  -0.00007  -0.00007   2.09829
    A3        2.09836  -0.00001   0.00000  -0.00008  -0.00008   2.09828
    A4        2.10311  -0.00003   0.00000  -0.00009  -0.00010   2.10301
    A5        2.09042   0.00003   0.00000   0.00010   0.00010   2.09053
    A6        2.08965   0.00001   0.00000  -0.00001  -0.00001   2.08965
    A7        2.11472  -0.00006   0.00000  -0.00023  -0.00023   2.11448
    A8        2.09596   0.00004   0.00000   0.00019   0.00019   2.09615
    A9        2.07251   0.00002   0.00000   0.00004   0.00004   2.07255
   A10        2.04406   0.00019   0.00000   0.00063   0.00063   2.04468
   A11        2.11907  -0.00009   0.00000  -0.00030  -0.00030   2.11877
   A12        2.11909  -0.00006   0.00000  -0.00018  -0.00018   2.11891
   A13        2.11472  -0.00006   0.00000  -0.00022  -0.00023   2.11449
   A14        2.07250   0.00003   0.00000   0.00007   0.00007   2.07257
   A15        2.09596   0.00004   0.00000   0.00015   0.00015   2.09611
   A16        2.10311  -0.00004   0.00000  -0.00012  -0.00013   2.10298
   A17        2.09042   0.00003   0.00000   0.00010   0.00010   2.09052
   A18        2.08966   0.00001   0.00000   0.00002   0.00002   2.08968
   A19        2.11013   0.00042   0.00000   0.00286   0.00277   2.11290
   A20        2.11065   0.00008   0.00000   0.00071   0.00062   2.11127
   A21        2.05305  -0.00010   0.00000  -0.00036  -0.00046   2.05260
    D1       -0.00457   0.00010   0.00000   0.00094   0.00094  -0.00363
    D2        3.13403   0.00014   0.00000   0.00087   0.00087   3.13490
    D3       -3.14010  -0.00008   0.00000  -0.00253  -0.00253   3.14056
    D4       -0.00150  -0.00003   0.00000  -0.00260  -0.00260  -0.00409
    D5        0.00457  -0.00014   0.00000  -0.00310  -0.00310   0.00147
    D6       -3.13403  -0.00021   0.00000  -0.00397  -0.00397  -3.13800
    D7        3.14010   0.00003   0.00000   0.00038   0.00038   3.14047
    D8        0.00150  -0.00004   0.00000  -0.00050  -0.00050   0.00100
    D9       -0.00900   0.00025   0.00000   0.00448   0.00448  -0.00452
   D10        3.13555   0.00013   0.00000   0.00115   0.00115   3.13671
   D11        3.13558   0.00020   0.00000   0.00455   0.00455   3.14013
   D12       -0.00305   0.00008   0.00000   0.00122   0.00122  -0.00183
   D13        0.02167  -0.00052   0.00000  -0.00747  -0.00747   0.01421
   D14        3.11657   0.00037   0.00000  -0.00374  -0.00374   3.11283
   D15       -3.12285  -0.00041   0.00000  -0.00418  -0.00418  -3.12703
   D16       -0.02795   0.00049   0.00000  -0.00045  -0.00045  -0.02841
   D17       -0.02167   0.00048   0.00000   0.00531   0.00531  -0.01636
   D18        3.12285   0.00047   0.00000   0.00751   0.00751   3.13035
   D19       -3.11657  -0.00042   0.00000   0.00158   0.00158  -3.11498
   D20        0.02795  -0.00042   0.00000   0.00378   0.00378   0.03174
   D21        0.17453  -0.00309   0.00000   0.00000   0.00000   0.17453
   D22       -3.11711   0.00009   0.00000   0.02558   0.02559  -3.09152
   D23       -3.01577  -0.00215   0.00000   0.00391   0.00391  -3.01186
   D24       -0.02422   0.00103   0.00000   0.02949   0.02949   0.00527
   D25        0.00900  -0.00016   0.00000  -0.00016  -0.00016   0.00885
   D26       -3.13558  -0.00009   0.00000   0.00072   0.00072  -3.13486
   D27       -3.13555  -0.00015   0.00000  -0.00239  -0.00239  -3.13794
   D28        0.00305  -0.00008   0.00000  -0.00151  -0.00151   0.00154
         Item               Value     Threshold  Converged?
 Maximum Force            0.000610     0.000450     NO 
 RMS     Force            0.000152     0.000300     YES
 Maximum Displacement     0.041820     0.001800     NO 
 RMS     Displacement     0.006650     0.001200     NO 
 Predicted change in Energy=-1.978608D-05
 GradGradGradGradGradGradGradGradGradGradGradGradGradGradGradGradGradGrad

                          Input orientation:                          
 ---------------------------------------------------------------------
 Center     Atomic     Atomic              Coordinates (Angstroms)
 Number     Number      Type              X           Y           Z
 ---------------------------------------------------------------------
    1          6             0       -0.003629   -0.000188   -1.909576
    2          6             0        0.006270    1.209859   -1.205463
    3          6             0        0.007222    1.217088    0.177364
    4          6             0       -0.007301    0.001291    0.921029
    5          6             0       -0.004746   -1.215339    0.178609
    6          6             0       -0.008189   -1.209531   -1.204248
    7          1             0       -0.005304   -0.000731   -2.993296
    8          1             0        0.016126    2.148816   -1.748208
    9          1             0        0.019504    2.158432    0.716535
   10          1             0       -0.004889   -2.156223    0.718716
   11          1             0       -0.012477   -2.149078   -1.746046
   12          6             0        0.028075    0.001930    2.325361
   13          1             0       -0.093887    0.919861    2.886940
   14          1             0        0.063225   -0.926187    2.882313
 ---------------------------------------------------------------------
                    Distance matrix (angstroms):
                    1          2          3          4          5
     1  C    0.000000
     2  C    1.400031   0.000000
     3  C    2.416029   1.382847   0.000000
     4  C    2.830608   2.445974   1.425276   0.000000
     5  C    2.416010   2.792376   2.432456   1.425266   0.000000
     6  C    1.400006   2.419434   2.792413   2.445996   1.382874
     7  H    1.083722   2.159169   3.396517   3.914326   3.396506
     8  H    2.155145   1.084578   2.139164   3.425965   3.876931
     9  H    3.399505   2.143372   1.084889   2.166978   3.416472
    10  H    3.399471   3.877254   3.416495   2.166980   1.084887
    11  H    2.155121   3.402211   3.876980   3.425990   2.139212
    12  C    4.235056   3.731794   2.467982   1.404778   2.468069
    13  H    4.884792   4.103887   2.727703   2.171652   3.449939
    14  H    4.880998   4.612576   3.451596   2.170674   2.719972
                    6          7          8          9         10
     6  C    0.000000
     7  H    2.159143   0.000000
     8  H    3.402202   2.484202   0.000000
     9  H    3.877286   4.292487   2.464763   0.000000
    10  H    2.143369   4.292456   4.961806   4.314724   0.000000
    11  H    1.084579   2.484166   4.297990   4.961852   2.464785
    12  C    3.731902   5.318763   4.604696   2.690519   2.690728
    13  H    4.612968   5.952521   4.796563   2.501514   3.764493
    14  H    4.096995   5.948441   5.558740   3.769268   2.489735
                   11         12         13         14
    11  H    0.000000
    12  C    4.604871   0.000000
    13  H    5.557839   1.082979   0.000000
    14  H    4.787787   1.082974   1.852728   0.000000
 Symmetry turned off by external request.
 Stoichiometry    C7H7(2)
 Framework group  C1[X(C7H7)]
 Deg. of freedom    36
 Full point group                 C1
 Rotational constants (GHZ):      5.5505621      2.7060213      1.8194255
 Standard basis: CBSB7 (5D, 7F)
 Integral buffers will be    131072 words long.
 Raffenetti 2 integral format.
 Two-electron integral symmetry is turned off.
   168 basis functions,   280 primitive gaussians,   175 cartesian basis functions
    25 alpha electrons       24 beta electrons
       nuclear repulsion energy       260.0855343166 Hartrees.
 NAtoms=   14 NActive=   14 NUniq=   14 SFac= 7.50D-01 NAtFMM=   80 NAOKFM=F Big=F
 One-electron integrals computed using PRISM.
 NBasis=   168 RedAO= T  NBF=   168
 NBsUse=   168 1.00D-06 NBFU=   168
 Initial guess read from the read-write file:
 <S**2> of initial guess= 0.7811
 Harris functional with IExCor=  402 diagonalized for initial guess.
 ExpMin= 1.03D-01 ExpMax= 4.56D+03 ExpMxC= 6.82D+02 IAcc=1 IRadAn=         1 AccDes= 1.00D-06
 HarFok:  IExCor= 402 AccDes= 1.00D-06 IRadAn=         1 IDoV=1
 ScaDFX=  1.000000  1.000000  1.000000  1.000000
 Requested convergence on RMS density matrix=1.00D-08 within 128 cycles.
 Requested convergence on MAX density matrix=1.00D-06.
 Requested convergence on             energy=1.00D-06.
 No special actions if energy rises.
 Integral accuracy reduced to 1.0D-05 until final iterations.
 Initial convergence to 1.0D-05 achieved.  Increase integral accuracy.
 SCF Done:  E(UB+HF-LYP) =  -270.983487875     A.U. after   13 cycles
             Convg  =    0.4853D-08             -V/T =  2.0045
             S**2   =   0.7810
 Annihilation of the first spin contaminant:
 S**2 before annihilation     0.7810,   after     0.7506
 -------------------------------------------------------------------
 Center     Atomic                   Forces (Hartrees/Bohr)
 Number     Number              X              Y              Z
 -------------------------------------------------------------------
    1          6          -0.000032991   -0.000007532    0.000038673
    2          6          -0.000034900   -0.000029042   -0.000058121
    3          6          -0.002172240    0.000016705    0.000190903
    4          6           0.004653986    0.000031686   -0.000406672
    5          6          -0.000055867    0.000055227    0.000170754
    6          6           0.000022159    0.000041210   -0.000071507
    7          1           0.000019665    0.000000400   -0.000002271
    8          1           0.000018594   -0.000004195   -0.000002848
    9          1          -0.000030864   -0.000008064   -0.000003518
   10          1          -0.000016349    0.000007215   -0.000002737
   11          1          -0.000010790    0.000004034   -0.000000946
   12          6          -0.005313529   -0.000483645    0.000252348
   13          1           0.002853710    0.000374625   -0.000073777
   14          1           0.000099415    0.000001377   -0.000030280
 -------------------------------------------------------------------
 Cartesian Forces:  Max     0.005313529 RMS     0.001229263

 GradGradGradGradGradGradGradGradGradGradGradGradGradGradGradGradGradGrad
 Berny optimization.
 Internal  Forces:  Max     0.002944372 RMS     0.000488272
 Search for a local minimum.
 Step number   2 out of a maximum of  73 on scan point     2 out of    37
 All quantities printed in internal units (Hartrees-Bohrs-Radians)
 Update second derivatives using D2CorX and points  1  2
 Trust test= 1.14D+00 RLast= 4.28D-02 DXMaxT set to 3.00D-01
     Eigenvalues ---    0.01702   0.01813   0.01961   0.02005   0.02051
     Eigenvalues ---    0.02102   0.02151   0.02162   0.02211   0.02226
     Eigenvalues ---    0.15932   0.16000   0.16000   0.16000   0.16000
     Eigenvalues ---    0.16000   0.16045   0.21999   0.22002   0.23388
     Eigenvalues ---    0.24976   0.35415   0.35416   0.35449   0.35449
     Eigenvalues ---    0.35550   0.35634   0.35680   0.39248   0.40395
     Eigenvalues ---    0.44272   0.44347   0.44878   0.46784   0.48597
     Eigenvalues --- 1000.000001000.000001000.000001000.000001000.00000
     Eigenvalues --- 1000.000001000.000001000.000001000.000001000.00000
     Eigenvalues --- 1000.000001000.000001000.000001000.000001000.00000
     Eigenvalues --- 1000.000001000.000001000.000001000.000001000.00000
     Eigenvalues --- 1000.000001000.000001000.000001000.000001000.00000
     Eigenvalues --- 1000.000001000.000001000.00000
 RFO step:  Lambda=-3.15208977D-07.
 Quartic linear search produced a step of  0.17760.
 Iteration  1 RMS(Cart)=  0.00112203 RMS(Int)=  0.00000472
 Iteration  2 RMS(Cart)=  0.00000231 RMS(Int)=  0.00000417
 Iteration  3 RMS(Cart)=  0.00000000 RMS(Int)=  0.00000417
 Iteration  1 RMS(Cart)=  0.00000031 RMS(Int)=  0.00000029
 Variable       Old X    -DE/DX   Delta X   Delta X   Delta X     New X
                                 (Linear)    (Quad)   (Total)
    R1        2.64568  -0.00002   0.00002  -0.00009  -0.00007   2.64560
    R2        2.64563  -0.00003   0.00001  -0.00010  -0.00009   2.64554
    R3        2.04794   0.00000   0.00000   0.00001   0.00001   2.04795
    R4        2.61320   0.00004   0.00000   0.00010   0.00010   2.61331
    R5        2.04955   0.00000   0.00000  -0.00001  -0.00001   2.04955
    R6        2.69338  -0.00010  -0.00007  -0.00022  -0.00029   2.69309
    R7        2.05014  -0.00001   0.00001  -0.00004  -0.00003   2.05011
    R8        2.69336  -0.00013  -0.00007  -0.00029  -0.00036   2.69300
    R9        2.65464   0.00009   0.00024   0.00000   0.00024   2.65489
   R10        2.61325   0.00005   0.00001   0.00012   0.00013   2.61339
   R11        2.05014  -0.00001   0.00001  -0.00003  -0.00003   2.05011
   R12        2.04956   0.00000   0.00000  -0.00001  -0.00001   2.04955
   R13        2.04653  -0.00004  -0.00010  -0.00005  -0.00014   2.04639
   R14        2.04652  -0.00001   0.00006  -0.00010  -0.00004   2.04648
    A1        2.08661   0.00000   0.00003   0.00000   0.00003   2.08663
    A2        2.09829   0.00000  -0.00001  -0.00001  -0.00002   2.09827
    A3        2.09828   0.00000  -0.00001   0.00001  -0.00001   2.09828
    A4        2.10301  -0.00001  -0.00002  -0.00001  -0.00003   2.10298
    A5        2.09053   0.00000   0.00002  -0.00004  -0.00002   2.09051
    A6        2.08965   0.00001   0.00000   0.00005   0.00005   2.08969
    A7        2.11448  -0.00004  -0.00004  -0.00010  -0.00014   2.11434
    A8        2.09615   0.00002   0.00003   0.00005   0.00008   2.09623
    A9        2.07255   0.00002   0.00001   0.00005   0.00006   2.07261
   A10        2.04468   0.00009   0.00011   0.00021   0.00032   2.04500
   A11        2.11877  -0.00002  -0.00005  -0.00003  -0.00008   2.11869
   A12        2.11891  -0.00004  -0.00003  -0.00014  -0.00017   2.11874
   A13        2.11449  -0.00004  -0.00004  -0.00012  -0.00016   2.11433
   A14        2.07257   0.00002   0.00001   0.00006   0.00007   2.07264
   A15        2.09611   0.00002   0.00003   0.00006   0.00009   2.09619
   A16        2.10298   0.00000  -0.00002   0.00002   0.00000   2.10298
   A17        2.09052   0.00000   0.00002  -0.00004  -0.00002   2.09050
   A18        2.08968   0.00001   0.00000   0.00002   0.00002   2.08970
   A19        2.11290   0.00014   0.00049   0.00004   0.00052   2.11341
   A20        2.11127   0.00004   0.00011  -0.00031  -0.00022   2.11105
   A21        2.05260   0.00009  -0.00008   0.00024   0.00014   2.05273
    D1       -0.00363   0.00008   0.00017   0.00015   0.00032  -0.00331
    D2        3.13490   0.00012   0.00016  -0.00028  -0.00013   3.13478
    D3        3.14056  -0.00002  -0.00045   0.00095   0.00050   3.14106
    D4       -0.00409   0.00003  -0.00046   0.00052   0.00006  -0.00404
    D5        0.00147  -0.00008  -0.00055   0.00019  -0.00036   0.00112
    D6       -3.13800  -0.00014  -0.00071  -0.00003  -0.00074  -3.13874
    D7        3.14047   0.00002   0.00007  -0.00061  -0.00054   3.13993
    D8        0.00100  -0.00004  -0.00009  -0.00083  -0.00092   0.00007
    D9       -0.00452   0.00016   0.00080  -0.00037   0.00043  -0.00410
   D10        3.13671   0.00011   0.00020   0.00049   0.00069   3.13740
   D11        3.14013   0.00012   0.00081   0.00006   0.00087   3.14100
   D12       -0.00183   0.00007   0.00022   0.00092   0.00114  -0.00069
   D13        0.01421  -0.00038  -0.00133   0.00024  -0.00109   0.01312
   D14        3.11283   0.00043  -0.00066   0.00124   0.00058   3.11341
   D15       -3.12703  -0.00034  -0.00074  -0.00060  -0.00135  -3.12837
   D16       -0.02841   0.00048  -0.00008   0.00040   0.00032  -0.02809
   D17       -0.01636   0.00038   0.00094   0.00010   0.00105  -0.01532
   D18        3.13035   0.00034   0.00133   0.00006   0.00140   3.13175
   D19       -3.11498  -0.00043   0.00028  -0.00090  -0.00062  -3.11560
   D20        0.03174  -0.00048   0.00067  -0.00094  -0.00027   0.03147
   D21        0.17453  -0.00294   0.00000   0.00000   0.00000   0.17453
   D22       -3.09152  -0.00034   0.00454  -0.00027   0.00428  -3.08725
   D23       -3.01186  -0.00209   0.00069   0.00106   0.00175  -3.01011
   D24        0.00527   0.00051   0.00524   0.00079   0.00602   0.01129
   D25        0.00885  -0.00016  -0.00003  -0.00032  -0.00035   0.00850
   D26       -3.13486  -0.00010   0.00013  -0.00009   0.00003  -3.13483
   D27       -3.13794  -0.00011  -0.00042  -0.00028  -0.00071  -3.13865
   D28        0.00154  -0.00006  -0.00027  -0.00006  -0.00032   0.00121
         Item               Value     Threshold  Converged?
 Maximum Force            0.000124     0.000450     YES
 RMS     Force            0.000035     0.000300     YES
 Maximum Displacement     0.006948     0.001800     NO 
 RMS     Displacement     0.001122     0.001200     YES
 Predicted change in Energy=-6.686467D-07
 GradGradGradGradGradGradGradGradGradGradGradGradGradGradGradGradGradGrad

                          Input orientation:                          
 ---------------------------------------------------------------------
 Center     Atomic     Atomic              Coordinates (Angstroms)
 Number     Number      Type              X           Y           Z
 ---------------------------------------------------------------------
    1          6             0       -0.003340   -0.000209   -1.909545
    2          6             0        0.006408    1.209846   -1.205520
    3          6             0        0.007118    1.217115    0.177362
    4          6             0       -0.006986    0.001358    0.920811
    5          6             0       -0.005134   -1.215253    0.178724
    6          6             0       -0.008381   -1.209488   -1.204204
    7          1             0       -0.004356   -0.000796   -2.993271
    8          1             0        0.016754    2.148756   -1.748330
    9          1             0        0.018634    2.158425    0.716577
   10          1             0       -0.006312   -2.156060    0.718938
   11          1             0       -0.013249   -2.149032   -1.745991
   12          6             0        0.027456    0.001990    2.325294
[...]
  Beta virt. eigenvalues --    0.95630   0.99366   1.03209   1.04378   1.06888
  Beta virt. eigenvalues --    1.07855   1.08317   1.14262   1.15305   1.24238
  Beta virt. eigenvalues --    1.32315   1.38943   1.40023   1.42670   1.47056
  Beta virt. eigenvalues --    1.47492   1.50308   1.53418   1.54444   1.55027
  Beta virt. eigenvalues --    1.56226   1.58996   1.64441   1.64688   1.65608
  Beta virt. eigenvalues --    1.73122   1.74314   1.75963   1.77108   1.82716
  Beta virt. eigenvalues --    1.83138   1.84018   1.86292   1.89994   1.90881
  Beta virt. eigenvalues --    1.91066   1.92629   1.96220   2.02967   2.08069
  Beta virt. eigenvalues --    2.08904   2.09234   2.11061   2.19581   2.23864
  Beta virt. eigenvalues --    2.27254   2.30028   2.32113   2.36618   2.37153
  Beta virt. eigenvalues --    2.45124   2.47266   2.55286   2.55430   2.59778
  Beta virt. eigenvalues --    2.61134   2.61637   2.63370   2.64803   2.65314
  Beta virt. eigenvalues --    2.67331   2.67856   2.70188   2.71488   2.75260
  Beta virt. eigenvalues --    2.79743   2.84481   2.85123   2.89377   2.91335
  Beta virt. eigenvalues --    3.04374   3.09709   3.13485   3.30505   3.30868
  Beta virt. eigenvalues --    3.36195   3.46302   3.47420   3.55367   3.63023
  Beta virt. eigenvalues --    3.77112   3.96693   4.02189   4.11146   4.12280
  Beta virt. eigenvalues --    4.36571   4.81653  23.52983  23.86098  23.89958
  Beta virt. eigenvalues --   24.01577  24.04600  24.11216  24.18495
          Condensed to atoms (all electrons):
              1          2          3          4          5          6
     1  C    4.904080   0.503277  -0.063685  -0.035499  -0.063687   0.503277
     2  C    0.503277   4.838217   0.543819  -0.047715  -0.033297  -0.055817
     3  C   -0.063685   0.543819   4.885823   0.480227  -0.060701  -0.033294
     4  C   -0.035499  -0.047715   0.480227   4.902349   0.480229  -0.047711
     5  C   -0.063687  -0.033297  -0.060701   0.480229   4.885880   0.543816
     6  C    0.503277  -0.055817  -0.033294  -0.047711   0.543816   4.838193
     7  H    0.415253  -0.041612   0.007447  -0.000354   0.007446  -0.041609
     8  H   -0.043372   0.414840  -0.041045   0.008015  -0.000355   0.007323
     9  H    0.007926  -0.039045   0.414877  -0.046264   0.007653  -0.000718
    10  H    0.007926  -0.000718   0.007653  -0.046265   0.414871  -0.039040
    11  H   -0.043369   0.007322  -0.000355   0.008016  -0.041049   0.414842
    12  C    0.000552   0.005434  -0.068835   0.495008  -0.068845   0.005436
    13  H    0.000007   0.000405  -0.008705  -0.033602   0.006826  -0.000435
    14  H    0.000007  -0.000435   0.006826  -0.033609  -0.008711   0.000406
              7          8          9         10         11         12
     1  C    0.415253  -0.043372   0.007926   0.007926  -0.043369   0.000552
     2  C   -0.041612   0.414840  -0.039045  -0.000718   0.007322   0.005434
     3  C    0.007447  -0.041045   0.414877   0.007653  -0.000355  -0.068835
     4  C   -0.000354   0.008015  -0.046264  -0.046265   0.008016   0.495008
     5  C    0.007446  -0.000355   0.007653   0.414871  -0.041049  -0.068845
     6  C   -0.041609   0.007323  -0.000718  -0.039040   0.414842   0.005436
     7  H    0.573318  -0.007760  -0.000344  -0.000344  -0.007757   0.000033
     8  H   -0.007760   0.577754  -0.008995   0.000079  -0.000388  -0.000347
     9  H   -0.000344  -0.008995   0.580802  -0.000352   0.000079  -0.007386
    10  H   -0.000344   0.000079  -0.000352   0.580802  -0.008995  -0.007390
    11  H   -0.007757  -0.000388   0.000079  -0.008995   0.577751  -0.000347
    12  C    0.000033  -0.000347  -0.007386  -0.007390  -0.000347   5.003337
    13  H   -0.000002  -0.000025   0.003634  -0.000031   0.000020   0.405057
    14  H   -0.000002   0.000020  -0.000032   0.003634  -0.000025   0.405065
             13         14
     1  C    0.000007   0.000007
     2  C    0.000405  -0.000435
     3  C   -0.008705   0.006826
     4  C   -0.033602  -0.033609
     5  C    0.006826  -0.008711
     6  C   -0.000435   0.000406
     7  H   -0.000002  -0.000002
     8  H   -0.000025   0.000020
     9  H    0.003634  -0.000032
    10  H   -0.000031   0.003634
    11  H    0.000020  -0.000025
    12  C    0.405057   0.405065
    13  H    0.559813  -0.038275
    14  H   -0.038275   0.559812
 Mulliken atomic charges:
              1
     1  C   -0.092694
     2  C   -0.094676
     3  C   -0.070051
     4  C   -0.082824
     5  C   -0.070076
     6  C   -0.094668
     7  H    0.096286
     8  H    0.094254
     9  H    0.088165
    10  H    0.088171
    11  H    0.094254
    12  C   -0.166772
    13  H    0.105314
    14  H    0.105318
 Sum of Mulliken charges=   0.00000
 Atomic charges with hydrogens summed into heavy atoms:
              1
     1  C    0.003592
     2  C   -0.000422
     3  C    0.018114
     4  C   -0.082824
     5  C    0.018095
     6  C   -0.000415
     7  H    0.000000
     8  H    0.000000
     9  H    0.000000
    10  H    0.000000
    11  H    0.000000
    12  C    0.043860
    13  H    0.000000
    14  H    0.000000
 Sum of Mulliken charges=   0.00000
          Atomic-Atomic Spin Densities.
              1          2          3          4          5          6
     1  C    0.315715  -0.001779  -0.015154  -0.001118  -0.015156  -0.001783
     2  C   -0.001779  -0.136971   0.004288   0.001660   0.001159  -0.000081
     3  C   -0.015154   0.004288   0.262372   0.005827   0.009042   0.001160
     4  C   -0.001118   0.001660   0.005827  -0.166648   0.005824   0.001658
     5  C   -0.015156   0.001159   0.009042   0.005824   0.262408   0.004295
     6  C   -0.001783  -0.000081   0.001160   0.001658   0.004295  -0.136977
     7  H    0.002264   0.000188  -0.000144  -0.000064  -0.000144   0.000189
     8  H   -0.000392   0.000192  -0.000587   0.000142  -0.000042   0.000049
     9  H   -0.000145   0.000759   0.001618   0.000829  -0.000199  -0.000003
    10  H   -0.000145  -0.000003  -0.000199   0.000829   0.001618   0.000759
    11  H   -0.000392   0.000049  -0.000042   0.000142  -0.000587   0.000192
    12  C    0.000897  -0.000577  -0.022648  -0.034069  -0.022657  -0.000578
    13  H   -0.000003  -0.000099   0.001062  -0.004831  -0.000641   0.000064
    14  H   -0.000003   0.000064  -0.000641  -0.004833   0.001062  -0.000099
              7          8          9         10         11         12
     1  C    0.002264  -0.000392  -0.000145  -0.000145  -0.000392   0.000897
     2  C    0.000188   0.000192   0.000759  -0.000003   0.000049  -0.000577
     3  C   -0.000144  -0.000587   0.001618  -0.000199  -0.000042  -0.022648
     4  C   -0.000064   0.000142   0.000829   0.000829   0.000142  -0.034069
     5  C   -0.000144  -0.000042  -0.000199   0.001618  -0.000587  -0.022657
     6  C    0.000189   0.000049  -0.000003   0.000759   0.000192  -0.000578
     7  H   -0.018656   0.000162   0.000010   0.000010   0.000162   0.000001
     8  H    0.000162   0.006399   0.000058  -0.000002  -0.000002  -0.000005
     9  H    0.000010   0.000058  -0.016022   0.000006  -0.000002   0.000358
    10  H    0.000010  -0.000002   0.000006  -0.016024   0.000058   0.000358
    11  H    0.000162  -0.000002  -0.000002   0.000058   0.006399  -0.000005
    12  C    0.000001  -0.000005   0.000358   0.000358  -0.000005   0.852855
    13  H    0.000000  -0.000001  -0.000133  -0.000044   0.000000   0.007288
    14  H    0.000000   0.000000  -0.000044  -0.000133  -0.000001   0.007290
             13         14
     1  C   -0.000003  -0.000003
     2  C   -0.000099   0.000064
     3  C    0.001062  -0.000641
     4  C   -0.004831  -0.004833
     5  C   -0.000641   0.001062
     6  C    0.000064  -0.000099
     7  H    0.000000   0.000000
     8  H   -0.000001   0.000000
     9  H   -0.000133  -0.000044
    10  H   -0.000044  -0.000133
    11  H    0.000000  -0.000001
    12  C    0.007288   0.007290
    13  H   -0.044945   0.004090
    14  H    0.004090  -0.044946
 Mulliken atomic spin densities:
              1
     1  C    0.282806
     2  C   -0.131152
     3  C    0.245953
     4  C   -0.194653
     5  C    0.245982
     6  C   -0.131155
     7  H   -0.016022
     8  H    0.005971
     9  H   -0.012909
    10  H   -0.012911
    11  H    0.005971
    12  C    0.788507
    13  H   -0.038194
    14  H   -0.038194
 Sum of Mulliken spin densities=   1.00000
 Electronic spatial extent (au):  <R**2>=   681.1875
 Charge=     0.0000 electrons
 Dipole moment (field-independent basis, Debye):
    X=    -0.0008    Y=    -0.0001    Z=    -0.1321  Tot=     0.1321
 Quadrupole moment (field-independent basis, Debye-Ang):
   XX=   -44.7944   YY=   -38.7428   ZZ=   -37.6749
   XY=     3.3557   XZ=     0.0639   YZ=    -0.0301
 Traceless Quadrupole moment (field-independent basis, Debye-Ang):
   XX=    -4.3903   YY=     1.6612   ZZ=     2.7291
   XY=     3.3557   XZ=     0.0639   YZ=    -0.0301
 Octapole moment (field-independent basis, Debye-Ang**2):
  XXX=     0.0797  YYY=    -0.0110  ZZZ=     4.2200  XYY=     0.0279
  XXY=     0.0003  XXZ=     2.9506  XZZ=    -0.0149  YZZ=     0.0018
  YYZ=     3.0252  XYZ=     0.0439
 Hexadecapole moment (field-independent basis, Debye-Ang**3):
 XXXX=  -100.1892 YYYY=  -258.2592 ZZZZ=  -553.4428 XXXY=   -51.6158
 XXXZ=    -2.3224 YYYX=   -36.0254 YYYZ=     0.3855 ZZZX=    -1.6184
 ZZZY=     0.2310 XXYY=   -58.6634 XXZZ=  -122.1711 YYZZ=  -132.2355
 XXYZ=     0.3857 YYXZ=    -0.6465 ZZXY=    -5.5822
 N-N= 2.600920017444D+02 E-N=-1.148474986673D+03  KE= 2.697734040584D+02
                          Isotropic Fermi Contact Couplings
        Atom                 a.u.       MegaHertz       Gauss      10(-4) cm-1
     1  C(13)              0.01858      20.88234       7.45134       6.96560
     2  C(13)             -0.01764     -19.82562      -7.07427      -6.61311
     3  C(13)              0.01776      19.96827       7.12518       6.66070
     4  C(13)             -0.03582     -40.27309     -14.37044     -13.43366
     5  C(13)              0.01776      19.97121       7.12622       6.66168
     6  C(13)             -0.01764     -19.82637      -7.07454      -6.61337
     7  H(1)              -0.00384     -17.16577      -6.12517      -5.72588
     8  H(1)               0.00140       6.27990       2.24083       2.09475
     9  H(1)              -0.00333     -14.86751      -5.30510      -4.95927
    10  H(1)              -0.00333     -14.86916      -5.30569      -4.95982
    11  H(1)               0.00140       6.28012       2.24090       2.09482
    12  C(13)              0.04535      50.97706      18.18988      17.00412
    13  H(1)              -0.01012     -45.24791     -16.14558     -15.09308
    14  H(1)              -0.01012     -45.24680     -16.14518     -15.09271
 --------------------------------------------------------
       Center         ----  Spin Dipole Couplings  ----
                      3XX-RR        3YY-RR        3ZZ-RR
 --------------------------------------------------------
     1   Atom        0.223344     -0.080661     -0.142683
     2   Atom       -0.086355      0.024659      0.061696
     3   Atom        0.196403     -0.066038     -0.130365
     4   Atom       -0.115263      0.024444      0.090819
     5   Atom        0.196586     -0.066192     -0.130394
     6   Atom       -0.086447      0.024695      0.061752
     7   Atom       -0.003872     -0.017109      0.020981
     8   Atom       -0.003550     -0.001288      0.004838
     9   Atom       -0.001667      0.009213     -0.007546
    10   Atom       -0.001810      0.009240     -0.007430
    11   Atom       -0.003601     -0.001282      0.004883
    12   Atom        0.632550     -0.208570     -0.423979
    13   Atom        0.002615      0.021967     -0.024582
    14   Atom        0.001962      0.022083     -0.024046
 --------------------------------------------------------
                        XY            XZ            YZ
 --------------------------------------------------------
     1   Atom       -0.168474     -0.003307      0.001513
     2   Atom        0.061613      0.003184      0.003531
     3   Atom       -0.145740     -0.003430      0.000392
     4   Atom        0.077463      0.001752     -0.000679
     5   Atom       -0.145617     -0.002513      0.002256
     6   Atom        0.061521     -0.000484     -0.004669
     7   Atom       -0.007335      0.000211      0.000039
     8   Atom        0.001298      0.001498      0.003184
     9   Atom        0.006161      0.003811      0.008632
    10   Atom        0.006008     -0.003907     -0.008719
    11   Atom        0.001242     -0.001346     -0.003213
    12   Atom       -0.466387     -0.009125      0.004033
    13   Atom        0.011297      0.018908      0.042929
    14   Atom        0.010587     -0.019335     -0.043062
 --------------------------------------------------------


 ---------------------------------------------------------------------------------
              Anisotropic Spin Dipole Couplings in Principal Axis System
 ---------------------------------------------------------------------------------

       Atom             a.u.   MegaHertz   Gauss  10(-4) cm-1        Axes

              Baa    -0.1556   -20.876    -7.449    -6.963  0.4063  0.9138 -0.0030
     1 C(13)  Bbb    -0.1427   -19.151    -6.833    -6.388  0.0088 -0.0006  1.0000
              Bcc     0.2983    40.027    14.282    13.351  0.9137 -0.4063 -0.0082
 
              Baa    -0.1138   -15.269    -5.449    -5.093  0.9137 -0.4064 -0.0084
     2 C(13)  Bbb     0.0503     6.749     2.408     2.251  0.3750  0.8508 -0.3681
              Bcc     0.0635     8.521     3.040     2.842  0.1567  0.3332  0.9297
 
              Baa    -0.1317   -17.677    -6.308    -5.896  0.3262  0.7200  0.6125
     3 C(13)  Bbb    -0.1296   -17.390    -6.205    -5.801 -0.2431 -0.5623  0.7904
              Bcc     0.2613    35.067    12.513    11.697  0.9135 -0.4067 -0.0084
 
              Baa    -0.1497   -20.093    -7.170    -6.702  0.9137 -0.4064 -0.0078
     4 C(13)  Bbb     0.0589     7.904     2.820     2.636  0.4064  0.9137 -0.0029
              Bcc     0.0908    12.189     4.349     4.066  0.0083 -0.0005  1.0000
 
              Baa    -0.1317   -17.679    -6.308    -5.897  0.3152  0.7214 -0.6166
     5 C(13)  Bbb    -0.1296   -17.392    -6.206    -5.801  0.2564  0.5609  0.7872
              Bcc     0.2614    35.071    12.514    11.698  0.9137 -0.4063 -0.0082
 
              Baa    -0.1138   -15.270    -5.449    -5.093  0.9137 -0.4062 -0.0083
     6 C(13)  Bbb     0.0503     6.749     2.408     2.251  0.3813  0.8504  0.3625
              Bcc     0.0635     8.521     3.041     2.842 -0.1402 -0.3344  0.9319
 
              Baa    -0.0204   -10.869    -3.878    -3.625  0.4063  0.9138 -0.0029
     7 H(1)   Bbb    -0.0006    -0.327    -0.117    -0.109  0.9137 -0.4063 -0.0082
              Bcc     0.0210    11.195     3.995     3.734  0.0087 -0.0006  1.0000
 
              Baa    -0.0041    -2.209    -0.788    -0.737  0.9137 -0.4063 -0.0084
     8 H(1)   Bbb    -0.0024    -1.284    -0.458    -0.428  0.3622  0.8234 -0.4368
              Bcc     0.0065     3.493     1.246     1.165  0.1844  0.3961  0.8995
 
              Baa    -0.0114    -6.061    -2.163    -2.022 -0.1448 -0.3456  0.9271
     9 H(1)   Bbb    -0.0044    -2.372    -0.846    -0.791  0.9136 -0.4065 -0.0088
              Bcc     0.0158     8.433     3.009     2.813  0.3800  0.8457  0.3746
 
              Baa    -0.0114    -6.061    -2.163    -2.022  0.1618  0.3442  0.9248
    10 H(1)   Bbb    -0.0044    -2.372    -0.847    -0.791  0.9136 -0.4065 -0.0085
              Bcc     0.0158     8.433     3.009     2.813  0.3730  0.8463 -0.3803
 
              Baa    -0.0041    -2.209    -0.788    -0.737  0.9137 -0.4064 -0.0084
    11 H(1)   Bbb    -0.0024    -1.284    -0.458    -0.428  0.3700  0.8230  0.4311
              Bcc     0.0065     3.493     1.247     1.165 -0.1683 -0.3970  0.9023
 
              Baa    -0.4241   -56.905   -20.305   -18.981  0.0084 -0.0006  1.0000
    12 C(13)  Bbb    -0.4160   -55.825   -19.920   -18.621  0.4064  0.9137 -0.0028
              Bcc     0.8401   112.730    40.225    37.603  0.9137 -0.4064 -0.0079
 
              Baa    -0.0523   -27.895    -9.954    -9.305 -0.2004 -0.4673  0.8611
    13 H(1)   Bbb    -0.0026    -1.375    -0.491    -0.459  0.9136 -0.4065 -0.0080
              Bcc     0.0549    29.271    10.444     9.764  0.3538  0.7851  0.5084
 
              Baa    -0.0523   -27.897    -9.955    -9.306  0.2148  0.4663  0.8581
    14 H(1)   Bbb    -0.0026    -1.374    -0.490    -0.458  0.9137 -0.4063 -0.0080
              Bcc     0.0549    29.272    10.445     9.764  0.3449  0.7858 -0.5134
 

 ---------------------------------------------------------------------------------

 1\1\GINC-NODE35\Scan\UB3LYP\CBSB7\C7H7(2)\LAITCL\07-Mar-2017\0\\# opt=
 (addred) b3lyp/cbsb7 nosymm\\Benzyl Rot1 Hindered Rotor\\0,2\C,-0.0167
 199661,0.0011363158,-1.9092686557\C,0.4811611102,1.1062099766,-1.20829
 20152\C,0.4961862334,1.1114404418,0.1743400991\C,0.0079509516,-0.00043
 93663,0.920907999\C,-0.4925733578,-1.1117920241,0.1817035871\C,-0.5020
 285658,-1.1048551107,-1.2009949638\H,-0.026133977,0.0018262604,-2.9929
 497867\H,0.8580209277,1.9646243319,-1.7536392037\H,0.8837568058,1.9707
 825631,0.711193843\H,-0.8702114436,-1.971973266,0.7242871066\H,-0.8882
 491809,-1.9627552974,-1.7405551608\C,0.0197569459,-0.0011666946,2.3247
 899136\H,0.4013010362,0.8455946652,2.8816124435\H,-0.3522175197,-0.848
 6327958,2.8868947939\\Version=AM64L-G03RevD.01\HF=-270.983928,-270.983
 4886,-270.9821815,-270.9800603,-270.9772292,-270.9738539,-270.9701788,
 -270.9665569,-270.9634498,-270.9615241,-270.963407,-270.966416,-270.96
 99271,-270.9735357,-270.9769237,-270.9798331,-270.9820548,-270.9834456
 ,-270.983921,-270.9834465,-270.9820543,-270.9798326,-270.9769242,-270.
 9735315,-270.9699238,-270.9664161,-270.9634101,-270.9615305,-270.96344
 97,-270.9665566,-270.9701756,-270.9738474,-270.9772245,-270.9800555,-2
 70.9821779,-270.9834879,-270.9839287\S2=0.781169,0.780957,0.780142,0.7
 78599,0.776082,0.772353,0.767317,0.761446,0.756258,0.753741,0.755995,0
 .760669,0.766177,0.771265,0.775303,0.77813,0.77993,0.780905,0.781221,0
 .780921,0.779933,0.778128,0.775292,0.771261,0.766171,0.760655,0.755987
 ,0.753737,0.756256,0.761465,0.767306,0.772372,0.776087,0.778591,0.7801
 33,0.780964,0.781221\S2-1=0.,0.,0.,0.,0.,0.,0.,0.,0.,0.,0.,0.,0.,0.,0.
 ,0.,0.,0.,0.,0.,0.,0.,0.,0.,0.,0.,0.,0.,0.,0.,0.,0.,0.,0.,0.,0.,0.\S2A
 =0.750656,0.750646,0.750608,0.750542,0.750446,0.750326,0.750199,0.7500
 93,0.750031,0.750009,0.750029,0.750082,0.750176,0.750296,0.75042,0.750
 524,0.750599,0.750643,0.750658,0.750644,0.7506,0.750524,0.75042,0.7502
 96,0.750176,0.750082,0.750029,0.750008,0.750031,0.750094,0.750199,0.75
 0327,0.750446,0.750542,0.750608,0.750646,0.750658\RMSD=9.337e-09,3.315
 e-09,6.244e-09,6.334e-09,2.986e-09,5.316e-09,6.686e-09,2.709e-09,2.787
 e-09,7.156e-09,2.177e-09,4.643e-09,6.537e-09,9.321e-09,4.095e-09,8.075
 e-09,3.446e-09,4.977e-09,2.906e-09,3.087e-09,9.018e-09,4.822e-09,3.105
 e-09,4.327e-09,8.246e-09,6.651e-09,5.704e-09,3.154e-09,2.932e-09,2.358
 e-09,5.755e-09,3.917e-09,9.508e-09,5.416e-09,4.522e-09,5.520e-09,6.908
 e-09\Thermal=0.,0.,0.,0.,0.,0.,0.,0.,0.,0.,0.,0.,0.,0.,0.,0.,0.,0.,0.,
 0.,0.,0.,0.,0.,0.,0.,0.,0.,0.,0.,0.,0.,0.,0.,0.,0.,0.\PG=C01 [X(C7H7)]
 \\@


 IT MATTERS NOT HOW DEEP YOU PLOW,
 BUT HOW LONG YOU STAY IN THE FURROW.
 Job cpu time:  0 days 10 hours 15 minutes 32.6 seconds.
 File lengths (MBytes):  RWF=     48 Int=      0 D2E=      0 Chk=     10 Scr=      1
 Normal termination of Gaussian 03 at Tue Mar  7 15:03:16 2017.
