 Entering Gaussian System, Link 0=/Local/ce_dana/g09/g09
 Initial command:
 /Local/ce_dana/g09/l1.exe "/storage/ce_dana/alongd/scratch/g09/Gau-183657.inp" -scrdir="/storage/ce_dana/alongd/scratch/g09/"
 Entering Link 1 = /Local/ce_dana/g09/l1.exe PID=    183658.
  
 Copyright (c) 1988,1990,1992,1993,1995,1998,2003,2009,2013,
            Gaussian, Inc.  All Rights Reserved.
  
 This is part of the Gaussian(R) 09 program.  It is based on
 the Gaussian(R) 03 system (copyright 2003, Gaussian, Inc.),
 the Gaussian(R) 98 system (copyright 1998, Gaussian, Inc.),
 the Gaussian(R) 94 system (copyright 1995, Gaussian, Inc.),
 the Gaussian 92(TM) system (copyright 1992, Gaussian, Inc.),
 the Gaussian 90(TM) system (copyright 1990, Gaussian, Inc.),
 the Gaussian 88(TM) system (copyright 1988, Gaussian, Inc.),
 the Gaussian 86(TM) system (copyright 1986, Carnegie Mellon
 University), and the Gaussian 82(TM) system (copyright 1983,
 Carnegie Mellon University). Gaussian is a federally registered
 trademark of Gaussian, Inc.
  
 This software contains proprietary and confidential information,
 including trade secrets, belonging to Gaussian, Inc.
  
 This software is provided under written license and may be
 used, copied, transmitted, or stored only in accord with that
 written license.
  
 The following legend is applicable only to US Government
 contracts under FAR:
  
                    RESTRICTED RIGHTS LEGEND
  
 Use, reproduction and disclosure by the US Government is
 subject to restrictions as set forth in subparagraphs (a)
 and (c) of the Commercial Computer Software - Restricted
 Rights clause in FAR 52.227-19.
  
 Gaussian, Inc.
 340 Quinnipiac St., Bldg. 40, Wallingford CT 06492
  
  
 ---------------------------------------------------------------
 Warning -- This program may not be used in any manner that
 competes with the business of Gaussian, Inc. or will provide
 assistance to any competitor of Gaussian, Inc.  The licensee
 of this program is prohibited from giving any competitor of
 Gaussian, Inc. access to this program.  By using this program,
 the user acknowledges that Gaussian, Inc. is engaged in the
 business of creating and licensing software in the field of
 computational chemistry and represents and warrants to the
 licensee that it is not a competitor of Gaussian, Inc. and that
 it will not use this program in any manner prohibited above.
 ---------------------------------------------------------------
  

 Cite this work as:
 Gaussian 09, Revision D.01,
 M. J. Frisch, G. W. Trucks, H. B. Schlegel, G. E. Scuseria, 
 M. A. Robb, J. R. Cheeseman, G. Scalmani, V. Barone, B. Mennucci, 
 G. A. Petersson, H. Nakatsuji, M. Caricato, X. Li, H. P. Hratchian, 
 A. F. Izmaylov, J. Bloino, G. Zheng, J. L. Sonnenberg, M. Hada, 
 M. Ehara, K. Toyota, R. Fukuda, J. Hasegawa, M. Ishida, T. Nakajima, 
 Y. Honda, O. Kitao, H. Nakai, T. Vreven, J. A. Montgomery, Jr., 
 J. E. Peralta, F. Ogliaro, M. Bearpark, J. J. Heyd, E. Brothers, 
 K. N. Kudin, V. N. Staroverov, T. Keith, R. Kobayashi, J. Normand, 
 K. Raghavachari, A. Rendell, J. C. Burant, S. S. Iyengar, J. Tomasi, 
 M. Cossi, N. Rega, J. M. Millam, M. Klene, J. E. Knox, J. B. Cross, 
 V. Bakken, C. Adamo, J. Jaramillo, R. Gomperts, R. E. Stratmann, 
 O. Yazyev, A. J. Austin, R. Cammi, C. Pomelli, J. W. Ochterski, 
 R. L. Martin, K. Morokuma, V. G. Zakrzewski, G. A. Voth, 
 P. Salvador, J. J. Dannenberg, S. Dapprich, A. D. Daniels, 
 O. Farkas, J. B. Foresman, J. V. Ortiz, J. Cioslowski, 
 and D. J. Fox, Gaussian, Inc., Wallingford CT, 2013.
 
 ******************************************
 Gaussian 09:  ES64L-G09RevD.01 24-Apr-2013
                12-Nov-2022 
 ******************************************
 %chk=check.chk
 %mem=7168mb
 %NProcShared=10
 Will use up to   10 processors via shared memory.
 ----------------------------------------------------------------------
 #P guess=read ub2plypd3/def2tzvp freq IOp(7/33=1) scf=(tight, direct) 
 integral=(grid=ultrafine, Acc2E=12) IOp(2/9=2000) scf=xqc
 ----------------------------------------------------------------------
 1/10=4,30=1,38=1/1,3;
 2/9=2000,12=2,17=6,18=5,40=1/2;
 3/5=44,7=101,11=2,16=1,25=1,30=1,71=2,74=-60,75=-5,116=2,140=1/1,2,3;
 4/5=1/1;
 5/5=2,8=3,13=1,32=2,38=6,87=12,98=1/2,8;
 8/6=3,8=1,10=1,19=11,30=-1,87=12/1;
 9/15=3,16=-3,87=12/6;
 11/6=1,8=1,15=11,17=12,24=-1,27=1,28=-2,29=300,32=6,42=3,87=12/1,2,10;
 10/6=2,21=1,87=12/2;
 8/6=4,8=1,10=1,19=11,30=-1,87=12/11,4;
 10/5=1,20=4,87=12/2;
 11/12=2,14=11,16=1,17=2,28=-2,42=3,87=12/2,10,12;
 6/7=2,8=2,9=2,10=2/1;
 7/8=1,10=1,12=2,25=1,33=1,44=2,87=12/1,2,3,16;
 1/10=4,30=1/3;
 99//99;
 Leave Link    1 at Sat Nov 12 21:58:08 2022, MaxMem=   939524096 cpu:         0.1
 (Enter /Local/ce_dana/g09/l101.exe)
 ---
 NH2
 ---
 Symbolic Z-matrix:
 Charge =  0 Multiplicity = 2
 N                     0.00024   0.42369   0. 
 H                    -0.80494  -0.21138   0. 
 H                     0.8047   -0.2123    0. 
 
 NAtoms=      3 NQM=        3 NQMF=       0 NMMI=      0 NMMIF=      0
                NMic=       0 NMicF=      0.
                    Isotopes and Nuclear Properties:
 (Nuclear quadrupole moments (NQMom) in fm**2, nuclear magnetic moments (NMagM)
  in nuclear magnetons)

  Atom         1           2           3
 IAtWgt=          14           1           1
 AtmWgt=  14.0030740   1.0078250   1.0078250
 NucSpn=           2           1           1
 AtZEff=   0.0000000   0.0000000   0.0000000
 NQMom=    2.0440000   0.0000000   0.0000000
 NMagM=    0.4037610   2.7928460   2.7928460
 AtZNuc=   7.0000000   1.0000000   1.0000000
 Leave Link  101 at Sat Nov 12 21:58:08 2022, MaxMem=   939524096 cpu:         0.1
 (Enter /Local/ce_dana/g09/l103.exe)

 GradGradGradGradGradGradGradGradGradGradGradGradGradGradGradGradGradGrad
 Berny optimization.
 Initialization pass.
 Trust Radius=3.00D-01 FncErr=1.00D-07 GrdErr=1.00D-07
 Number of steps in this run=      2 maximum allowed number of steps=      2.
 GradGradGradGradGradGradGradGradGradGradGradGradGradGradGradGradGradGrad

 Leave Link  103 at Sat Nov 12 21:58:08 2022, MaxMem=   939524096 cpu:         0.0
 (Enter /Local/ce_dana/g09/l202.exe)
                          Input orientation:                          
 ---------------------------------------------------------------------
 Center     Atomic      Atomic             Coordinates (Angstroms)
 Number     Number       Type             X           Y           Z
 ---------------------------------------------------------------------
      1          7           0        0.000243    0.423685    0.000000
      2          1           0       -0.804941   -0.211381    0.000000
      3          1           0        0.804698   -0.212304    0.000000
 ---------------------------------------------------------------------
                    Distance matrix (angstroms):
                    1          2          3
     1  N    0.000000
     2  H    1.025490   0.000000
     3  H    1.025490   1.609639   0.000000
 Stoichiometry    H2N(2)
 Framework group  C2V[C2(N),SGV(H2)]
 Deg. of freedom     2
 Full point group                 C2V     NOp   4
 Largest Abelian subgroup         C2V     NOp   4
 Largest concise Abelian subgroup C2      NOp   2
                         Standard orientation:                         
 ---------------------------------------------------------------------
 Center     Atomic      Atomic             Coordinates (Angstroms)
 Number     Number       Type             X           Y           Z
 ---------------------------------------------------------------------
      1          7           0        0.000000   -0.000000    0.141228
      2          1           0       -0.000000    0.804820   -0.494299
      3          1           0       -0.000000   -0.804820   -0.494299
 ---------------------------------------------------------------------
 Rotational constants (GHZ):    710.1300303    387.0836349    250.5252369
 Leave Link  202 at Sat Nov 12 21:58:08 2022, MaxMem=   939524096 cpu:         0.0
 (Enter /Local/ce_dana/g09/l301.exe)
 Standard basis: def2TZVP (5D, 7F)
 Ernie: Thresh=  0.10000D-02 Tol=  0.10000D-05 Strict=F.
 There are    22 symmetry adapted cartesian basis functions of A1  symmetry.
 There are     4 symmetry adapted cartesian basis functions of A2  symmetry.
 There are     9 symmetry adapted cartesian basis functions of B1  symmetry.
 There are    13 symmetry adapted cartesian basis functions of B2  symmetry.
 There are    19 symmetry adapted basis functions of A1  symmetry.
 There are     4 symmetry adapted basis functions of A2  symmetry.
 There are     8 symmetry adapted basis functions of B1  symmetry.
 There are    12 symmetry adapted basis functions of B2  symmetry.
    43 basis functions,    67 primitive gaussians,    48 cartesian basis functions
     5 alpha electrons        4 beta electrons
       nuclear repulsion energy         7.5530867404 Hartrees.
 IExCor=  419 DFT=T Ex+Corr=B2PLYPD3 ExCW=0 ScaHFX=  0.530000
 ScaDFX=  0.470000  0.470000  0.730000  0.730000 ScalE2=  0.270000  0.270000
 IRadAn=      5 IRanWt=     -1 IRanGd=            0 ICorTp=0 IEmpDi=141
 NAtoms=    3 NActive=    3 NUniq=    2 SFac= 2.25D+00 NAtFMM=   60 NAOKFM=F Big=F
 Integral buffers will be    131072 words long.
 Raffenetti 2 integral format.
 Two-electron integral symmetry is turned on.
 R6Disp:  Grimme-D3(BJ) Dispersion energy=       -0.0003067222 Hartrees.
 Nuclear repulsion after empirical dispersion term =        7.5527800182 Hartrees.
 Leave Link  301 at Sat Nov 12 21:58:08 2022, MaxMem=   939524096 cpu:         0.0
 (Enter /Local/ce_dana/g09/l302.exe)
 NPDir=0 NMtPBC=     1 NCelOv=     1 NCel=       1 NClECP=     1 NCelD=      1
         NCelK=      1 NCelE2=     1 NClLst=     1 CellRange=     0.0.
 One-electron integrals computed using PRISM.
 One-electron integral symmetry used in STVInt
   4 Symmetry operations used in ECPInt.
 ECPInt:  NShTT=     190 NPrTT=     556 LenC2=     191 LenP2D=     543.
 LDataN:  DoStor=T MaxTD1= 6 Len=  172
 NBasis=    43 RedAO= T EigKep=  9.94D-03  NBF=    19     4     8    12
 NBsUse=    43 1.00D-06 EigRej= -1.00D+00 NBFU=    19     4     8    12
 Precomputing XC quadrature grid using
 IXCGrd= 4 IRadAn=           5 IRanWt=          -1 IRanGd=           0 AccXCQ= 0.00D+00.
 Generated NRdTot=       0 NPtTot=           0 NUsed=           0 NTot=          32
 NSgBfM=    48    48    48    48    48 MxSgAt=     3 MxSgA2=     3.
 Leave Link  302 at Sat Nov 12 21:58:08 2022, MaxMem=   939524096 cpu:         1.3
 (Enter /Local/ce_dana/g09/l303.exe)
 DipDrv:  MaxL=1.
 Leave Link  303 at Sat Nov 12 21:58:08 2022, MaxMem=   939524096 cpu:         0.1
 (Enter /Local/ce_dana/g09/l401.exe)
 Initial guess from the checkpoint file:  "check.chk"
 B after Tr=     0.000000   -0.000000   -0.000000
         Rot=    1.000000    0.000000   -0.000000    0.000000 Ang=   0.00 deg.
 Guess basis will be translated and rotated to current coordinates.
 JPrj=2 DoOrth=T DoCkMO=T.
 Initial guess orbital symmetries:
 Alpha Orbitals:
       Occupied  (A1) (A1) (B2) (A1) (B1)
       Virtual   (A1) (B2) (B2) (B1) (A1) (A1) (A1) (B2) (A2) (A1)
                 (B1) (A1) (B2) (B2) (B1) (A1) (A2) (A1) (B2) (B1)
                 (A1) (A1) (B2) (A1) (B2) (B1) (A1) (B1) (A2) (B2)
                 (B1) (A1) (A2) (A1) (B2) (B2) (A1) (A1)
 Beta  Orbitals:
       Occupied  (A1) (A1) (B2) (A1)
       Virtual   (B1) (A1) (B2) (B2) (A1) (B1) (A1) (A1) (B2) (A1)
                 (A2) (B1) (B2) (A1) (B2) (A1) (B1) (A2) (A1) (B2)
                 (B1) (A1) (A1) (B2) (A1) (B2) (B1) (A1) (B1) (A2)
                 (B2) (B1) (A1) (A2) (A1) (B2) (B2) (A1) (A1)
 The electronic state of the initial guess is 2-B1.
 Initial guess <Sx>= 0.0000 <Sy>= 0.0000 <Sz>= 0.5000 <S**2>= 0.7548 S= 0.5024
 Leave Link  401 at Sat Nov 12 21:58:08 2022, MaxMem=   939524096 cpu:         0.2
 (Enter /Local/ce_dana/g09/l502.exe)
 UHF open shell SCF:
 Using DIIS extrapolation, IDIIS=  1040.
 Integral symmetry usage will be decided dynamically.
 Keep R1 and R2 ints in memory in symmetry-blocked form, NReq=2419620.
 IVT=       13802 IEndB=       13802 NGot=   939524096 MDV=   939270364
 LenX=   939270364 LenY=   939267619
 Requested convergence on RMS density matrix=1.00D-08 within  64 cycles.
 Requested convergence on MAX density matrix=1.00D-06.
 Requested convergence on             energy=1.00D-06.
 No special actions if energy rises.
 FoFCou: FMM=F IPFlag=           0 FMFlag=           0 FMFlg1=           0
         NFxFlg=           0 DoJE=F BraDBF=F KetDBF=F FulRan=T
         wScrn=  0.000000 ICntrl=     600 IOpCl=  0 I1Cent=           0 NGrid=           0
         NMat0=    1 NMatS0=    946 NMatT0=    0 NMatD0=    1 NMtDS0=    0 NMtDT0=    0
 Petite list used in FoFCou.

 Cycle   1  Pass 1  IDiag  1:
 E= -55.7961678485182    
 DIIS: error= 1.17D-08 at cycle   1 NSaved=   1.
 NSaved= 1 IEnMin= 1 EnMin= -55.7961678485182     IErMin= 1 ErrMin= 1.17D-08
 ErrMax= 1.17D-08  0.00D+00 EMaxC= 1.00D-01 BMatC= 8.87D-15 BMatP= 8.87D-15
 IDIUse=1 WtCom= 1.00D+00 WtEn= 0.00D+00
 Coeff-Com:  0.100D+01
 Coeff:      0.100D+01
 Gap=     0.469 Goal=   None    Shift=    0.000
 Gap=     0.351 Goal=   None    Shift=    0.000
 RMSDP=1.46D-09 MaxDP=2.23D-08              OVMax= 5.04D-08

 SCF Done:  E(UB2PLYPD3) =  -55.7961678485     A.U. after    1 cycles
            NFock=  1  Conv=0.15D-08     -V/T= 2.0028
 <Sx>= 0.0000 <Sy>= 0.0000 <Sz>= 0.5000 <S**2>= 0.7548 S= 0.5024
 <L.S>=  0.00000000000    
 KE= 5.564298106272D+01 PE=-1.458631603600D+02 EE= 2.687123143055D+01
 Annihilation of the first spin contaminant:
 S**2 before annihilation     0.7548,   after     0.7500
 Leave Link  502 at Sat Nov 12 21:58:09 2022, MaxMem=   939524096 cpu:         1.9
 (Enter /Local/ce_dana/g09/l508.exe)
 QCSCF skips out because SCF is already converged.
 Leave Link  508 at Sat Nov 12 21:58:09 2022, MaxMem=   939524096 cpu:         0.0
 (Enter /Local/ce_dana/g09/l801.exe)
 DoSCS=T DFT=T ScalE2(SS,OS)=  0.270000  0.270000
 ExpMin= 1.03D-01 ExpMax= 1.97D+04 ExpMxC= 6.73D+02 IAcc=3 IRadAn=         5 AccDes= 0.00D+00
 HarFok:  IExCor=  205 AccDes= 0.00D+00 IRadAn=         5 IDoV=-2 UseB2=F ITyADJ=14
 ICtDFT= 12500011 ScaDFX=  1.000000  1.000000  1.000000  1.000000
 Largest valence mixing into a core orbital is  8.25D-05
 Largest core mixing into a valence orbital is  1.47D-05
 Largest valence mixing into a core orbital is  1.12D-04
 Largest core mixing into a valence orbital is  2.29D-05
 Range of M.O.s used for correlation:     2    43
 NBasis=    43 NAE=     5 NBE=     4 NFC=     1 NFV=     0
 NROrb=     42 NOA=     4 NOB=     3 NVA=    38 NVB=    39
 Leave Link  801 at Sat Nov 12 21:58:09 2022, MaxMem=   939524096 cpu:         0.2
 (Enter /Local/ce_dana/g09/l906.exe)
 DoSCS=T DFT=T ScalE2(SS,OS)=  0.270000  0.270000
 Frozen-core derivative calculation, NFC=   1 NFV=   0.
 FulOut=F Deriv=T AODrv=T NAtomX=     3
   MMem=           0  MDisk=           4 MDiskD=           4
  W3Min=       20640 MinDsk=      102104 NBas6D=          48
 NBas2D=        1266    NTT=        1176    LW2=     7400000
    MDV=   939483223 MDiskM=       97654 NBas2p=        1014
 Disk-based method using ON**2 memory for  4 occupieds at a time.
 Permanent disk used for amplitudes=       41116 words.
 Estimated scratch disk usage=     1131694 words.
 IMap=   1   2   3   4   5
 Actual    scratch disk usage=     1131694 words.
 JobTyp=2 Pass  1:  I=   2 to   5 NPSUse= 10 ParTrn=T ParDer=T DoDerP=T.
 (rs|ai) integrals will be sorted in core.
 IMap=   1   2   3   4
 Actual    scratch disk usage=     1131694 words.
 JobTyp=3 Pass  1:  I=   2 to   4 NPSUse= 10 ParTrn=T ParDer=T DoDerP=T.
 (rs|ai) integrals will be sorted in core.
 Spin components of T(2) and E(2):
     alpha-alpha T2 =       0.1156979183D-01 E2=     -0.8919397953D-02
     alpha-beta  T2 =       0.5724086361D-01 E2=     -0.4496367787D-01
     beta-beta   T2 =       0.5138113411D-02 E2=     -0.3810646050D-02
 The integrals were generated   2 times.
 E2(B2PLYPD3) =    -0.5769372188D-01 E(B2PLYPD3) =    -0.55853861570394D+02
 Leave Link  906 at Sat Nov 12 21:58:10 2022, MaxMem=   939524096 cpu:        12.4
 (Enter /Local/ce_dana/g09/l1101.exe)
 Using compressed Sx but separate Hx and Fx, NAtomX=     3.
 Will process      4 centers per pass.
   4 Symmetry operations used in ECPInt.
 ECPInt:  NShTT=     190 NPrTT=     556 LenC2=     191 LenP2D=     543.
 LDataN:  DoStor=T MaxTD1= 7 Len=  274
 R6Disp: Adding Grimme-D3(BJ) dispersion energy 1st derivatives to the gradient.
 Leave Link 1101 at Sat Nov 12 21:58:11 2022, MaxMem=   939524096 cpu:         5.1
 (Enter /Local/ce_dana/g09/l1102.exe)
 Leave Link 1102 at Sat Nov 12 21:58:11 2022, MaxMem=   939524096 cpu:         0.0
 (Enter /Local/ce_dana/g09/l1110.exe)
 Forming Gx(P) for the SCF density, NAtomX=     3.
 Integral derivatives from FoFJK, PRISM(SPDF).
 Do as many integral derivatives as possible in FoFJK.
 G2DrvN: MDV=     939523968.
 G2DrvN: will do     4 centers at a time, making    1 passes.
 Calling FoFCou, ICntrl=  3107 FMM=F I1Cent=   0 AccDes= 1.00D-12.
 FoFJK:  IHMeth= 1 ICntrl=    3107 DoSepK=F KAlg= 0 I1Cent=   0 FoldK=F
 IRaf=         0 NMat=   1 IRICut=       1 DoRegI=T DoRafI=F ISym2E= 1.
 FoFCou: FMM=F IPFlag=           0 FMFlag=      100000 FMFlg1=           0
         NFxFlg=           0 DoJE=F BraDBF=F KetDBF=F FulRan=T
         wScrn=  0.000000 ICntrl=    3107 IOpCl=  1 I1Cent=           0 NGrid=           0
         NMat0=    1 NMatS0=      1 NMatT0=    0 NMatD0=    1 NMtDS0=    0 NMtDT0=    0
 Petite list used in FoFCou.
 End of G2Drv F.D. properties file   721 does not exist.
 End of G2Drv F.D. properties file   722 does not exist.
 End of G2Drv F.D. properties file   788 does not exist.
 Leave Link 1110 at Sat Nov 12 21:58:11 2022, MaxMem=   939524096 cpu:         5.3
 (Enter /Local/ce_dana/g09/l1002.exe)
 Minotr:  UHF open shell wavefunction.
          IDoAtm=111
          Frozen-core window.
          Direct CPHF calculation.
          Differentiating once with respect to electric field.
                with respect to dipole field.
          Differentiating once with respect to nuclear coordinates.
          Requested convergence is 1.0D-08 RMS, and 1.0D-07 maximum.
          Secondary convergence is 1.0D-12 RMS, and 1.0D-12 maximum.
          NewPWx=T KeepS1=T KeepF1=T KeepIn=T MapXYZ=F SortEE=F KeepMc=T.
          MDV=     939523978 using IRadAn=       1.
 Generate precomputed XC quadrature information.
 Keep R1 and R2 ints in memory in symmetry-blocked form, NReq=2414244.
 FoFCou: FMM=F IPFlag=           0 FMFlag=           0 FMFlg1=           0
         NFxFlg=           0 DoJE=F BraDBF=F KetDBF=F FulRan=T
         wScrn=  0.000000 ICntrl=     600 IOpCl=  0 I1Cent=           0 NGrid=           0
         NMat0=    1 NMatS0=    946 NMatT0=    0 NMatD0=    1 NMtDS0=    0 NMtDT0=    0
 Petite list used in FoFCou.
          Solving linear equations simultaneously, MaxMat=       0.
          There are    12 degrees of freedom in the 1st order CPHF.  IDoFFX=6 NUNeed=    12.
      9 vectors produced by pass  0 Test12= 2.88D-15 8.33D-09 XBig12= 7.49D+00 1.25D+00.
 AX will form     9 AO Fock derivatives at one time.
      9 vectors produced by pass  1 Test12= 2.88D-15 8.33D-09 XBig12= 5.55D-01 2.90D-01.
      9 vectors produced by pass  2 Test12= 2.88D-15 8.33D-09 XBig12= 1.15D-02 4.17D-02.
      9 vectors produced by pass  3 Test12= 2.88D-15 8.33D-09 XBig12= 1.02D-04 4.27D-03.
      9 vectors produced by pass  4 Test12= 2.88D-15 8.33D-09 XBig12= 1.07D-06 3.33D-04.
      9 vectors produced by pass  5 Test12= 2.88D-15 8.33D-09 XBig12= 2.05D-08 5.67D-05.
      9 vectors produced by pass  6 Test12= 2.88D-15 8.33D-09 XBig12= 1.47D-10 3.35D-06.
      3 vectors produced by pass  7 Test12= 2.88D-15 8.33D-09 XBig12= 1.39D-12 3.75D-07.
      1 vectors produced by pass  8 Test12= 2.88D-15 8.33D-09 XBig12= 3.65D-15 2.04D-08.
 InvSVY:  IOpt=1 It=  1 EMax= 3.33D-16
 Solved reduced A of dimension    67 with     9 vectors.
 FullF1:  Do perturbations    1 to    12.
 Saving first derivative matrices.
 End of Minotr F.D. properties file   721 does not exist.
 End of Minotr F.D. properties file   722 does not exist.
 End of Minotr F.D. properties file   788 does not exist.
 Leave Link 1002 at Sat Nov 12 21:58:13 2022, MaxMem=   939524096 cpu:        13.7
 (Enter /Local/ce_dana/g09/l811.exe)
 MDV=   939524096.
 DoSCS=T DFT=T ScalE2(SS,OS)=  0.270000  0.270000
 Form MO integral derivatives with frozen-active canonical formalism.
 MOERI=1 MOERIx=1 NAtoms=     3 NAtomX=     3.
 Discarding MO integrals.
 MO basis two electron integral derivatives will not be stored on disk.
 IAlg= 3 DoFC=T DoPWx=T Debug=F.
 Frozen-core window:  NFC=   1 NFV=   0.
 Reordered first order wavefunction length =       171557
 In DefCFB: NBatch=  1 ICI=  5 ICA= 39 LFMax= 39
            Large arrays: LIAPS=     2856576 LIARS=     4717440 words.
 In StABat: MaxSiz= 36 MinSiz= 12 NAtomB=  2
 DoIAMN: NPSUse= 10.
 In DefCFB: NBatch=  1 ICI=  5 ICA= 39 LFMax= 39
            Large arrays: LIAPS=     2856576 LIARS=     4717440 words.
 In StABat: MaxSiz= 36 MinSiz= 12 NAtomB=  2
 Leave Link  811 at Sat Nov 12 21:58:14 2022, MaxMem=   939524096 cpu:         4.9
 (Enter /Local/ce_dana/g09/l804.exe)
 Frozen-core window:  NFC=   1 NFV=   0.
 Open-shell transformation, MDV=   939524096 ITran=4 ISComp=1.
 Semi-Direct transformation.
 ModeAB=           4 MOrb=             5 LenV=     939114625
 LASXX=       178655 LTotXX=      178655 LenRXX=      372585
 LTotAB=      193930 MaxLAS=      218010 LenRXY=           0
 NonZer=      551240 LenScr=     1571840 LnRSAI=      218010
 LnScr1=      785920 LExtra=           0 Total=      2948355
 MaxDsk=          -1 SrtSym=           T ITran=            4
 DoSDTr:  NPSUse= 10
 JobTyp=1 Pass  1:  I=   1 to   5.
 (rs|ai) integrals will be sorted in core.
 Complete sort for first half transformation.
 First half transformation complete.
 Complete sort for second half transformation.
 Second half transformation complete.
 ModeAB=           4 MOrb=             4 LenV=     939114625
 LASXX=       145335 LTotXX=      145335 LenRXX=      268341
 LTotAB=      123006 MaxLAS=      174408 LenRXY=           0
 NonZer=      413676 LenScr=     1240064 LnRSAI=      174408
 LnScr1=      785920 LExtra=           0 Total=      2468733
 MaxDsk=          -1 SrtSym=           T ITran=            4
 DoSDTr:  NPSUse= 10
 JobTyp=2 Pass  1:  I=   1 to   4.
 (rs|ai) integrals will be sorted in core.
 Complete sort for first half transformation.
 First half transformation complete.
 Complete sort for second half transformation.
 Second half transformation complete.
 DoSCS=T DFT=T ScalE2(SS,OS)=  0.270000  0.270000
 Spin components of T(2) and E(2):
     alpha-alpha T2 =       0.1156979183D-01 E2=     -0.8919397953D-02
     alpha-beta  T2 =       0.5724086361D-01 E2=     -0.4496367787D-01
     beta-beta   T2 =       0.5138113411D-02 E2=     -0.3810646050D-02
 E2(B2PLYPD3) =    -0.5769372188D-01 E(B2PLYPD3) =    -0.55853861570394D+02
 Leave Link  804 at Sat Nov 12 21:58:14 2022, MaxMem=   939524096 cpu:         1.7
 (Enter /Local/ce_dana/g09/l1002.exe)
 Minotr:  UHF open shell wavefunction.
          Computing MP2/KS-MP2 derivatives.
          Using Z-Vector for PSCF gradient.
          Skipping F1 and S1 gradient terms here.
          IDoAtm=111
          Frozen-core window.
          Direct CPHF calculation.
          Differentiating once with respect to electric field.
                with respect to dipole field.
          Differentiating once with respect to nuclear coordinates.
          Using symmetry in CPHF.
          Requested convergence is 1.0D-10 RMS, and 1.0D-09 maximum.
          NewPWx=T KeepS1=F KeepF1=F KeepIn=T MapXYZ=F SortEE=F KeepMc=T.
          MDV=     939523978 using IRadAn=       5.
 Using stored XC quadrature information.
 Keep R1 and R2 ints in memory in symmetry-blocked form, NReq=2413356.
 FoFCou: FMM=F IPFlag=           0 FMFlag=           0 FMFlg1=           0
         NFxFlg=           0 DoJE=F BraDBF=F KetDBF=F FulRan=T
         wScrn=  0.000000 ICntrl=     600 IOpCl=  0 I1Cent=           0 NGrid=           0
         NMat0=    1 NMatS0=    946 NMatT0=    0 NMatD0=    1 NMtDS0=    0 NMtDT0=    0
 Petite list used in FoFCou.
          Solving linear equations separately, MaxMat=       0.
          There are     1 degrees of freedom in the 1st order CPHF.  IDoFFX=0 NUNeed=     1.
 LinEq1:  Iter=  0 NonCon=     1 RMS=9.35D-04 Max=6.86D-03 NDo=     1
 AX will form     1 AO Fock derivatives at one time.
 LinEq1:  Iter=  1 NonCon=     1 RMS=2.99D-04 Max=2.94D-03 NDo=     1
 LinEq1:  Iter=  2 NonCon=     1 RMS=1.50D-04 Max=1.50D-03 NDo=     1
 LinEq1:  Iter=  3 NonCon=     1 RMS=2.71D-05 Max=2.18D-04 NDo=     1
 LinEq1:  Iter=  4 NonCon=     1 RMS=6.43D-06 Max=4.23D-05 NDo=     1
 LinEq1:  Iter=  5 NonCon=     1 RMS=1.45D-06 Max=8.44D-06 NDo=     1
 LinEq1:  Iter=  6 NonCon=     1 RMS=1.90D-07 Max=1.54D-06 NDo=     1
 LinEq1:  Iter=  7 NonCon=     1 RMS=1.87D-08 Max=1.29D-07 NDo=     1
 LinEq1:  Iter=  8 NonCon=     1 RMS=2.12D-09 Max=1.19D-08 NDo=     1
 LinEq1:  Iter=  9 NonCon=     1 RMS=2.53D-10 Max=2.33D-09 NDo=     1
 LinEq1:  Iter= 10 NonCon=     0 RMS=2.61D-11 Max=1.95D-10 NDo=     1
 Linear equations converged to 1.000D-10 1.000D-09 after    10 iterations.
 End of Minotr F.D. properties file   721 does not exist.
 End of Minotr F.D. properties file   722 does not exist.
 End of Minotr F.D. properties file   788 does not exist.
 Leave Link 1002 at Sat Nov 12 21:58:15 2022, MaxMem=   939524096 cpu:         7.0
 (Enter /Local/ce_dana/g09/l1102.exe)
 Use density number 2.
 Symmetrizing basis deriv contribution to polar:
 IMax=3 JMax=2 DiffMx= 0.00D+00
 Leave Link 1102 at Sat Nov 12 21:58:15 2022, MaxMem=   939524096 cpu:         0.1
 (Enter /Local/ce_dana/g09/l1110.exe)
 Forming Gx(P) for generalized density number  2 NAtomX=     3.
 Integral derivatives from FoFJK, PRISM(SPDF).
 Do as many integral derivatives as possible in FoFJK.
 G2DrvN: MDV=     939523968.
 G2DrvN: will do     4 centers at a time, making    1 passes.
 Calling FoFCou, ICntrl=  3107 FMM=F I1Cent=   0 AccDes= 1.00D-12.
 FoFJK:  IHMeth= 1 ICntrl=    3107 DoSepK=F KAlg= 0 I1Cent=   0 FoldK=F
 IRaf=         0 NMat=   1 IRICut=       1 DoRegI=T DoRafI=F ISym2E= 1.
 FoFCou: FMM=F IPFlag=           0 FMFlag=      100000 FMFlg1=           0
         NFxFlg=           0 DoJE=F BraDBF=F KetDBF=F FulRan=T
         wScrn=  0.000000 ICntrl=    3107 IOpCl=  1 I1Cent=           0 NGrid=           0
         NMat0=    1 NMatS0=      1 NMatT0=    0 NMatD0=    1 NMtDS0=    0 NMtDT0=    0
 Petite list used in FoFCou.
 End of G2Drv F.D. properties file   721 does not exist.
 End of G2Drv F.D. properties file   722 does not exist.
 End of G2Drv F.D. properties file   788 does not exist.
 Leave Link 1110 at Sat Nov 12 21:58:16 2022, MaxMem=   939524096 cpu:         5.9
 (Enter /Local/ce_dana/g09/l1112.exe)
 MP22nd: MDV=     939524096
 DoSCS=T DFT=T ScalE2(SS,OS)=  0.270000  0.270000
 Using stored XC quadrature information.
 This link is doing NAtomX=     3 total of    12 degrees of freedom.
 Using ON3 I/O method in MakUI.
 Frozen-core window:  NFC=   1 NFV=   0.
 Using Ix for Sx.
 Use MO integrals over full window.
 Using OV2 memory method for fx*t*t/D, MaxI=     4 DoOO2=F NP=  10.
 R2 and R3 integrals will be kept in memory, NReq=     3324152.
 FoFCou: FMM=F IPFlag=           0 FMFlag=           0 FMFlg1=           0
         NFxFlg=           0 DoJE=F BraDBF=F KetDBF=F FulRan=T
         wScrn=  0.000000 ICntrl=     600 IOpCl=  0 I1Cent=           0 NGrid=           0
         NMat0=    1 NMatS0=      1 NMatT0=    0 NMatD0=    1 NMtDS0=    0 NMtDT0=    0
 Symmetry not used in FoFCou.
 DD1Dir will call FoFMem   1 times, MxPair=        56
 NAB=    20 NAA=    10 NBB=     6.
 Symmetry is being used.
 FoFJK:  IHMeth= 1 ICntrl=       0 DoSepK=F KAlg= 0 I1Cent=   0 FoldK=F
 IRaf=         0 NMat=  12 IRICut=      30 DoRegI=T DoRafI=T ISym2E= 2.
 R6Disp: Adding Grimme-D3(BJ) dispersion energy 1st derivatives to the gradient.
 Discarding MO integrals.
 Leave Link 1112 at Sat Nov 12 21:58:19 2022, MaxMem=   939524096 cpu:        27.3
 (Enter /Local/ce_dana/g09/l601.exe)
 Copying SCF densities to generalized density rwf, IOpCl= 1 IROHF=0.

 **********************************************************************

            Population analysis using the SCF density.

 **********************************************************************

 Orbital symmetries:
 Alpha Orbitals:
       Occupied  (A1) (A1) (B2) (A1) (B1)
       Virtual   (A1) (B2) (B2) (B1) (A1) (A1) (A1) (B2) (A2) (A1)
                 (B1) (A1) (B2) (B2) (B1) (A1) (A2) (A1) (B2) (B1)
                 (A1) (A1) (B2) (A1) (B2) (B1) (A1) (B1) (A2) (B2)
                 (B1) (A1) (A2) (A1) (B2) (B2) (A1) (A1)
 Beta  Orbitals:
       Occupied  (A1) (A1) (B2) (A1)
       Virtual   (B1) (A1) (B2) (B2) (A1) (B1) (A1) (A1) (B2) (A1)
                 (A2) (B1) (B2) (A1) (B2) (A1) (B1) (A2) (A1) (B2)
                 (B1) (A1) (A1) (B2) (A1) (B2) (B1) (A1) (B1) (A2)
                 (B2) (B1) (A1) (A2) (A1) (B2) (B2) (A1) (A1)
 The electronic state is 2-B1.
 Alpha  occ. eigenvalues --  -14.86801  -0.98461  -0.54790  -0.40419  -0.40022
 Alpha virt. eigenvalues --    0.06889   0.14042   0.36161   0.38085   0.39093
 Alpha virt. eigenvalues --    0.45999   0.51852   0.58104   1.00464   1.01423
 Alpha virt. eigenvalues --    1.05152   1.31629   1.34207   1.77667   1.93884
 Alpha virt. eigenvalues --    1.94621   1.97917   2.09978   2.16215   2.23945
 Alpha virt. eigenvalues --    2.35607   2.54843   2.57388   3.09534   3.16623
 Alpha virt. eigenvalues --    4.00073   4.14541   4.30166   4.35245   4.41609
 Alpha virt. eigenvalues --    4.63931   4.68019   4.70960   4.80209   4.99159
 Alpha virt. eigenvalues --    5.49524   5.70237  31.85209
  Beta  occ. eigenvalues --  -14.84425  -0.90646  -0.53109  -0.37335
  Beta virt. eigenvalues --   -0.02211   0.07494   0.14408   0.36145   0.40109
  Beta virt. eigenvalues --    0.46189   0.47912   0.53496   0.59141   1.02455
  Beta virt. eigenvalues --    1.05447   1.10293   1.34469   1.37089   1.77323
  Beta virt. eigenvalues --    1.95535   1.97859   1.99348   2.12232   2.16909
  Beta virt. eigenvalues --    2.32137   2.36108   2.56479   2.58111   3.10859
  Beta virt. eigenvalues --    3.19502   4.04339   4.18905   4.36727   4.40739
  Beta virt. eigenvalues --    4.43597   4.71679   4.73095   4.77495   4.86616
  Beta virt. eigenvalues --    5.00398   5.51682   5.71483  31.87183
          Condensed to atoms (all electrons):
               1          2          3
     1  N    6.822057   0.308822   0.308822
     2  H    0.308822   0.500939  -0.029611
     3  H    0.308822  -0.029611   0.500939
          Atomic-Atomic Spin Densities.
               1          2          3
     1  N    1.083257  -0.003948  -0.003948
     2  H   -0.003948  -0.037796   0.004063
     3  H   -0.003948   0.004063  -0.037796
 Mulliken charges and spin densities:
               1          2
     1  N   -0.439701   1.075361
     2  H    0.219851  -0.037681
     3  H    0.219851  -0.037681
 Sum of Mulliken charges =   0.00000   1.00000
 Mulliken charges and spin densities with hydrogens summed into heavy atoms:
               1          2
     1  N    0.000000   1.000000
 APT charges:
               1
     1  N   -0.311336
     2  H    0.155668
     3  H    0.155668
 Sum of APT charges =  -0.00000
 APT charges with hydrogens summed into heavy atoms:
               1
     1  N   -0.000000
 Electronic spatial extent (au):  <R**2>=             21.9460
 Charge=              0.0000 electrons
 Dipole moment (field-independent basis, Debye):
    X=             -0.0000    Y=              0.0000    Z=             -1.9785  Tot=              1.9785
 Quadrupole moment (field-independent basis, Debye-Ang):
   XX=             -7.1322   YY=             -5.5254   ZZ=             -7.6203
   XY=              0.0000   XZ=              0.0000   YZ=             -0.0000
 Traceless Quadrupole moment (field-independent basis, Debye-Ang):
   XX=             -0.3729   YY=              1.2339   ZZ=             -0.8610
   XY=              0.0000   XZ=              0.0000   YZ=             -0.0000
 Octapole moment (field-independent basis, Debye-Ang**2):
  XXX=              0.0000  YYY=              0.0000  ZZZ=             -2.0472  XYY=             -0.0000
  XXY=             -0.0000  XXZ=             -0.4701  XZZ=              0.0000  YZZ=              0.0000
  YYZ=             -1.3603  XYZ=             -0.0000
 Hexadecapole moment (field-independent basis, Debye-Ang**3):
 XXXX=             -6.4942 YYYY=             -9.4797 ZZZZ=            -10.9490 XXXY=             -0.0000
 XXXZ=             -0.0000 YYYX=             -0.0000 YYYZ=             -0.0000 ZZZX=             -0.0000
 ZZZY=              0.0000 XXYY=             -2.9299 XXZZ=             -2.9420 YYZZ=             -3.0634
 XXYZ=              0.0000 YYXZ=              0.0000 ZZXY=             -0.0000
 N-N= 7.552780018204D+00 E-N=-1.458631605208D+02  KE= 5.564298106272D+01
 Symmetry A1   KE= 5.121270727502D+01
 Symmetry A2   KE= 1.154509518924D-34
 Symmetry B1   KE= 1.743781055145D+00
 Symmetry B2   KE= 2.686492732554D+00
  Exact polarizability:   6.866  -0.000  11.025   0.000  -0.000   9.446
 Approx polarizability:   6.107   0.000  11.072   0.000  -0.000   9.043
                          Isotropic Fermi Contact Couplings
        Atom                 a.u.       MegaHertz       Gauss      10(-4) cm-1
     1  N(14)              0.08259      26.68508       9.52190       8.90118
     2  H(1)              -0.01423     -63.60363     -22.69536     -21.21589
     3  H(1)              -0.01423     -63.60363     -22.69536     -21.21589
 --------------------------------------------------------
       Center         ----  Spin Dipole Couplings  ----
                      3XX-RR        3YY-RR        3ZZ-RR
 --------------------------------------------------------
     1   Atom        2.241810     -1.106640     -1.135170
     2   Atom       -0.013741      0.038064     -0.024323
     3   Atom       -0.013741      0.038064     -0.024323
 --------------------------------------------------------
                        XY            XZ            YZ
 --------------------------------------------------------
     1   Atom       -0.000000      0.000000     -0.000000
     2   Atom       -0.000000     -0.000000     -0.105838
     3   Atom       -0.000000     -0.000000      0.105838
 --------------------------------------------------------


 ---------------------------------------------------------------------------------
              Anisotropic Spin Dipole Couplings in Principal Axis System
 ---------------------------------------------------------------------------------

       Atom             a.u.   MegaHertz   Gauss  10(-4) cm-1        Axes

              Baa    -1.1352   -43.781   -15.622   -14.604 -0.0000  0.0000  1.0000
     1 N(14)  Bbb    -1.1066   -42.681   -15.230   -14.237  0.0000  1.0000 -0.0000
              Bcc     2.2418    86.462    30.852    28.840  1.0000 -0.0000  0.0000
 
              Baa    -0.1035   -55.206   -19.699   -18.415  0.0000  0.5989  0.8008
     2 H(1)   Bbb    -0.0137    -7.332    -2.616    -2.446  1.0000 -0.0000  0.0000
              Bcc     0.1172    62.538    22.315    20.860  0.0000  0.8008 -0.5989
 
              Baa    -0.1035   -55.206   -19.699   -18.415  0.0000 -0.5989  0.8008
     3 H(1)   Bbb    -0.0137    -7.332    -2.616    -2.446  1.0000  0.0000  0.0000
              Bcc     0.1172    62.538    22.315    20.860 -0.0000  0.8008  0.5989
 

 ---------------------------------------------------------------------------------

 No NMR shielding tensors so no spin-rotation constants.
 Leave Link  601 at Sat Nov 12 21:58:19 2022, MaxMem=   939524096 cpu:         3.0
 (Enter /Local/ce_dana/g09/l701.exe)
 Compute integral second derivatives.
 ... and contract with generalized density number  2.
 Use density number 2.
 R6Disp: Adding Grimme-D3(BJ) dispersion energy 2nd derivatives to the Hessian.
 Entering OneElI...
 Calculate overlap and kinetic energy integrals
    NBasis =  48  MinDer = 2  MaxDer = 2
 Requested accuracy = 0.1000D-14
 PrsmSu:  NPrtUS=  10 ThrOK=T IAlg=1 NPAlg=1 LenDen=           0.
 Prism:   IPart=     0 DynPar=F LinDyn=F Incr=           1.
 PRISM was handed    93945287 working-precision words and   190 shell-pairs
 PRISM was handed    93945287 working-precision words and   190 shell-pairs
 PRISM was handed    93945287 working-precision words and   190 shell-pairs
 PRISM was handed    93945287 working-precision words and   190 shell-pairs
 PRISM was handed    93945287 working-precision words and   190 shell-pairs
 PRISM was handed    93945287 working-precision words and   190 shell-pairs
 PRISM was handed    93945287 working-precision words and   190 shell-pairs
 PRISM was handed    93945287 working-precision words and   190 shell-pairs
 PRISM was handed    93945287 working-precision words and   190 shell-pairs
 PRISM was handed    93945287 working-precision words and   190 shell-pairs
 IPart=  0 NShTot=          42 NBatch=          36 AvBLen=         1.2
 IPart=  6 NShTot=          15 NBatch=          11 AvBLen=         1.4
 IPart=  7 NShTot=          12 NBatch=           8 AvBLen=         1.5
 IPart=  5 NShTot=          15 NBatch=          11 AvBLen=         1.4
 IPart=  8 NShTot=           8 NBatch=           6 AvBLen=         1.3
 IPart=  9 NShTot=           7 NBatch=           5 AvBLen=         1.4
 IPart=  2 NShTot=          23 NBatch=          17 AvBLen=         1.4
 IPart=  3 NShTot=          22 NBatch=          16 AvBLen=         1.4
 IPart=  4 NShTot=          15 NBatch=          11 AvBLen=         1.4
 IPart=  1 NShTot=          31 NBatch=          25 AvBLen=         1.2
 PrSmSu:  NxtVal=             11.
 Entering OneElI...
 Calculate potential energy integrals
    NBasis =  48  MinDer = 2  MaxDer = 2
 Requested accuracy = 0.1000D-14
 PrsmSu:  NPrtUS=  10 ThrOK=T IAlg=1 NPAlg=1 LenDen=           0.
 Prism:   IPart=     0 DynPar=F LinDyn=F Incr=           1.
 PRISM was handed    93945558 working-precision words and   190 shell-pairs
 PRISM was handed    93945558 working-precision words and   190 shell-pairs
 PRISM was handed    93945558 working-precision words and   190 shell-pairs
 PRISM was handed    93945558 working-precision words and   190 shell-pairs
 PRISM was handed    93945558 working-precision words and   190 shell-pairs
 PRISM was handed    93945558 working-precision words and   190 shell-pairs
 PRISM was handed    93945558 working-precision words and   190 shell-pairs
 PRISM was handed    93945558 working-precision words and   190 shell-pairs
 PRISM was handed    93945558 working-precision words and   190 shell-pairs
 PRISM was handed    93945558 working-precision words and   190 shell-pairs
 IPart=  0 NShTot=         120 NBatch=          40 AvBLen=         3.0
 IPart=  5 NShTot=          45 NBatch=          15 AvBLen=         3.0
 IPart=  8 NShTot=          24 NBatch=           8 AvBLen=         3.0
 IPart=  1 NShTot=          93 NBatch=          31 AvBLen=         3.0
 IPart=  6 NShTot=          45 NBatch=          15 AvBLen=         3.0
 IPart=  9 NShTot=          24 NBatch=           8 AvBLen=         3.0
 IPart=  2 NShTot=          72 NBatch=          24 AvBLen=         3.0
 IPart=  7 NShTot=          36 NBatch=          12 AvBLen=         3.0
 IPart=  3 NShTot=          66 NBatch=          22 AvBLen=         3.0
 IPart=  4 NShTot=          45 NBatch=          15 AvBLen=         3.0
 PrSmSu:  NxtVal=             11.
   4 Symmetry operations used in ECPInt.
 ECPInt:  NShTT=     190 NPrTT=     556 LenC2=     191 LenP2D=     543.
 LDataN:  DoStor=F MaxTD1= 8 Len=  415
 LDataN:  DoStor=T MaxTD1= 8 Len=  415
 ECPSu:  NPrtUS=  10 ThrOK=T
 Polarizability after L701:
                1             2             3 
      1  0.686621D+01
      2  0.000000D+00  0.110248D+02
      3  0.000000D+00  0.000000D+00  0.944593D+01
 Dipole Derivatives after L701:
                 1             2             3             4             5 
      1  -0.642367D+00  0.000000D+00  0.000000D+00  0.321183D+00  0.000000D+00
      2   0.000000D+00 -0.185265D+00  0.000000D+00  0.000000D+00  0.926324D-01
      3   0.000000D+00  0.000000D+00 -0.106375D+00  0.000000D+00  0.125371D+00
                 6             7             8             9 
      1   0.000000D+00  0.321183D+00  0.000000D+00  0.000000D+00
      2   0.180562D+00  0.000000D+00  0.926324D-01 -0.180562D+00
      3   0.531874D-01  0.000000D+00 -0.125371D+00  0.531874D-01
 Hessian after L701:
                1             2             3             4             5 
      1  0.418676D+01
      2  0.000000D+00  0.184102D+01
      3  0.000000D+00  0.000000D+00  0.295681D+01
      4 -0.209338D+01  0.000000D+00  0.000000D+00  0.207127D+01
      5  0.000000D+00 -0.920508D+00 -0.957531D+00  0.000000D+00  0.979566D+00
      6  0.000000D+00 -0.886653D+00 -0.147840D+01  0.000000D+00  0.922092D+00
      7 -0.209338D+01  0.000000D+00  0.000000D+00  0.221057D-01  0.000000D+00
      8  0.000000D+00 -0.920508D+00  0.957531D+00  0.000000D+00 -0.590582D-01
      9  0.000000D+00  0.886653D+00 -0.147840D+01  0.000000D+00  0.354386D-01
                6             7             8             9 
      6  0.143808D+01
      7  0.000000D+00  0.207127D+01
      8 -0.354386D-01  0.000000D+00  0.979566D+00
      9  0.403239D-01  0.000000D+00 -0.922092D+00  0.143808D+01
 Leave Link  701 at Sat Nov 12 21:58:20 2022, MaxMem=   939524096 cpu:         5.4
 (Enter /Local/ce_dana/g09/l702.exe)
 L702 exits ... SP integral derivatives will be done elsewhere.
 Leave Link  702 at Sat Nov 12 21:58:20 2022, MaxMem=   939524096 cpu:         0.1
 (Enter /Local/ce_dana/g09/l703.exe)
 Compute integral second derivatives, UseDBF=F ICtDFT=           0.
 Integral derivatives from FoFJK, PRISM(SPDF).
 ICntrl=  10100127.
 Calling FoFJK, ICntrl=  10100127 FMM=F ISym2X=1 I1Cent= 0 IOpClX= 1 NMat=1 NMatS=1 NMatT=0.
 FoFJK:  IHMeth= 1 ICntrl=10100127 DoSepK=F KAlg= 0 I1Cent=   0 FoldK=F
 IRaf=         0 NMat=   1 IRICut=       1 DoRegI=T DoRafI=F ISym2E= 1.
 FoFCou: FMM=F IPFlag=           0 FMFlag=      100000 FMFlg1=         800
         NFxFlg=           0 DoJE=F BraDBF=F KetDBF=F FulRan=T
         wScrn=  0.000000 ICntrl=10100127 IOpCl=  1 I1Cent=           0 NGrid=           0
         NMat0=    1 NMatS0=      1 NMatT0=    0 NMatD0=    1 NMtDS0=    0 NMtDT0=    0
 Petite list used in FoFCou.
 FoFCou:  KetSym=F NOpSet=  4 NOpAb=4 NOp=  4.
 FoFCou:  CnvScl= 1.00D+00 Thresh= 1.00D-12 IAcrcy=      10.
 PrismS was handed   939501005 working-precision words and   190 shell-pairs
 FoFCou: LinMIO=F DoNuc=F BraDBF=F KetDBF=F HaveP=T PDBF=F HaveZ=T HaveW=F
         NIJTC =      10 NIJTAt=       0 NIJTCD=       0 NIJTT =      10
         IJTBeg=       1 IJTEnd=      10 KLTBeg=       1 KLTEnd=      10
         IPTBeg=       1 IPTEnd=      10 IPTBCv=       1 IPTECv=      10
         IZTBeg=       1 IZTEnd=      10 IZTBCv=       1 IZTECv=      10
         IWTBeg=      11 IWTEnd=      10 IWTBCv=      11 IWTECv=      10
         INTBeg=       1 INTEnd=       0 IFTBCv=       1 IFTECv=      10
 NCel replicated for PrismC:     1
 CoulSu:  IncDef=  1024 NBBP=          18145 NTPThr=   100 NPartT=   10 Incr=          18 LDynOK=F.
 CoulSu:  NPrtUS=  10 ThrOK=T IAlg=1 NPAlg=1 LenDen=           0 LWGrdD=           0 DoCopy=F.
 Enter PrismC: JobTyp=22 DoJE=F Cont=F.
 Enter PrismC: JobTyp=22 DoJE=F Cont=F.
 Enter PrismC: JobTyp=22 DoJE=F Cont=F.
 Enter PrismC: JobTyp=22 DoJE=F Cont=F.
 PrismC was handed    93945567 working-precision words and   190 shell-pairs
 Enter PrismC: JobTyp=22 DoJE=F Cont=F.
 Enter PrismC: JobTyp=22 DoJE=F Cont=F.
 PrismC was handed    93945567 working-precision words and   190 shell-pairs
 PrismC was handed    93945567 working-precision words and   190 shell-pairs
 PrismC was handed    93945567 working-precision words and   190 shell-pairs
 PrismC was handed    93945567 working-precision words and   190 shell-pairs
 Enter PrismC: JobTyp=22 DoJE=F Cont=F.
 Enter PrismC: JobTyp=22 DoJE=F Cont=F.
 PrismC was handed    93945567 working-precision words and   190 shell-pairs
 Enter PrismC: JobTyp=22 DoJE=F Cont=F.
 PrismC was handed    93945567 working-precision words and   190 shell-pairs
 PrismC was handed    93945567 working-precision words and   190 shell-pairs
 PrismC:  IPart=     0 DynPar=F LinDyn=F Incr=          18 UseFst=F UseS4=T IGathr=2.
 PrismC was handed    93945567 working-precision words and   190 shell-pairs
 Enter PrismC: JobTyp=22 DoJE=F Cont=F.
 PrismC was handed    93945567 working-precision words and   190 shell-pairs
 IPart=  6 NShTot=         943 NShNF=         943 NShFF=           0 NBatch=         295 AvBLen=         3.2
 IPart=  5 NShTot=        1003 NShNF=        1003 NShFF=           0 NBatch=         342 AvBLen=         2.9
 IPart=  2 NShTot=        1120 NShNF=        1120 NShFF=           0 NBatch=         389 AvBLen=         2.9
 IPart=  3 NShTot=        1124 NShNF=        1124 NShFF=           0 NBatch=         411 AvBLen=         2.7
 IPart=  0 NShTot=        1246 NShNF=        1246 NShFF=           0 NBatch=         556 AvBLen=         2.2
 IPart=  9 NShTot=         853 NShNF=         853 NShFF=           0 NBatch=         252 AvBLen=         3.4
 IPart=  7 NShTot=         984 NShNF=         984 NShFF=           0 NBatch=         313 AvBLen=         3.1
 IPart=  4 NShTot=         891 NShNF=         891 NShFF=           0 NBatch=         305 AvBLen=         2.9
 IPart=  8 NShTot=         865 NShNF=         865 NShFF=           0 NBatch=         277 AvBLen=         3.1
 IPart=  1 NShTot=        1316 NShNF=        1316 NShFF=           0 NBatch=         540 AvBLen=         2.4
 CoulSu:  NxtVal=            181.
 ReadGW:  IGet=0 IStart=           1 Next=           1 LGW=           0.
 Remaining memory in FofDFT      896.00 Mw
 CkSvGd:  ISavGI=        -1 IRadAn=       5 IRASav=       5 ISavGd=        -1.
 CalDSu:  NPrtUS=  10 ThrOK=T IAlg=1 NPAlg=2 DoDPD=T LenP=        1176 LenD1P=             0.
 IPart=  0 IRanGd=          0 ScrnBf=T ScrnGd=T RCrit=4.00D+00 DoMicB=T.
 IPart=  1         1733 of         1819 points in       5 batches and       16 microbatches, Max-NSigAt=       3 Max-NSgAt2=       3
 IPart=  0         1950 of         2046 points in       4 batches and       17 microbatches, Max-NSigAt=       3 Max-NSgAt2=       3
 IPart=  4         1379 of         1436 points in       4 batches and       12 microbatches, Max-NSigAt=       3 Max-NSgAt2=       3
 IPart=  9         1616 of         1681 points in       3 batches and       16 microbatches, Max-NSigAt=       3 Max-NSgAt2=       3
 IPart=  7         1385 of         1436 points in       4 batches and       13 microbatches, Max-NSigAt=       3 Max-NSgAt2=       3
 IPart=  8         1377 of         1436 points in       4 batches and       15 microbatches, Max-NSigAt=       3 Max-NSgAt2=       3
 IPart=  5         1789 of         1838 points in       3 batches and        8 microbatches, Max-NSigAt=       3 Max-NSgAt2=       3
 IPart=  3         1802 of         1884 points in       4 batches and       10 microbatches, Max-NSigAt=       3 Max-NSgAt2=       3
 IPart=  2         2058 of         2118 points in       5 batches and       11 microbatches, Max-NSigAt=       3 Max-NSgAt2=       3
 IPart=  6         2245 of         2285 points in       4 batches and       11 microbatches, Max-NSigAt=       3 Max-NSgAt2=       3
 Polarizability after L703:
                1             2             3 
      1  0.686621D+01
      2  0.000000D+00  0.110248D+02
      3  0.000000D+00  0.000000D+00  0.944593D+01
 Dipole Derivatives after L703:
                 1             2             3             4             5 
      1  -0.642367D+00  0.000000D+00  0.000000D+00  0.321183D+00  0.000000D+00
      2   0.000000D+00 -0.185265D+00  0.000000D+00  0.000000D+00  0.926324D-01
      3   0.000000D+00  0.000000D+00 -0.106375D+00  0.000000D+00  0.125371D+00
                 6             7             8             9 
      1   0.000000D+00  0.321183D+00  0.000000D+00  0.000000D+00
      2   0.180562D+00  0.000000D+00  0.926324D-01 -0.180562D+00
      3   0.531874D-01  0.000000D+00 -0.125371D+00  0.531874D-01
 Hessian after L703:
                1             2             3             4             5 
      1  0.516175D-04
      2  0.000000D+00  0.520668D+00
      3  0.000000D+00  0.000000D+00  0.362615D+00
      4 -0.258088D-04  0.000000D+00  0.000000D+00  0.874656D-05
      5  0.000000D+00 -0.260334D+00  0.152281D+00  0.000000D+00  0.289354D+00
      6  0.000000D+00  0.205578D+00 -0.181307D+00  0.000000D+00 -0.178930D+00
      7 -0.258088D-04  0.000000D+00  0.000000D+00  0.170622D-04  0.000000D+00
      8  0.000000D+00 -0.260334D+00 -0.152281D+00  0.000000D+00 -0.290204D-01
      9  0.000000D+00 -0.205578D+00 -0.181307D+00  0.000000D+00  0.266487D-01
                6             7             8             9 
      6  0.171822D+00
      7  0.000000D+00  0.874656D-05
      8 -0.266487D-01  0.000000D+00  0.289354D+00
      9  0.948572D-02  0.000000D+00  0.178930D+00  0.171822D+00
 Leave Link  703 at Sat Nov 12 21:58:21 2022, MaxMem=   939524096 cpu:        10.6
 (Enter /Local/ce_dana/g09/l716.exe)
 FrcOut:
 IF    =    40 IFX   =    49 IFXYZ =    58
 IFFX  =    67 IFFFX =   112 IFLen =     9
 IFFLen=    45 IFFFLn=     0 IEDerv=   112
 LEDerv=   485 IFroze=   724 ICStrt=  4550
 Dipole        =-3.80467406D-17 9.59952604D-16-7.71734667D-01
 DipoleDeriv   =-6.42366863D-01-1.99313722D-16-8.88796016D-17
                -1.49567969D-16-1.85264779D-01-5.06820836D-14
                -1.37348569D-16 1.33225852D-14-1.06374880D-01
                 3.21183432D-01 5.39007263D-18-1.69808920D-17
                 1.80613110D-18 9.26323894D-02 1.25371103D-01
                 5.38554025D-18 1.80562115D-01 5.31874399D-02
                 3.21183432D-01 1.93923649D-16 1.05860494D-16
                 1.47761838D-16 9.26323894D-02-1.25371103D-01
                 1.31963028D-16-1.80562115D-01 5.31874399D-02
 Polarizability= 6.86620838D+00-4.54881385D-18 1.10247631D+01
                 4.06535079D-17-4.10107780D-13 9.44592528D+00
 VibFq2-Diag1:  N=      9 IV=           4 MDV=   939519058 NE2=   104391006
 Full mass-weighted force constant matrix:
 Low frequencies ---  -14.7659   -7.9754   -0.0009    0.0005    0.0011   27.8226
 Low frequencies --- 1543.1799 3377.0186 3473.4366
 OrtVCM:  Ph=1 IPass= 1 DotMx1= 0.00D+00
 OrtVCM:  IS=    1 I=    1 IndO=    1 Dot= 1.00D+00 DotN= 1.00D+00 ElMax1= 9.35D-01 ElMax1N= 9.35D-01
 OrtVCM:  Ph=2 NNew=    0 IAdd=    2 IPass= 1 DotMx2= 0.00D+00
 OrtVCM:  IS=    1 I=    2 IndO=    2 Dot= 1.00D+00 DotN= 1.00D+00 ElMax1= 9.35D-01 ElMax1N= 9.35D-01
 OrtVCM:  Ph=2 NNew=    0 IAdd=    3 IPass= 1 DotMx2= 0.00D+00
 OrtVCM:  IS=    1 I=    3 IndO=    3 Dot= 1.00D+00 DotN= 1.00D+00 ElMax1= 9.35D-01 ElMax1N= 9.35D-01
 OrtVCM:  Ph=2 NNew=    0 IAdd=    4 IPass= 1 DotMx2= 1.11D-16
 OrtVCM:  IS=    1 I=    4 IndO=    4 Dot= 1.00D+00 DotN= 1.00D+00 ElMax1= 6.61D-01 ElMax1N= 6.61D-01
 OrtVCM:  Ph=2 NNew=    0 IAdd=    5 IPass= 1 DotMx2= 5.55D-17
 OrtVCM:  IS=    1 I=    5 IndO=    5 Dot= 1.00D+00 DotN= 1.00D+00 ElMax1= 7.07D-01 ElMax1N= 7.07D-01
 OrtVCM:  Ph=2 NNew=    0 IAdd=    6 IPass= 1 DotMx2= 1.13D-16
 OrtVCM:  IS=    1 I=    6 IndO=    6 Dot= 1.00D+00 DotN= 1.00D+00 ElMax1= 5.69D-01 ElMax1N= 5.69D-01
 OrtVCM:  Ph=1 IPass= 1 DotMx1= 9.35D-01
 OrtVCM:  Ph=1 IPass= 2 DotMx1= 6.49D-17
 OrtVCM:  IS=    1 I=    1 IndO=    0 Dot= 1.06D-33 DotN= 1.06D-33 ElMax1= 2.55D-17 ElMax1N= 2.55D-17
 OrtVCM:  IS=    1 I=    2 IndO=    7 Dot= 8.14D-02 DotN= 8.14D-02 ElMax1= 1.52D-01 ElMax1N= 1.52D-01
 OrtVCM:  Ph=2 NNew=    0 IAdd=    3 IPass= 1 DotMx2= 2.78D-17
 OrtVCM:  IS=    1 I=    3 IndO=    8 Dot= 1.26D-01 DotN= 1.26D-01 ElMax1= 2.35D-01 ElMax1N= 2.35D-01
 SchOr2:  IPass= 1 Test2A= 1.00D-01 IOff=     0 NDo=     3 NNew=     2
 OrtVCM:  Ph=1 IPass= 1 DotMx1= 7.07D-01
 OrtVCM:  Ph=1 IPass= 2 DotMx1= 8.84D-17
 OrtVCM:  IS=    1 I=    1 IndO=    0 Dot= 1.87D-33 DotN= 1.87D-33 ElMax1= 3.06D-17 ElMax1N= 3.06D-17
 SchOr2:  IPass= 1 Test2A= 1.00D-01 IOff=     3 NDo=     1 NNew=     0
 OrtVCM:  Ph=1 IPass= 1 DotMx1= 5.32D-01
 OrtVCM:  Ph=1 IPass= 2 DotMx1= 8.25D-17
 OrtVCM:  IS=    1 I=    1 IndO=    9 Dot= 5.00D-01 DotN= 5.00D-01 ElMax1= 5.00D-01 ElMax1N= 5.00D-01
 SchOr2:  IPass= 1 Test2A= 1.00D-01 IOff=     4 NDo=     1 NNew=     1
 VibFq2-Diag2:  N=      3 IV=           4 MDV=   939519058 NE2=   313173018
 Dipole derivatives wrt mode   1: -1.71154D-15  1.00808D-13 -5.24420D+00
 Vibrational polarizability contributions from mode   1       0.0000000       0.0000000       0.3107840
 Vibrational hyperpolarizability contributions from mode   1      -0.0000000       0.0000000      -0.0000000
 Dipole derivatives wrt mode   2: -5.17248D-15  3.91687D-13  3.02774D+00
 Vibrational polarizability contributions from mode   2       0.0000000       0.0000000       0.0216324
 Vibrational hyperpolarizability contributions from mode   2      -0.0000000       0.0000000       0.0000000
 Dipole derivatives wrt mode   3: -5.22803D-15  1.21137D+00 -1.49336D-12
 Vibrational polarizability contributions from mode   3       0.0000000       0.0032732       0.0000000
 Vibrational hyperpolarizability contributions from mode   3      -0.0000000       0.0000000      -0.0000000
 Diagonal vibrational polarizability:
        0.0000000       0.0032732       0.3324163
 NorSel:  MapVib=      1      2      3
 Harmonic frequencies (cm**-1), IR intensities (KM/Mole), Raman scattering
 activities (A**4/AMU), depolarization ratios for plane and unpolarized
 incident light, reduced masses (AMU), force constants (mDyne/A),
 and normal coordinates:
                      1                      2                      3
                     A1                     A1                     B2
 Frequencies --   1543.1799              3377.0186              3473.4366
 Red. masses --      1.0922                 1.0493                 1.0902
 Frc consts  --      1.5324                 7.0507                 7.7497
 IR Inten    --     27.5016                 9.1672                 1.4674
  Atom  AN      X      Y      Z        X      Y      Z        X      Y      Z
     1   7     0.00  -0.00   0.08     0.00   0.00   0.06     0.00   0.08  -0.00
     2   1    -0.00  -0.43  -0.56     0.00   0.59  -0.39     0.00  -0.55   0.44
     3   1    -0.00   0.43  -0.56    -0.00  -0.59  -0.39    -0.00  -0.55  -0.44

 -------------------
 - Thermochemistry -
 -------------------
 Temperature   298.150 Kelvin.  Pressure   1.00000 Atm.
 Atom     1 has atomic number  7 and mass  14.00307
 Atom     2 has atomic number  1 and mass   1.00783
 Atom     3 has atomic number  1 and mass   1.00783
 Molecular mass:    16.01872 amu.
 Principal axes and moments of inertia in atomic units:
                           1         2         3
     Eigenvalues --     2.54142   4.66241   7.20383
           X            0.00000   0.00000   1.00000
           Y            1.00000   0.00000   0.00000
           Z           -0.00000   1.00000  -0.00000
 This molecule is an asymmetric top.
 Rotational symmetry number  2.
 Rotational temperatures (Kelvin)     34.08083    18.57706    12.02330
 Rotational constants (GHZ):         710.13003   387.08363   250.52524
 Zero-point vibrational energy      50205.1 (Joules/Mol)
                                   11.99930 (Kcal/Mol)
 Vibrational temperatures:   2220.29  4858.77  4997.49
          (Kelvin)
 
 Zero-point correction=                           0.019122 (Hartree/Particle)
 Thermal correction to Energy=                    0.021959
 Thermal correction to Enthalpy=                  0.022903
 Thermal correction to Gibbs Free Energy=         0.000814
 Sum of electronic and zero-point Energies=            -55.834739
 Sum of electronic and thermal Energies=               -55.831903
 Sum of electronic and thermal Enthalpies=             -55.830959
 Sum of electronic and thermal Free Energies=          -55.853048
 
                     E (Thermal)             CV                S
                      KCal/Mol        Cal/Mol-Kelvin    Cal/Mol-Kelvin
 Total                   13.779              6.026             46.490
 Electronic               0.000              0.000              1.377
 Translational            0.889              2.981             34.259
 Rotational               0.889              2.981             10.844
 Vibrational             12.002              0.064              0.010
                       Q            Log10(Q)             Ln(Q)
 Total Bot       0.422262D+00         -0.374418         -0.862129
 Total V=0       0.263707D+09          8.421122         19.390351
 Vib (Bot)       0.160219D-08         -8.795287        -20.251896
 Vib (V=0)       0.100058D+01          0.000253          0.000584
 Electronic      0.200000D+01          0.301030          0.693147
 Translational   0.251998D+07          6.401397         14.739762
 Rotational      0.522928D+02          1.718442          3.956858
 
                                                                 NH2
                                                             IR Spectrum
 
     3   3                                                                  1                                                        
     4   3                                                                  5                                                        
     7   7                                                                  4                                                        
     3   7                                                                  3                                                        
 
     X   X                                                                  X                                                        
         X                                                                  X                                                        
         X                                                                  X                                                        
         X                                                                  X                                                        
         X                                                                  X                                                        
         X                                                                  X                                                        
         X                                                                  X                                                        
                                                                            X                                                        
                                                                            X                                                        
                                                                            X                                                        
                                                                            X                                                        
                                                                            X                                                        
                                                                            X                                                        
                                                                            X                                                        
                                                                            X                                                        
                                                                            X                                                        
                                                                            X                                                        
                                                                            X                                                        
                                                                            X                                                        
                                                                            X                                                        
 
 Forces in standard orientation:
 -------------------------------------------------------------------
 Center     Atomic                   Forces (Hartrees/Bohr)
 Number     Number              X              Y              Z
 -------------------------------------------------------------------
      1        7          -0.000000000   -0.000000000   -0.000000977
      2        1          -0.000000000   -0.000000042    0.000000489
      3        1           0.000000000    0.000000042    0.000000489
 -------------------------------------------------------------------
 ***** Axes restored to original set *****
 Rotating derivatives, DoTrsp=F IDiff=-2 LEDeriv=    484 LFDPrp=       0 LDFDPr=       0.
 -------------------------------------------------------------------
 Center     Atomic                   Forces (Hartrees/Bohr)
 Number     Number              X              Y              Z
 -------------------------------------------------------------------
      1        7           0.000000001    0.000000977   -0.000000000
      2        1          -0.000000043   -0.000000489   -0.000000000
      3        1           0.000000042   -0.000000489    0.000000000
 -------------------------------------------------------------------
 Cartesian Forces:  Max     0.000000977 RMS     0.000000399
 Z-matrix is all fixed cartesians, so copy forces.
 Force constants in Cartesian coordinates: 
                1             2             3             4             5 
      1  0.520668D+00
      2 -0.906134D-04  0.362615D+00
      3  0.000000D+00  0.000000D+00  0.516175D-04
      4 -0.260539D+00 -0.152236D+00  0.000000D+00  0.289560D+00
      5 -0.205533D+00 -0.181102D+00  0.000000D+00  0.178862D+00  0.171616D+00
      6  0.000000D+00  0.000000D+00 -0.258088D-04  0.000000D+00  0.000000D+00
      7 -0.260129D+00  0.152326D+00  0.000000D+00 -0.290204D-01  0.266708D-01
      8  0.205624D+00 -0.181512D+00  0.000000D+00 -0.266266D-01  0.948571D-02
      9  0.000000D+00  0.000000D+00 -0.258088D-04  0.000000D+00  0.000000D+00
                6             7             8             9 
      6  0.874656D-05
      7  0.000000D+00  0.289149D+00
      8  0.000000D+00 -0.178997D+00  0.172027D+00
      9  0.170622D-04  0.000000D+00  0.000000D+00  0.874656D-05
 Final forces over variables, Energy=-5.58538616D+01:
  5.60238120D-10-4.25113988D-08 4.19511681D-08 9.77206177D-07
 -4.88578923D-07-4.88627257D-07-7.18854180D-16-3.08502041D-19
  7.19162682D-16
 Leave Link  716 at Sat Nov 12 21:58:21 2022, MaxMem=   939524096 cpu:         0.1
 (Enter /Local/ce_dana/g09/l103.exe)

 GradGradGradGradGradGradGradGradGradGradGradGradGradGradGradGradGradGrad
 Berny optimization.
 Search for a local minimum.
 Step number   1 out of a maximum of    2
 All quantities printed in internal units (Hartrees-Bohrs-Radians)
 Second derivative matrix not updated -- analytic derivatives used.
 The second derivative matrix:
                          X1        Y1        Z1        X2        Y2
           X1           0.52067
           Y1          -0.00009   0.36261
           Z1          -0.00000   0.00000   0.00005
           X2          -0.26054  -0.15224  -0.00000   0.28956
           Y2          -0.20553  -0.18110  -0.00000   0.17886   0.17162
           Z2          -0.00000  -0.00000  -0.00003   0.00000   0.00000
           X3          -0.26013   0.15233   0.00000  -0.02902   0.02667
           Y3           0.20562  -0.18151  -0.00000  -0.02663   0.00949
           Z3           0.00000  -0.00000  -0.00003   0.00000   0.00000
                          Z2        X3        Y3        Z3
           Z2           0.00001
           X3           0.00000   0.28915
           Y3          -0.00000  -0.17900   0.17203
           Z3           0.00002  -0.00000   0.00000   0.00001
 ITU=  0
     Eigenvalues ---    0.13369   0.61948   0.77203
 Angle between quadratic step and forces=  45.13 degrees.
 ClnCor:  largest displacement from symmetrization is 5.09D-14 for atom     3.
 Linear search not attempted -- first point.
 ClnCor:  largest displacement from symmetrization is 7.71D-16 for atom     3.
 TrRot=  0.000000  0.000001 -0.000000  0.000000  0.000000  0.000000
 Variable       Old X    -DE/DX   Delta X   Delta X   Delta X     New X
                                 (Linear)    (Quad)   (Total)
    X1        0.00046   0.00000   0.00000   0.00000   0.00000   0.00046
    Y1        0.80065   0.00000   0.00000   0.00000   0.00000   0.80065
    Z1       -0.00000  -0.00000   0.00000  -0.00000  -0.00000  -0.00000
    X2       -1.52112  -0.00000   0.00000   0.00000   0.00000  -1.52112
    Y2       -0.39945  -0.00000   0.00000  -0.00000  -0.00000  -0.39945
    Z2       -0.00000  -0.00000   0.00000   0.00000   0.00000  -0.00000
    X3        1.52066   0.00000   0.00000  -0.00000  -0.00000   1.52066
    Y3       -0.40120  -0.00000   0.00000  -0.00000  -0.00000  -0.40120
    Z3        0.00000   0.00000   0.00000  -0.00000  -0.00000   0.00000
         Item               Value     Threshold  Converged?
 Maximum Force            0.000001     0.000450     YES
 RMS     Force            0.000000     0.000300     YES
 Maximum Displacement     0.000003     0.001800     YES
 RMS     Displacement     0.000001     0.001200     YES
 Predicted change in Energy=-2.028297D-12
 Optimization completed.
    -- Stationary point found.
 GradGradGradGradGradGradGradGradGradGradGradGradGradGradGradGradGradGrad

 Leave Link  103 at Sat Nov 12 21:58:21 2022, MaxMem=   939524096 cpu:         0.1
 (Enter /Local/ce_dana/g09/l9999.exe)

 Test job not archived.
 1\1\GINC-TECH-WN198\Freq\UB2PLYPD3-FC\def2TZVP\H2N1(2)\ALONGD\12-Nov-2
 022\0\\#P guess=read ub2plypd3/def2tzvp freq IOp(7/33=1) scf=(tight, d
 irect) integral=(grid=ultrafine, Acc2E=12) IOp(2/9=2000) scf=xqc\\NH2\
 \0,2\N,0.0002429674,0.423685,0.\H,-0.804941,-0.211381,0.\H,0.804698228
 2,-0.2123038201,0.\\Version=ES64L-G09RevD.01\State=2-B1\HF=-55.7961678
 \MP2=-55.8538616\S2=0.754836\S2-1=0.\S2A=0.750013\RMSD=1.456e-09\RMSF=
 3.994e-07\ZeroPoint=0.0191221\Thermal=0.0219588\Dipole=-0.0004424,-0.7
 717345,0.\DipoleDeriv=-0.1852648,0.0000452,0.,0.0000452,-0.1063749,0.,
 0.,0.,-0.6423669,0.092457,-0.1253936,0.,-0.1805846,0.0533628,0.,0.,0.,
 0.3211834,0.0928078,0.1253484,0.,0.1805394,0.0530121,0.,0.,0.,0.321183
 4\Polar=11.0247626,-0.0009052,9.4459258,0.,0.,6.8662084\PG=C02V [C2(N1
 ),SGV(H2)]\NImag=0\\0.52066802,-0.00009061,0.36261461,0.,0.,0.00005162
 ,-0.26053917,-0.15223565,0.,0.28955953,-0.20553307,-0.18110214,0.,0.17
 886229,0.17161643,0.,0.,-0.00002581,0.,0.,0.00000875,-0.26012885,0.152
 32627,0.,-0.02902036,0.02667078,0.,0.28914921,0.20562369,-0.18151247,0
 .,-0.02662663,0.00948571,0.,-0.17899705,0.17202676,0.,0.,-0.00002581,0
 .,0.,0.00001706,0.,0.,0.00000875\\0.,-0.00000098,0.,0.00000004,0.00000
 049,0.,-0.00000004,0.00000049,0.\\\@


 LORD, MAN... WERE YE BUT WHYLES WHERE I AM, 
 THE GENTILES YE WAD NE'ER ENVY 'EM.        
 IT'S TRUE, THEY NEEDNA STARVE OR SWEAT,     
 THRO' WINTER'S CAULD OR SIMMER'S HEAT...  
 THEY'VE NAE SAIR WARK TO CRAZE THEIR BANES, 
 AND FILL AULD AGE WITH GRIPS AN' GRANES...  
                                             
 BUT HUMAN BODIES ARE SIC FOOLS              
 FOR A' THEIR COLLEGES AND SCHOOLS,           
 THAT WHEN NAE REAL ILLS PERPLEX THEM,       
 THEY MAK ENOW THEMSELVES TO VEX THEM,       
 AN' AYE THE LESS THEY HAE TO STURT THEM,    
 IN LIKE PROPORTION LESS WILL HURT THEM....  
                                             
                (ROBERT BURNS 'THE TWA DOGS')
 Job cpu time:       0 days  0 hours  1 minutes 47.7 seconds.
 File lengths (MBytes):  RWF=     70 Int=      0 D2E=      0 Chk=      1 Scr=      1
 Normal termination of Gaussian 09 at Sat Nov 12 21:58:21 2022.
