 Entering Gaussian System, Link 0=g16
 Initial command:
 /usr/common/software/g16/a03/g16/l1.exe "/global/cscratch1/sd/laitcl/Gau-15967.inp" -scrdir="/global/cscratch1/sd/laitcl/"
 Entering Link 1 = /usr/common/software/g16/a03/g16/l1.exe PID=     15968.
  
 Copyright (c) 1988,1990,1992,1993,1995,1998,2003,2009,2016,
            Gaussian, Inc.  All Rights Reserved.
  
 This is part of the Gaussian(R) 16 program.  It is based on
 the Gaussian(R) 09 system (copyright 2009, Gaussian, Inc.),
 the Gaussian(R) 03 system (copyright 2003, Gaussian, Inc.),
 the Gaussian(R) 98 system (copyright 1998, Gaussian, Inc.),
 the Gaussian(R) 94 system (copyright 1995, Gaussian, Inc.),
 the Gaussian 92(TM) system (copyright 1992, Gaussian, Inc.),
 the Gaussian 90(TM) system (copyright 1990, Gaussian, Inc.),
 the Gaussian 88(TM) system (copyright 1988, Gaussian, Inc.),
 the Gaussian 86(TM) system (copyright 1986, Carnegie Mellon
 University), and the Gaussian 82(TM) system (copyright 1983,
 Carnegie Mellon University). Gaussian is a federally registered
 trademark of Gaussian, Inc.
  
 This software contains proprietary and confidential information,
 including trade secrets, belonging to Gaussian, Inc.
  
 This software is provided under written license and may be
 used, copied, transmitted, or stored only in accord with that
 written license.
  
 The following legend is applicable only to US Government
 contracts under FAR:
  
                    RESTRICTED RIGHTS LEGEND
  
 Use, reproduction and disclosure by the US Government is
 subject to restrictions as set forth in subparagraphs (a)
 and (c) of the Commercial Computer Software - Restricted
 Rights clause in FAR 52.227-19.
  
 Gaussian, Inc.
 340 Quinnipiac St., Bldg. 40, Wallingford CT 06492
  
  
 ---------------------------------------------------------------
 Warning -- This program may not be used in any manner that
 competes with the business of Gaussian, Inc. or will provide
 assistance to any competitor of Gaussian, Inc.  The licensee
 of this program is prohibited from giving any competitor of
 Gaussian, Inc. access to this program.  By using this program,
 the user acknowledges that Gaussian, Inc. is engaged in the
 business of creating and licensing software in the field of
 computational chemistry and represents and warrants to the
 licensee that it is not a competitor of Gaussian, Inc. and that
 it will not use this program in any manner prohibited above.
 ---------------------------------------------------------------
  

 Cite this work as:
 Gaussian 16, Revision A.03,
 M. J. Frisch, G. W. Trucks, H. B. Schlegel, G. E. Scuseria, 
 M. A. Robb, J. R. Cheeseman, G. Scalmani, V. Barone, 
 G. A. Petersson, H. Nakatsuji, X. Li, M. Caricato, A. V. Marenich, 
 J. Bloino, B. G. Janesko, R. Gomperts, B. Mennucci, H. P. Hratchian, 
 J. V. Ortiz, A. F. Izmaylov, J. L. Sonnenberg, D. Williams-Young, 
 F. Ding, F. Lipparini, F. Egidi, J. Goings, B. Peng, A. Petrone, 
 T. Henderson, D. Ranasinghe, V. G. Zakrzewski, J. Gao, N. Rega, 
 G. Zheng, W. Liang, M. Hada, M. Ehara, K. Toyota, R. Fukuda, 
 J. Hasegawa, M. Ishida, T. Nakajima, Y. Honda, O. Kitao, H. Nakai, 
 T. Vreven, K. Throssell, J. A. Montgomery, Jr., J. E. Peralta, 
 F. Ogliaro, M. J. Bearpark, J. J. Heyd, E. N. Brothers, K. N. Kudin, 
 V. N. Staroverov, T. A. Keith, R. Kobayashi, J. Normand, 
 K. Raghavachari, A. P. Rendell, J. C. Burant, S. S. Iyengar, 
 J. Tomasi, M. Cossi, J. M. Millam, M. Klene, C. Adamo, R. Cammi, 
 J. W. Ochterski, R. L. Martin, K. Morokuma, O. Farkas, 
 J. B. Foresman, and D. J. Fox, Gaussian, Inc., Wallingford CT, 2016.
 
 ******************************************
 Gaussian 16:  ES64L-G16RevA.03 25-Dec-2016
                 9-Mar-2017 
 ******************************************
 %chk=TolueneRot1.chk
 %mem=1000mb
 %nproc=8
 Will use up to    8 processors via shared memory.
 ---------------------------------
 # opt=(addred) b3lyp/cbsb7 nosymm
 ---------------------------------
 1/18=120,19=15,26=3,38=1/1,3;
 2/9=110,12=2,15=1,17=6,18=5,40=1/2;
 3/5=4,6=6,7=700,11=2,25=1,30=1,71=1,74=-5/1,2,3;
 4//1;
 5/5=2,38=5/2;
 6/7=2,8=2,9=2,10=2,28=1/1;
 7/30=1/1,2,3,16;
 1/18=20,19=15,26=3/3(2);
 2/9=110,15=1/2;
 99//99;
 2/9=110,15=1/2;
 3/5=4,6=6,7=700,11=2,25=1,30=1,71=1,74=-5/1,2,3;
 4/5=5,16=3,69=1/1;
 5/5=2,38=5/2;
 7/30=1/1,2,3,16;
 1/18=20,19=15,26=3/3(-5);
 2/9=110,15=1/2;
 6/7=2,8=2,9=2,10=2,19=2,28=1/1;
 99/9=1/99;
 ---------------------------
 Toluene Rot1 Hindered Rotor
 ---------------------------
 Symbolic Z-matrix:
 Charge =  0 Multiplicity = 1
 C                     0.00827   0.71997   0. 
 C                     0.01111   0.00143   1.20014 
 C                     0.01111  -1.39152   1.20295 
 C                     0.01022  -2.09413   0. 
 C                     0.01111  -1.39152  -1.20295 
 C                     0.01111   0.00143  -1.20014 
 C                    -0.02402   2.22984   0. 
 H                     0.01565   0.53943   2.14306 
 H                     0.01573  -1.92799   2.14555 
 H                     0.0132   -3.1783    0. 
 H                     0.01573  -1.92799  -2.14555 
 H                     0.01565   0.53943  -2.14306 
 H                    -1.05489   2.60106   0. 
 H                     0.46998   2.63941   0.88421 
 H                     0.46998   2.63941  -0.88421 
 
 The following ModRedundant input section has been read:
 D       2       1       7      14 S  36 10.000                                
 

 GradGradGradGradGradGradGradGradGradGradGradGradGradGradGradGradGradGrad
 Berny optimization.
 Initialization pass.
                           ----------------------------
                           !    Initial Parameters    !
                           ! (Angstroms and Degrees)  !
 --------------------------                            --------------------------
 ! Name  Definition              Value          Derivative Info.                !
 --------------------------------------------------------------------------------
 ! R1    R(1,2)                  1.3988         estimate D2E/DX2                !
 ! R2    R(1,6)                  1.3988         estimate D2E/DX2                !
 ! R3    R(1,7)                  1.5102         estimate D2E/DX2                !
 ! R4    R(2,3)                  1.393          estimate D2E/DX2                !
 ! R5    R(2,8)                  1.0856         estimate D2E/DX2                !
 ! R6    R(3,4)                  1.3931         estimate D2E/DX2                !
 ! R7    R(3,9)                  1.0846         estimate D2E/DX2                !
 ! R8    R(4,5)                  1.3931         estimate D2E/DX2                !
 ! R9    R(4,10)                 1.0842         estimate D2E/DX2                !
 ! R10   R(5,6)                  1.393          estimate D2E/DX2                !
 ! R11   R(5,11)                 1.0846         estimate D2E/DX2                !
 ! R12   R(6,12)                 1.0856         estimate D2E/DX2                !
 ! R13   R(7,13)                 1.0957         estimate D2E/DX2                !
 ! R14   R(7,14)                 1.0925         estimate D2E/DX2                !
 ! R15   R(7,15)                 1.0925         estimate D2E/DX2                !
 ! A1    A(2,1,6)              118.1806         estimate D2E/DX2                !
 ! A2    A(2,1,7)              120.9045         estimate D2E/DX2                !
 ! A3    A(6,1,7)              120.9045         estimate D2E/DX2                !
 ! A4    A(1,2,3)              121.025          estimate D2E/DX2                !
 ! A5    A(1,2,8)              119.383          estimate D2E/DX2                !
 ! A6    A(3,2,8)              119.5918         estimate D2E/DX2                !
 ! A7    A(2,3,4)              120.1724         estimate D2E/DX2                !
 ! A8    A(2,3,9)              119.7612         estimate D2E/DX2                !
 ! A9    A(4,3,9)              120.066          estimate D2E/DX2                !
 ! A10   A(3,4,5)              119.4239         estimate D2E/DX2                !
 ! A11   A(3,4,10)             120.2878         estimate D2E/DX2                !
 ! A12   A(5,4,10)             120.2878         estimate D2E/DX2                !
 ! A13   A(4,5,6)              120.1724         estimate D2E/DX2                !
 ! A14   A(4,5,11)             120.066          estimate D2E/DX2                !
 ! A15   A(6,5,11)             119.7612         estimate D2E/DX2                !
 ! A16   A(1,6,5)              121.025          estimate D2E/DX2                !
 ! A17   A(1,6,12)             119.383          estimate D2E/DX2                !
 ! A18   A(5,6,12)             119.5918         estimate D2E/DX2                !
 ! A19   A(1,7,13)             111.0293         estimate D2E/DX2                !
 ! A20   A(1,7,14)             111.4156         estimate D2E/DX2                !
 ! A21   A(1,7,15)             111.4156         estimate D2E/DX2                !
 ! A22   A(13,7,14)            107.362          estimate D2E/DX2                !
 ! A23   A(13,7,15)            107.362          estimate D2E/DX2                !
 ! A24   A(14,7,15)            108.0605         estimate D2E/DX2                !
 ! D1    D(6,1,2,3)             -0.2643         estimate D2E/DX2                !
 ! D2    D(6,1,2,8)            179.5962         estimate D2E/DX2                !
 ! D3    D(7,1,2,3)            178.5718         estimate D2E/DX2                !
 ! D4    D(7,1,2,8)             -1.5677         estimate D2E/DX2                !
 ! D5    D(2,1,6,5)              0.2643         estimate D2E/DX2                !
 ! D6    D(2,1,6,12)          -179.5962         estimate D2E/DX2                !
 ! D7    D(7,1,6,5)           -178.5718         estimate D2E/DX2                !
 ! D8    D(7,1,6,12)             1.5677         estimate D2E/DX2                !
 ! D9    D(2,1,7,13)           -89.4021         estimate D2E/DX2                !
 ! D10   D(2,1,7,14)            30.2147         Scan                            !
 ! D11   D(2,1,7,15)           150.9811         estimate D2E/DX2                !
 ! D12   D(6,1,7,13)            89.4021         estimate D2E/DX2                !
 ! D13   D(6,1,7,14)          -150.9811         estimate D2E/DX2                !
 ! D14   D(6,1,7,15)           -30.2147         estimate D2E/DX2                !
 ! D15   D(1,2,3,4)              0.0934         estimate D2E/DX2                !
 ! D16   D(1,2,3,9)            179.8546         estimate D2E/DX2                !
 ! D17   D(8,2,3,4)           -179.7668         estimate D2E/DX2                !
 ! D18   D(8,2,3,9)             -0.0056         estimate D2E/DX2                !
 ! D19   D(2,3,4,5)              0.084          estimate D2E/DX2                !
 ! D20   D(2,3,4,10)           179.8175         estimate D2E/DX2                !
 ! D21   D(9,3,4,5)           -179.6765         estimate D2E/DX2                !
 ! D22   D(9,3,4,10)             0.0571         estimate D2E/DX2                !
 ! D23   D(3,4,5,6)             -0.084          estimate D2E/DX2                !
 ! D24   D(3,4,5,11)           179.6765         estimate D2E/DX2                !
 ! D25   D(10,4,5,6)          -179.8175         estimate D2E/DX2                !
 ! D26   D(10,4,5,11)           -0.0571         estimate D2E/DX2                !
 ! D27   D(4,5,6,1)             -0.0934         estimate D2E/DX2                !
 ! D28   D(4,5,6,12)           179.7668         estimate D2E/DX2                !
 ! D29   D(11,5,6,1)          -179.8546         estimate D2E/DX2                !
 ! D30   D(11,5,6,12)            0.0056         estimate D2E/DX2                !
 --------------------------------------------------------------------------------
 Trust Radius=3.00D-01 FncErr=1.00D-07 GrdErr=1.00D-06 EigMax=2.50D+02 EigMin=1.00D-04
 Number of optimizations in scan=  37
 Number of steps in this run=     79 maximum allowed number of steps=    100.
 GradGradGradGradGradGradGradGradGradGradGradGradGradGradGradGradGradGrad

                          Input orientation:                          
 ---------------------------------------------------------------------
 Center     Atomic      Atomic             Coordinates (Angstroms)
 Number     Number       Type             X           Y           Z
 ---------------------------------------------------------------------
      1          6           0        0.008270    0.719970    0.000000
      2          6           0        0.011110    0.001430    1.200140
      3          6           0        0.011110   -1.391520    1.202950
      4          6           0        0.010220   -2.094130    0.000000
      5          6           0        0.011110   -1.391520   -1.202950
      6          6           0        0.011110    0.001430   -1.200140
      7          6           0       -0.024020    2.229840    0.000000
      8          1           0        0.015650    0.539430    2.143060
      9          1           0        0.015730   -1.927990    2.145550
     10          1           0        0.013200   -3.178300    0.000000
     11          1           0        0.015730   -1.927990   -2.145550
     12          1           0        0.015650    0.539430   -2.143060
     13          1           0       -1.054890    2.601060    0.000000
     14          1           0        0.469980    2.639410    0.884210
     15          1           0        0.469980    2.639410   -0.884210
 ---------------------------------------------------------------------
                    Distance matrix (angstroms):
                    1          2          3          4          5
     1  C    0.000000
     2  C    1.398801   0.000000
     3  C    2.430121   1.392953   0.000000
     4  C    2.814101   2.414893   1.393108   0.000000
     5  C    2.430121   2.777616   2.405900   1.393108   0.000000
     6  C    1.398801   2.400280   2.777616   2.414893   1.392953
     7  C    1.510215   2.531281   3.816094   4.324106   3.816094
     8  H    2.150664   1.085616   2.147649   3.395346   3.863207
     9  H    3.408098   2.148600   1.084581   2.151980   3.391205
    10  H    3.898273   3.398680   2.153991   1.084174   2.153991
    11  H    3.408098   3.862166   3.391205   2.151980   1.084581
    12  H    2.150664   3.386215   3.863207   3.395346   2.147649
    13  H    2.160743   3.055285   4.303968   4.814485   4.303968
    14  H    2.163158   2.696166   4.069466   4.837314   4.562367
    15  H    2.163158   3.393231   4.562367   4.837314   4.069466
                    6          7          8          9         10
     6  C    0.000000
     7  C    2.531281   0.000000
     8  H    3.386215   2.729792   0.000000
     9  H    3.862166   4.678944   2.467421   0.000000
    10  H    3.398680   5.408268   4.291180   2.483277   0.000000
    11  H    2.148600   4.678944   4.947761   4.291100   2.483277
    12  H    1.085616   2.729792   4.286120   4.947761   4.291180
    13  H    3.055285   1.095672   3.160551   5.124637   5.877229
    14  H    3.393231   1.092525   2.490188   4.760091   5.902222
    15  H    2.696166   1.092525   3.712236   5.499721   5.902222
                   11         12         13         14         15
    11  H    0.000000
    12  H    2.467421   0.000000
    13  H    5.124637   3.160551   0.000000
    14  H    5.499721   3.712236   1.763101   0.000000
    15  H    4.760091   2.490188   1.763101   1.768420   0.000000
 Symmetry turned off by external request.
 Stoichiometry    C7H8
 Framework group  CS[SG(C3H2),X(C4H6)]
 Deg. of freedom    22
 Full point group                 CS      NOp   2
 Rotational constants (GHZ):           5.5548152           2.5165402           1.7507580
 Standard basis: 6-311G(2d,d,p) (5D, 7F)
   174 basis functions,   288 primitive gaussians,   181 cartesian basis functions
    25 alpha electrons       25 beta electrons
       nuclear repulsion energy       269.1308041674 Hartrees.
 NAtoms=   15 NActive=   15 NUniq=   15 SFac= 1.00D+00 NAtFMM=   60 NAOKFM=F Big=F
 Integral buffers will be    131072 words long.
 Raffenetti 2 integral format.
 Two-electron integral symmetry is turned off.
 One-electron integrals computed using PRISM.
 NBasis=   174 RedAO= T EigKep=  1.85D-04  NBF=   174
 NBsUse=   174 1.00D-06 EigRej= -1.00D+00 NBFU=   174
 ExpMin= 1.03D-01 ExpMax= 4.56D+03 ExpMxC= 6.82D+02 IAcc=3 IRadAn=         5 AccDes= 0.00D+00
 Harris functional with IExCor=  402 and IRadAn=       5 diagonalized for initial guess.
 HarFok:  IExCor=  402 AccDes= 0.00D+00 IRadAn=         5 IDoV= 1 UseB2=F ITyADJ=14
 ICtDFT=  3500011 ScaDFX=  1.000000  1.000000  1.000000  1.000000
 FoFCou: FMM=F IPFlag=           0 FMFlag=      100000 FMFlg1=           0
         NFxFlg=           0 DoJE=T BraDBF=F KetDBF=T FulRan=T
         wScrn=  0.000000 ICntrl=       500 IOpCl=  0 I1Cent=   200000004 NGrid=           0
         NMat0=    1 NMatS0=      1 NMatT0=    0 NMatD0=    1 NMtDS0=    0 NMtDT0=    0
 Symmetry not used in FoFCou.
 Requested convergence on RMS density matrix=1.00D-08 within 128 cycles.
 Requested convergence on MAX density matrix=1.00D-06.
 Requested convergence on             energy=1.00D-06.
 No special actions if energy rises.
 Integral accuracy reduced to 1.0D-05 until final iterations.
 Initial convergence to 1.0D-05 achieved.  Increase integral accuracy.
 SCF Done:  E(RB3LYP) =  -271.636042406     A.U. after   13 cycles
            NFock= 13  Conv=0.36D-08     -V/T= 2.0046

 **********************************************************************

            Population analysis using the SCF density.

 **********************************************************************

 Alpha  occ. eigenvalues --  -10.18118 -10.17130 -10.17124 -10.16919 -10.16880
 Alpha  occ. eigenvalues --  -10.16877 -10.16776  -0.85703  -0.77241  -0.74475
 Alpha  occ. eigenvalues --   -0.68652  -0.60548  -0.58481  -0.51253  -0.46159
 Alpha  occ. eigenvalues --   -0.45491  -0.42227  -0.42063  -0.40982  -0.38747
 Alpha  occ. eigenvalues --   -0.35673  -0.34366  -0.34055  -0.25337  -0.24458
 Alpha virt. eigenvalues --   -0.00774  -0.00571   0.04543   0.06214   0.07503
 Alpha virt. eigenvalues --    0.09869   0.10865   0.11029   0.13654   0.13858
 Alpha virt. eigenvalues --    0.16612   0.20541   0.27002   0.27489   0.28470
 Alpha virt. eigenvalues --    0.29468   0.30842   0.31781   0.33719   0.39980
 Alpha virt. eigenvalues --    0.40611   0.40840   0.41227   0.43265   0.44421
 Alpha virt. eigenvalues --    0.44992   0.46872   0.47091   0.48221   0.50212
 Alpha virt. eigenvalues --    0.54459   0.54619   0.55486   0.58592   0.60411
 Alpha virt. eigenvalues --    0.60508   0.61175   0.62477   0.62588   0.62850
 Alpha virt. eigenvalues --    0.65561   0.68824   0.73639   0.73792   0.76334
 Alpha virt. eigenvalues --    0.79052   0.81419   0.85302   0.85338   0.89737
 Alpha virt. eigenvalues --    0.93899   0.95521   1.00875   1.01792   1.03211
 Alpha virt. eigenvalues --    1.05267   1.08562   1.13136   1.14345   1.24584
 Alpha virt. eigenvalues --    1.32216   1.33104   1.34797   1.41336   1.45155
 Alpha virt. eigenvalues --    1.46713   1.46735   1.48402   1.51363   1.54024
 Alpha virt. eigenvalues --    1.55564   1.57181   1.57825   1.58355   1.59075
 Alpha virt. eigenvalues --    1.63952   1.67436   1.68562   1.73197   1.74440
 Alpha virt. eigenvalues --    1.77844   1.80186   1.80621   1.83266   1.89720
 Alpha virt. eigenvalues --    1.90667   1.91295   1.91840   1.92901   1.95726
 Alpha virt. eigenvalues --    1.98295   2.02163   2.02179   2.08080   2.10841
 Alpha virt. eigenvalues --    2.20527   2.22336   2.23974   2.30078   2.31939
 Alpha virt. eigenvalues --    2.34688   2.35276   2.38258   2.40613   2.47678
 Alpha virt. eigenvalues --    2.50613   2.52781   2.53330   2.57563   2.60110
 Alpha virt. eigenvalues --    2.61273   2.62178   2.64288   2.65604   2.67827
 Alpha virt. eigenvalues --    2.68159   2.69270   2.72883   2.76073   2.81546
 Alpha virt. eigenvalues --    2.85681   2.85723   2.88423   2.91931   2.93696
 Alpha virt. eigenvalues --    3.06215   3.11798   3.18707   3.32912   3.34661
 Alpha virt. eigenvalues --    3.47091   3.47581   3.59187   3.64475   3.78989
 Alpha virt. eigenvalues --    3.81090   3.96737   4.02796   4.11702   4.12087
 Alpha virt. eigenvalues --    4.32426   4.83940  23.52127  23.89773  23.94491
 Alpha virt. eigenvalues --   23.94746  24.08234  24.10266  24.19702
          Condensed to atoms (all electrons):
               1          2          3          4          5          6
     1  C    5.025939   0.525465  -0.051275  -0.040838  -0.051275   0.525465
     2  C    0.525465   4.841385   0.532606  -0.060204  -0.037853  -0.054327
     3  C   -0.051275   0.532606   4.840767   0.521296  -0.057496  -0.037853
     4  C   -0.040838  -0.060204   0.521296   4.867271   0.521296  -0.060204
     5  C   -0.051275  -0.037853  -0.057496   0.521296   4.840767   0.532606
     6  C    0.525465  -0.054327  -0.037853  -0.060204   0.532606   4.841385
     7  C    0.359756  -0.057183   0.005608   0.000141   0.005608  -0.057183
     8  H   -0.049334   0.417271  -0.039392   0.008003  -0.000587   0.007685
     9  H    0.008281  -0.042059   0.414266  -0.043483   0.007588  -0.000405
    10  H   -0.000425   0.007659  -0.042501   0.415720  -0.042501   0.007659
    11  H    0.008281  -0.000405   0.007588  -0.043483   0.414266  -0.042059
    12  H   -0.049334   0.007685  -0.000587   0.008003  -0.039392   0.417271
    13  H   -0.034997  -0.002972  -0.000212   0.000103  -0.000212  -0.002972
    14  H   -0.036633  -0.006852   0.000506   0.000012  -0.000342   0.005392
    15  H   -0.036633   0.005392  -0.000342   0.000012   0.000506  -0.006852
               7          8          9         10         11         12
     1  C    0.359756  -0.049334   0.008281  -0.000425   0.008281  -0.049334
     2  C   -0.057183   0.417271  -0.042059   0.007659  -0.000405   0.007685
     3  C    0.005608  -0.039392   0.414266  -0.042501   0.007588  -0.000587
     4  C    0.000141   0.008003  -0.043483   0.415720  -0.043483   0.008003
     5  C    0.005608  -0.000587   0.007588  -0.042501   0.414266  -0.039392
     6  C   -0.057183   0.007685  -0.000405   0.007659  -0.042059   0.417271
     7  C    4.806296  -0.007514  -0.000345   0.000044  -0.000345  -0.007514
     8  H   -0.007514   0.586747  -0.008746  -0.000364   0.000082  -0.000390
     9  H   -0.000345  -0.008746   0.581522  -0.008072  -0.000395   0.000082
    10  H    0.000044  -0.000364  -0.008072   0.579510  -0.008072  -0.000364
    11  H   -0.000345   0.000082  -0.000395  -0.008072   0.581522  -0.008746
    12  H   -0.007514  -0.000390   0.000082  -0.000364  -0.008746   0.586747
    13  H    0.397705   0.000450   0.000014  -0.000002   0.000014   0.000450
    14  H    0.406918   0.002892  -0.000026  -0.000003   0.000023  -0.000005
    15  H    0.406918  -0.000005   0.000023  -0.000003  -0.000026   0.002892
              13         14         15
     1  C   -0.034997  -0.036633  -0.036633
     2  C   -0.002972  -0.006852   0.005392
     3  C   -0.000212   0.000506  -0.000342
     4  C    0.000103   0.000012   0.000012
     5  C   -0.000212  -0.000342   0.000506
     6  C   -0.002972   0.005392  -0.006852
     7  C    0.397705   0.406918   0.406918
     8  H    0.000450   0.002892  -0.000005
     9  H    0.000014  -0.000026   0.000023
    10  H   -0.000002  -0.000003  -0.000003
    11  H    0.000014   0.000023  -0.000026
    12  H    0.000450  -0.000005   0.002892
    13  H    0.574015  -0.028900  -0.028900
    14  H   -0.028900   0.572774  -0.027826
    15  H   -0.028900  -0.027826   0.572774
 Mulliken charges:
               1
     1  C   -0.102442
     2  C   -0.075610
     3  C   -0.092981
     4  C   -0.093646
     5  C   -0.092981
     6  C   -0.075610
     7  C   -0.258907
     8  H    0.083200
     9  H    0.091755
    10  H    0.091714
    11  H    0.091755
    12  H    0.083200
    13  H    0.126414
    14  H    0.112069
    15  H    0.112069
 Sum of Mulliken charges =  -0.00000
 Mulliken charges with hydrogens summed into heavy atoms:
               1
     1  C   -0.102442
     2  C    0.007590
     3  C   -0.001226
     4  C   -0.001932
     5  C   -0.001226
     6  C    0.007590
     7  C    0.091645
 Electronic spatial extent (au):  <R**2>=            725.3957
 Charge=             -0.0000 electrons
 Dipole moment (field-independent basis, Debye):
    X=             -0.0382    Y=              0.3496    Z=             -0.0000  Tot=              0.3517
 Quadrupole moment (field-independent basis, Debye-Ang):
   XX=            -45.9589   YY=            -38.5151   ZZ=            -38.7547
   XY=             -0.0916   XZ=              0.0000   YZ=             -0.0000
 Traceless Quadrupole moment (field-independent basis, Debye-Ang):
   XX=             -4.8827   YY=              2.5611   ZZ=              2.3215
   XY=             -0.0916   XZ=              0.0000   YZ=             -0.0000
 Octapole moment (field-independent basis, Debye-Ang**2):
  XXX=             -1.3138  YYY=             17.7409  ZZZ=             -0.0000  XYY=             -0.1752
  XXY=             12.2946  XXZ=             -0.0000  XZZ=              0.4758  YZZ=              6.3613
  YYZ=             -0.0000  XYZ=              0.0000
 Hexadecapole moment (field-independent basis, Debye-Ang**3):
 XXXX=            -58.5507 YYYY=           -617.9964 ZZZZ=           -288.0351 XXXY=              0.6720
 XXXZ=              0.0000 YYYX=              2.1923 YYYZ=             -0.0000 ZZZX=              0.0000
 ZZZY=              0.0000 XXYY=           -123.1898 XXZZ=            -67.5323 YYZZ=           -148.3038
 XXYZ=              0.0000 YYXZ=              0.0000 ZZXY=              2.2571
 N-N= 2.691308041674D+02 E-N=-1.167923146050D+03  KE= 2.703859771445D+02
 Calling FoFJK, ICntrl=      2127 FMM=F ISym2X=0 I1Cent= 0 IOpClX= 0 NMat=1 NMatS=1 NMatT=0.
 -------------------------------------------------------------------
 Center     Atomic                   Forces (Hartrees/Bohr)
 Number     Number              X              Y              Z
 -------------------------------------------------------------------
      1        6          -0.000000550   -0.000018301    0.000000000
      2        6           0.000003297   -0.000008806    0.000013023
      3        6          -0.000003064    0.000010195   -0.000009862
      4        6           0.000003115   -0.000005283    0.000000000
      5        6          -0.000003064    0.000010195    0.000009862
      6        6           0.000003297   -0.000008806   -0.000013023
      7        6          -0.000011683    0.000013242   -0.000000000
      8        1          -0.000001427    0.000003589   -0.000011196
      9        1           0.000000447   -0.000006956   -0.000000411
     10        1           0.000000415    0.000004613    0.000000000
     11        1           0.000000447   -0.000006956    0.000000411
     12        1          -0.000001427    0.000003589    0.000011196
     13        1           0.000009094    0.000002447   -0.000000000
     14        1           0.000000551    0.000003619   -0.000005382
     15        1           0.000000551    0.000003619    0.000005382
 -------------------------------------------------------------------
 Cartesian Forces:  Max     0.000018301 RMS     0.000006984

 GradGradGradGradGradGradGradGradGradGradGradGradGradGradGradGradGradGrad
 Berny optimization.
 FormGI is forming the generalized inverse of G from B-inverse, IUseBI=4.
 Internal  Forces:  Max     0.000022949 RMS     0.000004746
 Search for a local minimum.
 Step number   1 out of a maximum of   79 on scan point     1 out of    37
 All quantities printed in internal units (Hartrees-Bohrs-Radians)
 Mixed Optimization -- En-DIIS/RFO-DIIS
 Second derivative matrix not updated -- first step.
 ITU=  0
     Eigenvalues ---    0.01226   0.02114   0.02140   0.02146   0.02166
     Eigenvalues ---    0.02180   0.02180   0.02181   0.02181   0.04307
     Eigenvalues ---    0.07124   0.16000   0.16000   0.16000   0.16000
     Eigenvalues ---    0.16000   0.16000   0.16000   0.16000   0.22000
     Eigenvalues ---    0.22000   0.23469   0.24994   0.31329   0.34165
     Eigenvalues ---    0.34522   0.34522   0.35324   0.35324   0.35446
     Eigenvalues ---    0.35446   0.35495   0.42147   0.42213   0.46020
     Eigenvalues ---    0.46345   0.46787   0.468091000.000001000.00000
     Eigenvalues --- 1000.000001000.000001000.000001000.000001000.00000
     Eigenvalues --- 1000.000001000.000001000.000001000.000001000.00000
     Eigenvalues --- 1000.000001000.000001000.000001000.000001000.00000
     Eigenvalues --- 1000.000001000.000001000.000001000.000001000.00000
     Eigenvalues --- 1000.000001000.000001000.000001000.000001000.00000
     Eigenvalues --- 1000.000001000.000001000.000001000.00000
 RFO step:  Lambda= 0.00000000D+00 EMin= 1.22553148D-02
 Linear search not attempted -- first point.
 Iteration  1 RMS(Cart)=  0.00004412 RMS(Int)=  0.00000000
 Iteration  2 RMS(Cart)=  0.00000000 RMS(Int)=  0.00000000
 Iteration  1 RMS(Cart)=  0.00000000 RMS(Int)=  0.00000000
 Variable       Old X    -DE/DX   Delta X   Delta X   Delta X     New X
                                 (Linear)    (Quad)   (Total)
    R1        2.64335   0.00000   0.00000   0.00000   0.00000   2.64335
    R2        2.64335   0.00000   0.00000   0.00000   0.00000   2.64335
    R3        2.85389   0.00002   0.00000   0.00007   0.00007   2.85397
    R4        2.63230  -0.00000   0.00000  -0.00001  -0.00001   2.63229
    R5        2.05152  -0.00001   0.00000  -0.00002  -0.00002   2.05149
    R6        2.63259  -0.00001   0.00000  -0.00001  -0.00001   2.63258
    R7        2.04956   0.00000   0.00000   0.00001   0.00001   2.04957
    R8        2.63259  -0.00001   0.00000  -0.00001  -0.00001   2.63258
    R9        2.04879  -0.00000   0.00000  -0.00001  -0.00001   2.04878
   R10        2.63230  -0.00000   0.00000  -0.00001  -0.00001   2.63229
   R11        2.04956   0.00000   0.00000   0.00001   0.00001   2.04957
   R12        2.05152  -0.00001   0.00000  -0.00002  -0.00002   2.05149
   R13        2.07052  -0.00001   0.00000  -0.00002  -0.00002   2.07050
   R14        2.06457  -0.00000   0.00000  -0.00001  -0.00001   2.06457
   R15        2.06457  -0.00000   0.00000  -0.00001  -0.00001   2.06457
    A1        2.06264  -0.00000   0.00000   0.00000   0.00000   2.06264
    A2        2.11018   0.00000   0.00000  -0.00000  -0.00000   2.11018
    A3        2.11018   0.00000   0.00000  -0.00000  -0.00000   2.11018
    A4        2.11229  -0.00000   0.00000  -0.00001  -0.00001   2.11228
    A5        2.08363  -0.00001   0.00000  -0.00005  -0.00005   2.08357
    A6        2.08727   0.00001   0.00000   0.00006   0.00006   2.08733
    A7        2.09740   0.00000   0.00000   0.00001   0.00001   2.09741
    A8        2.09023   0.00001   0.00000   0.00004   0.00004   2.09026
    A9        2.09555  -0.00001   0.00000  -0.00004  -0.00004   2.09550
   A10        2.08434  -0.00000   0.00000  -0.00000  -0.00000   2.08434
   A11        2.09942   0.00000   0.00000   0.00000   0.00000   2.09942
   A12        2.09942   0.00000   0.00000   0.00000   0.00000   2.09942
   A13        2.09740   0.00000   0.00000   0.00001   0.00001   2.09741
   A14        2.09555  -0.00001   0.00000  -0.00004  -0.00004   2.09550
   A15        2.09023   0.00001   0.00000   0.00004   0.00004   2.09026
   A16        2.11229  -0.00000   0.00000  -0.00001  -0.00001   2.11228
   A17        2.08363  -0.00001   0.00000  -0.00005  -0.00005   2.08357
   A18        2.08727   0.00001   0.00000   0.00006   0.00006   2.08733
   A19        1.93783   0.00001   0.00000   0.00005   0.00005   1.93788
   A20        1.94457   0.00000   0.00000   0.00002   0.00002   1.94459
   A21        1.94457   0.00000   0.00000   0.00002   0.00002   1.94459
   A22        1.87382  -0.00000   0.00000  -0.00002  -0.00002   1.87380
   A23        1.87382  -0.00000   0.00000  -0.00002  -0.00002   1.87380
   A24        1.88601  -0.00001   0.00000  -0.00006  -0.00006   1.88595
    D1       -0.00461  -0.00000   0.00000  -0.00001  -0.00001  -0.00462
    D2        3.13455   0.00000   0.00000   0.00002   0.00002   3.13457
    D3        3.11667   0.00000   0.00000   0.00003   0.00003   3.11669
    D4       -0.02736   0.00000   0.00000   0.00006   0.00006  -0.02730
    D5        0.00461   0.00000   0.00000   0.00001   0.00001   0.00462
    D6       -3.13455  -0.00000   0.00000  -0.00002  -0.00002  -3.13457
    D7       -3.11667  -0.00000   0.00000  -0.00003  -0.00003  -3.11669
    D8        0.02736  -0.00000   0.00000  -0.00006  -0.00006   0.02730
    D9       -1.56036  -0.00000   0.00000  -0.00003  -0.00003  -1.56039
   D10        0.52735   0.00000   0.00000   0.00000   0.00000   0.52735
   D11        2.63512  -0.00000   0.00000  -0.00005  -0.00005   2.63506
   D12        1.56036   0.00000   0.00000   0.00001   0.00001   1.56037
   D13       -2.63512   0.00000   0.00000   0.00003   0.00003  -2.63508
   D14       -0.52735  -0.00000   0.00000  -0.00002  -0.00002  -0.52737
   D15        0.00163   0.00000   0.00000   0.00003   0.00003   0.00166
   D16        3.13905  -0.00000   0.00000  -0.00000  -0.00000   3.13905
   D17       -3.13752  -0.00000   0.00000   0.00000   0.00000  -3.13752
   D18       -0.00010  -0.00000   0.00000  -0.00003  -0.00003  -0.00013
   D19        0.00147  -0.00000   0.00000  -0.00005  -0.00005   0.00141
   D20        3.13841  -0.00000   0.00000  -0.00002  -0.00002   3.13839
   D21       -3.13595  -0.00000   0.00000  -0.00002  -0.00002  -3.13597
   D22        0.00100   0.00000   0.00000   0.00001   0.00001   0.00101
   D23       -0.00147   0.00000   0.00000   0.00005   0.00005  -0.00141
   D24        3.13595   0.00000   0.00000   0.00002   0.00002   3.13597
   D25       -3.13841   0.00000   0.00000   0.00002   0.00002  -3.13839
   D26       -0.00100  -0.00000   0.00000  -0.00001  -0.00001  -0.00101
   D27       -0.00163  -0.00000   0.00000  -0.00003  -0.00003  -0.00166
   D28        3.13752   0.00000   0.00000  -0.00000  -0.00000   3.13752
   D29       -3.13905   0.00000   0.00000   0.00000   0.00000  -3.13905
   D30        0.00010   0.00000   0.00000   0.00003   0.00003   0.00013
         Item               Value     Threshold  Converged?
 Maximum Force            0.000023     0.000450     YES
 RMS     Force            0.000005     0.000300     YES
 Maximum Displacement     0.000167     0.001800     YES
 RMS     Displacement     0.000044     0.001200     YES
 Predicted change in Energy=-3.733587D-09
 Optimization completed.
    -- Stationary point found.
                           ----------------------------
                           !   Optimized Parameters   !
                           ! (Angstroms and Degrees)  !
 --------------------------                            --------------------------
 ! Name  Definition              Value          Derivative Info.                !
 --------------------------------------------------------------------------------
 ! R1    R(1,2)                  1.3988         -DE/DX =    0.0                 !
 ! R2    R(1,6)                  1.3988         -DE/DX =    0.0                 !
 ! R3    R(1,7)                  1.5102         -DE/DX =    0.0                 !
 ! R4    R(2,3)                  1.393          -DE/DX =    0.0                 !
 ! R5    R(2,8)                  1.0856         -DE/DX =    0.0                 !
 ! R6    R(3,4)                  1.3931         -DE/DX =    0.0                 !
 ! R7    R(3,9)                  1.0846         -DE/DX =    0.0                 !
 ! R8    R(4,5)                  1.3931         -DE/DX =    0.0                 !
 ! R9    R(4,10)                 1.0842         -DE/DX =    0.0                 !
 ! R10   R(5,6)                  1.393          -DE/DX =    0.0                 !
 ! R11   R(5,11)                 1.0846         -DE/DX =    0.0                 !
 ! R12   R(6,12)                 1.0856         -DE/DX =    0.0                 !
 ! R13   R(7,13)                 1.0957         -DE/DX =    0.0                 !
 ! R14   R(7,14)                 1.0925         -DE/DX =    0.0                 !
 ! R15   R(7,15)                 1.0925         -DE/DX =    0.0                 !
 ! A1    A(2,1,6)              118.1806         -DE/DX =    0.0                 !
 ! A2    A(2,1,7)              120.9045         -DE/DX =    0.0                 !
 ! A3    A(6,1,7)              120.9045         -DE/DX =    0.0                 !
 ! A4    A(1,2,3)              121.025          -DE/DX =    0.0                 !
 ! A5    A(1,2,8)              119.383          -DE/DX =    0.0                 !
 ! A6    A(3,2,8)              119.5918         -DE/DX =    0.0                 !
 ! A7    A(2,3,4)              120.1724         -DE/DX =    0.0                 !
 ! A8    A(2,3,9)              119.7612         -DE/DX =    0.0                 !
 ! A9    A(4,3,9)              120.066          -DE/DX =    0.0                 !
 ! A10   A(3,4,5)              119.4239         -DE/DX =    0.0                 !
 ! A11   A(3,4,10)             120.2878         -DE/DX =    0.0                 !
 ! A12   A(5,4,10)             120.2878         -DE/DX =    0.0                 !
 ! A13   A(4,5,6)              120.1724         -DE/DX =    0.0                 !
 ! A14   A(4,5,11)             120.066          -DE/DX =    0.0                 !
 ! A15   A(6,5,11)             119.7612         -DE/DX =    0.0                 !
 ! A16   A(1,6,5)              121.025          -DE/DX =    0.0                 !
 ! A17   A(1,6,12)             119.383          -DE/DX =    0.0                 !
 ! A18   A(5,6,12)             119.5918         -DE/DX =    0.0                 !
 ! A19   A(1,7,13)             111.0293         -DE/DX =    0.0                 !
 ! A20   A(1,7,14)             111.4156         -DE/DX =    0.0                 !
 ! A21   A(1,7,15)             111.4156         -DE/DX =    0.0                 !
 ! A22   A(13,7,14)            107.362          -DE/DX =    0.0                 !
 ! A23   A(13,7,15)            107.362          -DE/DX =    0.0                 !
 ! A24   A(14,7,15)            108.0605         -DE/DX =    0.0                 !
 ! D1    D(6,1,2,3)             -0.2643         -DE/DX =    0.0                 !
 ! D2    D(6,1,2,8)            179.5962         -DE/DX =    0.0                 !
 ! D3    D(7,1,2,3)            178.5718         -DE/DX =    0.0                 !
 ! D4    D(7,1,2,8)             -1.5677         -DE/DX =    0.0                 !
 ! D5    D(2,1,6,5)              0.2643         -DE/DX =    0.0                 !
 ! D6    D(2,1,6,12)          -179.5962         -DE/DX =    0.0                 !
 ! D7    D(7,1,6,5)           -178.5718         -DE/DX =    0.0                 !
 ! D8    D(7,1,6,12)             1.5677         -DE/DX =    0.0                 !
 ! D9    D(2,1,7,13)           -89.4021         -DE/DX =    0.0                 !
 ! D10   D(2,1,7,14)            30.2147         -DE/DX =    0.0                 !
 ! D11   D(2,1,7,15)           150.9811         -DE/DX =    0.0                 !
 ! D12   D(6,1,7,13)            89.4021         -DE/DX =    0.0                 !
 ! D13   D(6,1,7,14)          -150.9811         -DE/DX =    0.0                 !
 ! D14   D(6,1,7,15)           -30.2147         -DE/DX =    0.0                 !
 ! D15   D(1,2,3,4)              0.0934         -DE/DX =    0.0                 !
 ! D16   D(1,2,3,9)            179.8546         -DE/DX =    0.0                 !
 ! D17   D(8,2,3,4)           -179.7668         -DE/DX =    0.0                 !
 ! D18   D(8,2,3,9)             -0.0056         -DE/DX =    0.0                 !
 ! D19   D(2,3,4,5)              0.084          -DE/DX =    0.0                 !
 ! D20   D(2,3,4,10)           179.8175         -DE/DX =    0.0                 !
 ! D21   D(9,3,4,5)           -179.6765         -DE/DX =    0.0                 !
 ! D22   D(9,3,4,10)             0.0571         -DE/DX =    0.0                 !
 ! D23   D(3,4,5,6)             -0.084          -DE/DX =    0.0                 !
 ! D24   D(3,4,5,11)           179.6765         -DE/DX =    0.0                 !
 ! D25   D(10,4,5,6)          -179.8175         -DE/DX =    0.0                 !
 ! D26   D(10,4,5,11)           -0.0571         -DE/DX =    0.0                 !
 ! D27   D(4,5,6,1)             -0.0934         -DE/DX =    0.0                 !
 ! D28   D(4,5,6,12)           179.7668         -DE/DX =    0.0                 !
 ! D29   D(11,5,6,1)          -179.8546         -DE/DX =    0.0                 !
 ! D30   D(11,5,6,12)            0.0056         -DE/DX =    0.0                 !
 --------------------------------------------------------------------------------
 Iteration  1 RMS(Cart)=  0.01331184 RMS(Int)=  0.01588614
 Iteration  2 RMS(Cart)=  0.00060941 RMS(Int)=  0.01587890
 Iteration  3 RMS(Cart)=  0.00001945 RMS(Int)=  0.01587889
 Iteration  4 RMS(Cart)=  0.00000069 RMS(Int)=  0.01587889
 Iteration  1 RMS(Cart)=  0.00765357 RMS(Int)=  0.00906492
 Iteration  2 RMS(Cart)=  0.00439151 RMS(Int)=  0.01011293
 Iteration  3 RMS(Cart)=  0.00251298 RMS(Int)=  0.01147979
 Iteration  4 RMS(Cart)=  0.00143556 RMS(Int)=  0.01242950
 Iteration  5 RMS(Cart)=  0.00081923 RMS(Int)=  0.01301342
 Iteration  6 RMS(Cart)=  0.00046723 RMS(Int)=  0.01335809
 Iteration  7 RMS(Cart)=  0.00026638 RMS(Int)=  0.01355806
 Iteration  8 RMS(Cart)=  0.00015184 RMS(Int)=  0.01367312
 Iteration  9 RMS(Cart)=  0.00008654 RMS(Int)=  0.01373903
 Iteration 10 RMS(Cart)=  0.00004932 RMS(Int)=  0.01377670
 Iteration 11 RMS(Cart)=  0.00002811 RMS(Int)=  0.01379820
 Iteration 12 RMS(Cart)=  0.00001602 RMS(Int)=  0.01381047
 Iteration 13 RMS(Cart)=  0.00000913 RMS(Int)=  0.01381746
 Iteration 14 RMS(Cart)=  0.00000520 RMS(Int)=  0.01382145
 Iteration 15 RMS(Cart)=  0.00000296 RMS(Int)=  0.01382372
 Iteration 16 RMS(Cart)=  0.00000169 RMS(Int)=  0.01382501
 Iteration 17 RMS(Cart)=  0.00000096 RMS(Int)=  0.01382575
 GradGradGradGradGradGradGradGradGradGradGradGradGradGradGradGradGradGrad

                          Input orientation:                          
 ---------------------------------------------------------------------
 Center     Atomic      Atomic             Coordinates (Angstroms)
 Number     Number       Type             X           Y           Z
 ---------------------------------------------------------------------
      1          6           0        0.023599    0.720909    0.008191
      2          6           0        0.002382   -0.003142    1.205178
      3          6           0        0.003587   -1.396091    1.203397
      4          6           0        0.015703   -2.094717   -0.001486
      5          6           0        0.021881   -1.387870   -1.201605
      6          6           0        0.020632    0.005059   -1.193881
      7          6           0       -0.047588    2.229522    0.012833
      8          1           0       -0.009823    0.531252    2.150079
      9          1           0       -0.004208   -1.935648    2.144226
     10          1           0        0.018062   -3.178876   -0.005173
     11          1           0        0.028428   -1.920983   -2.146103
     12          1           0        0.022774    0.545900   -2.135170
     13          1           0       -1.073505    2.613702    0.033484
     14          1           0        0.553108    2.656807    0.820152
     15          1           0        0.424907    2.614136   -0.894122
 ---------------------------------------------------------------------
                    Distance matrix (angstroms):
                    1          2          3          4          5
     1  C    0.000000
     2  C    1.399099   0.000000
     3  C    2.431174   1.392951   0.000000
     4  C    2.815653   2.414726   1.392827   0.000000
     5  C    2.431164   2.776771   2.405086   1.392823   0.000000
     6  C    1.399081   2.399142   2.776770   2.414723   1.392951
     7  C    1.510299   2.531595   3.816430   4.324726   3.816440
     8  H    2.150528   1.085617   2.147333   3.394937   3.862360
     9  H    3.408917   2.148589   1.084593   2.151692   3.390475
    10  H    3.899812   3.398600   2.153874   1.084168   2.153872
    11  H    3.408900   3.861331   3.390468   2.151680   1.084586
    12  H    2.150494   3.385231   3.862347   3.394925   2.147326
    13  H    2.187908   3.062396   4.313613   4.832888   4.328729
    14  H    2.165032   2.743515   4.107899   4.851894   4.552924
    15  H    2.135304   3.381676   4.545219   4.810150   4.033984
                    6          7          8          9         10
     6  C    0.000000
     7  C    2.531610   0.000000
     8  H    3.385243   2.730086   0.000000
     9  H    3.861336   4.679034   2.466914   0.000000
    10  H    3.398598   5.408827   4.290797   2.483149   0.000000
    11  H    2.148587   4.679047   4.946928   4.290478   2.483139
    12  H    1.085605   2.730101   4.285397   4.946922   4.290788
    13  H    3.083598   1.095685   3.154043   5.127886   5.894656
    14  H    3.372185   1.093240   2.569743   4.811904   5.917992
    15  H    2.657175   1.092587   3.714102   5.487826   5.874925
                   11         12         13         14         15
    11  H    0.000000
    12  H    2.466914   0.000000
    13  H    5.150555   3.190719   0.000000
    14  H    5.479975   3.670301   1.807367   0.000000
    15  H    4.721436   2.445304   1.762297   1.719591   0.000000
 Symmetry turned off by external request.
 Stoichiometry    C7H8
 Framework group  C1[X(C7H8)]
 Deg. of freedom    39
 Full point group                 C1      NOp   1
 Rotational constants (GHZ):           5.5579104           2.5140960           1.7511185
 Standard basis: 6-311G(2d,d,p) (5D, 7F)
   174 basis functions,   288 primitive gaussians,   181 cartesian basis functions
    25 alpha electrons       25 beta electrons
       nuclear repulsion energy       269.1172041754 Hartrees.
 NAtoms=   15 NActive=   15 NUniq=   15 SFac= 1.00D+00 NAtFMM=   60 NAOKFM=F Big=F
 Integral buffers will be    131072 words long.
 Raffenetti 2 integral format.
 Two-electron integral symmetry is turned off.
 One-electron integrals computed using PRISM.
 NBasis=   174 RedAO= T EigKep=  1.86D-04  NBF=   174
 NBsUse=   174 1.00D-06 EigRej= -1.00D+00 NBFU=   174
 Initial guess from the checkpoint file:  "TolueneRot1.chk"
 B after Tr=    -0.000616   -0.000365    0.006782
         Rot=    0.999997   -0.000889    0.001965   -0.001180 Ang=  -0.28 deg.
 ExpMin= 1.03D-01 ExpMax= 4.56D+03 ExpMxC= 6.82D+02 IAcc=2 IRadAn=         4 AccDes= 0.00D+00
 Harris functional with IExCor=  402 and IRadAn=       4 diagonalized for initial guess.
 HarFok:  IExCor=  402 AccDes= 0.00D+00 IRadAn=         4 IDoV= 1 UseB2=F ITyADJ=14
 ICtDFT=  3500011 ScaDFX=  1.000000  1.000000  1.000000  1.000000
 FoFCou: FMM=F IPFlag=           0 FMFlag=      100000 FMFlg1=           0
         NFxFlg=           0 DoJE=T BraDBF=F KetDBF=T FulRan=T
         wScrn=  0.000000 ICntrl=       500 IOpCl=  0 I1Cent=   200000004 NGrid=           0
         NMat0=    1 NMatS0=      1 NMatT0=    0 NMatD0=    1 NMtDS0=    0 NMtDT0=    0
 Symmetry not used in FoFCou.
 Requested convergence on RMS density matrix=1.00D-08 within 128 cycles.
 Requested convergence on MAX density matrix=1.00D-06.
 Requested convergence on             energy=1.00D-06.
 No special actions if energy rises.
 Integral accuracy reduced to 1.0D-05 until final iterations.
 Initial convergence to 1.0D-05 achieved.  Increase integral accuracy.
 SCF Done:  E(RB3LYP) =  -271.634973182     A.U. after   10 cycles
            NFock= 10  Conv=0.99D-08     -V/T= 2.0046
 Calling FoFJK, ICntrl=      2127 FMM=F ISym2X=0 I1Cent= 0 IOpClX= 0 NMat=1 NMatS=1 NMatT=0.
 -------------------------------------------------------------------
 Center     Atomic                   Forces (Hartrees/Bohr)
 Number     Number              X              Y              Z
 -------------------------------------------------------------------
      1        6          -0.008364004   -0.001156309    0.001880368
      2        6           0.001616673    0.000044800    0.000316837
      3        6           0.000301604    0.000183166    0.000349750
      4        6          -0.000199446   -0.000062651   -0.000141291
      5        6           0.000186277   -0.000073783   -0.000116605
      6        6           0.001567887    0.000473794   -0.000051929
      7        6           0.012440226    0.000952520   -0.007515538
      8        1           0.000002545    0.000030874   -0.000013536
      9        1          -0.000036042   -0.000005600    0.000008687
     10        1           0.000020113   -0.000007051   -0.000005372
     11        1          -0.000023675    0.000024686   -0.000011677
     12        1           0.000052772    0.000028343    0.000013426
     13        1           0.001699695   -0.001173415    0.003846444
     14        1          -0.006430851   -0.000250760    0.004742592
     15        1          -0.002833774    0.000991385   -0.003302155
 -------------------------------------------------------------------
 Cartesian Forces:  Max     0.012440226 RMS     0.002965139

 GradGradGradGradGradGradGradGradGradGradGradGradGradGradGradGradGradGrad
 Berny optimization.
 FormGI is forming the generalized inverse of G from B-inverse, IUseBI=4.
 Internal  Forces:  Max     0.005272013 RMS     0.001355399
 Search for a local minimum.
 Step number   1 out of a maximum of   79 on scan point     2 out of    37
 All quantities printed in internal units (Hartrees-Bohrs-Radians)
 Mixed Optimization -- RFO/linear search
 Second derivative matrix not updated -- first step.
 ITU=  0
     Eigenvalues ---    0.01230   0.02114   0.02140   0.02146   0.02166
     Eigenvalues ---    0.02180   0.02180   0.02181   0.02181   0.04228
     Eigenvalues ---    0.07156   0.16000   0.16000   0.16000   0.16000
     Eigenvalues ---    0.16000   0.16000   0.16000   0.16000   0.21999
     Eigenvalues ---    0.22000   0.23442   0.24924   0.31329   0.34165
     Eigenvalues ---    0.34522   0.34522   0.35324   0.35324   0.35446
     Eigenvalues ---    0.35446   0.35495   0.42140   0.42211   0.46020
     Eigenvalues ---    0.46344   0.46787   0.468091000.000001000.00000
     Eigenvalues --- 1000.000001000.000001000.000001000.000001000.00000
     Eigenvalues --- 1000.000001000.000001000.000001000.000001000.00000
     Eigenvalues --- 1000.000001000.000001000.000001000.000001000.00000
     Eigenvalues --- 1000.000001000.000001000.000001000.000001000.00000
     Eigenvalues --- 1000.000001000.000001000.000001000.000001000.00000
     Eigenvalues --- 1000.000001000.000001000.000001000.00000
 RFO step:  Lambda=-1.51610345D-03 EMin= 1.23043548D-02
 Linear search not attempted -- first point.
 Iteration  1 RMS(Cart)=  0.03128927 RMS(Int)=  0.00141152
 Iteration  2 RMS(Cart)=  0.00143840 RMS(Int)=  0.00027024
 Iteration  3 RMS(Cart)=  0.00000228 RMS(Int)=  0.00027024
 Iteration  4 RMS(Cart)=  0.00000000 RMS(Int)=  0.00027024
 Iteration  1 RMS(Cart)=  0.00001276 RMS(Int)=  0.00001496
 Iteration  2 RMS(Cart)=  0.00000729 RMS(Int)=  0.00001669
 Iteration  3 RMS(Cart)=  0.00000417 RMS(Int)=  0.00001895
 Iteration  4 RMS(Cart)=  0.00000238 RMS(Int)=  0.00002052
 Iteration  5 RMS(Cart)=  0.00000136 RMS(Int)=  0.00002149
 Iteration  6 RMS(Cart)=  0.00000078 RMS(Int)=  0.00002206
 Variable       Old X    -DE/DX   Delta X   Delta X   Delta X     New X
                                 (Linear)    (Quad)   (Total)
    R1        2.64391   0.00012   0.00000   0.00021   0.00023   2.64415
    R2        2.64388  -0.00027   0.00000  -0.00066  -0.00064   2.64324
    R3        2.85405   0.00028   0.00000   0.00090   0.00090   2.85495
    R4        2.63230  -0.00012   0.00000  -0.00025  -0.00025   2.63205
    R5        2.05152   0.00000   0.00000   0.00001   0.00001   2.05153
    R6        2.63206   0.00034   0.00000   0.00080   0.00078   2.63284
    R7        2.04958   0.00001   0.00000   0.00003   0.00003   2.04961
    R8        2.63205   0.00020   0.00000   0.00048   0.00046   2.63251
    R9        2.04878   0.00001   0.00000   0.00002   0.00002   2.04880
   R10        2.63230   0.00006   0.00000   0.00012   0.00012   2.63242
   R11        2.04957  -0.00000   0.00000  -0.00001  -0.00001   2.04957
   R12        2.05150   0.00000   0.00000   0.00001   0.00001   2.05150
   R13        2.07054  -0.00193   0.00000  -0.00563  -0.00563   2.06492
   R14        2.06592  -0.00013   0.00000  -0.00037  -0.00037   2.06555
   R15        2.06469   0.00186   0.00000   0.00538   0.00538   2.07007
    A1        2.06037   0.00039   0.00000   0.00191   0.00177   2.06214
    A2        2.11016  -0.00013   0.00000   0.00039   0.00016   2.11032
    A3        2.11020  -0.00019   0.00000   0.00015  -0.00008   2.11012
    A4        2.11344  -0.00013   0.00000  -0.00073  -0.00070   2.11275
    A5        2.08297   0.00003   0.00000   0.00016   0.00014   2.08311
    A6        2.08676   0.00010   0.00000   0.00058   0.00056   2.08732
    A7        2.09752  -0.00013   0.00000  -0.00049  -0.00049   2.09702
    A8        2.09020   0.00007   0.00000   0.00025   0.00025   2.09044
    A9        2.09547   0.00007   0.00000   0.00024   0.00024   2.09572
   A10        2.08388   0.00011   0.00000   0.00072   0.00068   2.08456
   A11        2.09965  -0.00005   0.00000  -0.00032  -0.00031   2.09934
   A12        2.09965  -0.00006   0.00000  -0.00039  -0.00038   2.09928
   A13        2.09752  -0.00005   0.00000  -0.00015  -0.00015   2.09736
   A14        2.09547   0.00005   0.00000   0.00024   0.00025   2.09572
   A15        2.09020  -0.00000   0.00000  -0.00010  -0.00010   2.09010
   A16        2.11345  -0.00017   0.00000  -0.00096  -0.00093   2.11252
   A17        2.08296   0.00005   0.00000   0.00029   0.00027   2.08323
   A18        2.08676   0.00012   0.00000   0.00068   0.00066   2.08742
   A19        1.97624  -0.00311   0.00000  -0.03124  -0.03184   1.94441
   A20        1.94634   0.00007   0.00000  -0.00209  -0.00318   1.94316
   A21        1.90572   0.00313   0.00000   0.03323   0.03297   1.93868
   A22        1.94284  -0.00344   0.00000  -0.04423  -0.04554   1.89730
   A23        1.87249   0.00003   0.00000   0.00354   0.00376   1.87625
   A24        1.81089   0.00416   0.00000   0.05056   0.04982   1.86071
    D1        0.02064  -0.00044   0.00000  -0.01442  -0.01445   0.00619
    D2       -3.12674  -0.00043   0.00000  -0.01455  -0.01458  -3.14132
    D3        3.08769   0.00065   0.00000   0.02288   0.02291   3.11060
    D4       -0.05969   0.00066   0.00000   0.02275   0.02278  -0.03690
    D5       -0.02064   0.00047   0.00000   0.01535   0.01538  -0.00526
    D6        3.12673   0.00045   0.00000   0.01548   0.01551  -3.14094
    D7       -3.08769  -0.00063   0.00000  -0.02196  -0.02199  -3.10968
    D8        0.05969  -0.00064   0.00000  -0.02183  -0.02187   0.03782
    D9       -1.50551   0.00184   0.00000   0.08689   0.08627  -1.41923
   D10        0.70187  -0.00527   0.00000   0.00000   0.00001   0.70188
   D11        2.69278   0.00164   0.00000   0.07957   0.07994   2.77271
   D12        1.55941   0.00299   0.00000   0.12533   0.12475   1.68416
   D13       -2.51640  -0.00412   0.00000   0.03844   0.03849  -2.47791
   D14       -0.52550   0.00279   0.00000   0.11801   0.11841  -0.40708
   D15       -0.00867   0.00013   0.00000   0.00373   0.00373  -0.00494
   D16        3.13213   0.00013   0.00000   0.00409   0.00410   3.13623
   D17        3.13872   0.00012   0.00000   0.00386   0.00387  -3.14060
   D18       -0.00366   0.00011   0.00000   0.00423   0.00423   0.00057
   D19       -0.00387   0.00017   0.00000   0.00644   0.00644   0.00257
   D20        3.14010  -0.00001   0.00000  -0.00015  -0.00015   3.13995
   D21        3.13851   0.00018   0.00000   0.00607   0.00608  -3.13859
   D22       -0.00070  -0.00000   0.00000  -0.00051  -0.00051  -0.00121
   D23        0.00387  -0.00015   0.00000  -0.00552  -0.00552  -0.00165
   D24       -3.13851  -0.00020   0.00000  -0.00678  -0.00678   3.13789
   D25       -3.14010   0.00003   0.00000   0.00106   0.00106  -3.13903
   D26        0.00071  -0.00001   0.00000  -0.00020  -0.00020   0.00051
   D27        0.00867  -0.00018   0.00000  -0.00559  -0.00559   0.00308
   D28       -3.13872  -0.00016   0.00000  -0.00572  -0.00572   3.13875
   D29       -3.13214  -0.00013   0.00000  -0.00433  -0.00434  -3.13647
   D30        0.00366  -0.00012   0.00000  -0.00446  -0.00447  -0.00080
         Item               Value     Threshold  Converged?
 Maximum Force            0.003435     0.000450     NO 
 RMS     Force            0.000956     0.000300     NO 
 Maximum Displacement     0.165521     0.001800     NO 
 RMS     Displacement     0.031398     0.001200     NO 
 Predicted change in Energy=-7.954230D-04
 GradGradGradGradGradGradGradGradGradGradGradGradGradGradGradGradGradGrad

                          Input orientation:                          
 ---------------------------------------------------------------------
 Center     Atomic      Atomic             Coordinates (Angstroms)
 Number     Number       Type             X           Y           Z
 ---------------------------------------------------------------------
      1          6           0        0.012204    0.720082    0.002291
      2          6           0       -0.009793   -0.000237    1.201657
      3          6           0       -0.007101   -1.393052    1.203346
      4          6           0        0.011815   -2.094266   -0.000422
      5          6           0        0.031085   -1.390480   -1.202479
      6          6           0        0.029403    0.002530   -1.198250
      7          6           0       -0.030936    2.230240    0.003024
      8          1           0       -0.023654    0.537023    2.144914
      9          1           0       -0.019384   -1.930523    2.145338
     10          1           0        0.015483   -3.178438   -0.001598
     11          1           0        0.049385   -1.925854   -2.145538
     12          1           0        0.047207    0.541649   -2.140364
     13          1           0       -1.052389    2.599981    0.121073
     14          1           0        0.586858    2.645325    0.803509
     15          1           0        0.359757    2.635981   -0.936500
 ---------------------------------------------------------------------
                    Distance matrix (angstroms):
                    1          2          3          4          5
     1  C    0.000000
     2  C    1.399222   0.000000
     3  C    2.430687   1.392819   0.000000
     4  C    2.814350   2.414626   1.393239   0.000000
     5  C    2.430287   2.777465   2.406129   1.393064   0.000000
     6  C    1.398740   2.400228   2.777884   2.414882   1.393017
     7  C    1.510774   2.532231   3.817013   4.324719   3.816634
     8  H    2.150727   1.085622   2.147560   3.395203   3.863069
     9  H    3.408717   2.148635   1.084608   2.152224   3.391470
    10  H    3.898523   3.398444   2.154067   1.084178   2.153869
    11  H    3.408156   3.862022   3.391473   2.152045   1.084583
    12  H    2.150357   3.386147   3.863472   3.395387   2.147792
    13  H    2.163674   3.002632   4.267113   4.814899   4.341599
    14  H    2.163040   2.741079   4.101359   4.841561   4.540990
    15  H    2.161665   3.414371   4.576750   4.834517   4.048600
                    6          7          8          9         10
     6  C    0.000000
     7  C    2.531678   0.000000
     8  H    3.386036   2.730335   0.000000
     9  H    3.862467   4.679914   2.467550   0.000000
    10  H    3.398635   5.408879   4.291118   2.483514   0.000000
    11  H    2.148585   4.679304   4.947633   4.291429   2.483263
    12  H    1.085609   2.729754   4.285866   4.948061   4.291197
    13  H    3.107675   1.092708   3.067576   5.068552   5.877544
    14  H    3.361869   1.093042   2.572359   4.806914   5.906851
    15  H    2.666967   1.095433   3.748032   5.522177   5.899156
                   11         12         13         14         15
    11  H    0.000000
    12  H    2.467509   0.000000
    13  H    5.180214   3.249607   0.000000
    14  H    5.466391   3.658288   1.776205   0.000000
    15  H    4.729529   2.435817   1.764628   1.754792   0.000000
 Symmetry turned off by external request.
 Stoichiometry    C7H8
 Framework group  C1[X(C7H8)]
 Deg. of freedom    39
 Full point group                 C1      NOp   1
 Rotational constants (GHZ):           5.5542956           2.5154616           1.7505454
 Standard basis: 6-311G(2d,d,p) (5D, 7F)
   174 basis functions,   288 primitive gaussians,   181 cartesian basis functions
    25 alpha electrons       25 beta electrons
       nuclear repulsion energy       269.1048156875 Hartrees.
 NAtoms=   15 NActive=   15 NUniq=   15 SFac= 1.00D+00 NAtFMM=   60 NAOKFM=F Big=F
 Integral buffers will be    131072 words long.
 Raffenetti 2 integral format.
 Two-electron integral symmetry is turned off.
 One-electron integrals computed using PRISM.
 NBasis=   174 RedAO= T EigKep=  1.85D-04  NBF=   174
 NBsUse=   174 1.00D-06 EigRej= -1.00D+00 NBFU=   174
 Initial guess from the checkpoint file:  "TolueneRot1.chk"
 B after Tr=    -0.000057    0.000220   -0.004923
         Rot=    0.999997    0.000629    0.002187    0.000796 Ang=   0.28 deg.
 ExpMin= 1.03D-01 ExpMax= 4.56D+03 ExpMxC= 6.82D+02 IAcc=2 IRadAn=         4 AccDes= 0.00D+00
 Harris functional with IExCor=  402 and IRadAn=       4 diagonalized for initial guess.
 HarFok:  IExCor=  402 AccDes= 0.00D+00 IRadAn=         4 IDoV= 1 UseB2=F ITyADJ=14
 ICtDFT=  3500011 ScaDFX=  1.000000  1.000000  1.000000  1.000000
 FoFCou: FMM=F IPFlag=           0 FMFlag=      100000 FMFlg1=           0
         NFxFlg=           0 DoJE=T BraDBF=F KetDBF=T FulRan=T
         wScrn=  0.000000 ICntrl=       500 IOpCl=  0 I1Cent=   200000004 NGrid=           0
         NMat0=    1 NMatS0=      1 NMatT0=    0 NMatD0=    1 NMtDS0=    0 NMtDT0=    0
 Symmetry not used in FoFCou.
 Requested convergence on RMS density matrix=1.00D-08 within 128 cycles.
 Requested convergence on MAX density matrix=1.00D-06.
 Requested convergence on             energy=1.00D-06.
 No special actions if energy rises.
 Integral accuracy reduced to 1.0D-05 until final iterations.
 Initial convergence to 1.0D-05 achieved.  Increase integral accuracy.
 SCF Done:  E(RB3LYP) =  -271.635930365     A.U. after   10 cycles
            NFock= 10  Conv=0.82D-08     -V/T= 2.0046
 Calling FoFJK, ICntrl=      2127 FMM=F ISym2X=0 I1Cent= 0 IOpClX= 0 NMat=1 NMatS=1 NMatT=0.
 -------------------------------------------------------------------
 Center     Atomic                   Forces (Hartrees/Bohr)
 Number     Number              X              Y              Z
 -------------------------------------------------------------------
      1        6          -0.002341918   -0.000222276   -0.000515826
      2        6           0.000802203    0.000113092    0.000169703
      3        6          -0.000245106    0.000382866    0.000029452
      4        6           0.000183730   -0.000029457   -0.000380781
      5        6          -0.000115844   -0.000390393    0.000213186
      6        6           0.000732565    0.000297798    0.000206304
      7        6           0.005663010    0.000075755   -0.003524384
      8        1          -0.000012224    0.000001030    0.000068208
      9        1           0.000006267    0.000010831   -0.000020954
     10        1          -0.000006255   -0.000000828    0.000001893
     11        1          -0.000012065   -0.000027594    0.000017192
     12        1          -0.000049210   -0.000024361    0.000070567
     13        1          -0.000808806    0.000713126    0.001390420
     14        1          -0.002116002    0.000089245    0.001614377
     15        1          -0.001680347   -0.000988834    0.000660644
 -------------------------------------------------------------------
 Cartesian Forces:  Max     0.005663010 RMS     0.001217359

 GradGradGradGradGradGradGradGradGradGradGradGradGradGradGradGradGradGrad
 Berny optimization.
 Using GEDIIS/GDIIS optimizer.
 FormGI is forming the generalized inverse of G from B-inverse, IUseBI=4.
 Internal  Forces:  Max     0.001578164 RMS     0.000469986
 Search for a local minimum.
 Step number   2 out of a maximum of   79 on scan point     2 out of    37
 All quantities printed in internal units (Hartrees-Bohrs-Radians)
 Mixed Optimization -- En-DIIS/RFO-DIIS
 Update second derivatives using D2CorX and points    1    2
 DE= -9.57D-04 DEPred=-7.95D-04 R= 1.20D+00
 TightC=F SS=  1.41D+00  RLast= 2.34D-01 DXNew= 5.0454D-01 7.0277D-01
 Trust test= 1.20D+00 RLast= 2.34D-01 DXMaxT set to 5.05D-01
 ITU=  1  0
 Use linear search instead of GDIIS.
     Eigenvalues ---    0.01123   0.02115   0.02140   0.02148   0.02166
     Eigenvalues ---    0.02180   0.02181   0.02181   0.02183   0.03405
     Eigenvalues ---    0.07116   0.15988   0.16000   0.16000   0.16000
     Eigenvalues ---    0.16000   0.16000   0.16000   0.16344   0.22000
     Eigenvalues ---    0.22008   0.23460   0.25036   0.31336   0.34294
     Eigenvalues ---    0.34522   0.35322   0.35324   0.35446   0.35446
     Eigenvalues ---    0.35495   0.35836   0.42150   0.42210   0.46017
     Eigenvalues ---    0.46357   0.46798   0.468101000.000001000.00000
     Eigenvalues --- 1000.000001000.000001000.000001000.000001000.00000
     Eigenvalues --- 1000.000001000.000001000.000001000.000001000.00000
     Eigenvalues --- 1000.000001000.000001000.000001000.000001000.00000
     Eigenvalues --- 1000.000001000.000001000.000001000.000001000.00000
     Eigenvalues --- 1000.000001000.000001000.000001000.000001000.00000
     Eigenvalues --- 1000.000001000.000001000.000001000.00000
 RFO step:  Lambda=-6.91756307D-05 EMin= 1.12325229D-02
 Quartic linear search produced a step of  0.35051.
 Iteration  1 RMS(Cart)=  0.01372585 RMS(Int)=  0.00028599
 Iteration  2 RMS(Cart)=  0.00026265 RMS(Int)=  0.00012553
 Iteration  3 RMS(Cart)=  0.00000008 RMS(Int)=  0.00012553
 Iteration  1 RMS(Cart)=  0.00000581 RMS(Int)=  0.00000680
 Iteration  2 RMS(Cart)=  0.00000332 RMS(Int)=  0.00000759
 Iteration  3 RMS(Cart)=  0.00000190 RMS(Int)=  0.00000861
 Iteration  4 RMS(Cart)=  0.00000108 RMS(Int)=  0.00000933
 Iteration  5 RMS(Cart)=  0.00000062 RMS(Int)=  0.00000977
 Variable       Old X    -DE/DX   Delta X   Delta X   Delta X     New X
                                 (Linear)    (Quad)   (Total)
    R1        2.64415  -0.00008   0.00008  -0.00032  -0.00023   2.64391
    R2        2.64324  -0.00021  -0.00023  -0.00042  -0.00063   2.64261
    R3        2.85495  -0.00014   0.00031  -0.00088  -0.00057   2.85438
    R4        2.63205  -0.00022  -0.00009  -0.00058  -0.00067   2.63138
    R5        2.05153   0.00006   0.00000   0.00023   0.00023   2.05176
    R6        2.63284   0.00019   0.00027   0.00033   0.00059   2.63343
    R7        2.04961  -0.00002   0.00001  -0.00010  -0.00009   2.04952
    R8        2.63251  -0.00029   0.00016  -0.00097  -0.00082   2.63169
    R9        2.04880   0.00000   0.00001  -0.00000   0.00000   2.04880
   R10        2.63242   0.00028   0.00004   0.00077   0.00082   2.63324
   R11        2.04957  -0.00000  -0.00000  -0.00000  -0.00001   2.04956
   R12        2.05150  -0.00007   0.00000  -0.00029  -0.00028   2.05122
   R13        2.06492   0.00115  -0.00197   0.00627   0.00430   2.06922
   R14        2.06555   0.00002  -0.00013   0.00019   0.00006   2.06561
   R15        2.07007  -0.00153   0.00188  -0.00765  -0.00577   2.06430
    A1        2.06214   0.00011   0.00062   0.00015   0.00068   2.06282
    A2        2.11032  -0.00058   0.00006  -0.00291  -0.00300   2.10732
    A3        2.11012   0.00049  -0.00003   0.00293   0.00277   2.11289
    A4        2.11275  -0.00011  -0.00024  -0.00053  -0.00077   2.11198
    A5        2.08311   0.00009   0.00005   0.00063   0.00067   2.08378
    A6        2.08732   0.00002   0.00020  -0.00007   0.00011   2.08743
    A7        2.09702   0.00011  -0.00017   0.00082   0.00064   2.09766
    A8        2.09044  -0.00006   0.00009  -0.00040  -0.00031   2.09013
    A9        2.09572  -0.00006   0.00009  -0.00042  -0.00033   2.09539
   A10        2.08456  -0.00004   0.00024  -0.00039  -0.00017   2.08439
   A11        2.09934   0.00002  -0.00011   0.00017   0.00007   2.09941
   A12        2.09928   0.00002  -0.00013   0.00023   0.00010   2.09938
   A13        2.09736  -0.00005  -0.00005  -0.00018  -0.00024   2.09713
   A14        2.09572  -0.00001   0.00009  -0.00025  -0.00016   2.09556
   A15        2.09010   0.00006  -0.00003   0.00042   0.00039   2.09050
   A16        2.11252  -0.00002  -0.00033   0.00017  -0.00014   2.11238
   A17        2.08323  -0.00000   0.00009  -0.00013  -0.00005   2.08317
   A18        2.08742   0.00003   0.00023  -0.00001   0.00021   2.08763
   A19        1.94441  -0.00013  -0.01116   0.00412  -0.00730   1.93710
   A20        1.94316   0.00024  -0.00112   0.00239   0.00076   1.94392
   A21        1.93868  -0.00005   0.01155  -0.00568   0.00571   1.94440
   A22        1.89730  -0.00158  -0.01596  -0.00751  -0.02405   1.87325
   A23        1.87625   0.00004   0.00132  -0.00018   0.00122   1.87747
   A24        1.86071   0.00151   0.01746   0.00680   0.02388   1.88460
    D1        0.00619  -0.00021  -0.00507  -0.00648  -0.01156  -0.00537
    D2       -3.14132  -0.00014  -0.00511  -0.00200  -0.00712   3.13475
    D3        3.11060   0.00015   0.00803  -0.00129   0.00673   3.11733
    D4       -0.03690   0.00022   0.00799   0.00319   0.01118  -0.02573
    D5       -0.00526   0.00019   0.00539   0.00473   0.01014   0.00489
    D6       -3.14094   0.00012   0.00544   0.00073   0.00619  -3.13475
    D7       -3.10968  -0.00015  -0.00771  -0.00033  -0.00808  -3.11776
    D8        0.03782  -0.00022  -0.00766  -0.00433  -0.01203   0.02579
    D9       -1.41923   0.00042   0.03024   0.00508   0.03505  -1.38418
   D10        0.70188  -0.00152   0.00000   0.00000  -0.00000   0.70188
   D11        2.77271   0.00050   0.02802   0.00638   0.03457   2.80728
   D12        1.68416   0.00079   0.04373   0.01035   0.05382   1.73798
   D13       -2.47791  -0.00116   0.01349   0.00527   0.01877  -2.45914
   D14       -0.40708   0.00086   0.04151   0.01165   0.05334  -0.35374
   D15       -0.00494   0.00014   0.00131   0.00646   0.00776   0.00283
   D16        3.13623   0.00007   0.00144   0.00239   0.00382   3.14006
   D17       -3.14060   0.00007   0.00136   0.00196   0.00331  -3.13729
   D18        0.00057  -0.00000   0.00148  -0.00211  -0.00063  -0.00006
   D19        0.00257  -0.00003   0.00226  -0.00449  -0.00223   0.00034
   D20        3.13995  -0.00003  -0.00005  -0.00184  -0.00189   3.13806
   D21       -3.13859   0.00004   0.00213  -0.00041   0.00172  -3.13687
   D22       -0.00121   0.00004  -0.00018   0.00224   0.00206   0.00084
   D23       -0.00165   0.00001  -0.00194   0.00277   0.00083  -0.00082
   D24        3.13789  -0.00002  -0.00238   0.00173  -0.00065   3.13724
   D25       -3.13903   0.00001   0.00037   0.00012   0.00050  -3.13854
   D26        0.00051  -0.00002  -0.00007  -0.00091  -0.00098  -0.00048
   D27        0.00308  -0.00009  -0.00196  -0.00296  -0.00493  -0.00185
   D28        3.13875  -0.00002  -0.00201   0.00105  -0.00097   3.13778
   D29       -3.13647  -0.00006  -0.00152  -0.00193  -0.00345  -3.13993
   D30       -0.00080   0.00001  -0.00157   0.00208   0.00051  -0.00029
         Item               Value     Threshold  Converged?
 Maximum Force            0.001532     0.000450     NO 
 RMS     Force            0.000380     0.000300     NO 
 Maximum Displacement     0.075165     0.001800     NO 
 RMS     Displacement     0.013744     0.001200     NO 
 Predicted change in Energy=-1.047245D-04
 GradGradGradGradGradGradGradGradGradGradGradGradGradGradGradGradGradGrad

                          Input orientation:                          
 ---------------------------------------------------------------------
 Center     Atomic      Atomic             Coordinates (Angstroms)
 Number     Number       Type             X           Y           Z
 ---------------------------------------------------------------------
      1          6           0        0.007223    0.719896   -0.002180
      2          6           0       -0.013226    0.002139    1.198606
      3          6           0       -0.012936   -1.390322    1.202083
      4          6           0        0.011306   -2.094035   -0.000490
      5          6           0        0.035606   -1.392606   -1.203334
      6          6           0        0.034624    0.000842   -1.201243
      7          6           0       -0.024694    2.230029    0.000348
      8          1           0       -0.028162    0.540798    2.141188
      9          1           0       -0.027551   -1.926242    2.144871
     10          1           0        0.014879   -3.178209    0.000385
     11          1           0        0.058682   -1.929803   -2.145247
     12          1           0        0.057272    0.538629   -2.143843
     13          1           0       -1.042517    2.600526    0.160849
     14          1           0        0.600659    2.640452    0.797406
     15          1           0        0.328775    2.637864   -0.949401
 ---------------------------------------------------------------------
                    Distance matrix (angstroms):
                    1          2          3          4          5
     1  C    0.000000
     2  C    1.399100   0.000000
     3  C    2.429747   1.392465   0.000000
     4  C    2.813934   2.415032   1.393550   0.000000
     5  C    2.430275   2.777951   2.405908   1.392632   0.000000
     6  C    1.398407   2.400327   2.777333   2.414718   1.393450
     7  C    1.510473   2.529713   3.814609   4.324213   3.817849
     8  H    2.151129   1.085743   2.147411   3.395687   3.863670
     9  H    3.407797   2.148086   1.084561   2.152264   3.391052
    10  H    3.898113   3.398696   2.154389   1.084180   2.153543
    11  H    3.408267   3.862503   3.391281   2.151557   1.084580
    12  H    2.149903   3.385965   3.862771   3.395142   2.148184
    13  H    2.159931   2.981274   4.251008   4.814091   4.355278
    14  H    2.163340   2.738341   4.097243   4.837287   4.537378
    15  H    2.163152   3.417300   4.579511   4.836536   4.049088
                    6          7          8          9         10
     6  C    0.000000
     7  C    2.533104   0.000000
     8  H    3.386347   2.727033   0.000000
     9  H    3.861865   4.676919   2.467043   0.000000
    10  H    3.398627   5.408382   4.291376   2.483554   0.000000
    11  H    2.149212   4.681317   4.948226   4.290986   2.482776
    12  H    1.085459   2.732234   4.285883   4.947308   4.291200
    13  H    3.126321   1.094985   3.032019   5.045605   5.876870
    14  H    3.358949   1.093076   2.570936   4.802604   5.902135
    15  H    2.665301   1.092380   3.751910   5.525626   5.901468
                   11         12         13         14         15
    11  H    0.000000
    12  H    2.468433   0.000000
    13  H    5.201403   3.282157   0.000000
    14  H    5.462616   3.655663   1.762619   0.000000
    15  H    4.729331   2.430471   1.764792   1.767841   0.000000
 Symmetry turned off by external request.
 Stoichiometry    C7H8
 Framework group  C1[X(C7H8)]
 Deg. of freedom    39
 Full point group                 C1      NOp   1
 Rotational constants (GHZ):           5.5548125           2.5165518           1.7507708
 Standard basis: 6-311G(2d,d,p) (5D, 7F)
   174 basis functions,   288 primitive gaussians,   181 cartesian basis functions
    25 alpha electrons       25 beta electrons
       nuclear repulsion energy       269.1322723373 Hartrees.
 NAtoms=   15 NActive=   15 NUniq=   15 SFac= 1.00D+00 NAtFMM=   60 NAOKFM=F Big=F
 Integral buffers will be    131072 words long.
 Raffenetti 2 integral format.
 Two-electron integral symmetry is turned off.
 One-electron integrals computed using PRISM.
 NBasis=   174 RedAO= T EigKep=  1.85D-04  NBF=   174
 NBsUse=   174 1.00D-06 EigRej= -1.00D+00 NBFU=   174
 Initial guess from the checkpoint file:  "TolueneRot1.chk"
 B after Tr=     0.000439    0.000216   -0.003121
         Rot=    0.999999    0.000277    0.001012    0.000280 Ang=   0.12 deg.
 ExpMin= 1.03D-01 ExpMax= 4.56D+03 ExpMxC= 6.82D+02 IAcc=2 IRadAn=         4 AccDes= 0.00D+00
 Harris functional with IExCor=  402 and IRadAn=       4 diagonalized for initial guess.
 HarFok:  IExCor=  402 AccDes= 0.00D+00 IRadAn=         4 IDoV= 1 UseB2=F ITyADJ=14
 ICtDFT=  3500011 ScaDFX=  1.000000  1.000000  1.000000  1.000000
 FoFCou: FMM=F IPFlag=           0 FMFlag=      100000 FMFlg1=           0
         NFxFlg=           0 DoJE=T BraDBF=F KetDBF=T FulRan=T
         wScrn=  0.000000 ICntrl=       500 IOpCl=  0 I1Cent=   200000004 NGrid=           0
         NMat0=    1 NMatS0=      1 NMatT0=    0 NMatD0=    1 NMtDS0=    0 NMtDT0=    0
 Symmetry not used in FoFCou.
 Requested convergence on RMS density matrix=1.00D-08 within 128 cycles.
 Requested convergence on MAX density matrix=1.00D-06.
 Requested convergence on             energy=1.00D-06.
 No special actions if energy rises.
 Integral accuracy reduced to 1.0D-05 until final iterations.
 Initial convergence to 1.0D-05 achieved.  Increase integral accuracy.
 SCF Done:  E(RB3LYP) =  -271.636036975     A.U. after    9 cycles
            NFock=  9  Conv=0.62D-08     -V/T= 2.0046
 Calling FoFJK, ICntrl=      2127 FMM=F ISym2X=0 I1Cent= 0 IOpClX= 0 NMat=1 NMatS=1 NMatT=0.
 -------------------------------------------------------------------
 Center     Atomic                   Forces (Hartrees/Bohr)
 Number     Number              X              Y              Z
 -------------------------------------------------------------------
      1        6           0.000022616    0.000107362   -0.000463083
      2        6          -0.000073226   -0.000263845    0.000180606
      3        6           0.000120874    0.000171498    0.000140666
      4        6          -0.000055370   -0.000020102   -0.000181789
      5        6           0.000050249   -0.000139686    0.000115134
      6        6          -0.000044237    0.000207740    0.000184808
      7        6           0.000477429   -0.000251394   -0.000168856
      8        1          -0.000028628   -0.000027215   -0.000007251
      9        1           0.000008786   -0.000034441    0.000011826
     10        1          -0.000023795    0.000008494    0.000023390
     11        1           0.000025514    0.000026752   -0.000008728
     12        1          -0.000036619   -0.000001197   -0.000029350
     13        1          -0.000213330    0.000237218    0.000008212
     14        1          -0.000079275    0.000039127    0.000064518
     15        1          -0.000150989   -0.000060310    0.000129896
[...]
           A20        111.42038 111.41817 111.37601 111.37380 111.39023
           A21        111.03374 111.04866 111.14679 111.24345 111.34253
           A22        108.06719 108.02344 107.93807 107.79416 107.63524
           A23        107.36624 107.26600 107.23084 107.18144 107.23476
           A24        107.35143 107.47766 107.62335 107.79916 107.92378
           D1           0.25100   0.25016   0.13686   0.01636  -0.13204
           D2        -179.60433-179.63627-179.79806 179.99674 179.80050
           D3        -178.57383-178.77555-179.32537 179.99632 179.28355
           D4           1.57084   1.33802   0.73971  -0.02330  -0.78391
           D5          -0.24544  -0.25272  -0.14581  -0.01622   0.12779
           D6         179.60453 179.63242 179.79388-180.00687-179.79160
           D7         178.57890 178.77669 179.31967-179.99632-179.29141
           D8          -1.57114  -1.33817  -0.74065   0.01303   0.78920
           D9        -150.55665-140.50238-130.31086-120.07336-109.79206
           D10        -29.78498 -19.78508  -9.78504   0.21496  10.21493
           D11         89.82461  99.99262 110.21495 120.50205 130.73936
           D12         30.65068  40.49677  50.23988  59.90612  69.60946
           D13        151.42235 161.21407 170.76570-179.80556-170.38355
           D14        -88.96806 -79.00823 -69.23430 -59.51847 -49.85912
           D15         -0.09456  -0.08985  -0.04295  -0.00682   0.05122
           D16       -179.85141-179.86590-179.93896 179.99912 179.91634
           D17        179.76039 179.79636 179.89181-179.98716-179.88116
           D18          0.00354   0.02031  -0.00420   0.01879  -0.01604
           D19         -0.07353  -0.07431  -0.04545  -0.00329   0.03713
           D20       -179.79127-179.86341-179.89845 179.98840 179.90907
           D21        179.68252 179.70106 179.85018-180.00925-179.82751
           D22         -0.03521  -0.08804  -0.00282  -0.01757   0.04443
           D23          0.07899   0.07181   0.03655   0.00343  -0.04129
           D24       -179.68757-179.69827-179.84788 180.01018 179.83889
           D25        179.79697 179.86081 179.88972-179.98826-179.91335
           D26          0.03041   0.09073   0.00530   0.01850  -0.03317
           D27          0.08350   0.09480   0.06088   0.00653  -0.04268
           D28       -179.76616-179.79007-179.87869 179.99716 179.87656
           D29        179.85060 179.86564 179.94553-180.00021-179.92313
           D30          0.00094  -0.01924   0.00596  -0.00958  -0.00388
                          36        37
     Eigenvalues --    -0.63604  -0.63604
           R1           1.39802   1.39876
           R2           1.39967   1.39875
           R3           1.51016   1.51033
           R4           1.39370   1.39299
           R5           1.08550   1.08560
           R6           1.39236   1.39309
           R7           1.08458   1.08457
           R8           1.39385   1.39310
           R9           1.08417   1.08418
           R10          1.39210   1.39300
           R11          1.08459   1.08459
           R12          1.08575   1.08560
           R13          1.09555   1.09563
           R14          1.09209   1.09257
           R15          1.09310   1.09248
           A1         118.17532 118.18699
           A2         121.07606 120.91163
           A3         120.74089 120.89058
           A4         121.02742 121.02794
           A5         119.36470 119.38708
           A6         119.60775 119.58483
           A7         120.17398 120.16596
           A8         119.75672 119.76054
           A9         120.06895 120.07304
           A10        119.42115 119.42565
           A11        120.28576 120.30227
           A12        120.29270 120.27152
           A13        120.17560 120.17720
           A14        120.05295 120.05737
           A15        119.77111 119.76504
           A16        121.02609 121.01570
           A17        119.36659 119.39788
           A18        119.60718 119.58625
           A19        111.05720 111.00718
           A20        111.40647 111.43707
           A21        111.41106 111.40805
           A22        107.49126 107.36521
           A23        107.24921 107.38599
           A24        108.02930 108.04201
           D1          -0.22723  -0.25924
           D2         179.63834 179.59955
           D3         178.76829 178.55621
           D4          -1.36614  -1.58499
           D5           0.22704   0.25061
           D6        -179.64026-179.60018
           D7        -178.77199-178.56510
           D8           1.36071   1.58410
           D9         -99.57792 -89.40525
           D10         20.21492  30.21505
           D11        140.93212 150.96749
           D12         79.39187  89.37809
           D13       -160.81529-151.00160
           D14        -40.09810 -30.24917
           D15          0.08111   0.09758
           D16        179.86809 179.85035
           D17       -179.78414-179.76094
           D18          0.00284  -0.00817
           D19          0.07091   0.07901
           D20        179.84635 179.80496
           D21       -179.71540-179.67299
           D22          0.06003   0.05297
           D23         -0.07110  -0.08752
           D24        179.71458 179.68519
           D25       -179.84652-179.81356
           D26         -0.06084  -0.04085
           D27         -0.08064  -0.08032
           D28        179.78634 179.77019
           D29       -179.86692-179.85370
           D30          0.00006  -0.00318
 GradGradGradGradGradGradGradGradGradGradGradGradGradGradGradGradGradGrad

                          Input orientation:                          
 ---------------------------------------------------------------------
 Center     Atomic      Atomic             Coordinates (Angstroms)
 Number     Number       Type             X           Y           Z
 ---------------------------------------------------------------------
      1          6           0        0.003958    0.719857    0.012272
      2          6           0       -0.781768   -0.009548    0.910677
      3          6           0       -0.779256   -1.402489    0.899877
      4          6           0        0.014394   -2.094042   -0.012578
      5          6           0        0.804822   -1.380497   -0.910808
      6          6           0        0.798475    0.012412   -0.895896
      7          6           0       -0.025264    2.229886    0.004694
      8          1           0       -1.400862    0.519763    1.628374
      9          1           0       -1.394643   -1.947457    1.607408
     10          1           0        0.020448   -3.178171   -0.020832
     11          1           0        1.430502   -1.908503   -1.622186
     12          1           0        1.420990    0.558793   -1.597653
     13          1           0       -0.802318    2.604302   -0.670879
     14          1           0       -0.237058    2.630171    0.998995
     15          1           0        0.927519    2.645482   -0.331465
 ---------------------------------------------------------------------
                    Distance matrix (angstroms):
                    1          2          3          4          5
     1  C    0.000000
     2  C    1.398760   0.000000
     3  C    2.430148   1.392985   0.000000
     4  C    2.814028   2.414827   1.393090   0.000000
     5  C    2.430009   2.777512   2.405902   1.393104   0.000000
     6  C    1.398751   2.400282   2.777765   2.414991   1.393003
     7  C    1.510331   2.531436   3.816282   4.324144   3.816025
     8  H    2.150661   1.085604   2.147593   3.395239   3.863091
     9  H    3.408094   2.148613   1.084570   2.152029   3.391239
    10  H    3.898203   3.398739   2.154130   1.084177   2.153818
    11  H    3.408042   3.862067   3.391147   2.151888   1.084585
    12  H    2.150762   3.386277   3.863335   3.395365   2.147618
    13  H    2.160535   3.055152   4.303741   4.814023   4.303381
    14  H    2.163564   2.696780   4.070153   4.837840   4.562709
    15  H    2.163135   3.393194   4.562385   4.837207   4.069299
                    6          7          8          9         10
     6  C    0.000000
     7  C    2.531165   0.000000
     8  H    3.386211   2.730042   0.000000
     9  H    3.862303   4.679112   2.467317   0.000000
    10  H    3.398659   5.408310   4.291237   2.483607   0.000000
    11  H    2.148690   4.678916   4.947650   4.291065   2.482870
    12  H    1.085596   2.729784   4.286213   4.947877   4.291011
    13  H    3.054679   1.095627   3.160716   5.124447   5.876776
    14  H    3.393464   1.092575   2.490859   4.760760   5.902812
    15  H    2.695977   1.092483   3.712278   5.499705   5.902051
                   11         12         13         14         15
    11  H    0.000000
    12  H    2.467435   0.000000
    13  H    5.124049   3.160082   0.000000
    14  H    5.500082   3.712454   1.763142   0.000000
    15  H    4.760013   2.490184   1.763303   1.768220   0.000000
 Symmetry turned off by external request.
 Stoichiometry    C7H8
 Framework group  C1[X(C7H8)]
 Deg. of freedom    39
 Full point group                 C1      NOp   1
 Rotational constants (GHZ):           5.5547856           2.5165100           1.7507461

 **********************************************************************

            Population analysis using the SCF density.

 **********************************************************************

 Alpha  occ. eigenvalues --  -10.18118 -10.17130 -10.17124 -10.16918 -10.16880
 Alpha  occ. eigenvalues --  -10.16877 -10.16775  -0.85703  -0.77240  -0.74475
 Alpha  occ. eigenvalues --   -0.68652  -0.60548  -0.58480  -0.51253  -0.46158
 Alpha  occ. eigenvalues --   -0.45491  -0.42230  -0.42063  -0.40981  -0.38744
 Alpha  occ. eigenvalues --   -0.35673  -0.34364  -0.34057  -0.25336  -0.24459
 Alpha virt. eigenvalues --   -0.00775  -0.00569   0.04543   0.06214   0.07503
 Alpha virt. eigenvalues --    0.09869   0.10865   0.11029   0.13654   0.13857
 Alpha virt. eigenvalues --    0.16611   0.20540   0.26999   0.27488   0.28470
 Alpha virt. eigenvalues --    0.29467   0.30841   0.31783   0.33719   0.39980
 Alpha virt. eigenvalues --    0.40612   0.40841   0.41227   0.43265   0.44421
 Alpha virt. eigenvalues --    0.44991   0.46870   0.47092   0.48220   0.50212
 Alpha virt. eigenvalues --    0.54454   0.54619   0.55490   0.58592   0.60413
 Alpha virt. eigenvalues --    0.60508   0.61175   0.62477   0.62588   0.62850
 Alpha virt. eigenvalues --    0.65561   0.68824   0.73640   0.73790   0.76333
 Alpha virt. eigenvalues --    0.79050   0.81423   0.85310   0.85340   0.89735
 Alpha virt. eigenvalues --    0.93890   0.95523   1.00875   1.01793   1.03218
 Alpha virt. eigenvalues --    1.05255   1.08562   1.13138   1.14345   1.24583
 Alpha virt. eigenvalues --    1.32212   1.33106   1.34797   1.41336   1.45160
 Alpha virt. eigenvalues --    1.46710   1.46736   1.48405   1.51363   1.54022
 Alpha virt. eigenvalues --    1.55565   1.57179   1.57825   1.58354   1.59074
 Alpha virt. eigenvalues --    1.63949   1.67438   1.68563   1.73198   1.74439
 Alpha virt. eigenvalues --    1.77845   1.80186   1.80620   1.83266   1.89719
 Alpha virt. eigenvalues --    1.90670   1.91294   1.91843   1.92897   1.95727
 Alpha virt. eigenvalues --    1.98296   2.02164   2.02179   2.08079   2.10842
 Alpha virt. eigenvalues --    2.20517   2.22339   2.23974   2.30077   2.31941
 Alpha virt. eigenvalues --    2.34687   2.35281   2.38260   2.40615   2.47692
 Alpha virt. eigenvalues --    2.50608   2.52776   2.53335   2.57562   2.60109
 Alpha virt. eigenvalues --    2.61270   2.62178   2.64286   2.65604   2.67835
 Alpha virt. eigenvalues --    2.68160   2.69270   2.72884   2.76072   2.81548
 Alpha virt. eigenvalues --    2.85683   2.85723   2.88421   2.91929   2.93695
 Alpha virt. eigenvalues --    3.06216   3.11797   3.18695   3.32917   3.34656
 Alpha virt. eigenvalues --    3.47090   3.47579   3.59201   3.64476   3.79009
 Alpha virt. eigenvalues --    3.81062   3.96737   4.02795   4.11702   4.12090
 Alpha virt. eigenvalues --    4.32420   4.83942  23.52126  23.89764  23.94500
 Alpha virt. eigenvalues --   23.94746  24.08245  24.10259  24.19701
          Condensed to atoms (all electrons):
               1          2          3          4          5          6
     1  C    5.025948   0.525465  -0.051268  -0.040840  -0.051280   0.525452
     2  C    0.525465   4.841366   0.532585  -0.060207  -0.037862  -0.054324
     3  C   -0.051268   0.532585   4.840781   0.521275  -0.057493  -0.037844
     4  C   -0.040840  -0.060207   0.521275   4.867265   0.521323  -0.060196
     5  C   -0.051280  -0.037862  -0.057493   0.521323   4.840814   0.532589
     6  C    0.525452  -0.054324  -0.037844  -0.060196   0.532589   4.841373
     7  C    0.359756  -0.057173   0.005606   0.000140   0.005609  -0.057192
     8  H   -0.049327   0.417281  -0.039407   0.008005  -0.000587   0.007685
     9  H    0.008281  -0.042057   0.414269  -0.043483   0.007587  -0.000405
    10  H   -0.000425   0.007657  -0.042496   0.415718  -0.042507   0.007661
    11  H    0.008280  -0.000404   0.007590  -0.043482   0.414258  -0.042058
    12  H   -0.049331   0.007682  -0.000587   0.008003  -0.039394   0.417286
    13  H   -0.035019  -0.002971  -0.000212   0.000103  -0.000211  -0.002979
    14  H   -0.036597  -0.006848   0.000505   0.000012  -0.000342   0.005394
    15  H   -0.036636   0.005392  -0.000342   0.000012   0.000506  -0.006854
               7          8          9         10         11         12
     1  C    0.359756  -0.049327   0.008281  -0.000425   0.008280  -0.049331
     2  C   -0.057173   0.417281  -0.042057   0.007657  -0.000404   0.007682
     3  C    0.005606  -0.039407   0.414269  -0.042496   0.007590  -0.000587
     4  C    0.000140   0.008005  -0.043483   0.415718  -0.043482   0.008003
     5  C    0.005609  -0.000587   0.007587  -0.042507   0.414258  -0.039394
     6  C   -0.057192   0.007685  -0.000405   0.007661  -0.042058   0.417286
     7  C    4.806332  -0.007513  -0.000345   0.000044  -0.000345  -0.007513
     8  H   -0.007513   0.586743  -0.008746  -0.000364   0.000082  -0.000390
     9  H   -0.000345  -0.008746   0.581506  -0.008067  -0.000395   0.000082
    10  H    0.000044  -0.000364  -0.008067   0.579518  -0.008078  -0.000364
    11  H   -0.000345   0.000082  -0.000395  -0.008078   0.581537  -0.008743
    12  H   -0.007513  -0.000390   0.000082  -0.000364  -0.008743   0.586721
    13  H    0.397720   0.000450   0.000014  -0.000002   0.000014   0.000451
    14  H    0.406903   0.002891  -0.000026  -0.000003   0.000022  -0.000004
    15  H    0.406920  -0.000005   0.000023  -0.000003  -0.000026   0.002890
              13         14         15
     1  C   -0.035019  -0.036597  -0.036636
     2  C   -0.002971  -0.006848   0.005392
     3  C   -0.000212   0.000505  -0.000342
     4  C    0.000103   0.000012   0.000012
     5  C   -0.000211  -0.000342   0.000506
     6  C   -0.002979   0.005394  -0.006854
     7  C    0.397720   0.406903   0.406920
     8  H    0.000450   0.002891  -0.000005
     9  H    0.000014  -0.000026   0.000023
    10  H   -0.000002  -0.000003  -0.000003
    11  H    0.000014   0.000022  -0.000026
    12  H    0.000451  -0.000004   0.002890
    13  H    0.573965  -0.028894  -0.028864
    14  H   -0.028894   0.572791  -0.027857
    15  H   -0.028864  -0.027857   0.572761
 Mulliken charges:
               1
     1  C   -0.102459
     2  C   -0.075584
     3  C   -0.092962
     4  C   -0.093649
     5  C   -0.093009
     6  C   -0.075588
     7  C   -0.258949
     8  H    0.083201
     9  H    0.091761
    10  H    0.091710
    11  H    0.091748
    12  H    0.083210
    13  H    0.126433
    14  H    0.112053
    15  H    0.112082
 Sum of Mulliken charges =  -0.00000
 Mulliken charges with hydrogens summed into heavy atoms:
               1
     1  C   -0.102459
     2  C    0.007618
     3  C   -0.001201
     4  C   -0.001938
     5  C   -0.001261
     6  C    0.007621
     7  C    0.091619
 Electronic spatial extent (au):  <R**2>=            725.3994
 Charge=              0.0000 electrons
 Dipole moment (field-independent basis, Debye):
    X=             -0.0298    Y=              0.3495    Z=             -0.0220  Tot=              0.3515
 Quadrupole moment (field-independent basis, Debye-Ang):
   XX=            -42.8351   YY=            -38.5154   ZZ=            -41.8782
   XY=             -0.0497   XZ=             -3.5703   YZ=             -0.0402
 Traceless Quadrupole moment (field-independent basis, Debye-Ang):
   XX=             -1.7588   YY=              2.5608   ZZ=             -0.8020
   XY=             -0.0497   XZ=             -3.5703   YZ=             -0.0402
 Octapole moment (field-independent basis, Debye-Ang**2):
  XXX=             -0.1871  YYY=             17.7394  ZZZ=              0.3991  XYY=             -0.1771
  XXY=              9.7297  XXZ=             -0.6395  XZZ=             -0.5114  YZZ=              8.9255
  YYZ=             -0.0965  XYZ=              2.9430
 Hexadecapole moment (field-independent basis, Debye-Ang**3):
 XXXX=           -172.4541 YYYY=           -618.0069 ZZZZ=           -202.8786 XXXY=              2.6877
 XXXZ=             58.8271 YYYX=              1.9879 YYYZ=             -0.3055 ZZZX=             54.9128
 ZZZY=              0.9675 XXYY=           -134.0508 XXZZ=            -53.1565 YYZZ=           -137.4443
 XXYZ=             -1.4262 YYXZ=             12.4606 ZZXY=             -0.2986
 N-N= 2.691299362926D+02 E-N=-1.167921454103D+03  KE= 2.703859584702D+02
 1\1\GINC-NID00011\Scan\RB3LYP\6-311G(2d,d,p)\C7H8\LAITCL\09-Mar-2017\0
 \\# opt=(addred) b3lyp/cbsb7 nosymm\\Toluene Rot1 Hindered Rotor\\0,1\
 C,0.0039584317,0.7198568424,0.0122720658\C,-0.7817684344,-0.0095480566
 ,0.9106765925\C,-0.7792557803,-1.4024892615,0.8998767926\C,0.014394405
 3,-2.0940418008,-0.012577912\C,0.804821967,-1.3804966949,-0.91080774\C
 ,0.7984748027,0.0124122777,-0.8958961615\C,-0.0252640886,2.2298862405,
 0.0046936165\H,-1.4008619222,0.5197631295,1.6283741305\H,-1.394642636,
 -1.9474565959,1.6074083451\H,0.0204483519,-3.1781707829,-0.0208316605\
 H,1.4305023116,-1.9085026468,-1.622185778\H,1.4209898276,0.5587925412,
 -1.5976527215\H,-0.8023181749,2.6043023064,-0.6708794912\H,-0.23705847
 12,2.6301706529,0.998995031\H,0.9275194099,2.6454818488,-0.3314651092\
 \Version=ES64L-G16RevA.03\HF=-271.6360424,-271.636038,-271.6360287,-27
 1.6360246,-271.636031,-271.6360413,-271.6360454,-271.6360401,-271.6360
 312,-271.6360267,-271.6360311,-271.6360397,-271.6360454,-271.6360415,-
 271.6360316,-271.6360261,-271.636031,-271.6360402,-271.6360433,-271.63
 60373,-271.6360279,-271.6360245,-271.6360298,-271.6360401,-271.6360457
 ,-271.636042,-271.6360333,-271.6360284,-271.636033,-271.6360419,-271.6
 360456,-271.6360392,-271.6360289,-271.6360237,-271.6360282,-271.636037
 8,-271.6360435\RMSD=3.556e-09,5.322e-09,2.926e-09,6.821e-09,3.283e-09,
 9.180e-09,6.503e-09,6.117e-09,7.929e-09,6.181e-09,2.648e-09,4.408e-09,
 5.713e-09,4.817e-09,6.610e-09,7.398e-09,5.853e-09,8.028e-09,7.221e-09,
 6.103e-09,6.589e-09,5.656e-09,6.059e-09,5.698e-09,8.106e-09,3.437e-09,
 3.735e-09,3.823e-09,8.346e-09,3.798e-09,3.254e-09,9.241e-09,6.916e-09,
 8.633e-09,9.749e-09,4.251e-09,5.256e-09\PG=C01 [X(C7H8)]\\@


 FAULTILY FAULTLESS, ICILY REGULAR, SPLENDIDLY NULL...
           MAUDE BY TENNYSON
 Job cpu time:       0 days  3 hours 40 minutes 23.0 seconds.
 Elapsed time:       0 days  0 hours 28 minutes 23.7 seconds.
 File lengths (MBytes):  RWF=     25 Int=      0 D2E=      0 Chk=      6 Scr=      1
 Normal termination of Gaussian 16 at Thu Mar  9 13:57:20 2017.
