 Entering Gaussian System, Link 0=/cm/shared/c3ddb/gaussian/09.d01/g09/g09
 Initial command:
 /cm/shared/c3ddb/gaussian/09.d01/g09/l1.exe "/scratch/users/mattsj/g09/S02-7952157/Gau-40836.inp" -scrdir="/scratch/users/mattsj/g09/S02-7952157/"
 Entering Link 1 = /cm/shared/c3ddb/gaussian/09.d01/g09/l1.exe PID=     40837.
  
 Copyright (c) 1988,1990,1992,1993,1995,1998,2003,2009,2013,
            Gaussian, Inc.  All Rights Reserved.
  
 This is part of the Gaussian(R) 09 program.  It is based on
 the Gaussian(R) 03 system (copyright 2003, Gaussian, Inc.),
 the Gaussian(R) 98 system (copyright 1998, Gaussian, Inc.),
 the Gaussian(R) 94 system (copyright 1995, Gaussian, Inc.),
 the Gaussian 92(TM) system (copyright 1992, Gaussian, Inc.),
 the Gaussian 90(TM) system (copyright 1990, Gaussian, Inc.),
 the Gaussian 88(TM) system (copyright 1988, Gaussian, Inc.),
 the Gaussian 86(TM) system (copyright 1986, Carnegie Mellon
 University), and the Gaussian 82(TM) system (copyright 1983,
 Carnegie Mellon University). Gaussian is a federally registered
 trademark of Gaussian, Inc.
  
 This software contains proprietary and confidential information,
 including trade secrets, belonging to Gaussian, Inc.
  
 This software is provided under written license and may be
 used, copied, transmitted, or stored only in accord with that
 written license.
  
 The following legend is applicable only to US Government
 contracts under FAR:
  
                    RESTRICTED RIGHTS LEGEND
  
 Use, reproduction and disclosure by the US Government is
 subject to restrictions as set forth in subparagraphs (a)
 and (c) of the Commercial Computer Software - Restricted
 Rights clause in FAR 52.227-19.
  
 Gaussian, Inc.
 340 Quinnipiac St., Bldg. 40, Wallingford CT 06492
  
  
 ---------------------------------------------------------------
 Warning -- This program may not be used in any manner that
 competes with the business of Gaussian, Inc. or will provide
 assistance to any competitor of Gaussian, Inc.  The licensee
 of this program is prohibited from giving any competitor of
 Gaussian, Inc. access to this program.  By using this program,
 the user acknowledges that Gaussian, Inc. is engaged in the
 business of creating and licensing software in the field of
 computational chemistry and represents and warrants to the
 licensee that it is not a competitor of Gaussian, Inc. and that
 it will not use this program in any manner prohibited above.
 ---------------------------------------------------------------
  

 Cite this work as:
 Gaussian 09, Revision D.01,
 M. J. Frisch, G. W. Trucks, H. B. Schlegel, G. E. Scuseria, 
 M. A. Robb, J. R. Cheeseman, G. Scalmani, V. Barone, B. Mennucci, 
 G. A. Petersson, H. Nakatsuji, M. Caricato, X. Li, H. P. Hratchian, 
 A. F. Izmaylov, J. Bloino, G. Zheng, J. L. Sonnenberg, M. Hada, 
 M. Ehara, K. Toyota, R. Fukuda, J. Hasegawa, M. Ishida, T. Nakajima, 
 Y. Honda, O. Kitao, H. Nakai, T. Vreven, J. A. Montgomery, Jr., 
 J. E. Peralta, F. Ogliaro, M. Bearpark, J. J. Heyd, E. Brothers, 
 K. N. Kudin, V. N. Staroverov, T. Keith, R. Kobayashi, J. Normand, 
 K. Raghavachari, A. Rendell, J. C. Burant, S. S. Iyengar, J. Tomasi, 
 M. Cossi, N. Rega, J. M. Millam, M. Klene, J. E. Knox, J. B. Cross, 
 V. Bakken, C. Adamo, J. Jaramillo, R. Gomperts, R. E. Stratmann, 
 O. Yazyev, A. J. Austin, R. Cammi, C. Pomelli, J. W. Ochterski, 
 R. L. Martin, K. Morokuma, V. G. Zakrzewski, G. A. Voth, 
 P. Salvador, J. J. Dannenberg, S. Dapprich, A. D. Daniels, 
 O. Farkas, J. B. Foresman, J. V. Ortiz, J. Cioslowski, 
 and D. J. Fox, Gaussian, Inc., Wallingford CT, 2013.
 
 ******************************************
 Gaussian 09:  AS64L-G09RevD.01 24-Apr-2013
                12-Apr-2019 
 ******************************************
 %nproc=1
 Will use up to    1 processors via shared memory.
 %mem=1GB
 %chk=TMP_CALCS/scangeom_S02_330_000.chk
 --------------------------------------------------------------------
 #p hf 3-21g scf=tight NoSymmetry guess=read opt=(tight,modredundant)
 --------------------------------------------------------------------
 1/7=10,18=120,19=15,38=1/1,3;
 2/9=110,12=2,15=1,17=6,18=5,40=1/2;
 3/5=5,11=9,16=1,25=1,30=1,71=1,116=-2/1,2,3;
 4/5=1/1;
 5/5=2,32=2,38=6/2;
 6/7=2,8=2,9=2,10=2,28=1/1;
 7/30=1/1,2,3,16;
 1/7=10,18=20,19=15/3(2);
 2/9=110,15=1/2;
 99//99;
 2/9=110,15=1/2;
 3/5=5,11=9,16=1,25=1,30=1,71=1/1,2,3;
 4/5=5,16=3,69=1/1;
 5/5=2,32=2,38=5/2;
 7/30=1/1,2,3,16;
 1/7=10,18=20,19=15/3(-5);
 2/9=110,15=1/2;
 6/7=2,8=2,9=2,10=2,19=2,28=1/1;
 99/9=1/99;
 Leave Link    1 at Fri Apr 12 14:56:12 2019, MaxMem=   134217728 cpu:         0.1
 (Enter /cm/shared/c3ddb/gaussian/09.d01/g09/l101.exe)
 -----------------------------------
 Geometry optimization at the 2D-PES
 -----------------------------------
 Symbolic Z-matrix:
 Charge =  0 Multiplicity = 1
 C                     0.741     0.57307   0.01841 
 C                     1.4545   -0.52789   0.02001 
 H                     1.17313   1.54948   0.08424 
 H                     2.52142  -0.46499   0.06279 
 H                     1.03703  -1.51531   0.01009 
 O                    -0.64686   0.693    -0.02327 
 O                    -1.33594  -0.38943  -0.73157 
 H                    -0.63045  -0.9867   -1.03331 
 
 The following ModRedundant input section has been read:
 D       2       1       6       7 F                                           
 D       1       6       7       8 F                                           
 
 NAtoms=      8 NQM=        8 NQMF=       0 NMMI=      0 NMMIF=      0
                NMic=       0 NMicF=      0.
                    Isotopes and Nuclear Properties:
 (Nuclear quadrupole moments (NQMom) in fm**2, nuclear magnetic moments (NMagM)
  in nuclear magnetons)

  Atom         1           2           3           4           5           6           7           8
 IAtWgt=          12          12           1           1           1          16          16           1
 AtmWgt=  12.0000000  12.0000000   1.0078250   1.0078250   1.0078250  15.9949146  15.9949146   1.0078250
 NucSpn=           0           0           1           1           1           0           0           1
 AtZEff=   0.0000000   0.0000000   0.0000000   0.0000000   0.0000000   0.0000000   0.0000000   0.0000000
 NQMom=    0.0000000   0.0000000   0.0000000   0.0000000   0.0000000   0.0000000   0.0000000   0.0000000
 NMagM=    0.0000000   0.0000000   2.7928460   2.7928460   2.7928460   0.0000000   0.0000000   2.7928460
 AtZNuc=   6.0000000   6.0000000   1.0000000   1.0000000   1.0000000   8.0000000   8.0000000   1.0000000
 Leave Link  101 at Fri Apr 12 14:56:12 2019, MaxMem=   134217728 cpu:         0.2
 (Enter /cm/shared/c3ddb/gaussian/09.d01/g09/l103.exe)

 GradGradGradGradGradGradGradGradGradGradGradGradGradGradGradGradGradGrad
 Berny optimization.
 Initialization pass.
                           ----------------------------
                           !    Initial Parameters    !
                           ! (Angstroms and Degrees)  !
 --------------------------                            --------------------------
 ! Name  Definition              Value          Derivative Info.                !
 --------------------------------------------------------------------------------
 ! R1    R(1,2)                  1.3119         estimate D2E/DX2                !
 ! R2    R(1,3)                  1.0698         estimate D2E/DX2                !
 ! R3    R(1,6)                  1.3937         estimate D2E/DX2                !
 ! R4    R(2,4)                  1.0696         estimate D2E/DX2                !
 ! R5    R(2,5)                  1.0721         estimate D2E/DX2                !
 ! R6    R(6,7)                  1.4657         estimate D2E/DX2                !
 ! R7    R(7,8)                  0.9724         estimate D2E/DX2                !
 ! A1    A(2,1,3)              123.1053         estimate D2E/DX2                !
 ! A2    A(2,1,6)              127.8678         estimate D2E/DX2                !
 ! A3    A(3,1,6)              108.9989         estimate D2E/DX2                !
 ! A4    A(1,2,4)              119.5497         estimate D2E/DX2                !
 ! A5    A(1,2,5)              124.1331         estimate D2E/DX2                !
 ! A6    A(4,2,5)              116.2917         estimate D2E/DX2                !
 ! A7    A(1,6,7)              114.7774         estimate D2E/DX2                !
 ! A8    A(6,7,8)              105.2174         estimate D2E/DX2                !
 ! D1    D(3,1,2,4)             -1.6631         estimate D2E/DX2                !
 ! D2    D(3,1,2,5)            176.429          estimate D2E/DX2                !
 ! D3    D(6,1,2,4)           -179.5208         estimate D2E/DX2                !
 ! D4    D(6,1,2,5)             -1.4288         estimate D2E/DX2                !
 ! D5    D(2,1,6,7)            -30.0            Frozen                          !
 ! D6    D(3,1,6,7)            151.8978         estimate D2E/DX2                !
 ! D7    D(1,6,7,8)              0.0            Frozen                          !
 --------------------------------------------------------------------------------
 Trust Radius=3.00D-01 FncErr=1.00D-07 GrdErr=1.00D-07
 Number of steps in this run=     32 maximum allowed number of steps=    100.
 GradGradGradGradGradGradGradGradGradGradGradGradGradGradGradGradGradGrad

 Leave Link  103 at Fri Apr 12 14:56:12 2019, MaxMem=   134217728 cpu:         0.0
 (Enter /cm/shared/c3ddb/gaussian/09.d01/g09/l202.exe)
                          Input orientation:                          
 ---------------------------------------------------------------------
 Center     Atomic      Atomic             Coordinates (Angstroms)
 Number     Number       Type             X           Y           Z
 ---------------------------------------------------------------------
      1          6           0        0.741004    0.573067    0.018409
      2          6           0        1.454501   -0.527885    0.020008
      3          1           0        1.173129    1.549484    0.084244
      4          1           0        2.521420   -0.464991    0.062791
      5          1           0        1.037027   -1.515307    0.010090
      6          8           0       -0.646858    0.692998   -0.023266
      7          8           0       -1.335942   -0.389427   -0.731566
      8          1           0       -0.630448   -0.986700   -1.033306
 ---------------------------------------------------------------------
                    Distance matrix (angstroms):
                    1          2          3          4          5
     1  C    0.000000
     2  C    1.311936   0.000000
     3  H    1.069793   2.097322   0.000000
     4  H    2.061411   1.069627   2.424141   0.000000
     5  H    2.109266   1.072094   3.068708   1.819166   0.000000
     6  O    1.393657   2.430666   2.014319   3.374364   2.777263
     7  O    2.408851   2.893200   3.274196   3.939030   2.729220
     8  H    2.328059   2.380545   3.306666   3.377555   2.036805
                    6          7          8
     6  O    0.000000
     7  O    1.465664   0.000000
     8  H    1.960060   0.972370   0.000000
 Symmetry turned off by external request.
 Stoichiometry    C2H4O2
 Framework group  C1[X(C2H4O2)]
 Deg. of freedom    18
 Full point group                 C1      NOp   1
 Rotational constants (GHZ):     19.3549593      6.2022042      4.7860189
 Leave Link  202 at Fri Apr 12 14:56:12 2019, MaxMem=   134217728 cpu:         0.0
 (Enter /cm/shared/c3ddb/gaussian/09.d01/g09/l301.exe)
 Standard basis: 3-21G (6D, 7F)
 Ernie: Thresh=  0.10000D-02 Tol=  0.10000D-05 Strict=F.
    44 basis functions,    72 primitive gaussians,    44 cartesian basis functions
    16 alpha electrons       16 beta electrons
       nuclear repulsion energy       118.3537683938 Hartrees.
 IExCor=    0 DFT=F Ex=HF Corr=None ExCW=0 ScaHFX=  1.000000
 ScaDFX=  1.000000  1.000000  1.000000  1.000000 ScalE2=  1.000000  1.000000
 IRadAn=      0 IRanWt=     -1 IRanGd=            0 ICorTp=0 IEmpDi=  4
 NAtoms=    8 NActive=    8 NUniq=    8 SFac= 1.00D+00 NAtFMM=   60 NAOKFM=F Big=F
 Integral buffers will be    131072 words long.
 Raffenetti 1 integral format.
 Two-electron integral symmetry is turned off.
 Leave Link  301 at Fri Apr 12 14:56:12 2019, MaxMem=   134217728 cpu:         0.1
 (Enter /cm/shared/c3ddb/gaussian/09.d01/g09/l302.exe)
 NPDir=0 NMtPBC=     1 NCelOv=     1 NCel=       1 NClECP=     1 NCelD=      1
         NCelK=      1 NCelE2=     1 NClLst=     1 CellRange=     0.0.
 One-electron integrals computed using PRISM.
 NBasis=    44 RedAO= T EigKep=  1.21D-02  NBF=    44
 NBsUse=    44 1.00D-06 EigRej= -1.00D+00 NBFU=    44
 Leave Link  302 at Fri Apr 12 14:56:12 2019, MaxMem=   134217728 cpu:         0.2
 (Enter /cm/shared/c3ddb/gaussian/09.d01/g09/l303.exe)
 DipDrv:  MaxL=1.
 Leave Link  303 at Fri Apr 12 14:56:12 2019, MaxMem=   134217728 cpu:         0.1
 (Enter /cm/shared/c3ddb/gaussian/09.d01/g09/l401.exe)
 Initial guess from the checkpoint file:  "TMP_CALCS/scangeom_S02_330_000.chk"
 B after Tr=     0.000414   -0.000282   -0.009525
         Rot=    0.999980   -0.006162    0.001427   -0.000678 Ang=  -0.73 deg.
 Guess basis will be translated and rotated to current coordinates.
 JPrj=2 DoOrth=T DoCkMO=T.
 Leave Link  401 at Fri Apr 12 14:56:13 2019, MaxMem=   134217728 cpu:         0.2
 (Enter /cm/shared/c3ddb/gaussian/09.d01/g09/l502.exe)
 Closed shell SCF:
 Using DIIS extrapolation, IDIIS=  1040.
 Two-electron integral symmetry not used.
 Keep R1 ints in memory in canonical form, NReq=1327445.
 IVT=       24902 IEndB=       24902 NGot=   134217728 MDV=   133702282
 LenX=   133702282 LenY=   133699905
 Requested convergence on RMS density matrix=1.00D-08 within 128 cycles.
 Requested convergence on MAX density matrix=1.00D-06.
 Requested convergence on             energy=1.00D-06.
 No special actions if energy rises.
 FoFCou: FMM=F IPFlag=           0 FMFlag=           0 FMFlg1=           0
         NFxFlg=           0 DoJE=F BraDBF=F KetDBF=F FulRan=T
         wScrn=  0.000000 ICntrl=     600 IOpCl=  0 I1Cent=           0 NGrid=           0
         NMat0=    1 NMatS0=    990 NMatT0=    0 NMatD0=    1 NMtDS0=    0 NMtDT0=    0
 Symmetry not used in FoFCou.

 Cycle   1  Pass 1  IDiag  1:
 E= -226.378314907191    
 DIIS: error= 6.89D-03 at cycle   1 NSaved=   1.
 NSaved= 1 IEnMin= 1 EnMin= -226.378314907191     IErMin= 1 ErrMin= 6.89D-03
 ErrMax= 6.89D-03  0.00D+00 EMaxC= 1.00D-01 BMatC= 2.08D-03 BMatP= 2.08D-03
 IDIUse=3 WtCom= 9.31D-01 WtEn= 6.89D-02
 Coeff-Com:  0.100D+01
 Coeff-En:   0.100D+01
 Coeff:      0.100D+01
 Gap=     0.540 Goal=   None    Shift=    0.000
 GapD=    0.540 DampG=2.000 DampE=1.000 DampFc=2.0000 IDamp=-1.
 RMSDP=1.22D-03 MaxDP=1.55D-02              OVMax= 1.38D-02

 Cycle   2  Pass 1  IDiag  1:
 E= -226.381472152911     Delta-E=       -0.003157245720 Rises=F Damp=F
 DIIS: error= 3.21D-03 at cycle   2 NSaved=   2.
 NSaved= 2 IEnMin= 2 EnMin= -226.381472152911     IErMin= 2 ErrMin= 3.21D-03
 ErrMax= 3.21D-03  0.00D+00 EMaxC= 1.00D-01 BMatC= 1.94D-04 BMatP= 2.08D-03
 IDIUse=3 WtCom= 9.68D-01 WtEn= 3.21D-02
 Coeff-Com: -0.316D+00 0.132D+01
 Coeff-En:   0.000D+00 0.100D+01
 Coeff:     -0.305D+00 0.131D+01
 Gap=     0.540 Goal=   None    Shift=    0.000
 RMSDP=6.30D-04 MaxDP=6.19D-03 DE=-3.16D-03 OVMax= 9.74D-03

 Cycle   3  Pass 1  IDiag  1:
 E= -226.381994068892     Delta-E=       -0.000521915981 Rises=F Damp=F
 DIIS: error= 1.05D-03 at cycle   3 NSaved=   3.
 NSaved= 3 IEnMin= 3 EnMin= -226.381994068892     IErMin= 3 ErrMin= 1.05D-03
 ErrMax= 1.05D-03  0.00D+00 EMaxC= 1.00D-01 BMatC= 1.69D-05 BMatP= 1.94D-04
 IDIUse=3 WtCom= 9.90D-01 WtEn= 1.05D-02
 Coeff-Com:  0.790D-01-0.500D+00 0.142D+01
 Coeff-En:   0.000D+00 0.000D+00 0.100D+01
 Coeff:      0.781D-01-0.495D+00 0.142D+01
 Gap=     0.540 Goal=   None    Shift=    0.000
 RMSDP=2.66D-04 MaxDP=3.75D-03 DE=-5.22D-04 OVMax= 4.67D-03

 Cycle   4  Pass 1  IDiag  1:
 E= -226.382053783520     Delta-E=       -0.000059714628 Rises=F Damp=F
 DIIS: error= 2.51D-04 at cycle   4 NSaved=   4.
 NSaved= 4 IEnMin= 4 EnMin= -226.382053783520     IErMin= 4 ErrMin= 2.51D-04
 ErrMax= 2.51D-04  0.00D+00 EMaxC= 1.00D-01 BMatC= 2.26D-06 BMatP= 1.69D-05
 IDIUse=3 WtCom= 9.97D-01 WtEn= 2.51D-03
 Coeff-Com:  0.523D-01-0.252D+00 0.287D+00 0.913D+00
 Coeff-En:   0.000D+00 0.000D+00 0.000D+00 0.100D+01
 Coeff:      0.522D-01-0.252D+00 0.287D+00 0.913D+00
 Gap=     0.540 Goal=   None    Shift=    0.000
 RMSDP=7.36D-05 MaxDP=1.02D-03 DE=-5.97D-05 OVMax= 1.23D-03

 Cycle   5  Pass 1  IDiag  1:
 E= -226.382058249264     Delta-E=       -0.000004465744 Rises=F Damp=F
 DIIS: error= 5.53D-05 at cycle   5 NSaved=   5.
 NSaved= 5 IEnMin= 5 EnMin= -226.382058249264     IErMin= 5 ErrMin= 5.53D-05
 ErrMax= 5.53D-05  0.00D+00 EMaxC= 1.00D-01 BMatC= 2.02D-07 BMatP= 2.26D-06
 IDIUse=1 WtCom= 1.00D+00 WtEn= 0.00D+00
 Coeff-Com: -0.115D-02 0.212D-01-0.135D+00 0.178D+00 0.937D+00
 Coeff:     -0.115D-02 0.212D-01-0.135D+00 0.178D+00 0.937D+00
 Gap=     0.540 Goal=   None    Shift=    0.000
 RMSDP=1.98D-05 MaxDP=2.66D-04 DE=-4.47D-06 OVMax= 3.24D-04

 Cycle   6  Pass 1  IDiag  1:
 E= -226.382058531801     Delta-E=       -0.000000282537 Rises=F Damp=F
 DIIS: error= 1.07D-05 at cycle   6 NSaved=   6.
 NSaved= 6 IEnMin= 6 EnMin= -226.382058531801     IErMin= 6 ErrMin= 1.07D-05
 ErrMax= 1.07D-05  0.00D+00 EMaxC= 1.00D-01 BMatC= 1.03D-08 BMatP= 2.02D-07
 IDIUse=1 WtCom= 1.00D+00 WtEn= 0.00D+00
 Coeff-Com: -0.208D-02 0.149D-01-0.517D-01 0.253D-01 0.291D+00 0.723D+00
 Coeff:     -0.208D-02 0.149D-01-0.517D-01 0.253D-01 0.291D+00 0.723D+00
 Gap=     0.540 Goal=   None    Shift=    0.000
 RMSDP=2.69D-06 MaxDP=1.80D-05 DE=-2.83D-07 OVMax= 2.95D-05

 Cycle   7  Pass 1  IDiag  1:
 E= -226.382058541917     Delta-E=       -0.000000010116 Rises=F Damp=F
 DIIS: error= 5.21D-06 at cycle   7 NSaved=   7.
 NSaved= 7 IEnMin= 7 EnMin= -226.382058541917     IErMin= 7 ErrMin= 5.21D-06
 ErrMax= 5.21D-06  0.00D+00 EMaxC= 1.00D-01 BMatC= 5.39D-10 BMatP= 1.03D-08
 IDIUse=1 WtCom= 1.00D+00 WtEn= 0.00D+00
 Coeff-Com:  0.687D-03-0.593D-02 0.251D-01-0.216D-01-0.156D+00-0.189D+00
 Coeff-Com:  0.135D+01
 Coeff:      0.687D-03-0.593D-02 0.251D-01-0.216D-01-0.156D+00-0.189D+00
 Coeff:      0.135D+01
 Gap=     0.540 Goal=   None    Shift=    0.000
 RMSDP=1.45D-06 MaxDP=7.83D-06 DE=-1.01D-08 OVMax= 2.00D-05

 Cycle   8  Pass 1  IDiag  1:
 E= -226.382058543661     Delta-E=       -0.000000001744 Rises=F Damp=F
 DIIS: error= 1.99D-06 at cycle   8 NSaved=   8.
 NSaved= 8 IEnMin= 8 EnMin= -226.382058543661     IErMin= 8 ErrMin= 1.99D-06
 ErrMax= 1.99D-06  0.00D+00 EMaxC= 1.00D-01 BMatC= 4.59D-11 BMatP= 5.39D-10
 IDIUse=1 WtCom= 1.00D+00 WtEn= 0.00D+00
 Coeff-Com: -0.128D-03 0.132D-02-0.640D-02 0.683D-02 0.435D-01 0.211D-01
 Coeff-Com: -0.528D+00 0.146D+01
 Coeff:     -0.128D-03 0.132D-02-0.640D-02 0.683D-02 0.435D-01 0.211D-01
 Coeff:     -0.528D+00 0.146D+01
 Gap=     0.540 Goal=   None    Shift=    0.000
 RMSDP=4.03D-07 MaxDP=2.48D-06 DE=-1.74D-09 OVMax= 8.37D-06

 Cycle   9  Pass 1  IDiag  1:
 E= -226.382058543846     Delta-E=       -0.000000000185 Rises=F Damp=F
 DIIS: error= 5.56D-07 at cycle   9 NSaved=   9.
 NSaved= 9 IEnMin= 9 EnMin= -226.382058543846     IErMin= 9 ErrMin= 5.56D-07
 ErrMax= 5.56D-07  0.00D+00 EMaxC= 1.00D-01 BMatC= 4.67D-12 BMatP= 4.59D-11
 IDIUse=1 WtCom= 1.00D+00 WtEn= 0.00D+00
 Coeff-Com: -0.561D-04 0.503D-03-0.217D-02 0.186D-02 0.141D-01 0.153D-01
 Coeff-Com: -0.132D+00 0.470D-01 0.106D+01
 Coeff:     -0.561D-04 0.503D-03-0.217D-02 0.186D-02 0.141D-01 0.153D-01
 Coeff:     -0.132D+00 0.470D-01 0.106D+01
 Gap=     0.540 Goal=   None    Shift=    0.000
 RMSDP=1.10D-07 MaxDP=6.73D-07 DE=-1.85D-10 OVMax= 1.97D-06

 Cycle  10  Pass 1  IDiag  1:
 E= -226.382058543861     Delta-E=       -0.000000000015 Rises=F Damp=F
 DIIS: error= 1.99D-07 at cycle  10 NSaved=  10.
 NSaved=10 IEnMin=10 EnMin= -226.382058543861     IErMin=10 ErrMin= 1.99D-07
 ErrMax= 1.99D-07  0.00D+00 EMaxC= 1.00D-01 BMatC= 8.01D-13 BMatP= 4.67D-12
 IDIUse=1 WtCom= 1.00D+00 WtEn= 0.00D+00
 Coeff-Com:  0.247D-04-0.244D-03 0.117D-02-0.127D-02-0.779D-02-0.272D-02
 Coeff-Com:  0.965D-01-0.289D+00 0.118D+00 0.109D+01
 Coeff:      0.247D-04-0.244D-03 0.117D-02-0.127D-02-0.779D-02-0.272D-02
 Coeff:      0.965D-01-0.289D+00 0.118D+00 0.109D+01
 Gap=     0.540 Goal=   None    Shift=    0.000
 RMSDP=5.06D-08 MaxDP=3.28D-07 DE=-1.46D-11 OVMax= 7.28D-07

 Cycle  11  Pass 1  IDiag  1:
 E= -226.382058543863     Delta-E=       -0.000000000002 Rises=F Damp=F
 DIIS: error= 5.40D-08 at cycle  11 NSaved=  11.
 NSaved=11 IEnMin=11 EnMin= -226.382058543863     IErMin=11 ErrMin= 5.40D-08
 ErrMax= 5.40D-08  0.00D+00 EMaxC= 1.00D-01 BMatC= 4.20D-14 BMatP= 8.01D-13
 IDIUse=1 WtCom= 1.00D+00 WtEn= 0.00D+00
 Coeff-Com: -0.264D-05 0.309D-04-0.171D-03 0.218D-03 0.115D-02-0.347D-03
 Coeff-Com: -0.175D-01 0.729D-01-0.849D-01-0.290D+00 0.132D+01
 Coeff:     -0.264D-05 0.309D-04-0.171D-03 0.218D-03 0.115D-02-0.347D-03
 Coeff:     -0.175D-01 0.729D-01-0.849D-01-0.290D+00 0.132D+01
 Gap=     0.540 Goal=   None    Shift=    0.000
 RMSDP=1.20D-08 MaxDP=8.36D-08 DE=-2.10D-12 OVMax= 2.73D-07

 Cycle  12  Pass 1  IDiag  1:
 E= -226.382058543864     Delta-E=        0.000000000000 Rises=F Damp=F
 DIIS: error= 3.03D-08 at cycle  12 NSaved=  12.
 NSaved=12 IEnMin=12 EnMin= -226.382058543864     IErMin=12 ErrMin= 3.03D-08
 ErrMax= 3.03D-08  0.00D+00 EMaxC= 1.00D-01 BMatC= 8.91D-15 BMatP= 4.20D-14
 IDIUse=1 WtCom= 1.00D+00 WtEn= 0.00D+00
 Coeff-Com: -0.210D-05 0.218D-04-0.106D-03 0.123D-03 0.698D-03 0.241D-03
 Coeff-Com: -0.912D-02 0.264D-01-0.289D-02-0.101D+00-0.179D+00 0.126D+01
 Coeff:     -0.210D-05 0.218D-04-0.106D-03 0.123D-03 0.698D-03 0.241D-03
 Coeff:     -0.912D-02 0.264D-01-0.289D-02-0.101D+00-0.179D+00 0.126D+01
 Gap=     0.540 Goal=   None    Shift=    0.000
 RMSDP=6.34D-09 MaxDP=4.70D-08 DE=-3.98D-13 OVMax= 1.40D-07

 SCF Done:  E(RHF) =  -226.382058544     A.U. after   12 cycles
            NFock= 12  Conv=0.63D-08     -V/T= 2.0035
 KE= 2.255921882877D+02 PE=-7.696341503579D+02 EE= 1.993061351325D+02
 Leave Link  502 at Fri Apr 12 14:56:13 2019, MaxMem=   134217728 cpu:         0.2
 (Enter /cm/shared/c3ddb/gaussian/09.d01/g09/l601.exe)
 Copying SCF densities to generalized density rwf, IOpCl= 0 IROHF=0.

 **********************************************************************

            Population analysis using the SCF density.

 **********************************************************************

 Alpha  occ. eigenvalues --  -20.54341 -20.53102 -11.26481 -11.18644  -1.48150
 Alpha  occ. eigenvalues --   -1.24796  -1.05474  -0.81464  -0.73258  -0.68203
 Alpha  occ. eigenvalues --   -0.63523  -0.59043  -0.54859  -0.54265  -0.48213
 Alpha  occ. eigenvalues --   -0.37670
 Alpha virt. eigenvalues --    0.16321   0.22239   0.27106   0.28116   0.33775
 Alpha virt. eigenvalues --    0.36799   0.49643   0.58429   0.87705   0.95371
 Alpha virt. eigenvalues --    1.00870   1.05164   1.07918   1.10931   1.23498
 Alpha virt. eigenvalues --    1.30651   1.36078   1.53009   1.58516   1.71377
 Alpha virt. eigenvalues --    1.80926   1.89049   1.93578   1.95252   2.11245
 Alpha virt. eigenvalues --    2.33243   3.03943   3.52974
          Condensed to atoms (all electrons):
               1          2          3          4          5          6
     1  C    4.925785   0.432586   0.388124  -0.036927  -0.056336   0.245518
     2  C    0.432586   5.433749  -0.055915   0.379479   0.395158  -0.057329
     3  H    0.388124  -0.055915   0.428052   0.000071   0.001708  -0.034415
     4  H   -0.036927   0.379479   0.000071   0.430285  -0.015668   0.001231
     5  H   -0.056336   0.395158   0.001708  -0.015668   0.450481  -0.002669
     6  O    0.245518  -0.057329  -0.034415   0.001231  -0.002669   8.131620
     7  O   -0.032388  -0.002690   0.001466   0.000090   0.001734   0.130949
     8  H   -0.005335   0.007460   0.000174  -0.000049   0.003251  -0.025747
               7          8
     1  C   -0.032388  -0.005335
     2  C   -0.002690   0.007460
     3  H    0.001466   0.000174
     4  H    0.000090  -0.000049
     5  H    0.001734   0.003251
     6  O    0.130949  -0.025747
     7  O    8.030805   0.233353
     8  H    0.233353   0.375458
 Mulliken charges:
               1
     1  C    0.138974
     2  C   -0.532497
     3  H    0.270736
     4  H    0.241487
     5  H    0.222341
     6  O   -0.389157
     7  O   -0.363319
     8  H    0.411436
 Sum of Mulliken charges =   0.00000
 Mulliken charges with hydrogens summed into heavy atoms:
               1
     1  C    0.409710
     2  C   -0.068669
     6  O   -0.389157
     7  O    0.048116
 Electronic spatial extent (au):  <R**2>=            276.8661
 Charge=              0.0000 electrons
 Dipole moment (field-independent basis, Debye):
    X=              3.1433    Y=             -1.1844    Z=             -0.6355  Tot=              3.4186
 Quadrupole moment (field-independent basis, Debye-Ang):
   XX=            -25.7937   YY=            -20.4573   ZZ=            -24.6292
   XY=              1.8748   XZ=             -0.3951   YZ=              1.7131
 Traceless Quadrupole moment (field-independent basis, Debye-Ang):
   XX=             -2.1670   YY=              3.1694   ZZ=             -1.0025
   XY=              1.8748   XZ=             -0.3951   YZ=              1.7131
 Octapole moment (field-independent basis, Debye-Ang**2):
  XXX=             -1.0467  YYY=             -4.0346  ZZZ=             11.3363  XYY=             -1.6113
  XXY=             -0.0457  XXZ=              6.7526  XZZ=             -6.1632  YZZ=             -2.3990
  YYZ=              2.5107  XYZ=             -0.6104
 Hexadecapole moment (field-independent basis, Debye-Ang**3):
 XXXX=           -200.8144 YYYY=            -70.2778 ZZZZ=            -40.6728 XXXY=              3.5138
 XXXZ=            -20.3617 YYYX=             10.7443 YYYZ=             -2.7554 ZZZX=            -18.0652
 ZZZY=             -3.4292 XXYY=            -46.1553 XXZZ=            -47.3694 YYZZ=            -18.4545
 XXYZ=             -1.8599 YYXZ=             -4.0864 ZZXY=              3.8944
 N-N= 1.183537683938D+02 E-N=-7.696341506614D+02  KE= 2.255921882877D+02
 No NMR shielding tensors so no spin-rotation constants.
 Leave Link  601 at Fri Apr 12 14:56:13 2019, MaxMem=   134217728 cpu:         0.1
 (Enter /cm/shared/c3ddb/gaussian/09.d01/g09/l701.exe)
 Compute integral first derivatives.
 ... and contract with generalized density number  0.
 Leave Link  701 at Fri Apr 12 14:56:13 2019, MaxMem=   134217728 cpu:         0.1
 (Enter /cm/shared/c3ddb/gaussian/09.d01/g09/l702.exe)
 L702 exits ... SP integral derivatives will be done elsewhere.
 Leave Link  702 at Fri Apr 12 14:56:13 2019, MaxMem=   134217728 cpu:         0.0
 (Enter /cm/shared/c3ddb/gaussian/09.d01/g09/l703.exe)
 Compute integral first derivatives, UseDBF=F ICtDFT=           0.
 Integral derivatives from FoFJK, PRISM(SPDF).
 Calling FoFJK, ICntrl=      2127 FMM=F ISym2X=0 I1Cent= 0 IOpClX= 0 NMat=1 NMatS=1 NMatT=0.
 FoFJK:  IHMeth= 1 ICntrl=    2127 DoSepK=F KAlg= 0 I1Cent=   0 FoldK=F
 IRaf=         0 NMat=   1 IRICut=       1 DoRegI=T DoRafI=F ISym2E= 0.
 FoFCou: FMM=F IPFlag=           0 FMFlag=      100000 FMFlg1=         800
         NFxFlg=           0 DoJE=F BraDBF=F KetDBF=F FulRan=T
         wScrn=  0.000000 ICntrl=    2127 IOpCl=  0 I1Cent=           0 NGrid=           0
         NMat0=    1 NMatS0=      1 NMatT0=    0 NMatD0=    1 NMtDS0=    0 NMtDT0=    0
 Symmetry not used in FoFCou.
 Leave Link  703 at Fri Apr 12 14:56:14 2019, MaxMem=   134217728 cpu:         0.2
 (Enter /cm/shared/c3ddb/gaussian/09.d01/g09/l716.exe)
 Dipole        = 1.23668291D+00-4.65967924D-01-2.50019039D-01
 -------------------------------------------------------------------
 Center     Atomic                   Forces (Hartrees/Bohr)
 Number     Number              X              Y              Z
 -------------------------------------------------------------------
      1        6          -0.000502148   -0.000914517    0.002192093
      2        6           0.000038051   -0.001002146   -0.000529661
      3        1          -0.000056678    0.000084250    0.000014614
      4        1           0.000131799    0.000265775   -0.000175098
      5        1          -0.000933533    0.000423661    0.000252342
      6        8           0.000536137    0.002109468   -0.003143248
      7        8          -0.001146212   -0.002198222    0.004300760
      8        1           0.001932584    0.001231731   -0.002911801
 -------------------------------------------------------------------
 Cartesian Forces:  Max     0.004300760 RMS     0.001599666
 Leave Link  716 at Fri Apr 12 14:56:14 2019, MaxMem=   134217728 cpu:         0.1
 (Enter /cm/shared/c3ddb/gaussian/09.d01/g09/l103.exe)

 GradGradGradGradGradGradGradGradGradGradGradGradGradGradGradGradGradGrad
 Berny optimization.
 FormGI is forming the generalized inverse of G from B-inverse, IUseBI=4.
 Internal  Forces:  Max     0.005776170 RMS     0.001730413
 Search for a local minimum.
 Step number   1 out of a maximum of   32
 All quantities printed in internal units (Hartrees-Bohrs-Radians)
 RMS Force = .12727D-02 SwitMx=.10000D-02 MixMth= 1
 Mixed Optimization -- RFO/linear search
 Second derivative matrix not updated -- first step.
 ITU=  0
     Eigenvalues ---    0.02606   0.03254   0.03257   0.15996   0.16000
     Eigenvalues ---    0.16000   0.16000   0.22001   0.25000   0.36264
     Eigenvalues ---    0.36967   0.37256   0.37277   0.46688   0.52896
     Eigenvalues ---    0.639841000.000001000.000001000.000001000.00000
     Eigenvalues --- 1000.000001000.00000
 RFO step:  Lambda=-1.43134241D-04 EMin= 2.60573624D-02
 Linear search not attempted -- first point.
 Iteration  1 RMS(Cart)=  0.02371460 RMS(Int)=  0.00019217
 Iteration  2 RMS(Cart)=  0.00019897 RMS(Int)=  0.00000272
 Iteration  3 RMS(Cart)=  0.00000002 RMS(Int)=  0.00000272
 Iteration  1 RMS(Cart)=  0.00000130 RMS(Int)=  0.00000062
 Iteration  2 RMS(Cart)=  0.00000047 RMS(Int)=  0.00000068
 ITry= 1 IFail=0 DXMaxC= 7.18D-02 DCOld= 1.00D+10 DXMaxT= 3.00D-01 DXLimC= 3.00D+00 Rises=F
 Variable       Old X    -DE/DX   Delta X   Delta X   Delta X     New X
                                 (Linear)    (Quad)   (Total)
    R1        2.47920  -0.00015   0.00000  -0.00024  -0.00024   2.47896
    R2        2.02162   0.00005   0.00000   0.00015   0.00015   2.02176
    R3        2.63363  -0.00117   0.00000  -0.00250  -0.00250   2.63113
    R4        2.02130   0.00014   0.00000   0.00038   0.00038   2.02168
    R5        2.02596  -0.00003   0.00000  -0.00008  -0.00008   2.02589
    R6        2.76970  -0.00033   0.00000  -0.00090  -0.00090   2.76880
    R7        1.83751   0.00155   0.00000   0.00293   0.00293   1.84044
    A1        2.14859   0.00126   0.00000   0.00592   0.00591   2.15450
    A2        2.23171  -0.00234   0.00000  -0.01059  -0.01060   2.22111
    A3        1.90239   0.00109   0.00000   0.00486   0.00486   1.90725
    A4        2.08654   0.00035   0.00000   0.00216   0.00216   2.08869
    A5        2.16653  -0.00121   0.00000  -0.00758  -0.00758   2.15895
    A6        2.02967   0.00086   0.00000   0.00536   0.00536   2.03503
    A7        2.00324  -0.00391   0.00000  -0.01562  -0.01562   1.98762
    A8        1.83639  -0.00156   0.00000  -0.00972  -0.00972   1.82667
    D1       -0.02903   0.00000   0.00000  -0.00107  -0.00107  -0.03010
    D2        3.07927  -0.00007   0.00000  -0.00344  -0.00343   3.07583
    D3       -3.13323  -0.00031   0.00000  -0.00825  -0.00825  -3.14148
    D4       -0.02494  -0.00038   0.00000  -0.01061  -0.01061  -0.03555
    D5       -0.52360   0.00027   0.00000   0.00000   0.00000  -0.52360
    D6        2.65112  -0.00002   0.00000  -0.00643  -0.00642   2.64470
    D7        0.00000  -0.00578   0.00000   0.00000   0.00000   0.00000
         Item               Value     Threshold  Converged?
 Maximum Force            0.003908     0.000015     NO 
 RMS     Force            0.001273     0.000010     NO 
 Maximum Displacement     0.071819     0.000060     NO 
 RMS     Displacement     0.023716     0.000040     NO 
 Predicted change in Energy=-7.162385D-05
 Lowest energy point so far.  Saving SCF results.
 GradGradGradGradGradGradGradGradGradGradGradGradGradGradGradGradGradGrad

 Leave Link  103 at Fri Apr 12 14:56:14 2019, MaxMem=   134217728 cpu:         0.0
 (Enter /cm/shared/c3ddb/gaussian/09.d01/g09/l202.exe)
                          Input orientation:                          
 ---------------------------------------------------------------------
 Center     Atomic      Atomic             Coordinates (Angstroms)
 Number     Number       Type             X           Y           Z
 ---------------------------------------------------------------------
      1          6           0        0.737156    0.577424    0.020742
      2          6           0        1.442949   -0.528323    0.015797
      3          1           0        1.170890    1.553509    0.082016
      4          1           0        2.510982   -0.475061    0.047349
      5          1           0        1.011155   -1.509568    0.013164
      6          8           0       -0.649950    0.692271   -0.015952
      7          8           0       -1.316907   -0.399700   -0.729770
      8          1           0       -0.592443   -0.979314   -1.025944
 ---------------------------------------------------------------------
                    Distance matrix (angstroms):
                    1          2          3          4          5
     1  C    0.000000
     2  C    1.311809   0.000000
     3  H    1.069871   2.100577   0.000000
     4  H    2.062739   1.069826   2.431490   0.000000
     5  H    2.104915   1.072052   3.068013   1.822322   0.000000
     6  O    1.392336   2.423032   2.016628   3.370187   2.758299
     7  O    2.395249   2.861682   3.265450   3.906704   2.683959
     8  H    2.299308   2.330545   3.279041   3.322270   1.983039
                    6          7          8
     6  O    0.000000
     7  O    1.465186   0.000000
     8  H    1.953865   0.973920   0.000000
 Symmetry turned off by external request.
 Stoichiometry    C2H4O2
 Framework group  C1[X(C2H4O2)]
 Deg. of freedom    18
 Full point group                 C1      NOp   1
 Rotational constants (GHZ):     19.1288485      6.3162514      4.8428180
 Leave Link  202 at Fri Apr 12 14:56:14 2019, MaxMem=   134217728 cpu:         0.0
 (Enter /cm/shared/c3ddb/gaussian/09.d01/g09/l301.exe)
 Standard basis: 3-21G (6D, 7F)
 Ernie: Thresh=  0.10000D-02 Tol=  0.10000D-05 Strict=F.
    44 basis functions,    72 primitive gaussians,    44 cartesian basis functions
    16 alpha electrons       16 beta electrons
       nuclear repulsion energy       118.6722243871 Hartrees.
 IExCor=    0 DFT=F Ex=HF Corr=None ExCW=0 ScaHFX=  1.000000
 ScaDFX=  1.000000  1.000000  1.000000  1.000000 ScalE2=  1.000000  1.000000
 IRadAn=      0 IRanWt=     -1 IRanGd=            0 ICorTp=0 IEmpDi=  4
 NAtoms=    8 NActive=    8 NUniq=    8 SFac= 1.00D+00 NAtFMM=   60 NAOKFM=F Big=F
 Integral buffers will be    131072 words long.
 Raffenetti 1 integral format.
 Two-electron integral symmetry is turned off.
 Leave Link  301 at Fri Apr 12 14:56:14 2019, MaxMem=   134217728 cpu:         0.1
 (Enter /cm/shared/c3ddb/gaussian/09.d01/g09/l302.exe)
 NPDir=0 NMtPBC=     1 NCelOv=     1 NCel=       1 NClECP=     1 NCelD=      1
         NCelK=      1 NCelE2=     1 NClLst=     1 CellRange=     0.0.
 One-electron integrals computed using PRISM.
 NBasis=    44 RedAO= T EigKep=  1.21D-02  NBF=    44
 NBsUse=    44 1.00D-06 EigRej= -1.00D+00 NBFU=    44
 Leave Link  302 at Fri Apr 12 14:56:14 2019, MaxMem=   134217728 cpu:         0.2
 (Enter /cm/shared/c3ddb/gaussian/09.d01/g09/l303.exe)
 DipDrv:  MaxL=1.
 Leave Link  303 at Fri Apr 12 14:56:14 2019, MaxMem=   134217728 cpu:         0.0
 (Enter /cm/shared/c3ddb/gaussian/09.d01/g09/l401.exe)
 Initial guess from the checkpoint file:  "TMP_CALCS/scangeom_S02_330_000.chk"
 B after Tr=     0.002207   -0.004395    0.003052
         Rot=    0.999998   -0.000940    0.000098   -0.001584 Ang=  -0.21 deg.
 Guess basis will be translated and rotated to current coordinates.
 JPrj=2 DoOrth=T DoCkMO=T.
 Generating alternative initial guess.
 ExpMin= 1.83D-01 ExpMax= 3.22D+02 ExpMxC= 3.22D+02 IAcc=1 IRadAn=         1 AccDes= 0.00D+00
 Harris functional with IExCor=  205 and IRadAn=       1 diagonalized for initial guess.
 HarFok:  IExCor=  205 AccDes= 0.00D+00 IRadAn=         1 IDoV= 1 UseB2=F ITyADJ=14
 ICtDFT=  3500011 ScaDFX=  1.000000  1.000000  1.000000  1.000000
 FoFCou: FMM=F IPFlag=           0 FMFlag=      100000 FMFlg1=           0
         NFxFlg=           0 DoJE=T BraDBF=F KetDBF=T FulRan=T
         wScrn=  0.000000 ICntrl=     500 IOpCl=  0 I1Cent=   200000004 NGrid=           0
         NMat0=    1 NMatS0=      1 NMatT0=    0 NMatD0=    1 NMtDS0=    0 NMtDT0=    0
 Symmetry not used in FoFCou.
 Harris En= -226.619931712774    
 Leave Link  401 at Fri Apr 12 14:56:15 2019, MaxMem=   134217728 cpu:         0.4
 (Enter /cm/shared/c3ddb/gaussian/09.d01/g09/l502.exe)
 Closed shell SCF:
 Using DIIS extrapolation, IDIIS=  1040.
 Two-electron integral symmetry not used.
 Keep R1 ints in memory in canonical form, NReq=1327460.
 IVT=       24902 IEndB=       24902 NGot=   134217728 MDV=   133702282
 LenX=   133702282 LenY=   133699905
 Requested convergence on RMS density matrix=1.00D-08 within 128 cycles.
 Requested convergence on MAX density matrix=1.00D-06.
 Requested convergence on             energy=1.00D-06.
 No special actions if energy rises.
 FoFCou: FMM=F IPFlag=           0 FMFlag=           0 FMFlg1=           0
         NFxFlg=           0 DoJE=F BraDBF=F KetDBF=F FulRan=T
         wScrn=  0.000000 ICntrl=     600 IOpCl=  0 I1Cent=           0 NGrid=           0
         NMat0=    1 NMatS0=    990 NMatT0=    0 NMatD0=    1 NMtDS0=    0 NMtDT0=    0
 Symmetry not used in FoFCou.

 Cycle   1  Pass 1  IDiag  1:
 E= -226.381841180637    
 DIIS: error= 1.38D-03 at cycle   1 NSaved=   1.
 NSaved= 1 IEnMin= 1 EnMin= -226.381841180637     IErMin= 1 ErrMin= 1.38D-03
 ErrMax= 1.38D-03  0.00D+00 EMaxC= 1.00D-01 BMatC= 1.55D-04 BMatP= 1.55D-04
 IDIUse=3 WtCom= 9.86D-01 WtEn= 1.38D-02
 Coeff-Com:  0.100D+01
 Coeff-En:   0.100D+01
 Coeff:      0.100D+01
 Gap=     0.890 Goal=   None    Shift=    0.000
 GapD=    0.890 DampG=2.000 DampE=1.000 DampFc=2.0000 IDamp=-1.
 RMSDP=3.17D-04 MaxDP=1.53D-03              OVMax= 2.56D-03

 Cycle   2  Pass 1  IDiag  1:
 E= -226.382059154285     Delta-E=       -0.000217973648 Rises=F Damp=F
 DIIS: error= 5.98D-04 at cycle   2 NSaved=   2.
 NSaved= 2 IEnMin= 2 EnMin= -226.382059154285     IErMin= 2 ErrMin= 5.98D-04
 ErrMax= 5.98D-04  0.00D+00 EMaxC= 1.00D-01 BMatC= 1.15D-05 BMatP= 1.55D-04
 IDIUse=3 WtCom= 9.94D-01 WtEn= 5.98D-03
 Coeff-Com: -0.215D+00 0.122D+01
 Coeff-En:   0.000D+00 0.100D+01
 Coeff:     -0.214D+00 0.121D+01
 Gap=     0.540 Goal=   None    Shift=    0.000
 RMSDP=1.30D-04 MaxDP=6.48D-04 DE=-2.18D-04 OVMax= 1.89D-03

 Cycle   3  Pass 1  IDiag  1:
 E= -226.382088430503     Delta-E=       -0.000029276218 Rises=F Damp=F
 DIIS: error= 2.35D-04 at cycle   3 NSaved=   3.
 NSaved= 3 IEnMin= 3 EnMin= -226.382088430503     IErMin= 3 ErrMin= 2.35D-04
 ErrMax= 2.35D-04  0.00D+00 EMaxC= 1.00D-01 BMatC= 1.42D-06 BMatP= 1.15D-05
 IDIUse=3 WtCom= 9.98D-01 WtEn= 2.35D-03
 Coeff-Com: -0.402D-01 0.201D-01 0.102D+01
 Coeff-En:   0.000D+00 0.000D+00 0.100D+01
 Coeff:     -0.401D-01 0.201D-01 0.102D+01
 Gap=     0.540 Goal=   None    Shift=    0.000
 RMSDP=4.26D-05 MaxDP=2.42D-04 DE=-2.93D-05 OVMax= 7.44D-04

 Cycle   4  Pass 1  IDiag  1:
 E= -226.382091565219     Delta-E=       -0.000003134716 Rises=F Damp=F
 DIIS: error= 9.62D-05 at cycle   4 NSaved=   4.
 NSaved= 4 IEnMin= 4 EnMin= -226.382091565219     IErMin= 4 ErrMin= 9.62D-05
 ErrMax= 9.62D-05  0.00D+00 EMaxC= 1.00D-01 BMatC= 4.48D-07 BMatP= 1.42D-06
 IDIUse=1 WtCom= 1.00D+00 WtEn= 0.00D+00
 Coeff-Com:  0.290D-01-0.237D+00 0.334D+00 0.874D+00
 Coeff:      0.290D-01-0.237D+00 0.334D+00 0.874D+00
 Gap=     0.540 Goal=   None    Shift=    0.000
 RMSDP=2.06D-05 MaxDP=1.16D-04 DE=-3.13D-06 OVMax= 3.26D-04

 Cycle   5  Pass 1  IDiag  1:
 E= -226.382092328373     Delta-E=       -0.000000763154 Rises=F Damp=F
 DIIS: error= 3.40D-05 at cycle   5 NSaved=   5.
 NSaved= 5 IEnMin= 5 EnMin= -226.382092328373     IErMin= 5 ErrMin= 3.40D-05
 ErrMax= 3.40D-05  0.00D+00 EMaxC= 1.00D-01 BMatC= 2.14D-08 BMatP= 4.48D-07
 IDIUse=1 WtCom= 1.00D+00 WtEn= 0.00D+00
 Coeff-Com: -0.246D-02 0.511D-01-0.168D+00-0.232D+00 0.135D+01
 Coeff:     -0.246D-02 0.511D-01-0.168D+00-0.232D+00 0.135D+01
 Gap=     0.540 Goal=   None    Shift=    0.000
 RMSDP=8.46D-06 MaxDP=6.88D-05 DE=-7.63D-07 OVMax= 1.50D-04

 Cycle   6  Pass 1  IDiag  1:
 E= -226.382092404159     Delta-E=       -0.000000075786 Rises=F Damp=F
 DIIS: error= 6.38D-06 at cycle   6 NSaved=   6.
 NSaved= 6 IEnMin= 6 EnMin= -226.382092404159     IErMin= 6 ErrMin= 6.38D-06
 ErrMax= 6.38D-06  0.00D+00 EMaxC= 1.00D-01 BMatC= 2.42D-09 BMatP= 2.14D-08
 IDIUse=1 WtCom= 1.00D+00 WtEn= 0.00D+00
 Coeff-Com: -0.262D-02 0.280D-01-0.577D-01-0.115D+00 0.286D+00 0.862D+00
 Coeff:     -0.262D-02 0.280D-01-0.577D-01-0.115D+00 0.286D+00 0.862D+00
 Gap=     0.540 Goal=   None    Shift=    0.000
 RMSDP=1.76D-06 MaxDP=1.08D-05 DE=-7.58D-08 OVMax= 2.24D-05

 Cycle   7  Pass 1  IDiag  1:
 E= -226.382092408644     Delta-E=       -0.000000004485 Rises=F Damp=F
 DIIS: error= 2.91D-06 at cycle   7 NSaved=   7.
 NSaved= 7 IEnMin= 7 EnMin= -226.382092408644     IErMin= 7 ErrMin= 2.91D-06
 ErrMax= 2.91D-06  0.00D+00 EMaxC= 1.00D-01 BMatC= 2.34D-10 BMatP= 2.42D-09
 IDIUse=1 WtCom= 1.00D+00 WtEn= 0.00D+00
 Coeff-Com:  0.729D-03-0.112D-01 0.325D-01 0.470D-01-0.228D+00-0.166D+00
 Coeff-Com:  0.132D+01
 Coeff:      0.729D-03-0.112D-01 0.325D-01 0.470D-01-0.228D+00-0.166D+00
 Coeff:      0.132D+01
 Gap=     0.540 Goal=   None    Shift=    0.000
 RMSDP=1.07D-06 MaxDP=8.11D-06 DE=-4.49D-09 OVMax= 1.76D-05

 Cycle   8  Pass 1  IDiag  1:
 E= -226.382092409553     Delta-E=       -0.000000000909 Rises=F Damp=F
 DIIS: error= 8.29D-07 at cycle   8 NSaved=   8.
 NSaved= 8 IEnMin= 8 EnMin= -226.382092409553     IErMin= 8 ErrMin= 8.29D-07
 ErrMax= 8.29D-07  0.00D+00 EMaxC= 1.00D-01 BMatC= 1.89D-11 BMatP= 2.34D-10
 IDIUse=1 WtCom= 1.00D+00 WtEn= 0.00D+00
 Coeff-Com: -0.837D-04 0.209D-02-0.783D-02-0.889D-02 0.624D-01-0.720D-02
 Coeff-Com: -0.434D+00 0.139D+01
 Coeff:     -0.837D-04 0.209D-02-0.783D-02-0.889D-02 0.624D-01-0.720D-02
 Coeff:     -0.434D+00 0.139D+01
 Gap=     0.540 Goal=   None    Shift=    0.000
 RMSDP=2.86D-07 MaxDP=1.47D-06 DE=-9.09D-10 OVMax= 4.70D-06

 Cycle   9  Pass 1  IDiag  1:
 E= -226.382092409630     Delta-E=       -0.000000000077 Rises=F Damp=F
 DIIS: error= 4.20D-07 at cycle   9 NSaved=   9.
 NSaved= 9 IEnMin= 9 EnMin= -226.382092409630     IErMin= 9 ErrMin= 4.20D-07
 ErrMax= 4.20D-07  0.00D+00 EMaxC= 1.00D-01 BMatC= 2.39D-12 BMatP= 1.89D-11
 IDIUse=1 WtCom= 1.00D+00 WtEn= 0.00D+00
 Coeff-Com: -0.864D-04 0.131D-02-0.392D-02-0.533D-02 0.271D-01 0.154D-01
 Coeff-Com: -0.147D+00 0.176D-01 0.109D+01
 Coeff:     -0.864D-04 0.131D-02-0.392D-02-0.533D-02 0.271D-01 0.154D-01
 Coeff:     -0.147D+00 0.176D-01 0.109D+01
 Gap=     0.540 Goal=   None    Shift=    0.000
 RMSDP=9.36D-08 MaxDP=5.90D-07 DE=-7.74D-11 OVMax= 1.73D-06

 Cycle  10  Pass 1  IDiag  1:
 E= -226.382092409640     Delta-E=       -0.000000000010 Rises=F Damp=F
 DIIS: error= 2.27D-07 at cycle  10 NSaved=  10.
 NSaved=10 IEnMin=10 EnMin= -226.382092409640     IErMin=10 ErrMin= 2.27D-07
 ErrMax= 2.27D-07  0.00D+00 EMaxC= 1.00D-01 BMatC= 5.20D-13 BMatP= 2.39D-12
 IDIUse=1 WtCom= 1.00D+00 WtEn= 0.00D+00
 Coeff-Com:  0.272D-04-0.557D-03 0.188D-02 0.250D-02-0.145D-01-0.161D-02
 Coeff-Com:  0.922D-01-0.236D+00-0.166D+00 0.132D+01
 Coeff:      0.272D-04-0.557D-03 0.188D-02 0.250D-02-0.145D-01-0.161D-02
 Coeff:      0.922D-01-0.236D+00-0.166D+00 0.132D+01
 Gap=     0.540 Goal=   None    Shift=    0.000
 RMSDP=5.46D-08 MaxDP=3.55D-07 DE=-1.00D-11 OVMax= 1.02D-06

 Cycle  11  Pass 1  IDiag  1:
 E= -226.382092409643     Delta-E=       -0.000000000002 Rises=F Damp=F
 DIIS: error= 9.68D-08 at cycle  11 NSaved=  11.
 NSaved=11 IEnMin=11 EnMin= -226.382092409643     IErMin=11 ErrMin= 9.68D-08
 ErrMax= 9.68D-08  0.00D+00 EMaxC= 1.00D-01 BMatC= 9.97D-14 BMatP= 5.20D-13
 IDIUse=1 WtCom= 1.00D+00 WtEn= 0.00D+00
 Coeff-Com:  0.142D-04-0.228D-03 0.693D-03 0.959D-03-0.496D-02-0.224D-02
 Coeff-Com:  0.269D-01-0.102D-01-0.175D+00 0.723D-01 0.109D+01
 Coeff:      0.142D-04-0.228D-03 0.693D-03 0.959D-03-0.496D-02-0.224D-02
 Coeff:      0.269D-01-0.102D-01-0.175D+00 0.723D-01 0.109D+01
 Gap=     0.540 Goal=   None    Shift=    0.000
 RMSDP=2.00D-08 MaxDP=1.42D-07 DE=-2.39D-12 OVMax= 4.25D-07

 Cycle  12  Pass 1  IDiag  1:
 E= -226.382092409643     Delta-E=        0.000000000000 Rises=F Damp=F
 DIIS: error= 4.47D-08 at cycle  12 NSaved=  12.
 NSaved=12 IEnMin=12 EnMin= -226.382092409643     IErMin=12 ErrMin= 4.47D-08
 ErrMax= 4.47D-08  0.00D+00 EMaxC= 1.00D-01 BMatC= 2.24D-14 BMatP= 9.97D-14
 IDIUse=1 WtCom= 1.00D+00 WtEn= 0.00D+00
 Coeff-Com: -0.110D-04 0.213D-03-0.704D-03-0.940D-03 0.535D-02 0.102D-02
 Coeff-Com: -0.333D-01 0.728D-01 0.737D-01-0.396D+00-0.263D+00 0.154D+01
 Coeff:     -0.110D-04 0.213D-03-0.704D-03-0.940D-03 0.535D-02 0.102D-02
 Coeff:     -0.333D-01 0.728D-01 0.737D-01-0.396D+00-0.263D+00 0.154D+01
 Gap=     0.540 Goal=   None    Shift=    0.000
 RMSDP=1.55D-08 MaxDP=1.13D-07 DE=-2.27D-13 OVMax= 3.43D-07

 Cycle  13  Pass 1  IDiag  1:
 E= -226.382092409643     Delta-E=        0.000000000000 Rises=F Damp=F
 DIIS: error= 5.82D-09 at cycle  13 NSaved=  13.
 NSaved=13 IEnMin=12 EnMin= -226.382092409643     IErMin=13 ErrMin= 5.82D-09
 ErrMax= 5.82D-09  0.00D+00 EMaxC= 1.00D-01 BMatC= 1.12D-15 BMatP= 2.24D-14
 IDIUse=1 WtCom= 1.00D+00 WtEn= 0.00D+00
 Coeff-Com:  0.321D-05-0.649D-04 0.223D-03 0.276D-03-0.167D-02-0.203D-03
 Coeff-Com:  0.108D-01-0.279D-01-0.156D-01 0.159D+00-0.115D-01-0.579D+00
 Coeff-Com:  0.147D+01
 Coeff:      0.321D-05-0.649D-04 0.223D-03 0.276D-03-0.167D-02-0.203D-03
 Coeff:      0.108D-01-0.279D-01-0.156D-01 0.159D+00-0.115D-01-0.579D+00
 Coeff:      0.147D+01
 Gap=     0.540 Goal=   None    Shift=    0.000
 RMSDP=2.73D-09 MaxDP=1.83D-08 DE= 2.84D-13 OVMax= 5.59D-08

 SCF Done:  E(RHF) =  -226.382092410     A.U. after   13 cycles
            NFock= 13  Conv=0.27D-08     -V/T= 2.0035
 KE= 2.256019364479D+02 PE=-7.702656308415D+02 EE= 1.996093775969D+02
 Leave Link  502 at Fri Apr 12 14:56:15 2019, MaxMem=   134217728 cpu:         0.4
 (Enter /cm/shared/c3ddb/gaussian/09.d01/g09/l701.exe)
 Compute integral first derivatives.
 ... and contract with generalized density number  0.
 Leave Link  701 at Fri Apr 12 14:56:15 2019, MaxMem=   134217728 cpu:         0.1
 (Enter /cm/shared/c3ddb/gaussian/09.d01/g09/l702.exe)
 L702 exits ... SP integral derivatives will be done elsewhere.
 Leave Link  702 at Fri Apr 12 14:56:16 2019, MaxMem=   134217728 cpu:         0.0
 (Enter /cm/shared/c3ddb/gaussian/09.d01/g09/l703.exe)
 Compute integral first derivatives, UseDBF=F ICtDFT=           0.
 Integral derivatives from FoFJK, PRISM(SPDF).
 Calling FoFJK, ICntrl=      2127 FMM=F ISym2X=0 I1Cent= 0 IOpClX= 0 NMat=1 NMatS=1 NMatT=0.
 FoFJK:  IHMeth= 1 ICntrl=    2127 DoSepK=F KAlg= 0 I1Cent=   0 FoldK=F
 IRaf=         0 NMat=   1 IRICut=       1 DoRegI=T DoRafI=F ISym2E= 0.
 FoFCou: FMM=F IPFlag=           0 FMFlag=      100000 FMFlg1=         800
         NFxFlg=           0 DoJE=F BraDBF=F KetDBF=F FulRan=T
         wScrn=  0.000000 ICntrl=    2127 IOpCl=  0 I1Cent=           0 NGrid=           0
         NMat0=    1 NMatS0=      1 NMatT0=    0 NMatD0=    1 NMtDS0=    0 NMtDT0=    0
 Symmetry not used in FoFCou.
 Leave Link  703 at Fri Apr 12 14:56:16 2019, MaxMem=   134217728 cpu:         0.2
 (Enter /cm/shared/c3ddb/gaussian/09.d01/g09/l716.exe)
 Dipole        = 1.25103925D+00-4.43328390D-01-2.45112074D-01
 -------------------------------------------------------------------
 Center     Atomic                   Forces (Hartrees/Bohr)
 Number     Number              X              Y              Z
 -------------------------------------------------------------------
      1        6           0.000168929   -0.000130340    0.002516405
      2        6           0.001096990   -0.000504561   -0.000197497
      3        1           0.000134985   -0.000171077    0.000075352
      4        1          -0.000165452   -0.000049593   -0.000016982
      5        1           0.000081273    0.000058499    0.000487861
      6        8           0.000177951    0.002362186   -0.003213805
      7        8          -0.000899833   -0.003377488    0.003729507
      8        1          -0.000594843    0.001812374   -0.003380841
 -------------------------------------------------------------------
 Cartesian Forces:  Max     0.003729507 RMS     0.001650015
 Leave Link  716 at Fri Apr 12 14:56:16 2019, MaxMem=   134217728 cpu:         0.0
 (Enter /cm/shared/c3ddb/gaussian/09.d01/g09/l103.exe)

 GradGradGradGradGradGradGradGradGradGradGradGradGradGradGradGradGradGrad
 Berny optimization.
 Using GEDIIS/GDIIS optimizer.
 FormGI is forming the generalized inverse of G from B-inverse, IUseBI=4.
 Internal  Forces:  Max     0.006736429 RMS     0.001744435
 Search for a local minimum.
 Step number   2 out of a maximum of   32
 All quantities printed in internal units (Hartrees-Bohrs-Radians)
 RMS Force = .10181D-02 SwitMx=.10000D-02 MixMth= 1
 Mixed Optimization -- RFO/linear search
 Update second derivatives using D2CorX and points    1    2
 DE= -3.39D-05 DEPred=-7.16D-05 R= 4.73D-01
 Trust test= 4.73D-01 RLast= 2.92D-02 DXMaxT set to 3.00D-01
 ITU=  0  0
 Use linear search instead of GDIIS.
     Eigenvalues ---    0.02509   0.03058   0.03268   0.15352   0.15997
     Eigenvalues ---    0.16000   0.16690   0.21687   0.32378   0.36964
     Eigenvalues ---    0.37249   0.37266   0.41265   0.50779   0.55513
     Eigenvalues ---    0.659661000.000001000.000001000.000001000.00000
     Eigenvalues --- 1000.000001000.00000
 RFO step:  Lambda=-2.05229399D-05 EMin= 2.50930535D-02
 Quartic linear search produced a step of -0.34466.
 Iteration  1 RMS(Cart)=  0.00812205 RMS(Int)=  0.00002408
 Iteration  2 RMS(Cart)=  0.00002727 RMS(Int)=  0.00000385
 Iteration  3 RMS(Cart)=  0.00000000 RMS(Int)=  0.00000385
 Iteration  1 RMS(Cart)=  0.00000084 RMS(Int)=  0.00000040
 ITry= 1 IFail=0 DXMaxC= 2.20D-02 DCOld= 1.00D+10 DXMaxT= 3.00D-01 DXLimC= 3.00D+00 Rises=F
 Variable       Old X    -DE/DX   Delta X   Delta X   Delta X     New X
                                 (Linear)    (Quad)   (Total)
    R1        2.47896   0.00096   0.00008   0.00087   0.00095   2.47991
    R2        2.02176  -0.00010  -0.00005  -0.00010  -0.00015   2.02161
    R3        2.63113   0.00145   0.00086   0.00082   0.00168   2.63282
    R4        2.02168  -0.00017  -0.00013  -0.00011  -0.00024   2.02144
    R5        2.02589  -0.00009   0.00003  -0.00019  -0.00017   2.02572
    R6        2.76880   0.00168   0.00031   0.00259   0.00290   2.77170
    R7        1.84044  -0.00049  -0.00101   0.00081  -0.00020   1.84024
    A1        2.15450  -0.00065  -0.00204   0.00083  -0.00121   2.15330
    A2        2.22111   0.00088   0.00365  -0.00259   0.00107   2.22218
    A3        1.90725  -0.00024  -0.00167   0.00193   0.00026   1.90751
    A4        2.08869   0.00002  -0.00074   0.00109   0.00033   2.08903
    A5        2.15895   0.00003   0.00261  -0.00370  -0.00109   2.15785
    A6        2.03503  -0.00007  -0.00185   0.00234   0.00048   2.03551
    A7        1.98762   0.00335   0.00538   0.00110   0.00648   1.99410
    A8        1.82667   0.00132   0.00335   0.00055   0.00390   1.83056
    D1       -0.03010  -0.00011   0.00037   0.00135   0.00172  -0.02838
    D2        3.07583  -0.00051   0.00118  -0.00802  -0.00684   3.06900
    D3       -3.14148   0.00008   0.00284  -0.00708  -0.00423   3.13747
    D4       -0.03555  -0.00032   0.00366  -0.01645  -0.01279  -0.04834
    D5       -0.52360  -0.00073   0.00000   0.00000   0.00000  -0.52360
    D6        2.64470  -0.00055   0.00221  -0.00745  -0.00524   2.63946
    D7        0.00000  -0.00674   0.00000   0.00000   0.00000   0.00000
         Item               Value     Threshold  Converged?
 Maximum Force            0.003351     0.000015     NO 
 RMS     Force            0.001018     0.000010     NO 
 Maximum Displacement     0.021981     0.000060     NO 
 RMS     Displacement     0.008130     0.000040     NO 
 Predicted change in Energy=-2.324272D-05
 Lowest energy point so far.  Saving SCF results.
 GradGradGradGradGradGradGradGradGradGradGradGradGradGradGradGradGradGrad

 Leave Link  103 at Fri Apr 12 14:56:16 2019, MaxMem=   134217728 cpu:         0.0
 (Enter /cm/shared/c3ddb/gaussian/09.d01/g09/l202.exe)
                          Input orientation:                          
 ---------------------------------------------------------------------
 Center     Atomic      Atomic             Coordinates (Angstroms)
 Number     Number       Type             X           Y           Z
 ---------------------------------------------------------------------
      1          6           0        0.738911    0.576722    0.023252
      2          6           0        1.447297   -0.527952    0.016226
      3          1           0        1.171921    1.553138    0.082997
      4          1           0        2.515161   -0.472823    0.045919
      5          1           0        1.016585   -1.509567    0.021258
      6          8           0       -0.649133    0.690334   -0.015573
      7          8           0       -1.322834   -0.397269   -0.732872
      8          1           0       -0.604075   -0.981344   -1.033802
 ---------------------------------------------------------------------
                    Distance matrix (angstroms):
                    1          2          3          4          5
     1  C    0.000000
     2  C    1.312312   0.000000
     3  H    1.069792   2.100291   0.000000
     4  H    2.063279   1.069698   2.431088   0.000000
     5  H    2.104687   1.071964   3.067263   1.822410   0.000000
     6  O    1.393228   2.424923   2.017519   3.371865   2.759626
     7  O    2.402327   2.872603   3.270096   3.916941   2.697925
     8  H    2.312692   2.348670   3.290137   3.339764   2.004672
                    6          7          8
     6  O    0.000000
     7  O    1.466721   0.000000
     8  H    1.957889   0.973815   0.000000
 Symmetry turned off by external request.
 Stoichiometry    C2H4O2
 Framework group  C1[X(C2H4O2)]
 Deg. of freedom    18
 Full point group                 C1      NOp   1
 Rotational constants (GHZ):     19.1727531      6.2744850      4.8218959
 Leave Link  202 at Fri Apr 12 14:56:16 2019, MaxMem=   134217728 cpu:         0.0
 (Enter /cm/shared/c3ddb/gaussian/09.d01/g09/l301.exe)
 Standard basis: 3-21G (6D, 7F)
 Ernie: Thresh=  0.10000D-02 Tol=  0.10000D-05 Strict=F.
    44 basis functions,    72 primitive gaussians,    44 cartesian basis functions
    16 alpha electrons       16 beta electrons
       nuclear repulsion energy       118.5165897436 Hartrees.
 IExCor=    0 DFT=F Ex=HF Corr=None ExCW=0 ScaHFX=  1.000000
 ScaDFX=  1.000000  1.000000  1.000000  1.000000 ScalE2=  1.000000  1.000000
 IRadAn=      0 IRanWt=     -1 IRanGd=            0 ICorTp=0 IEmpDi=  4
 NAtoms=    8 NActive=    8 NUniq=    8 SFac= 1.00D+00 NAtFMM=   60 NAOKFM=F Big=F
 Integral buffers will be    131072 words long.
 Raffenetti 1 integral format.
 Two-electron integral symmetry is turned off.
 Leave Link  301 at Fri Apr 12 14:56:16 2019, MaxMem=   134217728 cpu:         0.1
 (Enter /cm/shared/c3ddb/gaussian/09.d01/g09/l302.exe)
 NPDir=0 NMtPBC=     1 NCelOv=     1 NCel=       1 NClECP=     1 NCelD=      1
         NCelK=      1 NCelE2=     1 NClLst=     1 CellRange=     0.0.
 One-electron integrals computed using PRISM.
 NBasis=    44 RedAO= T EigKep=  1.21D-02  NBF=    44
 NBsUse=    44 1.00D-06 EigRej= -1.00D+00 NBFU=    44
 Leave Link  302 at Fri Apr 12 14:56:16 2019, MaxMem=   134217728 cpu:         0.2
 (Enter /cm/shared/c3ddb/gaussian/09.d01/g09/l303.exe)
 DipDrv:  MaxL=1.
 Leave Link  303 at Fri Apr 12 14:56:17 2019, MaxMem=   134217728 cpu:         0.0
 (Enter /cm/shared/c3ddb/gaussian/09.d01/g09/l401.exe)
 Initial guess from the checkpoint file:  "TMP_CALCS/scangeom_S02_330_000.chk"
 B after Tr=    -0.000444   -0.000431   -0.000387
         Rot=    1.000000   -0.000717    0.000145    0.000139 Ang=  -0.09 deg.
 Guess basis will be translated and rotated to current coordinates.
 JPrj=2 DoOrth=T DoCkMO=T.
 Generating alternative initial guess.
 ExpMin= 1.83D-01 ExpMax= 3.22D+02 ExpMxC= 3.22D+02 IAcc=1 IRadAn=         1 AccDes= 0.00D+00
 Harris functional with IExCor=  205 and IRadAn=       1 diagonalized for initial guess.
 HarFok:  IExCor=  205 AccDes= 0.00D+00 IRadAn=         1 IDoV= 1 UseB2=F ITyADJ=14
 ICtDFT=  3500011 ScaDFX=  1.000000  1.000000  1.000000  1.000000
 FoFCou: FMM=F IPFlag=           0 FMFlag=      100000 FMFlg1=           0
         NFxFlg=           0 DoJE=T BraDBF=F KetDBF=T FulRan=T
         wScrn=  0.000000 ICntrl=     500 IOpCl=  0 I1Cent=   200000004 NGrid=           0
         NMat0=    1 NMatS0=      1 NMatT0=    0 NMatD0=    1 NMtDS0=    0 NMtDT0=    0
 Symmetry not used in FoFCou.
 Harris En= -226.619739202291    
 Leave Link  401 at Fri Apr 12 14:56:17 2019, MaxMem=   134217728 cpu:         0.5
 (Enter /cm/shared/c3ddb/gaussian/09.d01/g09/l502.exe)
 Closed shell SCF:
 Using DIIS extrapolation, IDIIS=  1040.
 Two-electron integral symmetry not used.
 Keep R1 ints in memory in canonical form, NReq=1327445.
 IVT=       24902 IEndB=       24902 NGot=   134217728 MDV=   133702282
 LenX=   133702282 LenY=   133699905
 Requested convergence on RMS density matrix=1.00D-08 within 128 cycles.
 Requested convergence on MAX density matrix=1.00D-06.
 Requested convergence on             energy=1.00D-06.
 No special actions if energy rises.
 FoFCou: FMM=F IPFlag=           0 FMFlag=           0 FMFlg1=           0
         NFxFlg=           0 DoJE=F BraDBF=F KetDBF=F FulRan=T
         wScrn=  0.000000 ICntrl=     600 IOpCl=  0 I1Cent=           0 NGrid=           0
         NMat0=    1 NMatS0=    990 NMatT0=    0 NMatD0=    1 NMtDS0=    0 NMtDT0=    0
 Symmetry not used in FoFCou.

 Cycle   1  Pass 1  IDiag  1:
 E= -226.382083736064    
 DIIS: error= 3.27D-04 at cycle   1 NSaved=   1.
 NSaved= 1 IEnMin= 1 EnMin= -226.382083736064     IErMin= 1 ErrMin= 3.27D-04
 ErrMax= 3.27D-04  0.00D+00 EMaxC= 1.00D-01 BMatC= 1.87D-05 BMatP= 1.87D-05
 IDIUse=3 WtCom= 9.97D-01 WtEn= 3.27D-03
 Coeff-Com:  0.100D+01
 Coeff-En:   0.100D+01
 Coeff:      0.100D+01
 Gap=     0.892 Goal=   None    Shift=    0.000
 RMSDP=1.08D-04 MaxDP=5.38D-04              OVMax= 1.03D-03

 Cycle   2  Pass 1  IDiag  1:
 E= -226.382109110656     Delta-E=       -0.000025374592 Rises=F Damp=F
 DIIS: error= 1.37D-04 at cycle   2 NSaved=   2.
 NSaved= 2 IEnMin= 2 EnMin= -226.382109110656     IErMin= 2 ErrMin= 1.37D-04
 ErrMax= 1.37D-04  0.00D+00 EMaxC= 1.00D-01 BMatC= 1.35D-06 BMatP= 1.87D-05
 IDIUse=3 WtCom= 9.99D-01 WtEn= 1.37D-03
 Coeff-Com: -0.194D+00 0.119D+01
 Coeff-En:   0.000D+00 0.100D+01
 Coeff:     -0.194D+00 0.119D+01
 Gap=     0.539 Goal=   None    Shift=    0.000
 RMSDP=4.27D-05 MaxDP=2.27D-04 DE=-2.54D-05 OVMax= 7.16D-04

 Cycle   3  Pass 1  IDiag  1:
 E= -226.382112827554     Delta-E=       -0.000003716898 Rises=F Damp=F
 DIIS: error= 8.07D-05 at cycle   3 NSaved=   3.
 NSaved= 3 IEnMin= 3 EnMin= -226.382112827554     IErMin= 3 ErrMin= 8.07D-05
 ErrMax= 8.07D-05  0.00D+00 EMaxC= 1.00D-01 BMatC= 1.75D-07 BMatP= 1.35D-06
 IDIUse=1 WtCom= 1.00D+00 WtEn= 0.00D+00
 Coeff-Com: -0.817D-02-0.192D+00 0.120D+01
 Coeff:     -0.817D-02-0.192D+00 0.120D+01
 Gap=     0.539 Goal=   None    Shift=    0.000
 RMSDP=1.81D-05 MaxDP=1.06D-04 DE=-3.72D-06 OVMax= 3.26D-04

 Cycle   4  Pass 1  IDiag  1:
 E= -226.382113358283     Delta-E=       -0.000000530729 Rises=F Damp=F
 DIIS: error= 2.78D-05 at cycle   4 NSaved=   4.
 NSaved= 4 IEnMin= 4 EnMin= -226.382113358283     IErMin= 4 ErrMin= 2.78D-05
 ErrMax= 2.78D-05  0.00D+00 EMaxC= 1.00D-01 BMatC= 5.51D-08 BMatP= 1.75D-07
 IDIUse=1 WtCom= 1.00D+00 WtEn= 0.00D+00
 Coeff-Com:  0.275D-01-0.259D+00 0.411D+00 0.821D+00
 Coeff:      0.275D-01-0.259D+00 0.411D+00 0.821D+00
 Gap=     0.539 Goal=   None    Shift=    0.000
 RMSDP=7.34D-06 MaxDP=5.37D-05 DE=-5.31D-07 OVMax= 1.09D-04

 Cycle   5  Pass 1  IDiag  1:
 E= -226.382113453904     Delta-E=       -0.000000095621 Rises=F Damp=F
 DIIS: error= 1.17D-05 at cycle   5 NSaved=   5.
 NSaved= 5 IEnMin= 5 EnMin= -226.382113453904     IErMin= 5 ErrMin= 1.17D-05
 ErrMax= 1.17D-05  0.00D+00 EMaxC= 1.00D-01 BMatC= 3.75D-09 BMatP= 5.51D-08
 IDIUse=1 WtCom= 1.00D+00 WtEn= 0.00D+00
 Coeff-Com: -0.785D-03 0.493D-01-0.202D+00-0.107D+00 0.126D+01
 Coeff:     -0.785D-03 0.493D-01-0.202D+00-0.107D+00 0.126D+01
 Gap=     0.539 Goal=   None    Shift=    0.000
 RMSDP=3.50D-06 MaxDP=2.43D-05 DE=-9.56D-08 OVMax= 5.51D-05

 Cycle   6  Pass 1  IDiag  1:
 E= -226.382113467077     Delta-E=       -0.000000013173 Rises=F Damp=F
 DIIS: error= 2.80D-06 at cycle   6 NSaved=   6.
 NSaved= 6 IEnMin= 6 EnMin= -226.382113467077     IErMin= 6 ErrMin= 2.80D-06
 ErrMax= 2.80D-06  0.00D+00 EMaxC= 1.00D-01 BMatC= 3.55D-10 BMatP= 3.75D-09
 IDIUse=1 WtCom= 1.00D+00 WtEn= 0.00D+00
 Coeff-Com: -0.234D-02 0.248D-01-0.451D-01-0.812D-01 0.799D-01 0.102D+01
 Coeff:     -0.234D-02 0.248D-01-0.451D-01-0.812D-01 0.799D-01 0.102D+01
 Gap=     0.539 Goal=   None    Shift=    0.000
 RMSDP=8.99D-07 MaxDP=6.84D-06 DE=-1.32D-08 OVMax= 1.32D-05

 Cycle   7  Pass 1  IDiag  1:
 E= -226.382113468130     Delta-E=       -0.000000001052 Rises=F Damp=F
 DIIS: error= 1.75D-06 at cycle   7 NSaved=   7.
 NSaved= 7 IEnMin= 7 EnMin= -226.382113468130     IErMin= 7 ErrMin= 1.75D-06
 ErrMax= 1.75D-06  0.00D+00 EMaxC= 1.00D-01 BMatC= 4.97D-11 BMatP= 3.55D-10
 IDIUse=1 WtCom= 1.00D+00 WtEn= 0.00D+00
 Coeff-Com:  0.529D-03-0.998D-02 0.312D-01 0.259D-01-0.156D+00-0.188D+00
 Coeff-Com:  0.130D+01
 Coeff:      0.529D-03-0.998D-02 0.312D-01 0.259D-01-0.156D+00-0.188D+00
 Coeff:      0.130D+01
 Gap=     0.539 Goal=   None    Shift=    0.000
 RMSDP=4.44D-07 MaxDP=3.08D-06 DE=-1.05D-09 OVMax= 7.42D-06

 Cycle   8  Pass 1  IDiag  1:
 E= -226.382113468347     Delta-E=       -0.000000000217 Rises=F Damp=F
 DIIS: error= 8.66D-07 at cycle   8 NSaved=   8.
 NSaved= 8 IEnMin= 8 EnMin= -226.382113468347     IErMin= 8 ErrMin= 8.66D-07
 ErrMax= 8.66D-07  0.00D+00 EMaxC= 1.00D-01 BMatC= 9.62D-12 BMatP= 4.97D-11
 IDIUse=1 WtCom= 1.00D+00 WtEn= 0.00D+00
 Coeff-Com:  0.329D-03-0.362D-02 0.710D-02 0.119D-01-0.205D-01-0.132D+00
 Coeff-Com:  0.449D-01 0.109D+01
 Coeff:      0.329D-03-0.362D-02 0.710D-02 0.119D-01-0.205D-01-0.132D+00
 Coeff:      0.449D-01 0.109D+01
 Gap=     0.539 Goal=   None    Shift=    0.000
 RMSDP=1.79D-07 MaxDP=1.44D-06 DE=-2.17D-10 OVMax= 3.87D-06

 Cycle   9  Pass 1  IDiag  1:
 E= -226.382113468386     Delta-E=       -0.000000000039 Rises=F Damp=F
 DIIS: error= 4.80D-07 at cycle   9 NSaved=   9.
 NSaved= 9 IEnMin= 9 EnMin= -226.382113468386     IErMin= 9 ErrMin= 4.80D-07
 ErrMax= 4.80D-07  0.00D+00 EMaxC= 1.00D-01 BMatC= 2.22D-12 BMatP= 9.62D-12
 IDIUse=1 WtCom= 1.00D+00 WtEn= 0.00D+00
 Coeff-Com: -0.213D-03 0.353D-02-0.105D-01-0.889D-02 0.484D-01 0.769D-01
 Coeff-Com: -0.360D+00-0.199D+00 0.145D+01
 Coeff:     -0.213D-03 0.353D-02-0.105D-01-0.889D-02 0.484D-01 0.769D-01
 Coeff:     -0.360D+00-0.199D+00 0.145D+01
 Gap=     0.539 Goal=   None    Shift=    0.000
 RMSDP=1.28D-07 MaxDP=9.75D-07 DE=-3.87D-11 OVMax= 2.89D-06

 Cycle  10  Pass 1  IDiag  1:
 E= -226.382113468398     Delta-E=       -0.000000000012 Rises=F Damp=F
 DIIS: error= 1.52D-07 at cycle  10 NSaved=  10.
 NSaved=10 IEnMin=10 EnMin= -226.382113468398     IErMin=10 ErrMin= 1.52D-07
 ErrMax= 1.52D-07  0.00D+00 EMaxC= 1.00D-01 BMatC= 2.49D-13 BMatP= 2.22D-12
 IDIUse=1 WtCom= 1.00D+00 WtEn= 0.00D+00
 Coeff-Com:  0.784D-04-0.159D-02 0.522D-02 0.401D-02-0.262D-01-0.271D-01
 Coeff-Com:  0.200D+00-0.179D-01-0.860D+00 0.172D+01
 Coeff:      0.784D-04-0.159D-02 0.522D-02 0.401D-02-0.262D-01-0.271D-01
 Coeff:      0.200D+00-0.179D-01-0.860D+00 0.172D+01
 Gap=     0.539 Goal=   None    Shift=    0.000
 RMSDP=5.10D-08 MaxDP=3.51D-07 DE=-1.23D-11 OVMax= 1.09D-06

 Cycle  11  Pass 1  IDiag  1:
 E= -226.382113468399     Delta-E=       -0.000000000001 Rises=F Damp=F
 DIIS: error= 2.59D-08 at cycle  11 NSaved=  11.
 NSaved=11 IEnMin=11 EnMin= -226.382113468399     IErMin=11 ErrMin= 2.59D-08
 ErrMax= 2.59D-08  0.00D+00 EMaxC= 1.00D-01 BMatC= 1.62D-14 BMatP= 2.49D-13
 IDIUse=1 WtCom= 1.00D+00 WtEn= 0.00D+00
 Coeff-Com: -0.279D-05 0.107D-03-0.406D-03-0.326D-03 0.240D-02 0.435D-03
 Coeff-Com: -0.187D-01 0.224D-01 0.825D-01-0.389D+00 0.130D+01
 Coeff:     -0.279D-05 0.107D-03-0.406D-03-0.326D-03 0.240D-02 0.435D-03
 Coeff:     -0.187D-01 0.224D-01 0.825D-01-0.389D+00 0.130D+01
 Gap=     0.539 Goal=   None    Shift=    0.000
 RMSDP=9.37D-09 MaxDP=5.53D-08 DE=-1.36D-12 OVMax= 1.61D-07

 SCF Done:  E(RHF) =  -226.382113468     A.U. after   11 cycles
            NFock= 11  Conv=0.94D-08     -V/T= 2.0035
 KE= 2.255928132323D+02 PE=-7.699567562524D+02 EE= 1.994652398080D+02
 Leave Link  502 at Fri Apr 12 14:56:17 2019, MaxMem=   134217728 cpu:         0.2
 (Enter /cm/shared/c3ddb/gaussian/09.d01/g09/l701.exe)
 Compute integral first derivatives.
 ... and contract with generalized density number  0.
 Leave Link  701 at Fri Apr 12 14:56:18 2019, MaxMem=   134217728 cpu:         0.1
 (Enter /cm/shared/c3ddb/gaussian/09.d01/g09/l702.exe)
 L702 exits ... SP integral derivatives will be done elsewhere.
 Leave Link  702 at Fri Apr 12 14:56:18 2019, MaxMem=   134217728 cpu:         0.0
 (Enter /cm/shared/c3ddb/gaussian/09.d01/g09/l703.exe)
 Compute integral first derivatives, UseDBF=F ICtDFT=           0.
 Integral derivatives from FoFJK, PRISM(SPDF).
 Calling FoFJK, ICntrl=      2127 FMM=F ISym2X=0 I1Cent= 0 IOpClX= 0 NMat=1 NMatS=1 NMatT=0.
 FoFJK:  IHMeth= 1 ICntrl=    2127 DoSepK=F KAlg= 0 I1Cent=   0 FoldK=F
 IRaf=         0 NMat=   1 IRICut=       1 DoRegI=T DoRafI=F ISym2E= 0.
 FoFCou: FMM=F IPFlag=           0 FMFlag=      100000 FMFlg1=         800
         NFxFlg=           0 DoJE=F BraDBF=F KetDBF=F FulRan=T
         wScrn=  0.000000 ICntrl=    2127 IOpCl=  0 I1Cent=           0 NGrid=           0
         NMat0=    1 NMatS0=      1 NMatT0=    0 NMatD0=    1 NMtDS0=    0 NMtDT0=    0
 Symmetry not used in FoFCou.
 Leave Link  703 at Fri Apr 12 14:56:18 2019, MaxMem=   134217728 cpu:         0.2
 (Enter /cm/shared/c3ddb/gaussian/09.d01/g09/l716.exe)
 Dipole        = 1.24694051D+00-4.49101205D-01-2.47131178D-01
 -------------------------------------------------------------------
 Center     Atomic                   Forces (Hartrees/Bohr)
 Number     Number              X              Y              Z
 -------------------------------------------------------------------
      1        6           0.000005801   -0.001374829    0.001233983
      2        6           0.000204282    0.000006302    0.000582606
      3        1          -0.000038354   -0.000007835    0.000034540
      4        1          -0.000062872   -0.000002300    0.000042262
      5        1          -0.000083110   -0.000014384   -0.000099448
      6        8          -0.000048890    0.001870899   -0.003104955
      7        8          -0.000226794   -0.002454703    0.004340908
      8        1           0.000249937    0.001976850   -0.003029896
 -------------------------------------------------------------------
 Cartesian Forces:  Max     0.004340908 RMS     0.001514295
 Leave Link  716 at Fri Apr 12 14:56:18 2019, MaxMem=   134217728 cpu:         0.1
 (Enter /cm/shared/c3ddb/gaussian/09.d01/g09/l103.exe)

 GradGradGradGradGradGradGradGradGradGradGradGradGradGradGradGradGradGrad
 Berny optimization.
 Using GEDIIS/GDIIS optimizer.
 FormGI is forming the generalized inverse of G from B-inverse, IUseBI=4.
 Internal  Forces:  Max     0.006446729 RMS     0.001385818
 Search for a local minimum.
 Step number   3 out of a maximum of   32
 All quantities printed in internal units (Hartrees-Bohrs-Radians)
 RMS Force = .10503D-03 SwitMx=.10000D-02 MixMth= 2
 Mixed Optimization -- En-DIIS/RFO-DIIS
 Update second derivatives using D2CorX and points    1    2    3
 DE= -2.11D-05 DEPred=-2.32D-05 R= 9.06D-01
 TightC=F SS=  1.41D+00  RLast= 1.82D-02 DXNew= 5.0454D-01 5.4678D-02
 Trust test= 9.06D-01 RLast= 1.82D-02 DXMaxT set to 3.00D-01
 ITU=  1  0  0
 Use linear search instead of GDIIS.
     Eigenvalues ---    0.02689   0.03212   0.03265   0.14891   0.15999
     Eigenvalues ---    0.16003   0.16896   0.21794   0.32437   0.36965
     Eigenvalues ---    0.37256   0.37286   0.43510   0.50594   0.55358
     Eigenvalues ---    0.653311000.000001000.000001000.000001000.00000
     Eigenvalues --- 1000.000001000.00000
 RFO step:  Lambda=-1.18323386D-06 EMin= 2.68949164D-02
 Quartic linear search produced a step of -0.08613.
 Iteration  1 RMS(Cart)=  0.00164088 RMS(Int)=  0.00000197
 Iteration  2 RMS(Cart)=  0.00000210 RMS(Int)=  0.00000048
 Iteration  3 RMS(Cart)=  0.00000000 RMS(Int)=  0.00000048
 Iteration  1 RMS(Cart)=  0.00000025 RMS(Int)=  0.00000012
 ITry= 1 IFail=0 DXMaxC= 4.50D-03 DCOld= 1.00D+10 DXMaxT= 3.00D-01 DXLimC= 3.00D+00 Rises=F
 Variable       Old X    -DE/DX   Delta X   Delta X   Delta X     New X
                                 (Linear)    (Quad)   (Total)
    R1        2.47991   0.00004  -0.00008   0.00016   0.00008   2.47999
    R2        2.02161  -0.00002   0.00001  -0.00007  -0.00005   2.02156
    R3        2.63282   0.00019  -0.00015   0.00058   0.00044   2.63325
    R4        2.02144  -0.00006   0.00002  -0.00018  -0.00015   2.02128
    R5        2.02572   0.00005   0.00001   0.00009   0.00010   2.02582
    R6        2.77170  -0.00030  -0.00025  -0.00036  -0.00061   2.77109
    R7        1.84024  -0.00006   0.00002  -0.00018  -0.00016   1.84008
    A1        2.15330   0.00001   0.00010  -0.00016  -0.00006   2.15323
    A2        2.22218   0.00003  -0.00009   0.00043   0.00034   2.22252
    A3        1.90751  -0.00005  -0.00002  -0.00032  -0.00034   1.90716
    A4        2.08903   0.00004  -0.00003   0.00025   0.00022   2.08924
    A5        2.15785  -0.00009   0.00009  -0.00046  -0.00036   2.15749
    A6        2.03551   0.00005  -0.00004   0.00022   0.00018   2.03570
    A7        1.99410  -0.00008  -0.00056   0.00073   0.00017   1.99427
    A8        1.83056  -0.00016  -0.00034  -0.00021  -0.00055   1.83001
    D1       -0.02838  -0.00015  -0.00015  -0.00046  -0.00061  -0.02898
    D2        3.06900  -0.00010   0.00059  -0.00015   0.00044   3.06944
    D3        3.13747   0.00023   0.00036   0.00254   0.00290   3.14038
    D4       -0.04834   0.00027   0.00110   0.00285   0.00395  -0.04439
    D5       -0.52360  -0.00055   0.00000   0.00000   0.00000  -0.52360
    D6        2.63946  -0.00022   0.00045   0.00265   0.00310   2.64256
    D7        0.00000  -0.00645   0.00000   0.00000   0.00000   0.00000
         Item               Value     Threshold  Converged?
 Maximum Force            0.000297     0.000015     NO 
 RMS     Force            0.000105     0.000010     NO 
 Maximum Displacement     0.004497     0.000060     NO 
 RMS     Displacement     0.001641     0.000040     NO 
 Predicted change in Energy=-7.675833D-07
 Lowest energy point so far.  Saving SCF results.
 GradGradGradGradGradGradGradGradGradGradGradGradGradGradGradGradGradGrad

 Leave Link  103 at Fri Apr 12 14:56:18 2019, MaxMem=   134217728 cpu:         0.0
 (Enter /cm/shared/c3ddb/gaussian/09.d01/g09/l202.exe)
                          Input orientation:                          
 ---------------------------------------------------------------------
 Center     Atomic      Atomic             Coordinates (Angstroms)
 Number     Number       Type             X           Y           Z
 ---------------------------------------------------------------------
      1          6           0        0.739144    0.576745    0.021969
      2          6           0        1.447706   -0.527873    0.016041
      3          1           0        1.171921    1.553119    0.083524
      4          1           0        2.515428   -0.472857    0.048005
      5          1           0        1.016724   -1.509438    0.018878
      6          8           0       -0.649121    0.690602   -0.016529
      7          8           0       -1.323349   -0.397380   -0.732096
      8          1           0       -0.604621   -0.981679   -1.032388
 ---------------------------------------------------------------------
                    Distance matrix (angstroms):
                    1          2          3          4          5
     1  C    0.000000
     2  C    1.312355   0.000000
     3  H    1.069763   2.100271   0.000000
     4  H    2.063377   1.069616   2.431225   0.000000
     5  H    2.104571   1.072019   3.067169   1.822488   0.000000
     6  O    1.393459   2.425372   2.017459   3.372266   2.759796
     7  O    2.402376   2.873236   3.270482   3.917967   2.697513
     8  H    2.312155   2.348870   3.290375   3.340787   2.003110
                    6          7          8
     6  O    0.000000
     7  O    1.466398   0.000000
     8  H    1.957160   0.973730   0.000000
 Symmetry turned off by external request.
 Stoichiometry    C2H4O2
 Framework group  C1[X(C2H4O2)]
 Deg. of freedom    18
 Full point group                 C1      NOp   1
 Rotational constants (GHZ):     19.1827026      6.2724342      4.8206726
 Leave Link  202 at Fri Apr 12 14:56:18 2019, MaxMem=   134217728 cpu:         0.0
 (Enter /cm/shared/c3ddb/gaussian/09.d01/g09/l301.exe)
 Standard basis: 3-21G (6D, 7F)
 Ernie: Thresh=  0.10000D-02 Tol=  0.10000D-05 Strict=F.
    44 basis functions,    72 primitive gaussians,    44 cartesian basis functions
    16 alpha electrons       16 beta electrons
       nuclear repulsion energy       118.5154072801 Hartrees.
 IExCor=    0 DFT=F Ex=HF Corr=None ExCW=0 ScaHFX=  1.000000
 ScaDFX=  1.000000  1.000000  1.000000  1.000000 ScalE2=  1.000000  1.000000
 IRadAn=      0 IRanWt=     -1 IRanGd=            0 ICorTp=0 IEmpDi=  4
 NAtoms=    8 NActive=    8 NUniq=    8 SFac= 1.00D+00 NAtFMM=   60 NAOKFM=F Big=F
 Integral buffers will be    131072 words long.
 Raffenetti 1 integral format.
 Two-electron integral symmetry is turned off.
 Leave Link  301 at Fri Apr 12 14:56:18 2019, MaxMem=   134217728 cpu:         0.1
 (Enter /cm/shared/c3ddb/gaussian/09.d01/g09/l302.exe)
 NPDir=0 NMtPBC=     1 NCelOv=     1 NCel=       1 NClECP=     1 NCelD=      1
         NCelK=      1 NCelE2=     1 NClLst=     1 CellRange=     0.0.
 One-electron integrals computed using PRISM.
 NBasis=    44 RedAO= T EigKep=  1.21D-02  NBF=    44
 NBsUse=    44 1.00D-06 EigRej= -1.00D+00 NBFU=    44
 Leave Link  302 at Fri Apr 12 14:56:19 2019, MaxMem=   134217728 cpu:         0.2
 (Enter /cm/shared/c3ddb/gaussian/09.d01/g09/l303.exe)
 DipDrv:  MaxL=1.
 Leave Link  303 at Fri Apr 12 14:56:19 2019, MaxMem=   134217728 cpu:         0.0
 (Enter /cm/shared/c3ddb/gaussian/09.d01/g09/l401.exe)
 Initial guess from the checkpoint file:  "TMP_CALCS/scangeom_S02_330_000.chk"
 B after Tr=     0.000076    0.000355   -0.000439
         Rot=    1.000000    0.000321   -0.000129    0.000050 Ang=   0.04 deg.
 Guess basis will be translated and rotated to current coordinates.
 JPrj=2 DoOrth=T DoCkMO=T.
 Leave Link  401 at Fri Apr 12 14:56:19 2019, MaxMem=   134217728 cpu:         0.2
 (Enter /cm/shared/c3ddb/gaussian/09.d01/g09/l502.exe)
 Closed shell SCF:
 Using DIIS extrapolation, IDIIS=  1040.
 Two-electron integral symmetry not used.
 Keep R1 ints in memory in canonical form, NReq=1327445.
 IVT=       24902 IEndB=       24902 NGot=   134217728 MDV=   133702282
 LenX=   133702282 LenY=   133699905
 Requested convergence on RMS density matrix=1.00D-08 within 128 cycles.
 Requested convergence on MAX density matrix=1.00D-06.
 Requested convergence on             energy=1.00D-06.
 No special actions if energy rises.
 FoFCou: FMM=F IPFlag=           0 FMFlag=           0 FMFlg1=           0
         NFxFlg=           0 DoJE=F BraDBF=F KetDBF=F FulRan=T
         wScrn=  0.000000 ICntrl=     600 IOpCl=  0 I1Cent=           0 NGrid=           0
         NMat0=    1 NMatS0=    990 NMatT0=    0 NMatD0=    1 NMtDS0=    0 NMtDT0=    0
 Symmetry not used in FoFCou.

 Cycle   1  Pass 1  IDiag  1:
 E= -226.382111904941    
 DIIS: error= 1.54D-04 at cycle   1 NSaved=   1.
 NSaved= 1 IEnMin= 1 EnMin= -226.382111904941     IErMin= 1 ErrMin= 1.54D-04
 ErrMax= 1.54D-04  0.00D+00 EMaxC= 1.00D-01 BMatC= 1.06D-06 BMatP= 1.06D-06
 IDIUse=3 WtCom= 9.98D-01 WtEn= 1.54D-03
 Coeff-Com:  0.100D+01
 Coeff-En:   0.100D+01
 Coeff:      0.100D+01
 Gap=     0.891 Goal=   None    Shift=    0.000
 RMSDP=2.56D-05 MaxDP=1.81D-04              OVMax= 3.76D-04

 Cycle   2  Pass 1  IDiag  1:
 E= -226.382113748540     Delta-E=       -0.000001843600 Rises=F Damp=F
 DIIS: error= 7.17D-05 at cycle   2 NSaved=   2.
 NSaved= 2 IEnMin= 2 EnMin= -226.382113748540     IErMin= 2 ErrMin= 7.17D-05
 ErrMax= 7.17D-05  0.00D+00 EMaxC= 1.00D-01 BMatC= 9.59D-08 BMatP= 1.06D-06
 IDIUse=1 WtCom= 1.00D+00 WtEn= 0.00D+00
 Coeff-Com: -0.254D+00 0.125D+01
 Coeff:     -0.254D+00 0.125D+01
 Gap=     0.539 Goal=   None    Shift=    0.000
 RMSDP=1.39D-05 MaxDP=9.78D-05 DE=-1.84D-06 OVMax= 2.23D-04

 Cycle   3  Pass 1  IDiag  1:
 E= -226.382114080426     Delta-E=       -0.000000331886 Rises=F Damp=F
 DIIS: error= 2.39D-05 at cycle   3 NSaved=   3.
 NSaved= 3 IEnMin= 3 EnMin= -226.382114080426     IErMin= 3 ErrMin= 2.39D-05
 ErrMax= 2.39D-05  0.00D+00 EMaxC= 1.00D-01 BMatC= 9.45D-09 BMatP= 9.59D-08
 IDIUse=1 WtCom= 1.00D+00 WtEn= 0.00D+00
 Coeff-Com:  0.429D-01-0.474D+00 0.143D+01
 Coeff:      0.429D-01-0.474D+00 0.143D+01
 Gap=     0.539 Goal=   None    Shift=    0.000
 RMSDP=6.64D-06 MaxDP=4.66D-05 DE=-3.32D-07 OVMax= 1.03D-04

 Cycle   4  Pass 1  IDiag  1:
 E= -226.382114122470     Delta-E=       -0.000000042044 Rises=F Damp=F
 DIIS: error= 3.99D-06 at cycle   4 NSaved=   4.
 NSaved= 4 IEnMin= 4 EnMin= -226.382114122470     IErMin= 4 ErrMin= 3.99D-06
 ErrMax= 3.99D-06  0.00D+00 EMaxC= 1.00D-01 BMatC= 7.89D-10 BMatP= 9.45D-09
 IDIUse=1 WtCom= 1.00D+00 WtEn= 0.00D+00
 Coeff-Com:  0.179D-01-0.109D+00 0.114D+00 0.977D+00
 Coeff:      0.179D-01-0.109D+00 0.114D+00 0.977D+00
 Gap=     0.539 Goal=   None    Shift=    0.000
 RMSDP=1.24D-06 MaxDP=7.50D-06 DE=-4.20D-08 OVMax= 1.82D-05

 Cycle   5  Pass 1  IDiag  1:
 E= -226.382114124434     Delta-E=       -0.000000001964 Rises=F Damp=F
 DIIS: error= 2.34D-06 at cycle   5 NSaved=   5.
 NSaved= 5 IEnMin= 5 EnMin= -226.382114124434     IErMin= 5 ErrMin= 2.34D-06
 ErrMax= 2.34D-06  0.00D+00 EMaxC= 1.00D-01 BMatC= 1.56D-10 BMatP= 7.89D-10
 IDIUse=1 WtCom= 1.00D+00 WtEn= 0.00D+00
 Coeff-Com: -0.510D-02 0.697D-01-0.247D+00 0.170D+00 0.101D+01
 Coeff:     -0.510D-02 0.697D-01-0.247D+00 0.170D+00 0.101D+01
 Gap=     0.539 Goal=   None    Shift=    0.000
 RMSDP=5.66D-07 MaxDP=4.17D-06 DE=-1.96D-09 OVMax= 7.75D-06

 Cycle   6  Pass 1  IDiag  1:
 E= -226.382114124808     Delta-E=       -0.000000000374 Rises=F Damp=F
 DIIS: error= 7.10D-07 at cycle   6 NSaved=   6.
 NSaved= 6 IEnMin= 6 EnMin= -226.382114124808     IErMin= 6 ErrMin= 7.10D-07
 ErrMax= 7.10D-07  0.00D+00 EMaxC= 1.00D-01 BMatC= 1.71D-11 BMatP= 1.56D-10
 IDIUse=1 WtCom= 1.00D+00 WtEn= 0.00D+00
 Coeff-Com: -0.159D-02 0.115D-01-0.170D-01-0.801D-01 0.278D-01 0.106D+01
 Coeff:     -0.159D-02 0.115D-01-0.170D-01-0.801D-01 0.278D-01 0.106D+01
 Gap=     0.539 Goal=   None    Shift=    0.000
 RMSDP=1.96D-07 MaxDP=1.25D-06 DE=-3.74D-10 OVMax= 3.10D-06

 Cycle   7  Pass 1  IDiag  1:
 E= -226.382114124857     Delta-E=       -0.000000000050 Rises=F Damp=F
 DIIS: error= 3.96D-07 at cycle   7 NSaved=   7.
 NSaved= 7 IEnMin= 7 EnMin= -226.382114124857     IErMin= 7 ErrMin= 3.96D-07
[...]
 Coeff:      0.100D+01
 Gap=     0.891 Goal=   None    Shift=    0.000
 RMSDP=1.48D-06 MaxDP=1.16D-05              OVMax= 1.28D-05

 Cycle   2  Pass 1  IDiag  1:
 E= -226.382114183287     Delta-E=       -0.000000004900 Rises=F Damp=F
 DIIS: error= 1.94D-06 at cycle   2 NSaved=   2.
 NSaved= 2 IEnMin= 2 EnMin= -226.382114183287     IErMin= 2 ErrMin= 1.94D-06
 ErrMax= 1.94D-06  0.00D+00 EMaxC= 1.00D-01 BMatC= 2.12D-10 BMatP= 4.10D-09
 IDIUse=1 WtCom= 1.00D+00 WtEn= 0.00D+00
 Coeff-Com: -0.162D+00 0.116D+01
 Coeff:     -0.162D+00 0.116D+01
 Gap=     0.539 Goal=   None    Shift=    0.000
 RMSDP=5.24D-07 MaxDP=4.57D-06 DE=-4.90D-09 OVMax= 5.35D-06

 Cycle   3  Pass 1  IDiag  1:
 E= -226.382114183752     Delta-E=       -0.000000000466 Rises=F Damp=F
 DIIS: error= 5.49D-07 at cycle   3 NSaved=   3.
 NSaved= 3 IEnMin= 3 EnMin= -226.382114183752     IErMin= 3 ErrMin= 5.49D-07
 ErrMax= 5.49D-07  0.00D+00 EMaxC= 1.00D-01 BMatC= 2.81D-11 BMatP= 2.12D-10
 IDIUse=1 WtCom= 1.00D+00 WtEn= 0.00D+00
 Coeff-Com: -0.498D-01 0.136D+00 0.914D+00
 Coeff:     -0.498D-01 0.136D+00 0.914D+00
 Gap=     0.539 Goal=   None    Shift=    0.000
 RMSDP=1.78D-07 MaxDP=1.40D-06 DE=-4.66D-10 OVMax= 1.93D-06

 Cycle   4  Pass 1  IDiag  1:
 E= -226.382114183798     Delta-E=       -0.000000000046 Rises=F Damp=F
 DIIS: error= 3.73D-07 at cycle   4 NSaved=   4.
 NSaved= 4 IEnMin= 4 EnMin= -226.382114183798     IErMin= 4 ErrMin= 3.73D-07
 ErrMax= 3.73D-07  0.00D+00 EMaxC= 1.00D-01 BMatC= 6.15D-12 BMatP= 2.81D-11
 IDIUse=1 WtCom= 1.00D+00 WtEn= 0.00D+00
 Coeff-Com:  0.157D-01-0.162D+00 0.224D+00 0.922D+00
 Coeff:      0.157D-01-0.162D+00 0.224D+00 0.922D+00
 Gap=     0.539 Goal=   None    Shift=    0.000
 RMSDP=9.85D-08 MaxDP=6.74D-07 DE=-4.63D-11 OVMax= 1.22D-06

 Cycle   5  Pass 1  IDiag  1:
 E= -226.382114183810     Delta-E=       -0.000000000012 Rises=F Damp=F
 DIIS: error= 1.33D-07 at cycle   5 NSaved=   5.
 NSaved= 5 IEnMin= 5 EnMin= -226.382114183810     IErMin= 5 ErrMin= 1.33D-07
 ErrMax= 1.33D-07  0.00D+00 EMaxC= 1.00D-01 BMatC= 6.08D-13 BMatP= 6.15D-12
 IDIUse=1 WtCom= 1.00D+00 WtEn= 0.00D+00
 Coeff-Com:  0.272D-02 0.500D-02-0.123D+00-0.995D-01 0.121D+01
 Coeff:      0.272D-02 0.500D-02-0.123D+00-0.995D-01 0.121D+01
 Gap=     0.539 Goal=   None    Shift=    0.000
 RMSDP=4.28D-08 MaxDP=2.69D-07 DE=-1.19D-11 OVMax= 5.61D-07

 Cycle   6  Pass 1  IDiag  1:
 E= -226.382114183812     Delta-E=       -0.000000000002 Rises=F Damp=F
 DIIS: error= 5.71D-08 at cycle   6 NSaved=   6.
 NSaved= 6 IEnMin= 6 EnMin= -226.382114183812     IErMin= 6 ErrMin= 5.71D-08
 ErrMax= 5.71D-08  0.00D+00 EMaxC= 1.00D-01 BMatC= 9.51D-14 BMatP= 6.08D-13
 IDIUse=1 WtCom= 1.00D+00 WtEn= 0.00D+00
 Coeff-Com: -0.240D-02 0.310D-01-0.632D-01-0.180D+00 0.230D+00 0.984D+00
 Coeff:     -0.240D-02 0.310D-01-0.632D-01-0.180D+00 0.230D+00 0.984D+00
 Gap=     0.539 Goal=   None    Shift=    0.000
 RMSDP=1.46D-08 MaxDP=1.22D-07 DE=-2.16D-12 OVMax= 2.55D-07

 Cycle   7  Pass 1  IDiag  1:
 E= -226.382114183813     Delta-E=       -0.000000000001 Rises=F Damp=F
 DIIS: error= 1.76D-08 at cycle   7 NSaved=   7.
 NSaved= 7 IEnMin= 7 EnMin= -226.382114183813     IErMin= 7 ErrMin= 1.76D-08
 ErrMax= 1.76D-08  0.00D+00 EMaxC= 1.00D-01 BMatC= 6.67D-15 BMatP= 9.51D-14
 IDIUse=1 WtCom= 1.00D+00 WtEn= 0.00D+00
 Coeff-Com:  0.139D-03-0.483D-02 0.192D-01 0.329D-01-0.131D+00-0.156D+00
 Coeff-Com:  0.124D+01
 Coeff:      0.139D-03-0.483D-02 0.192D-01 0.329D-01-0.131D+00-0.156D+00
 Coeff:      0.124D+01
 Gap=     0.539 Goal=   None    Shift=    0.000
 RMSDP=4.89D-09 MaxDP=3.61D-08 DE=-5.12D-13 OVMax= 7.26D-08

 SCF Done:  E(RHF) =  -226.382114184     A.U. after    7 cycles
            NFock=  7  Conv=0.49D-08     -V/T= 2.0035
 KE= 2.255931608112D+02 PE=-7.699576996990D+02 EE= 1.994652070110D+02
 Leave Link  502 at Fri Apr 12 14:56:22 2019, MaxMem=   134217728 cpu:         0.2
 (Enter /cm/shared/c3ddb/gaussian/09.d01/g09/l701.exe)
 Compute integral first derivatives.
 ... and contract with generalized density number  0.
 Leave Link  701 at Fri Apr 12 14:56:23 2019, MaxMem=   134217728 cpu:         0.1
 (Enter /cm/shared/c3ddb/gaussian/09.d01/g09/l702.exe)
 L702 exits ... SP integral derivatives will be done elsewhere.
 Leave Link  702 at Fri Apr 12 14:56:23 2019, MaxMem=   134217728 cpu:         0.0
 (Enter /cm/shared/c3ddb/gaussian/09.d01/g09/l703.exe)
 Compute integral first derivatives, UseDBF=F ICtDFT=           0.
 Integral derivatives from FoFJK, PRISM(SPDF).
 Calling FoFJK, ICntrl=      2127 FMM=F ISym2X=0 I1Cent= 0 IOpClX= 0 NMat=1 NMatS=1 NMatT=0.
 FoFJK:  IHMeth= 1 ICntrl=    2127 DoSepK=F KAlg= 0 I1Cent=   0 FoldK=F
 IRaf=         0 NMat=   1 IRICut=       1 DoRegI=T DoRafI=F ISym2E= 0.
 FoFCou: FMM=F IPFlag=           0 FMFlag=      100000 FMFlg1=         800
         NFxFlg=           0 DoJE=F BraDBF=F KetDBF=F FulRan=T
         wScrn=  0.000000 ICntrl=    2127 IOpCl=  0 I1Cent=           0 NGrid=           0
         NMat0=    1 NMatS0=      1 NMatT0=    0 NMatD0=    1 NMtDS0=    0 NMtDT0=    0
 Symmetry not used in FoFCou.
 Leave Link  703 at Fri Apr 12 14:56:23 2019, MaxMem=   134217728 cpu:         0.2
 (Enter /cm/shared/c3ddb/gaussian/09.d01/g09/l716.exe)
 Dipole        = 1.24715437D+00-4.49265251D-01-2.46708875D-01
 -------------------------------------------------------------------
 Center     Atomic                   Forces (Hartrees/Bohr)
 Number     Number              X              Y              Z
 -------------------------------------------------------------------
      1        6          -0.000139161   -0.001306456    0.001538286
      2        6          -0.000016636   -0.000010957    0.000402625
      3        1          -0.000001014   -0.000000011    0.000000992
      4        1           0.000002036   -0.000000691   -0.000000216
      5        1           0.000000955    0.000000729    0.000000136
      6        8           0.000244817    0.002021933   -0.003091858
      7        8          -0.000331069   -0.002586429    0.004237761
      8        1           0.000240070    0.001881881   -0.003087725
 -------------------------------------------------------------------
 Cartesian Forces:  Max     0.004237761 RMS     0.001525529
 Leave Link  716 at Fri Apr 12 14:56:23 2019, MaxMem=   134217728 cpu:         0.0
 (Enter /cm/shared/c3ddb/gaussian/09.d01/g09/l103.exe)

 GradGradGradGradGradGradGradGradGradGradGradGradGradGradGradGradGradGrad
 Berny optimization.
 Using GEDIIS/GDIIS optimizer.
 FormGI is forming the generalized inverse of G from B-inverse, IUseBI=4.
 Internal  Forces:  Max     0.006444970 RMS     0.001380729
 Search for a local minimum.
 Step number   6 out of a maximum of   32
 All quantities printed in internal units (Hartrees-Bohrs-Radians)
 RMS Force = .22542D-05 SwitMx=.10000D-02 MixMth= 2
 Mixed Optimization -- En-DIIS/RFO-DIIS
 Swapping is turned off.
 Update second derivatives using D2CorX and points    1    2    3    4    5
                                                      6
 DE= -6.64D-09 DEPred=-6.49D-09 R= 1.02D+00
 Trust test= 1.02D+00 RLast= 4.40D-04 DXMaxT set to 3.00D-01
 ITU=  0  0  0  1  0  0
     Eigenvalues ---    0.02954   0.03330   0.04006   0.12882   0.15242
     Eigenvalues ---    0.16088   0.20676   0.21891   0.33504   0.36856
     Eigenvalues ---    0.37035   0.37280   0.40219   0.50047   0.54367
     Eigenvalues ---    0.660071000.000001000.000001000.000001000.00000
     Eigenvalues --- 1000.000001000.00000
 En-DIIS/RFO-DIIS IScMMF=        0 using points:     6    5    4    3
 RFO step:  Lambda=-1.32647205D-06.
 NNeg= 0 NP= 4 Switch=  2.50D-03 Rises=F DC=  6.56D-07 SmlDif=  1.00D-05
 RMS Error=  0.4385190984D-04 NUsed= 4 EDIIS=F
 DidBck=F Rises=F RFO-DIIS coefs:    1.06799   -0.05335   -0.01088   -0.00376
 Iteration  1 RMS(Cart)=  0.00001476 RMS(Int)=  0.00000006
 Iteration  2 RMS(Cart)=  0.00000000 RMS(Int)=  0.00000006
 Iteration  1 RMS(Cart)=  0.00000006 RMS(Int)=  0.00000003
 ITry= 1 IFail=0 DXMaxC= 2.51D-05 DCOld= 1.00D+10 DXMaxT= 3.00D-01 DXLimC= 3.00D+00 Rises=F
 Variable       Old X    -DE/DX   Delta X   Delta X   Delta X     New X
                                 (Linear)    (Quad)   (Total)
    R1        2.47992   0.00000   0.00000   0.00000   0.00000   2.47992
    R2        2.02154   0.00000   0.00000   0.00000   0.00000   2.02154
    R3        2.63333   0.00001   0.00000   0.00002   0.00002   2.63336
    R4        2.02124   0.00000   0.00000   0.00001   0.00001   2.02125
    R5        2.02584   0.00000   0.00000   0.00000   0.00000   2.02583
    R6        2.77106   0.00000   0.00000   0.00001   0.00001   2.77106
    R7        1.84005   0.00000   0.00000   0.00000   0.00000   1.84005
    A1        2.15353   0.00000   0.00001   0.00001   0.00002   2.15355
    A2        2.22244   0.00000   0.00000  -0.00002  -0.00002   2.22242
    A3        1.90695   0.00000   0.00000   0.00000   0.00000   1.90695
    A4        2.08924   0.00000   0.00000   0.00001   0.00001   2.08924
    A5        2.15740   0.00000   0.00000   0.00000   0.00000   2.15740
    A6        2.03581   0.00000   0.00000  -0.00001   0.00000   2.03581
    A7        1.99414   0.00000   0.00000   0.00000   0.00000   1.99414
    A8        1.83033   0.00000   0.00000   0.00001   0.00001   1.83033
    D1       -0.02895  -0.00013   0.00001  -0.00003  -0.00002  -0.02897
    D2        3.06994  -0.00013   0.00000  -0.00002  -0.00002   3.06992
    D3        3.13968   0.00013   0.00001   0.00000   0.00001   3.13969
    D4       -0.04462   0.00013   0.00000   0.00001   0.00001  -0.04461
    D5       -0.52360  -0.00051   0.00000   0.00000   0.00000  -0.52360
    D6        2.64191  -0.00028   0.00000   0.00002   0.00002   2.64193
    D7        0.00000  -0.00644   0.00000   0.00000   0.00000   0.00000
         Item               Value     Threshold  Converged?
 Maximum Force            0.000008     0.000015     YES
 RMS     Force            0.000002     0.000010     YES
 Maximum Displacement     0.000025     0.000060     YES
 RMS     Displacement     0.000015     0.000040     YES
 Predicted change in Energy=-2.293828D-10
 Optimization completed.
    -- Stationary point found.
                           ----------------------------
                           !   Optimized Parameters   !
                           ! (Angstroms and Degrees)  !
 --------------------------                            --------------------------
 ! Name  Definition              Value          Derivative Info.                !
 --------------------------------------------------------------------------------
 ! R1    R(1,2)                  1.3123         -DE/DX =    0.0                 !
 ! R2    R(1,3)                  1.0698         -DE/DX =    0.0                 !
 ! R3    R(1,6)                  1.3935         -DE/DX =    0.0                 !
 ! R4    R(2,4)                  1.0696         -DE/DX =    0.0                 !
 ! R5    R(2,5)                  1.072          -DE/DX =    0.0                 !
 ! R6    R(6,7)                  1.4664         -DE/DX =    0.0                 !
 ! R7    R(7,8)                  0.9737         -DE/DX =    0.0                 !
 ! A1    A(2,1,3)              123.3883         -DE/DX =    0.0                 !
 ! A2    A(2,1,6)              127.3365         -DE/DX =    0.0                 !
 ! A3    A(3,1,6)              109.2604         -DE/DX =    0.0                 !
 ! A4    A(1,2,4)              119.7044         -DE/DX =    0.0                 !
 ! A5    A(1,2,5)              123.61           -DE/DX =    0.0                 !
 ! A6    A(4,2,5)              116.6433         -DE/DX =    0.0                 !
 ! A7    A(1,6,7)              114.2559         -DE/DX =    0.0                 !
 ! A8    A(6,7,8)              104.87           -DE/DX =    0.0                 !
 ! D1    D(3,1,2,4)             -1.6586         -DE/DX =   -0.0001              !
 ! D2    D(3,1,2,5)            175.8946         -DE/DX =   -0.0001              !
 ! D3    D(6,1,2,4)            179.8905         -DE/DX =    0.0001              !
 ! D4    D(6,1,2,5)             -2.5563         -DE/DX =    0.0001              !
 ! D5    D(2,1,6,7)            -30.0            -DE/DX =   -0.0005              !
 ! D6    D(3,1,6,7)            151.3701         -DE/DX =   -0.0003              !
 ! D7    D(1,6,7,8)              0.0            -DE/DX =   -0.0064              !
 --------------------------------------------------------------------------------
 Lowest energy point so far.  Saving SCF results.
 GradGradGradGradGradGradGradGradGradGradGradGradGradGradGradGradGradGrad

 Largest change from initial coordinates is atom    8       0.026 Angstoms.
 Leave Link  103 at Fri Apr 12 14:56:23 2019, MaxMem=   134217728 cpu:         0.0
 (Enter /cm/shared/c3ddb/gaussian/09.d01/g09/l202.exe)
                          Input orientation:                          
 ---------------------------------------------------------------------
 Center     Atomic      Atomic             Coordinates (Angstroms)
 Number     Number       Type             X           Y           Z
 ---------------------------------------------------------------------
      1          6           0        0.739187    0.576732    0.022254
      2          6           0        1.447659   -0.527901    0.016217
      3          1           0        1.171762    1.553217    0.083339
      4          1           0        2.515380   -0.472937    0.047640
      5          1           0        1.016522   -1.509407    0.019065
      6          8           0       -0.649117    0.690588   -0.016358
      7          8           0       -1.323094   -0.397354   -0.732184
      8          1           0       -0.604467   -0.981699   -1.032569
 ---------------------------------------------------------------------
                    Distance matrix (angstroms):
                    1          2          3          4          5
     1  C    0.000000
     2  C    1.312320   0.000000
     3  H    1.069755   2.100399   0.000000
     4  H    2.063325   1.069597   2.431436   0.000000
     5  H    2.104496   1.072027   3.067229   1.822543   0.000000
     6  O    1.393500   2.425334   2.017342   3.372228   2.759635
     7  O    2.402295   2.873015   3.270185   3.917616   2.697191
     8  H    2.312308   2.348852   3.290295   3.340530   2.003002
                    6          7          8
     6  O    0.000000
     7  O    1.466380   0.000000
     8  H    1.957351   0.973711   0.000000
 Symmetry turned off by external request.
 Stoichiometry    C2H4O2
 Framework group  C1[X(C2H4O2)]
 Deg. of freedom    18
 Full point group                 C1      NOp   1
 Rotational constants (GHZ):     19.1805918      6.2731849      4.8210839
 Leave Link  202 at Fri Apr 12 14:56:23 2019, MaxMem=   134217728 cpu:         0.0
 (Enter /cm/shared/c3ddb/gaussian/09.d01/g09/l601.exe)
 Copying SCF densities to generalized density rwf, IOpCl= 0 IROHF=0.

 **********************************************************************

            Population analysis using the SCF density.

 **********************************************************************

 Alpha  occ. eigenvalues --  -20.54340 -20.53096 -11.26510 -11.18674  -1.48177
 Alpha  occ. eigenvalues --   -1.24754  -1.05514  -0.81436  -0.73331  -0.68187
 Alpha  occ. eigenvalues --   -0.63514  -0.59021  -0.54888  -0.54368  -0.48194
 Alpha  occ. eigenvalues --   -0.37703
 Alpha virt. eigenvalues --    0.16222   0.22308   0.27225   0.28141   0.33762
 Alpha virt. eigenvalues --    0.36715   0.49647   0.58209   0.87637   0.95379
 Alpha virt. eigenvalues --    1.01083   1.05157   1.07831   1.11062   1.23178
 Alpha virt. eigenvalues --    1.30685   1.35970   1.53281   1.58494   1.71511
 Alpha virt. eigenvalues --    1.80998   1.89060   1.93542   1.95308   2.11190
 Alpha virt. eigenvalues --    2.32882   3.04036   3.53065
          Condensed to atoms (all electrons):
               1          2          3          4          5          6
     1  C    4.926159   0.433545   0.387482  -0.036790  -0.057456   0.245078
     2  C    0.433545   5.435393  -0.055229   0.379241   0.395495  -0.057379
     3  H    0.387482  -0.055229   0.427538   0.000141   0.001696  -0.034304
     4  H   -0.036790   0.379241   0.000141   0.429367  -0.015156   0.001241
     5  H   -0.057456   0.395495   0.001696  -0.015156   0.449821  -0.002732
     6  O    0.245078  -0.057379  -0.034304   0.001241  -0.002732   8.132090
     7  O   -0.033404  -0.003066   0.001464   0.000102   0.001866   0.131531
     8  H   -0.005453   0.008053   0.000180  -0.000050   0.003273  -0.026221
               7          8
     1  C   -0.033404  -0.005453
     2  C   -0.003066   0.008053
     3  H    0.001464   0.000180
     4  H    0.000102  -0.000050
     5  H    0.001866   0.003273
     6  O    0.131531  -0.026221
     7  O    8.032030   0.233076
     8  H    0.233076   0.375151
 Mulliken charges:
               1
     1  C    0.140839
     2  C   -0.536053
     3  H    0.271031
     4  H    0.241904
     5  H    0.223193
     6  O   -0.389305
     7  O   -0.363599
     8  H    0.411989
 Sum of Mulliken charges =   0.00000
 Mulliken charges with hydrogens summed into heavy atoms:
               1
     1  C    0.411870
     2  C   -0.070956
     6  O   -0.389305
     7  O    0.048391
 Electronic spatial extent (au):  <R**2>=            275.2775
 Charge=              0.0000 electrons
 Dipole moment (field-independent basis, Debye):
    X=              3.1699    Y=             -1.1419    Z=             -0.6271  Tot=              3.4272
 Quadrupole moment (field-independent basis, Debye-Ang):
   XX=            -25.7939   YY=            -20.4771   ZZ=            -24.6384
   XY=              1.8192   XZ=             -0.4475   YZ=              1.6677
 Traceless Quadrupole moment (field-independent basis, Debye-Ang):
   XX=             -2.1574   YY=              3.1594   ZZ=             -1.0019
   XY=              1.8192   XZ=             -0.4475   YZ=              1.6677
 Octapole moment (field-independent basis, Debye-Ang**2):
  XXX=             -1.1379  YYY=             -3.8169  ZZZ=             11.2836  XYY=             -1.5471
  XXY=              0.0674  XXZ=              6.6546  XZZ=             -6.1100  YZZ=             -2.3370
  YYZ=              2.5378  XYZ=             -0.5362
 Hexadecapole moment (field-independent basis, Debye-Ang**3):
 XXXX=           -198.4005 YYYY=            -70.5072 ZZZZ=            -40.7019 XXXY=              3.2357
 XXXZ=            -20.2331 YYYX=             10.5882 YYYZ=             -3.0529 ZZZX=            -17.7546
 ZZZY=             -3.6792 XXYY=            -45.9799 XXZZ=            -47.0437 YYZZ=            -18.5084
 XXYZ=             -2.0256 YYXZ=             -4.0320 ZZXY=              3.7552
 N-N= 1.185172176930D+02 E-N=-7.699577000083D+02  KE= 2.255931608112D+02
 No NMR shielding tensors so no spin-rotation constants.
 Leave Link  601 at Fri Apr 12 14:56:23 2019, MaxMem=   134217728 cpu:         0.1
 (Enter /cm/shared/c3ddb/gaussian/09.d01/g09/l9999.exe)
 1\1\GINC-NODE029\FOpt\RHF\3-21G\C2H4O2\MATTSJ\12-Apr-2019\0\\#p hf 3-2
 1g scf=tight NoSymmetry guess=read opt=(tight,modredundant)\\Geometry 
 optimization at the 2D-PES\\0,1\C,0.7391874816,0.5767323075,0.02225353
 82\C,1.447658727,-0.5279010867,0.0162167148\H,1.1717624141,1.553216911
 4,0.083339352\H,2.515379945,-0.4729368596,0.0476402583\H,1.0165219381,
 -1.5094070362,0.0190652348\O,-0.6491166632,0.6905878797,-0.0163579823\
 O,-1.3230935333,-0.397354195,-0.7321837468\H,-0.6044673094,-0.98169892
 11,-1.032569369\\Version=AS64L-G09RevD.01\HF=-226.3821142\RMSD=4.892e-
 09\RMSF=1.526e-03\Dipole=1.2471544,-0.4492653,-0.2467089\Quadrupole=-1
 .604007,2.3489008,-0.7448937,1.3525584,-0.3327128,1.2398713\PG=C01 [X(
 C2H4O2)]\\@


 The best way to pay for a lovely moment is to enjoy it.
 -- Richard Bach
 Job cpu time:       0 days  0 hours  0 minutes 10.6 seconds.
 File lengths (MBytes):  RWF=      5 Int=      0 D2E=      0 Chk=      1 Scr=      1
 Normal termination of Gaussian 09 at Fri Apr 12 14:56:23 2019.
