 Entering Gaussian System, Link 0=/cm/shared/c3ddb/gaussian/09.d01/g09/g09
 Initial command:
 /cm/shared/c3ddb/gaussian/09.d01/g09/l1.exe "/scratch/users/mattsj/g09/S02-7952157/Gau-42659.inp" -scrdir="/scratch/users/mattsj/g09/S02-7952157/"
 Entering Link 1 = /cm/shared/c3ddb/gaussian/09.d01/g09/l1.exe PID=     42660.
  
 Copyright (c) 1988,1990,1992,1993,1995,1998,2003,2009,2013,
            Gaussian, Inc.  All Rights Reserved.
  
 This is part of the Gaussian(R) 09 program.  It is based on
 the Gaussian(R) 03 system (copyright 2003, Gaussian, Inc.),
 the Gaussian(R) 98 system (copyright 1998, Gaussian, Inc.),
 the Gaussian(R) 94 system (copyright 1995, Gaussian, Inc.),
 the Gaussian 92(TM) system (copyright 1992, Gaussian, Inc.),
 the Gaussian 90(TM) system (copyright 1990, Gaussian, Inc.),
 the Gaussian 88(TM) system (copyright 1988, Gaussian, Inc.),
 the Gaussian 86(TM) system (copyright 1986, Carnegie Mellon
 University), and the Gaussian 82(TM) system (copyright 1983,
 Carnegie Mellon University). Gaussian is a federally registered
 trademark of Gaussian, Inc.
  
 This software contains proprietary and confidential information,
 including trade secrets, belonging to Gaussian, Inc.
  
 This software is provided under written license and may be
 used, copied, transmitted, or stored only in accord with that
 written license.
  
 The following legend is applicable only to US Government
 contracts under FAR:
  
                    RESTRICTED RIGHTS LEGEND
  
 Use, reproduction and disclosure by the US Government is
 subject to restrictions as set forth in subparagraphs (a)
 and (c) of the Commercial Computer Software - Restricted
 Rights clause in FAR 52.227-19.
  
 Gaussian, Inc.
 340 Quinnipiac St., Bldg. 40, Wallingford CT 06492
  
  
 ---------------------------------------------------------------
 Warning -- This program may not be used in any manner that
 competes with the business of Gaussian, Inc. or will provide
 assistance to any competitor of Gaussian, Inc.  The licensee
 of this program is prohibited from giving any competitor of
 Gaussian, Inc. access to this program.  By using this program,
 the user acknowledges that Gaussian, Inc. is engaged in the
 business of creating and licensing software in the field of
 computational chemistry and represents and warrants to the
 licensee that it is not a competitor of Gaussian, Inc. and that
 it will not use this program in any manner prohibited above.
 ---------------------------------------------------------------
  

 Cite this work as:
 Gaussian 09, Revision D.01,
 M. J. Frisch, G. W. Trucks, H. B. Schlegel, G. E. Scuseria, 
 M. A. Robb, J. R. Cheeseman, G. Scalmani, V. Barone, B. Mennucci, 
 G. A. Petersson, H. Nakatsuji, M. Caricato, X. Li, H. P. Hratchian, 
 A. F. Izmaylov, J. Bloino, G. Zheng, J. L. Sonnenberg, M. Hada, 
 M. Ehara, K. Toyota, R. Fukuda, J. Hasegawa, M. Ishida, T. Nakajima, 
 Y. Honda, O. Kitao, H. Nakai, T. Vreven, J. A. Montgomery, Jr., 
 J. E. Peralta, F. Ogliaro, M. Bearpark, J. J. Heyd, E. Brothers, 
 K. N. Kudin, V. N. Staroverov, T. Keith, R. Kobayashi, J. Normand, 
 K. Raghavachari, A. Rendell, J. C. Burant, S. S. Iyengar, J. Tomasi, 
 M. Cossi, N. Rega, J. M. Millam, M. Klene, J. E. Knox, J. B. Cross, 
 V. Bakken, C. Adamo, J. Jaramillo, R. Gomperts, R. E. Stratmann, 
 O. Yazyev, A. J. Austin, R. Cammi, C. Pomelli, J. W. Ochterski, 
 R. L. Martin, K. Morokuma, V. G. Zakrzewski, G. A. Voth, 
 P. Salvador, J. J. Dannenberg, S. Dapprich, A. D. Daniels, 
 O. Farkas, J. B. Foresman, J. V. Ortiz, J. Cioslowski, 
 and D. J. Fox, Gaussian, Inc., Wallingford CT, 2013.
 
 ******************************************
 Gaussian 09:  AS64L-G09RevD.01 24-Apr-2013
                12-Apr-2019 
 ******************************************
 %nproc=1
 Will use up to    1 processors via shared memory.
 %mem=1GB
 %chk=TMP_CALCS/scangeom_S02_190_120.chk
 --------------------------------------------------------------------
 #p hf 3-21g scf=tight NoSymmetry guess=read opt=(tight,modredundant)
 --------------------------------------------------------------------
 1/7=10,18=120,19=15,38=1/1,3;
 2/9=110,12=2,15=1,17=6,18=5,40=1/2;
 3/5=5,11=9,16=1,25=1,30=1,71=1,116=-2/1,2,3;
 4/5=1/1;
 5/5=2,32=2,38=6/2;
 6/7=2,8=2,9=2,10=2,28=1/1;
 7/30=1/1,2,3,16;
 1/7=10,18=20,19=15/3(2);
 2/9=110,15=1/2;
 99//99;
 2/9=110,15=1/2;
 3/5=5,11=9,16=1,25=1,30=1,71=1/1,2,3;
 4/5=5,16=3,69=1/1;
 5/5=2,32=2,38=5/2;
 7/30=1/1,2,3,16;
 1/7=10,18=20,19=15/3(-5);
 2/9=110,15=1/2;
 6/7=2,8=2,9=2,10=2,19=2,28=1/1;
 99/9=1/99;
 Leave Link    1 at Fri Apr 12 15:36:23 2019, MaxMem=   134217728 cpu:         0.1
 (Enter /cm/shared/c3ddb/gaussian/09.d01/g09/l101.exe)
 -----------------------------------
 Geometry optimization at the 2D-PES
 -----------------------------------
 Symbolic Z-matrix:
 Charge =  0 Multiplicity = 1
 C                     0.73115   0.63668   0.02901 
 C                     1.37058  -0.50485  -0.01416 
 H                     1.18917   1.59894   0.09596 
 H                     2.44014  -0.52454   0.01728 
 H                     0.84892  -1.43834  -0.07184 
 O                    -0.67199   0.67536   0.03372 
 O                    -1.07054   2.06834  -0.15686 
 H                    -1.58599   2.00033  -0.97921 
 
 The following ModRedundant input section has been read:
 D       2       1       6       7 F                                           
 D       1       6       7       8 F                                           
 
 NAtoms=      8 NQM=        8 NQMF=       0 NMMI=      0 NMMIF=      0
                NMic=       0 NMicF=      0.
                    Isotopes and Nuclear Properties:
 (Nuclear quadrupole moments (NQMom) in fm**2, nuclear magnetic moments (NMagM)
  in nuclear magnetons)

  Atom         1           2           3           4           5           6           7           8
 IAtWgt=          12          12           1           1           1          16          16           1
 AtmWgt=  12.0000000  12.0000000   1.0078250   1.0078250   1.0078250  15.9949146  15.9949146   1.0078250
 NucSpn=           0           0           1           1           1           0           0           1
 AtZEff=   0.0000000   0.0000000   0.0000000   0.0000000   0.0000000   0.0000000   0.0000000   0.0000000
 NQMom=    0.0000000   0.0000000   0.0000000   0.0000000   0.0000000   0.0000000   0.0000000   0.0000000
 NMagM=    0.0000000   0.0000000   2.7928460   2.7928460   2.7928460   0.0000000   0.0000000   2.7928460
 AtZNuc=   6.0000000   6.0000000   1.0000000   1.0000000   1.0000000   8.0000000   8.0000000   1.0000000
 Leave Link  101 at Fri Apr 12 15:36:23 2019, MaxMem=   134217728 cpu:         0.5
 (Enter /cm/shared/c3ddb/gaussian/09.d01/g09/l103.exe)

 GradGradGradGradGradGradGradGradGradGradGradGradGradGradGradGradGradGrad
 Berny optimization.
 Initialization pass.
                           ----------------------------
                           !    Initial Parameters    !
                           ! (Angstroms and Degrees)  !
 --------------------------                            --------------------------
 ! Name  Definition              Value          Derivative Info.                !
 --------------------------------------------------------------------------------
 ! R1    R(1,2)                  1.3091         estimate D2E/DX2                !
 ! R2    R(1,3)                  1.0678         estimate D2E/DX2                !
 ! R3    R(1,6)                  1.4037         estimate D2E/DX2                !
 ! R4    R(2,4)                  1.0702         estimate D2E/DX2                !
 ! R5    R(2,5)                  1.0709         estimate D2E/DX2                !
 ! R6    R(6,7)                  1.4614         estimate D2E/DX2                !
 ! R7    R(7,8)                  0.9729         estimate D2E/DX2                !
 ! A1    A(2,1,3)              125.3336         estimate D2E/DX2                !
 ! A2    A(2,1,6)              120.8231         estimate D2E/DX2                !
 ! A3    A(3,1,6)              113.8121         estimate D2E/DX2                !
 ! A4    A(1,2,4)              120.2135         estimate D2E/DX2                !
 ! A5    A(1,2,5)              121.596          estimate D2E/DX2                !
 ! A6    A(4,2,5)              118.188          estimate D2E/DX2                !
 ! A7    A(1,6,7)              107.3643         estimate D2E/DX2                !
 ! A8    A(6,7,8)              100.8412         estimate D2E/DX2                !
 ! D1    D(3,1,2,4)             -0.016          estimate D2E/DX2                !
 ! D2    D(3,1,2,5)            179.396          estimate D2E/DX2                !
 ! D3    D(6,1,2,4)           -177.8527         estimate D2E/DX2                !
 ! D4    D(6,1,2,5)              1.5592         estimate D2E/DX2                !
 ! D5    D(2,1,6,7)           -170.0            Frozen                          !
 ! D6    D(3,1,6,7)             11.9289         estimate D2E/DX2                !
 ! D7    D(1,6,7,8)            120.0            Frozen                          !
 --------------------------------------------------------------------------------
 Trust Radius=3.00D-01 FncErr=1.00D-07 GrdErr=1.00D-07
 Number of steps in this run=     32 maximum allowed number of steps=    100.
 GradGradGradGradGradGradGradGradGradGradGradGradGradGradGradGradGradGrad

 Leave Link  103 at Fri Apr 12 15:36:23 2019, MaxMem=   134217728 cpu:         0.0
 (Enter /cm/shared/c3ddb/gaussian/09.d01/g09/l202.exe)
                          Input orientation:                          
 ---------------------------------------------------------------------
 Center     Atomic      Atomic             Coordinates (Angstroms)
 Number     Number       Type             X           Y           Z
 ---------------------------------------------------------------------
      1          6           0        0.731145    0.636680    0.029009
      2          6           0        1.370578   -0.504848   -0.014161
      3          1           0        1.189174    1.598938    0.095957
      4          1           0        2.440139   -0.524540    0.017278
      5          1           0        0.848920   -1.438336   -0.071842
      6          8           0       -0.671990    0.675355    0.033723
      7          8           0       -1.070541    2.068340   -0.156856
      8          1           0       -1.585994    2.000331   -0.979207
 ---------------------------------------------------------------------
                    Distance matrix (angstroms):
                    1          2          3          4          5
     1  C    0.000000
     2  C    1.309131   0.000000
     3  H    1.067808   2.114462   0.000000
     4  H    2.066212   1.070204   2.465819   0.000000
     5  H    2.080801   1.070913   3.060876   1.837102   0.000000
     6  O    1.403676   2.359503   2.078656   3.335471   2.606147
     7  O    2.308737   3.549749   2.321759   4.367863   3.998542
     8  H    2.871442   3.993564   3.003107   4.855688   4.310052
                    6          7          8
     6  O    0.000000
     7  O    1.461359   0.000000
     8  H    1.901839   0.972922   0.000000
 Symmetry turned off by external request.
 Stoichiometry    C2H4O2
 Framework group  C1[X(C2H4O2)]
 Deg. of freedom    18
 Full point group                 C1      NOp   1
 Rotational constants (GHZ):     42.9710887      4.5400527      4.1718955
 Leave Link  202 at Fri Apr 12 15:36:23 2019, MaxMem=   134217728 cpu:         0.0
 (Enter /cm/shared/c3ddb/gaussian/09.d01/g09/l301.exe)
 Standard basis: 3-21G (6D, 7F)
 Ernie: Thresh=  0.10000D-02 Tol=  0.10000D-05 Strict=F.
    44 basis functions,    72 primitive gaussians,    44 cartesian basis functions
    16 alpha electrons       16 beta electrons
       nuclear repulsion energy       116.5577603741 Hartrees.
 IExCor=    0 DFT=F Ex=HF Corr=None ExCW=0 ScaHFX=  1.000000
 ScaDFX=  1.000000  1.000000  1.000000  1.000000 ScalE2=  1.000000  1.000000
 IRadAn=      0 IRanWt=     -1 IRanGd=            0 ICorTp=0 IEmpDi=  4
 NAtoms=    8 NActive=    8 NUniq=    8 SFac= 1.00D+00 NAtFMM=   60 NAOKFM=F Big=F
 Integral buffers will be    131072 words long.
 Raffenetti 1 integral format.
 Two-electron integral symmetry is turned off.
 Leave Link  301 at Fri Apr 12 15:36:24 2019, MaxMem=   134217728 cpu:         0.3
 (Enter /cm/shared/c3ddb/gaussian/09.d01/g09/l302.exe)
 NPDir=0 NMtPBC=     1 NCelOv=     1 NCel=       1 NClECP=     1 NCelD=      1
         NCelK=      1 NCelE2=     1 NClLst=     1 CellRange=     0.0.
 One-electron integrals computed using PRISM.
 NBasis=    44 RedAO= T EigKep=  1.13D-02  NBF=    44
 NBsUse=    44 1.00D-06 EigRej= -1.00D+00 NBFU=    44
 Leave Link  302 at Fri Apr 12 15:36:24 2019, MaxMem=   134217728 cpu:         0.3
 (Enter /cm/shared/c3ddb/gaussian/09.d01/g09/l303.exe)
 DipDrv:  MaxL=1.
 Leave Link  303 at Fri Apr 12 15:36:25 2019, MaxMem=   134217728 cpu:         0.1
 (Enter /cm/shared/c3ddb/gaussian/09.d01/g09/l401.exe)
 Initial guess from the checkpoint file:  "TMP_CALCS/scangeom_S02_190_120.chk"
 B after Tr=    -0.003487   -0.001152    0.016877
         Rot=    0.999974    0.003880   -0.006019   -0.001259 Ang=   0.83 deg.
 Guess basis will be translated and rotated to current coordinates.
 JPrj=2 DoOrth=T DoCkMO=T.
 Leave Link  401 at Fri Apr 12 15:36:25 2019, MaxMem=   134217728 cpu:         0.4
 (Enter /cm/shared/c3ddb/gaussian/09.d01/g09/l502.exe)
 Closed shell SCF:
 Using DIIS extrapolation, IDIIS=  1040.
 Two-electron integral symmetry not used.
 Keep R1 ints in memory in canonical form, NReq=1327190.
 IVT=       24902 IEndB=       24902 NGot=   134217728 MDV=   133702282
 LenX=   133702282 LenY=   133699905
 Requested convergence on RMS density matrix=1.00D-08 within 128 cycles.
 Requested convergence on MAX density matrix=1.00D-06.
 Requested convergence on             energy=1.00D-06.
 No special actions if energy rises.
 FoFCou: FMM=F IPFlag=           0 FMFlag=           0 FMFlg1=           0
         NFxFlg=           0 DoJE=F BraDBF=F KetDBF=F FulRan=T
         wScrn=  0.000000 ICntrl=     600 IOpCl=  0 I1Cent=           0 NGrid=           0
         NMat0=    1 NMatS0=    990 NMatT0=    0 NMatD0=    1 NMtDS0=    0 NMtDT0=    0
 Symmetry not used in FoFCou.

 Cycle   1  Pass 1  IDiag  1:
 E= -226.392022580217    
 DIIS: error= 6.67D-03 at cycle   1 NSaved=   1.
 NSaved= 1 IEnMin= 1 EnMin= -226.392022580217     IErMin= 1 ErrMin= 6.67D-03
 ErrMax= 6.67D-03  0.00D+00 EMaxC= 1.00D-01 BMatC= 1.76D-03 BMatP= 1.76D-03
 IDIUse=3 WtCom= 9.33D-01 WtEn= 6.67D-02
 Coeff-Com:  0.100D+01
 Coeff-En:   0.100D+01
 Coeff:      0.100D+01
 Gap=     0.553 Goal=   None    Shift=    0.000
 GapD=    0.553 DampG=2.000 DampE=1.000 DampFc=2.0000 IDamp=-1.
 RMSDP=1.10D-03 MaxDP=1.46D-02              OVMax= 1.47D-02

 Cycle   2  Pass 1  IDiag  1:
 E= -226.394780302553     Delta-E=       -0.002757722336 Rises=F Damp=F
 DIIS: error= 3.07D-03 at cycle   2 NSaved=   2.
 NSaved= 2 IEnMin= 2 EnMin= -226.394780302553     IErMin= 2 ErrMin= 3.07D-03
 ErrMax= 3.07D-03  0.00D+00 EMaxC= 1.00D-01 BMatC= 1.72D-04 BMatP= 1.76D-03
 IDIUse=3 WtCom= 9.69D-01 WtEn= 3.07D-02
 Coeff-Com: -0.338D+00 0.134D+01
 Coeff-En:   0.000D+00 0.100D+01
 Coeff:     -0.327D+00 0.133D+01
 Gap=     0.552 Goal=   None    Shift=    0.000
 RMSDP=5.79D-04 MaxDP=5.52D-03 DE=-2.76D-03 OVMax= 1.03D-02

 Cycle   3  Pass 1  IDiag  1:
 E= -226.395241112507     Delta-E=       -0.000460809954 Rises=F Damp=F
 DIIS: error= 9.16D-04 at cycle   3 NSaved=   3.
 NSaved= 3 IEnMin= 3 EnMin= -226.395241112507     IErMin= 3 ErrMin= 9.16D-04
 ErrMax= 9.16D-04  0.00D+00 EMaxC= 1.00D-01 BMatC= 1.52D-05 BMatP= 1.72D-04
 IDIUse=3 WtCom= 9.91D-01 WtEn= 9.16D-03
 Coeff-Com:  0.624D-01-0.392D+00 0.133D+01
 Coeff-En:   0.000D+00 0.000D+00 0.100D+01
 Coeff:      0.618D-01-0.389D+00 0.133D+01
 Gap=     0.553 Goal=   None    Shift=    0.000
 RMSDP=2.21D-04 MaxDP=3.15D-03 DE=-4.61D-04 OVMax= 4.31D-03

 Cycle   4  Pass 1  IDiag  1:
 E= -226.395289539758     Delta-E=       -0.000048427251 Rises=F Damp=F
 DIIS: error= 2.90D-04 at cycle   4 NSaved=   4.
 NSaved= 4 IEnMin= 4 EnMin= -226.395289539758     IErMin= 4 ErrMin= 2.90D-04
 ErrMax= 2.90D-04  0.00D+00 EMaxC= 1.00D-01 BMatC= 3.62D-06 BMatP= 1.52D-05
 IDIUse=3 WtCom= 9.97D-01 WtEn= 2.90D-03
 Coeff-Com:  0.812D-01-0.370D+00 0.439D+00 0.850D+00
 Coeff-En:   0.000D+00 0.000D+00 0.000D+00 0.100D+01
 Coeff:      0.809D-01-0.369D+00 0.438D+00 0.850D+00
 Gap=     0.552 Goal=   None    Shift=    0.000
 RMSDP=8.11D-05 MaxDP=1.11D-03 DE=-4.84D-05 OVMax= 1.54D-03

 Cycle   5  Pass 1  IDiag  1:
 E= -226.395295740672     Delta-E=       -0.000006200914 Rises=F Damp=F
 DIIS: error= 4.96D-05 at cycle   5 NSaved=   5.
 NSaved= 5 IEnMin= 5 EnMin= -226.395295740672     IErMin= 5 ErrMin= 4.96D-05
 ErrMax= 4.96D-05  0.00D+00 EMaxC= 1.00D-01 BMatC= 1.26D-07 BMatP= 3.62D-06
 IDIUse=1 WtCom= 1.00D+00 WtEn= 0.00D+00
 Coeff-Com: -0.385D-02 0.284D-01-0.114D+00 0.318D-01 0.106D+01
 Coeff:     -0.385D-02 0.284D-01-0.114D+00 0.318D-01 0.106D+01
 Gap=     0.552 Goal=   None    Shift=    0.000
 RMSDP=1.78D-05 MaxDP=2.26D-04 DE=-6.20D-06 OVMax= 3.23D-04

 Cycle   6  Pass 1  IDiag  1:
 E= -226.395295998748     Delta-E=       -0.000000258076 Rises=F Damp=F
 DIIS: error= 1.87D-05 at cycle   6 NSaved=   6.
 NSaved= 6 IEnMin= 6 EnMin= -226.395295998748     IErMin= 6 ErrMin= 1.87D-05
 ErrMax= 1.87D-05  0.00D+00 EMaxC= 1.00D-01 BMatC= 1.27D-08 BMatP= 1.26D-07
 IDIUse=1 WtCom= 1.00D+00 WtEn= 0.00D+00
 Coeff-Com: -0.377D-02 0.195D-01-0.392D-01-0.251D-01 0.199D+00 0.849D+00
 Coeff:     -0.377D-02 0.195D-01-0.392D-01-0.251D-01 0.199D+00 0.849D+00
 Gap=     0.552 Goal=   None    Shift=    0.000
 RMSDP=3.54D-06 MaxDP=2.50D-05 DE=-2.58D-07 OVMax= 7.35D-05

 Cycle   7  Pass 1  IDiag  1:
 E= -226.395296026035     Delta-E=       -0.000000027287 Rises=F Damp=F
 DIIS: error= 1.24D-05 at cycle   7 NSaved=   7.
 NSaved= 7 IEnMin= 7 EnMin= -226.395296026035     IErMin= 7 ErrMin= 1.24D-05
 ErrMax= 1.24D-05  0.00D+00 EMaxC= 1.00D-01 BMatC= 3.13D-09 BMatP= 1.27D-08
 IDIUse=1 WtCom= 1.00D+00 WtEn= 0.00D+00
 Coeff-Com:  0.209D-02-0.129D-01 0.395D-01 0.526D-03-0.333D+00-0.202D+00
 Coeff-Com:  0.151D+01
 Coeff:      0.209D-02-0.129D-01 0.395D-01 0.526D-03-0.333D+00-0.202D+00
 Coeff:      0.151D+01
 Gap=     0.552 Goal=   None    Shift=    0.000
 RMSDP=3.79D-06 MaxDP=3.30D-05 DE=-2.73D-08 OVMax= 8.70D-05

 Cycle   8  Pass 1  IDiag  1:
 E= -226.395296040078     Delta-E=       -0.000000014043 Rises=F Damp=F
 DIIS: error= 4.23D-06 at cycle   8 NSaved=   8.
 NSaved= 8 IEnMin= 8 EnMin= -226.395296040078     IErMin= 8 ErrMin= 4.23D-06
 ErrMax= 4.23D-06  0.00D+00 EMaxC= 1.00D-01 BMatC= 2.56D-10 BMatP= 3.13D-09
 IDIUse=1 WtCom= 1.00D+00 WtEn= 0.00D+00
 Coeff-Com:  0.434D-04 0.171D-03-0.259D-02 0.258D-02 0.363D-01-0.585D-01
 Coeff-Com: -0.277D+00 0.130D+01
 Coeff:      0.434D-04 0.171D-03-0.259D-02 0.258D-02 0.363D-01-0.585D-01
 Coeff:     -0.277D+00 0.130D+01
 Gap=     0.552 Goal=   None    Shift=    0.000
 RMSDP=1.25D-06 MaxDP=1.11D-05 DE=-1.40D-08 OVMax= 3.05D-05

 Cycle   9  Pass 1  IDiag  1:
 E= -226.395296041403     Delta-E=       -0.000000001324 Rises=F Damp=F
 DIIS: error= 1.50D-06 at cycle   9 NSaved=   9.
 NSaved= 9 IEnMin= 9 EnMin= -226.395296041403     IErMin= 9 ErrMin= 1.50D-06
 ErrMax= 1.50D-06  0.00D+00 EMaxC= 1.00D-01 BMatC= 3.21D-11 BMatP= 2.56D-10
 IDIUse=1 WtCom= 1.00D+00 WtEn= 0.00D+00
 Coeff-Com: -0.268D-03 0.163D-02-0.479D-02-0.265D-03 0.393D-01 0.275D-01
 Coeff-Com: -0.174D+00-0.103D+00 0.121D+01
 Coeff:     -0.268D-03 0.163D-02-0.479D-02-0.265D-03 0.393D-01 0.275D-01
 Coeff:     -0.174D+00-0.103D+00 0.121D+01
 Gap=     0.552 Goal=   None    Shift=    0.000
 RMSDP=4.37D-07 MaxDP=3.25D-06 DE=-1.32D-09 OVMax= 1.05D-05

 Cycle  10  Pass 1  IDiag  1:
 E= -226.395296041552     Delta-E=       -0.000000000150 Rises=F Damp=F
 DIIS: error= 4.97D-07 at cycle  10 NSaved=  10.
 NSaved=10 IEnMin=10 EnMin= -226.395296041552     IErMin=10 ErrMin= 4.97D-07
 ErrMax= 4.97D-07  0.00D+00 EMaxC= 1.00D-01 BMatC= 3.93D-12 BMatP= 3.21D-11
 IDIUse=1 WtCom= 1.00D+00 WtEn= 0.00D+00
 Coeff-Com:  0.892D-04-0.591D-03 0.197D-02-0.168D-03-0.184D-01-0.200D-02
 Coeff-Com:  0.961D-01-0.136D+00-0.338D+00 0.140D+01
 Coeff:      0.892D-04-0.591D-03 0.197D-02-0.168D-03-0.184D-01-0.200D-02
 Coeff:      0.961D-01-0.136D+00-0.338D+00 0.140D+01
 Gap=     0.552 Goal=   None    Shift=    0.000
 RMSDP=1.41D-07 MaxDP=1.07D-06 DE=-1.50D-10 OVMax= 2.59D-06

 Cycle  11  Pass 1  IDiag  1:
 E= -226.395296041570     Delta-E=       -0.000000000018 Rises=F Damp=F
 DIIS: error= 1.69D-07 at cycle  11 NSaved=  11.
 NSaved=11 IEnMin=11 EnMin= -226.395296041570     IErMin=11 ErrMin= 1.69D-07
 ErrMax= 1.69D-07  0.00D+00 EMaxC= 1.00D-01 BMatC= 4.67D-13 BMatP= 3.93D-12
 IDIUse=1 WtCom= 1.00D+00 WtEn= 0.00D+00
 Coeff-Com:  0.176D-04-0.978D-04 0.243D-03 0.101D-03-0.189D-02-0.280D-02
 Coeff-Com:  0.605D-02 0.265D-01-0.646D-01-0.196D+00 0.123D+01
 Coeff:      0.176D-04-0.978D-04 0.243D-03 0.101D-03-0.189D-02-0.280D-02
 Coeff:      0.605D-02 0.265D-01-0.646D-01-0.196D+00 0.123D+01
 Gap=     0.552 Goal=   None    Shift=    0.000
 RMSDP=4.11D-08 MaxDP=4.15D-07 DE=-1.75D-11 OVMax= 8.13D-07

 Cycle  12  Pass 1  IDiag  1:
 E= -226.395296041572     Delta-E=       -0.000000000002 Rises=F Damp=F
 DIIS: error= 7.03D-08 at cycle  12 NSaved=  12.
 NSaved=12 IEnMin=12 EnMin= -226.395296041572     IErMin=12 ErrMin= 7.03D-08
 ErrMax= 7.03D-08  0.00D+00 EMaxC= 1.00D-01 BMatC= 9.04D-14 BMatP= 4.67D-13
 IDIUse=1 WtCom= 1.00D+00 WtEn= 0.00D+00
 Coeff-Com: -0.202D-04 0.133D-03-0.444D-03 0.510D-04 0.410D-02 0.234D-03
 Coeff-Com: -0.214D-01 0.316D-01 0.690D-01-0.308D+00 0.584D-01 0.117D+01
 Coeff:     -0.202D-04 0.133D-03-0.444D-03 0.510D-04 0.410D-02 0.234D-03
 Coeff:     -0.214D-01 0.316D-01 0.690D-01-0.308D+00 0.584D-01 0.117D+01
 Gap=     0.552 Goal=   None    Shift=    0.000
 RMSDP=2.08D-08 MaxDP=2.15D-07 DE=-2.22D-12 OVMax= 3.88D-07

 Cycle  13  Pass 1  IDiag  1:
 E= -226.395296041573     Delta-E=       -0.000000000001 Rises=F Damp=F
 DIIS: error= 1.92D-08 at cycle  13 NSaved=  13.
 NSaved=13 IEnMin=13 EnMin= -226.395296041573     IErMin=13 ErrMin= 1.92D-08
 ErrMax= 1.92D-08  0.00D+00 EMaxC= 1.00D-01 BMatC= 7.64D-15 BMatP= 9.04D-14
 IDIUse=1 WtCom= 1.00D+00 WtEn= 0.00D+00
 Coeff-Com:  0.585D-05-0.394D-04 0.140D-03-0.350D-04-0.127D-02 0.113D-03
 Coeff-Com:  0.703D-02-0.142D-01-0.168D-01 0.129D+00-0.178D+00-0.353D+00
 Coeff-Com:  0.143D+01
 Coeff:      0.585D-05-0.394D-04 0.140D-03-0.350D-04-0.127D-02 0.113D-03
 Coeff:      0.703D-02-0.142D-01-0.168D-01 0.129D+00-0.178D+00-0.353D+00
 Coeff:      0.143D+01
 Gap=     0.552 Goal=   None    Shift=    0.000
 RMSDP=6.82D-09 MaxDP=6.70D-08 DE=-5.12D-13 OVMax= 1.25D-07

 SCF Done:  E(RHF) =  -226.395296042     A.U. after   13 cycles
            NFock= 13  Conv=0.68D-08     -V/T= 2.0035
 KE= 2.256080102097D+02 PE=-7.664164620671D+02 EE= 1.978553954418D+02
 Leave Link  502 at Fri Apr 12 15:36:26 2019, MaxMem=   134217728 cpu:         0.4
 (Enter /cm/shared/c3ddb/gaussian/09.d01/g09/l601.exe)
 Copying SCF densities to generalized density rwf, IOpCl= 0 IROHF=0.

 **********************************************************************

            Population analysis using the SCF density.

 **********************************************************************

 Alpha  occ. eigenvalues --  -20.53765 -20.52987 -11.24400 -11.16467  -1.48051
 Alpha  occ. eigenvalues --   -1.24049  -1.02840  -0.79846  -0.71678  -0.66625
 Alpha  occ. eigenvalues --   -0.64463  -0.59019  -0.55183  -0.50717  -0.48723
 Alpha  occ. eigenvalues --   -0.36069
 Alpha virt. eigenvalues --    0.19178   0.22529   0.27562   0.31943   0.34017
 Alpha virt. eigenvalues --    0.35894   0.49710   0.57652   0.90261   0.96937
 Alpha virt. eigenvalues --    1.00275   1.06321   1.10859   1.12566   1.22087
 Alpha virt. eigenvalues --    1.32620   1.37141   1.57973   1.59961   1.73689
 Alpha virt. eigenvalues --    1.81707   1.89837   1.94608   2.01832   2.04999
 Alpha virt. eigenvalues --    2.29000   3.06728   3.50107
          Condensed to atoms (all electrons):
               1          2          3          4          5          6
     1  C    4.884617   0.520302   0.364073  -0.047485  -0.051157   0.201638
     2  C    0.520302   5.301627  -0.042412   0.387929   0.390440  -0.050592
     3  H    0.364073  -0.042412   0.444160  -0.000770   0.002206  -0.034380
     4  H   -0.047485   0.387929  -0.000770   0.447370  -0.015286   0.001320
     5  H   -0.051157   0.390440   0.002206  -0.015286   0.436398  -0.000610
     6  O    0.201638  -0.050592  -0.034380   0.001320  -0.000610   8.197342
     7  O   -0.028668   0.002676   0.004001  -0.000026  -0.000017   0.118584
     8  H    0.000667  -0.000256  -0.000014   0.000003   0.000003  -0.023543
               7          8
     1  C   -0.028668   0.000667
     2  C    0.002676  -0.000256
     3  H    0.004001  -0.000014
     4  H   -0.000026   0.000003
     5  H   -0.000017   0.000003
     6  O    0.118584  -0.023543
     7  O    8.041957   0.243793
     8  H    0.243793   0.361694
 Mulliken charges:
               1
     1  C    0.156013
     2  C   -0.509714
     3  H    0.263137
     4  H    0.226945
     5  H    0.238024
     6  O   -0.409760
     7  O   -0.382300
     8  H    0.417654
 Sum of Mulliken charges =   0.00000
 Mulliken charges with hydrogens summed into heavy atoms:
               1
     1  C    0.419150
     2  C   -0.044745
     6  O   -0.409760
     7  O    0.035354
 Electronic spatial extent (au):  <R**2>=            369.6749
 Charge=              0.0000 electrons
 Dipole moment (field-independent basis, Debye):
    X=              0.6262    Y=              0.3108    Z=             -1.7881  Tot=              1.9199
 Quadrupole moment (field-independent basis, Debye-Ang):
   XX=            -20.2107   YY=            -22.1745   ZZ=            -23.5803
   XY=             -0.8019   XZ=              3.4310   YZ=             -3.4541
 Traceless Quadrupole moment (field-independent basis, Debye-Ang):
   XX=              1.7778   YY=             -0.1860   ZZ=             -1.5918
   XY=             -0.8019   XZ=              3.4310   YZ=             -3.4541
 Octapole moment (field-independent basis, Debye-Ang**2):
  XXX=            -12.9807  YYY=            -49.0954  ZZZ=              0.9162  XYY=             -5.4368
  XXY=            -10.1490  XXZ=             -4.0460  XZZ=             -9.7716  YZZ=            -11.5141
  YYZ=             -6.2789  XYZ=              6.6927
 Hexadecapole moment (field-independent basis, Debye-Ang**3):
 XXXX=           -161.2940 YYYY=           -221.4269 ZZZZ=            -22.9713 XXXY=             40.2581
 XXXZ=              4.8633 YYYX=             48.1746 YYYZ=             -8.1234 ZZZX=             -1.0257
 ZZZY=              2.3934 XXYY=            -54.7679 XXZZ=            -33.3361 YYZZ=            -33.6322
 XXYZ=             -8.2814 YYXZ=             11.8096 ZZXY=             11.4059
 N-N= 1.165577603741D+02 E-N=-7.664164622173D+02  KE= 2.256080102097D+02
 No NMR shielding tensors so no spin-rotation constants.
 Leave Link  601 at Fri Apr 12 15:36:26 2019, MaxMem=   134217728 cpu:         0.2
 (Enter /cm/shared/c3ddb/gaussian/09.d01/g09/l701.exe)
 Compute integral first derivatives.
 ... and contract with generalized density number  0.
 Leave Link  701 at Fri Apr 12 15:36:26 2019, MaxMem=   134217728 cpu:         0.2
 (Enter /cm/shared/c3ddb/gaussian/09.d01/g09/l702.exe)
 L702 exits ... SP integral derivatives will be done elsewhere.
 Leave Link  702 at Fri Apr 12 15:36:26 2019, MaxMem=   134217728 cpu:         0.1
 (Enter /cm/shared/c3ddb/gaussian/09.d01/g09/l703.exe)
 Compute integral first derivatives, UseDBF=F ICtDFT=           0.
 Integral derivatives from FoFJK, PRISM(SPDF).
 Calling FoFJK, ICntrl=      2127 FMM=F ISym2X=0 I1Cent= 0 IOpClX= 0 NMat=1 NMatS=1 NMatT=0.
 FoFJK:  IHMeth= 1 ICntrl=    2127 DoSepK=F KAlg= 0 I1Cent=   0 FoldK=F
 IRaf=         0 NMat=   1 IRICut=       1 DoRegI=T DoRafI=F ISym2E= 0.
 FoFCou: FMM=F IPFlag=           0 FMFlag=      100000 FMFlg1=         800
         NFxFlg=           0 DoJE=F BraDBF=F KetDBF=F FulRan=T
         wScrn=  0.000000 ICntrl=    2127 IOpCl=  0 I1Cent=           0 NGrid=           0
         NMat0=    1 NMatS0=      1 NMatT0=    0 NMatD0=    1 NMtDS0=    0 NMtDT0=    0
 Symmetry not used in FoFCou.
 Leave Link  703 at Fri Apr 12 15:36:27 2019, MaxMem=   134217728 cpu:         0.2
 (Enter /cm/shared/c3ddb/gaussian/09.d01/g09/l716.exe)
 Dipole        = 2.46366600D-01 1.22259092D-01-7.03499982D-01
 -------------------------------------------------------------------
 Center     Atomic                   Forces (Hartrees/Bohr)
 Number     Number              X              Y              Z
 -------------------------------------------------------------------
      1        6          -0.000956583    0.000905568    0.001470157
      2        6          -0.000069276   -0.000110348   -0.000395004
      3        1          -0.000084727    0.000006014   -0.000253118
      4        1          -0.000029166    0.000021918    0.000046057
      5        1           0.000026303   -0.000001571   -0.000076112
      6        8           0.000105020   -0.001359085   -0.001189252
      7        8           0.001408703    0.001592525   -0.000605566
      8        1          -0.000400275   -0.001055021    0.001002837
 -------------------------------------------------------------------
 Cartesian Forces:  Max     0.001592525 RMS     0.000779674
 Leave Link  716 at Fri Apr 12 15:36:27 2019, MaxMem=   134217728 cpu:         0.1
 (Enter /cm/shared/c3ddb/gaussian/09.d01/g09/l103.exe)

 GradGradGradGradGradGradGradGradGradGradGradGradGradGradGradGradGradGrad
 Berny optimization.
 FormGI is forming the generalized inverse of G from B-inverse, IUseBI=4.
 Internal  Forces:  Max     0.001879036 RMS     0.000739335
 Search for a local minimum.
 Step number   1 out of a maximum of   32
 All quantities printed in internal units (Hartrees-Bohrs-Radians)
 RMS Force = .63886D-03 SwitMx=.10000D-02 MixMth= 2
 Mixed Optimization -- En-DIIS/RFO-DIIS
 Second derivative matrix not updated -- first step.
 ITU=  0
     Eigenvalues ---    0.02563   0.03291   0.03291   0.15994   0.16000
     Eigenvalues ---    0.16000   0.16000   0.22001   0.25000   0.36795
     Eigenvalues ---    0.37115   0.37204   0.37509   0.45017   0.52784
     Eigenvalues ---    0.647201000.000001000.000001000.000001000.00000
     Eigenvalues --- 1000.000001000.00000
 RFO step:  Lambda=-3.85193957D-05 EMin= 2.56339381D-02
 Linear search not attempted -- first point.
 Iteration  1 RMS(Cart)=  0.00616341 RMS(Int)=  0.00001830
 Iteration  2 RMS(Cart)=  0.00002039 RMS(Int)=  0.00000216
 Iteration  3 RMS(Cart)=  0.00000000 RMS(Int)=  0.00000216
 Iteration  1 RMS(Cart)=  0.00000034 RMS(Int)=  0.00000016
 ITry= 1 IFail=0 DXMaxC= 1.72D-02 DCOld= 1.00D+10 DXMaxT= 3.00D-01 DXLimC= 3.00D+00 Rises=F
 Variable       Old X    -DE/DX   Delta X   Delta X   Delta X     New X
                                 (Linear)    (Quad)   (Total)
    R1        2.47390   0.00006   0.00000   0.00009   0.00009   2.47399
    R2        2.01786  -0.00005   0.00000  -0.00012  -0.00012   2.01774
    R3        2.65256  -0.00114   0.00000  -0.00253  -0.00253   2.65003
    R4        2.02239  -0.00003   0.00000  -0.00008  -0.00008   2.02232
    R5        2.02373  -0.00001   0.00000  -0.00002  -0.00002   2.02371
    R6        2.76157   0.00019   0.00000   0.00050   0.00050   2.76207
    R7        1.83856  -0.00056   0.00000  -0.00106  -0.00106   1.83749
    A1        2.18748   0.00012   0.00000   0.00074   0.00073   2.18822
    A2        2.10876  -0.00007   0.00000  -0.00030  -0.00030   2.10846
    A3        1.98640  -0.00004   0.00000  -0.00025  -0.00025   1.98614
    A4        2.09812  -0.00005   0.00000  -0.00030  -0.00030   2.09782
    A5        2.12225   0.00005   0.00000   0.00031   0.00031   2.12256
    A6        2.06277   0.00000   0.00000   0.00000   0.00000   2.06277
    A7        1.87386  -0.00186   0.00000  -0.00742  -0.00742   1.86644
    A8        1.76001  -0.00173   0.00000  -0.01078  -0.01078   1.74923
    D1       -0.00028   0.00024   0.00000   0.00455   0.00455   0.00427
    D2        3.13105   0.00027   0.00000   0.00534   0.00534   3.13639
    D3       -3.10412  -0.00016   0.00000  -0.00213  -0.00213  -3.10624
    D4        0.02721  -0.00013   0.00000  -0.00134  -0.00134   0.02588
    D5       -2.96706   0.00046   0.00000   0.00000   0.00000  -2.96706
    D6        0.20820   0.00010   0.00000  -0.00597  -0.00597   0.20223
    D7        2.09439   0.00188   0.00000   0.00000   0.00000   2.09439
         Item               Value     Threshold  Converged?
 Maximum Force            0.001856     0.000015     NO 
 RMS     Force            0.000639     0.000010     NO 
 Maximum Displacement     0.017202     0.000060     NO 
 RMS     Displacement     0.006167     0.000040     NO 
 Predicted change in Energy=-1.926530D-05
 Lowest energy point so far.  Saving SCF results.
 GradGradGradGradGradGradGradGradGradGradGradGradGradGradGradGradGradGrad

 Leave Link  103 at Fri Apr 12 15:36:27 2019, MaxMem=   134217728 cpu:         0.0
 (Enter /cm/shared/c3ddb/gaussian/09.d01/g09/l202.exe)
                          Input orientation:                          
 ---------------------------------------------------------------------
 Center     Atomic      Atomic             Coordinates (Angstroms)
 Number     Number       Type             X           Y           Z
 ---------------------------------------------------------------------
      1          6           0        0.727669    0.637026    0.030331
      2          6           0        1.368711   -0.503598   -0.014271
      3          1           0        1.183770    1.600393    0.093336
      4          1           0        2.438301   -0.521449    0.015897
      5          1           0        0.848632   -1.437914   -0.072595
      6          8           0       -0.674194    0.673322    0.034161
      7          8           0       -1.064567    2.069104   -0.154921
      8          1           0       -1.576891    1.995036   -0.978038
 ---------------------------------------------------------------------
                    Distance matrix (angstroms):
                    1          2          3          4          5
     1  C    0.000000
     2  C    1.309178   0.000000
     3  H    1.067742   2.114842   0.000000
     4  H    2.066043   1.070164   2.466183   0.000000
     5  H    2.081010   1.070902   3.061235   1.837059   0.000000
     6  O    1.402338   2.358166   2.077255   3.333982   2.605324
     7  O    2.301581   3.543927   2.310052   4.360072   3.995783
     8  H    2.858671   3.981029   2.987446   4.841733   4.299783
                    6          7          8
     6  O    0.000000
     7  O    1.461626   0.000000
     8  H    1.893763   0.972359   0.000000
 Symmetry turned off by external request.
 Stoichiometry    C2H4O2
 Framework group  C1[X(C2H4O2)]
 Deg. of freedom    18
 Full point group                 C1      NOp   1
 Rotational constants (GHZ):     42.7537054      4.5571802      4.1842902
 Leave Link  202 at Fri Apr 12 15:36:27 2019, MaxMem=   134217728 cpu:         0.0
 (Enter /cm/shared/c3ddb/gaussian/09.d01/g09/l301.exe)
 Standard basis: 3-21G (6D, 7F)
 Ernie: Thresh=  0.10000D-02 Tol=  0.10000D-05 Strict=F.
    44 basis functions,    72 primitive gaussians,    44 cartesian basis functions
    16 alpha electrons       16 beta electrons
       nuclear repulsion energy       116.6574706602 Hartrees.
 IExCor=    0 DFT=F Ex=HF Corr=None ExCW=0 ScaHFX=  1.000000
 ScaDFX=  1.000000  1.000000  1.000000  1.000000 ScalE2=  1.000000  1.000000
 IRadAn=      0 IRanWt=     -1 IRanGd=            0 ICorTp=0 IEmpDi=  4
 NAtoms=    8 NActive=    8 NUniq=    8 SFac= 1.00D+00 NAtFMM=   60 NAOKFM=F Big=F
 Integral buffers will be    131072 words long.
 Raffenetti 1 integral format.
 Two-electron integral symmetry is turned off.
 Leave Link  301 at Fri Apr 12 15:36:27 2019, MaxMem=   134217728 cpu:         0.3
 (Enter /cm/shared/c3ddb/gaussian/09.d01/g09/l302.exe)
 NPDir=0 NMtPBC=     1 NCelOv=     1 NCel=       1 NClECP=     1 NCelD=      1
         NCelK=      1 NCelE2=     1 NClLst=     1 CellRange=     0.0.
 One-electron integrals computed using PRISM.
 NBasis=    44 RedAO= T EigKep=  1.12D-02  NBF=    44
 NBsUse=    44 1.00D-06 EigRej= -1.00D+00 NBFU=    44
 Leave Link  302 at Fri Apr 12 15:36:28 2019, MaxMem=   134217728 cpu:         0.3
 (Enter /cm/shared/c3ddb/gaussian/09.d01/g09/l303.exe)
 DipDrv:  MaxL=1.
 Leave Link  303 at Fri Apr 12 15:36:28 2019, MaxMem=   134217728 cpu:         0.1
 (Enter /cm/shared/c3ddb/gaussian/09.d01/g09/l401.exe)
 Initial guess from the checkpoint file:  "TMP_CALCS/scangeom_S02_190_120.chk"
 B after Tr=    -0.001151   -0.000068    0.000164
         Rot=    1.000000   -0.000397    0.000178    0.000380 Ang=  -0.07 deg.
 Guess basis will be translated and rotated to current coordinates.
 JPrj=2 DoOrth=T DoCkMO=T.
 Leave Link  401 at Fri Apr 12 15:36:28 2019, MaxMem=   134217728 cpu:         0.4
 (Enter /cm/shared/c3ddb/gaussian/09.d01/g09/l502.exe)
 Closed shell SCF:
 Using DIIS extrapolation, IDIIS=  1040.
 Two-electron integral symmetry not used.
 Keep R1 ints in memory in canonical form, NReq=1327190.
 IVT=       24902 IEndB=       24902 NGot=   134217728 MDV=   133702282
 LenX=   133702282 LenY=   133699905
 Requested convergence on RMS density matrix=1.00D-08 within 128 cycles.
 Requested convergence on MAX density matrix=1.00D-06.
 Requested convergence on             energy=1.00D-06.
 No special actions if energy rises.
 FoFCou: FMM=F IPFlag=           0 FMFlag=           0 FMFlg1=           0
         NFxFlg=           0 DoJE=F BraDBF=F KetDBF=F FulRan=T
         wScrn=  0.000000 ICntrl=     600 IOpCl=  0 I1Cent=           0 NGrid=           0
         NMat0=    1 NMatS0=    990 NMatT0=    0 NMatD0=    1 NMtDS0=    0 NMtDT0=    0
 Symmetry not used in FoFCou.

 Cycle   1  Pass 1  IDiag  1:
 E= -226.395281376368    
 DIIS: error= 3.54D-04 at cycle   1 NSaved=   1.
 NSaved= 1 IEnMin= 1 EnMin= -226.395281376368     IErMin= 1 ErrMin= 3.54D-04
 ErrMax= 3.54D-04  0.00D+00 EMaxC= 1.00D-01 BMatC= 1.52D-05 BMatP= 1.52D-05
 IDIUse=3 WtCom= 9.96D-01 WtEn= 3.54D-03
 Coeff-Com:  0.100D+01
 Coeff-En:   0.100D+01
 Coeff:      0.100D+01
 Gap=     0.934 Goal=   None    Shift=    0.000
 RMSDP=9.29D-05 MaxDP=6.23D-04              OVMax= 7.30D-04

 Cycle   2  Pass 1  IDiag  1:
 E= -226.395299137140     Delta-E=       -0.000017760772 Rises=F Damp=F
 DIIS: error= 1.90D-04 at cycle   2 NSaved=   2.
 NSaved= 2 IEnMin= 2 EnMin= -226.395299137140     IErMin= 2 ErrMin= 1.90D-04
 ErrMax= 1.90D-04  0.00D+00 EMaxC= 1.00D-01 BMatC= 1.01D-06 BMatP= 1.52D-05
 IDIUse=3 WtCom= 9.98D-01 WtEn= 1.90D-03
 Coeff-Com: -0.146D+00 0.115D+01
 Coeff-En:   0.000D+00 0.100D+01
 Coeff:     -0.146D+00 0.115D+01
 Gap=     0.553 Goal=   None    Shift=    0.000
 RMSDP=4.03D-05 MaxDP=2.32D-04 DE=-1.78D-05 OVMax= 4.78D-04

 Cycle   3  Pass 1  IDiag  1:
 E= -226.395302093123     Delta-E=       -0.000002955983 Rises=F Damp=F
 DIIS: error= 1.14D-04 at cycle   3 NSaved=   3.
 NSaved= 3 IEnMin= 3 EnMin= -226.395302093123     IErMin= 3 ErrMin= 1.14D-04
 ErrMax= 1.14D-04  0.00D+00 EMaxC= 1.00D-01 BMatC= 2.01D-07 BMatP= 1.01D-06
 IDIUse=3 WtCom= 9.99D-01 WtEn= 1.14D-03
 Coeff-Com: -0.133D-01-0.184D+00 0.120D+01
 Coeff-En:   0.000D+00 0.000D+00 0.100D+01
 Coeff:     -0.133D-01-0.184D+00 0.120D+01
 Gap=     0.553 Goal=   None    Shift=    0.000
 RMSDP=2.11D-05 MaxDP=1.37D-04 DE=-2.96D-06 OVMax= 3.37D-04

 Cycle   4  Pass 1  IDiag  1:
 E= -226.395302812598     Delta-E=       -0.000000719474 Rises=F Damp=F
 DIIS: error= 6.54D-05 at cycle   4 NSaved=   4.
 NSaved= 4 IEnMin= 4 EnMin= -226.395302812598     IErMin= 4 ErrMin= 6.54D-05
 ErrMax= 6.54D-05  0.00D+00 EMaxC= 1.00D-01 BMatC= 5.78D-08 BMatP= 2.01D-07
 IDIUse=1 WtCom= 1.00D+00 WtEn= 0.00D+00
 Coeff-Com:  0.311D-01-0.280D+00 0.151D+00 0.110D+01
 Coeff:      0.311D-01-0.280D+00 0.151D+00 0.110D+01
 Gap=     0.553 Goal=   None    Shift=    0.000
 RMSDP=1.35D-05 MaxDP=9.41D-05 DE=-7.19D-07 OVMax= 2.29D-04

 Cycle   5  Pass 1  IDiag  1:
 E= -226.395303032299     Delta-E=       -0.000000219702 Rises=F Damp=F
 DIIS: error= 2.96D-05 at cycle   5 NSaved=   5.
 NSaved= 5 IEnMin= 5 EnMin= -226.395303032299     IErMin= 5 ErrMin= 2.96D-05
 ErrMax= 2.96D-05  0.00D+00 EMaxC= 1.00D-01 BMatC= 9.83D-09 BMatP= 5.78D-08
 IDIUse=1 WtCom= 1.00D+00 WtEn= 0.00D+00
 Coeff-Com: -0.353D-03 0.642D-01-0.238D+00-0.953D-01 0.127D+01
 Coeff:     -0.353D-03 0.642D-01-0.238D+00-0.953D-01 0.127D+01
 Gap=     0.553 Goal=   None    Shift=    0.000
 RMSDP=6.65D-06 MaxDP=4.77D-05 DE=-2.20D-07 OVMax= 1.41D-04

 Cycle   6  Pass 1  IDiag  1:
 E= -226.395303074796     Delta-E=       -0.000000042497 Rises=F Damp=F
 DIIS: error= 1.11D-05 at cycle   6 NSaved=   6.
 NSaved= 6 IEnMin= 6 EnMin= -226.395303074796     IErMin= 6 ErrMin= 1.11D-05
 ErrMax= 1.11D-05  0.00D+00 EMaxC= 1.00D-01 BMatC= 2.04D-09 BMatP= 9.83D-09
 IDIUse=1 WtCom= 1.00D+00 WtEn= 0.00D+00
 Coeff-Com: -0.548D-02 0.668D-01-0.917D-01-0.223D+00 0.345D+00 0.908D+00
 Coeff:     -0.548D-02 0.668D-01-0.917D-01-0.223D+00 0.345D+00 0.908D+00
 Gap=     0.553 Goal=   None    Shift=    0.000
 RMSDP=2.44D-06 MaxDP=1.54D-05 DE=-4.25D-08 OVMax= 4.99D-05

 Cycle   7  Pass 1  IDiag  1:
 E= -226.395303080999     Delta-E=       -0.000000006203 Rises=F Damp=F
 DIIS: error= 4.07D-06 at cycle   7 NSaved=   7.
 NSaved= 7 IEnMin= 7 EnMin= -226.395303080999     IErMin= 7 ErrMin= 4.07D-06
 ErrMax= 4.07D-06  0.00D+00 EMaxC= 1.00D-01 BMatC= 2.53D-10 BMatP= 2.04D-09
 IDIUse=1 WtCom= 1.00D+00 WtEn= 0.00D+00
 Coeff-Com:  0.163D-02-0.317D-01 0.744D-01 0.773D-01-0.342D+00-0.268D+00
 Coeff-Com:  0.149D+01
 Coeff:      0.163D-02-0.317D-01 0.744D-01 0.773D-01-0.342D+00-0.268D+00
 Coeff:      0.149D+01
 Gap=     0.553 Goal=   None    Shift=    0.000
 RMSDP=1.29D-06 MaxDP=8.76D-06 DE=-6.20D-09 OVMax= 2.87D-05

 Cycle   8  Pass 1  IDiag  1:
 E= -226.395303082191     Delta-E=       -0.000000001191 Rises=F Damp=F
 DIIS: error= 6.25D-07 at cycle   8 NSaved=   8.
 NSaved= 8 IEnMin= 8 EnMin= -226.395303082191     IErMin= 8 ErrMin= 6.25D-07
 ErrMax= 6.25D-07  0.00D+00 EMaxC= 1.00D-01 BMatC= 1.52D-11 BMatP= 2.53D-10
 IDIUse=1 WtCom= 1.00D+00 WtEn= 0.00D+00
 Coeff-Com:  0.446D-03-0.575D-02 0.851D-02 0.181D-01-0.317D-01-0.833D-01
 Coeff-Com:  0.528D-01 0.104D+01
 Coeff:      0.446D-03-0.575D-02 0.851D-02 0.181D-01-0.317D-01-0.833D-01
 Coeff:      0.528D-01 0.104D+01
 Gap=     0.553 Goal=   None    Shift=    0.000
 RMSDP=2.14D-07 MaxDP=1.54D-06 DE=-1.19D-09 OVMax= 4.06D-06

 Cycle   9  Pass 1  IDiag  1:
 E= -226.395303082236     Delta-E=       -0.000000000046 Rises=F Damp=F
 DIIS: error= 2.04D-07 at cycle   9 NSaved=   9.
 NSaved= 9 IEnMin= 9 EnMin= -226.395303082236     IErMin= 9 ErrMin= 2.04D-07
 ErrMax= 2.04D-07  0.00D+00 EMaxC= 1.00D-01 BMatC= 1.99D-12 BMatP= 1.52D-11
 IDIUse=1 WtCom= 1.00D+00 WtEn= 0.00D+00
 Coeff-Com: -0.183D-03 0.407D-02-0.101D-01-0.987D-02 0.492D-01 0.269D-01
 Coeff-Com: -0.213D+00 0.110D+00 0.104D+01
 Coeff:     -0.183D-03 0.407D-02-0.101D-01-0.987D-02 0.492D-01 0.269D-01
 Coeff:     -0.213D+00 0.110D+00 0.104D+01
 Gap=     0.553 Goal=   None    Shift=    0.000
 RMSDP=7.73D-08 MaxDP=5.29D-07 DE=-4.57D-11 OVMax= 1.12D-06

 Cycle  10  Pass 1  IDiag  1:
 E= -226.395303082242     Delta-E=       -0.000000000005 Rises=F Damp=F
 DIIS: error= 5.61D-08 at cycle  10 NSaved=  10.
 NSaved=10 IEnMin=10 EnMin= -226.395303082242     IErMin=10 ErrMin= 5.61D-08
 ErrMax= 5.61D-08  0.00D+00 EMaxC= 1.00D-01 BMatC= 1.32D-13 BMatP= 1.99D-12
 IDIUse=1 WtCom= 1.00D+00 WtEn= 0.00D+00
 Coeff-Com: -0.185D-04 0.164D-03-0.587D-04-0.794D-03 0.323D-03 0.323D-02
 Coeff-Com:  0.560D-02-0.720D-01-0.148D-01 0.108D+01
 Coeff:     -0.185D-04 0.164D-03-0.587D-04-0.794D-03 0.323D-03 0.323D-02
 Coeff:      0.560D-02-0.720D-01-0.148D-01 0.108D+01
 Gap=     0.553 Goal=   None    Shift=    0.000
 RMSDP=1.71D-08 MaxDP=1.26D-07 DE=-5.40D-12 OVMax= 2.45D-07

 Cycle  11  Pass 1  IDiag  1:
 E= -226.395303082242     Delta-E=        0.000000000000 Rises=F Damp=F
 DIIS: error= 2.99D-08 at cycle  11 NSaved=  11.
 NSaved=11 IEnMin=11 EnMin= -226.395303082242     IErMin=11 ErrMin= 2.99D-08
 ErrMax= 2.99D-08  0.00D+00 EMaxC= 1.00D-01 BMatC= 2.07D-14 BMatP= 1.32D-13
 IDIUse=1 WtCom= 1.00D+00 WtEn= 0.00D+00
 Coeff-Com:  0.285D-04-0.641D-03 0.157D-02 0.161D-02-0.764D-02-0.472D-02
 Coeff-Com:  0.334D-01-0.156D-01-0.155D+00-0.547D-01 0.120D+01
 Coeff:      0.285D-04-0.641D-03 0.157D-02 0.161D-02-0.764D-02-0.472D-02
 Coeff:      0.334D-01-0.156D-01-0.155D+00-0.547D-01 0.120D+01
 Gap=     0.553 Goal=   None    Shift=    0.000
 RMSDP=8.37D-09 MaxDP=6.48D-08 DE=-5.68D-14 OVMax= 1.22D-07

 SCF Done:  E(RHF) =  -226.395303082     A.U. after   11 cycles
            NFock= 11  Conv=0.84D-08     -V/T= 2.0035
 KE= 2.256164717116D+02 PE=-7.666157302659D+02 EE= 1.979464848118D+02
 Leave Link  502 at Fri Apr 12 15:36:29 2019, MaxMem=   134217728 cpu:         0.4
 (Enter /cm/shared/c3ddb/gaussian/09.d01/g09/l701.exe)
 Compute integral first derivatives.
 ... and contract with generalized density number  0.
 Leave Link  701 at Fri Apr 12 15:36:29 2019, MaxMem=   134217728 cpu:         0.2
 (Enter /cm/shared/c3ddb/gaussian/09.d01/g09/l702.exe)
 L702 exits ... SP integral derivatives will be done elsewhere.
 Leave Link  702 at Fri Apr 12 15:36:29 2019, MaxMem=   134217728 cpu:         0.1
 (Enter /cm/shared/c3ddb/gaussian/09.d01/g09/l703.exe)
 Compute integral first derivatives, UseDBF=F ICtDFT=           0.
 Integral derivatives from FoFJK, PRISM(SPDF).
 Calling FoFJK, ICntrl=      2127 FMM=F ISym2X=0 I1Cent= 0 IOpClX= 0 NMat=1 NMatS=1 NMatT=0.
 FoFJK:  IHMeth= 1 ICntrl=    2127 DoSepK=F KAlg= 0 I1Cent=   0 FoldK=F
 IRaf=         0 NMat=   1 IRICut=       1 DoRegI=T DoRafI=F ISym2E= 0.
 FoFCou: FMM=F IPFlag=           0 FMFlag=      100000 FMFlg1=         800
         NFxFlg=           0 DoJE=F BraDBF=F KetDBF=F FulRan=T
         wScrn=  0.000000 ICntrl=    2127 IOpCl=  0 I1Cent=           0 NGrid=           0
         NMat0=    1 NMatS0=      1 NMatT0=    0 NMatD0=    1 NMtDS0=    0 NMtDT0=    0
 Symmetry not used in FoFCou.
 Leave Link  703 at Fri Apr 12 15:36:30 2019, MaxMem=   134217728 cpu:         0.3
 (Enter /cm/shared/c3ddb/gaussian/09.d01/g09/l716.exe)
 Dipole        = 2.45698384D-01 1.22419906D-01-7.04298540D-01
 -------------------------------------------------------------------
 Center     Atomic                   Forces (Hartrees/Bohr)
 Number     Number              X              Y              Z
 -------------------------------------------------------------------
      1        6           0.000139589   -0.000475659    0.001157918
      2        6           0.000237728    0.000017247   -0.000310419
      3        1           0.000003049   -0.000104212    0.000040711
      4        1           0.000018706   -0.000033720    0.000011545
      5        1           0.000004296    0.000005244    0.000032612
      6        8           0.000535570   -0.000410179   -0.000360806
      7        8           0.000160632    0.000553281   -0.001163917
      8        1          -0.001099569    0.000447998    0.000592357
 -------------------------------------------------------------------
 Cartesian Forces:  Max     0.001163917 RMS     0.000491065
 Leave Link  716 at Fri Apr 12 15:36:30 2019, MaxMem=   134217728 cpu:         0.1
 (Enter /cm/shared/c3ddb/gaussian/09.d01/g09/l103.exe)

 GradGradGradGradGradGradGradGradGradGradGradGradGradGradGradGradGradGrad
 Berny optimization.
 Using GEDIIS/GDIIS optimizer.
 FormGI is forming the generalized inverse of G from B-inverse, IUseBI=4.
 Internal  Forces:  Max     0.002093001 RMS     0.000675486
 Search for a local minimum.
 Step number   2 out of a maximum of   32
 All quantities printed in internal units (Hartrees-Bohrs-Radians)
 RMS Force = .52211D-03 SwitMx=.10000D-02 MixMth= 2
 Mixed Optimization -- En-DIIS/RFO-DIIS
 Swapping is turned off.
 Update second derivatives using D2CorX and points    1    2
 DE= -7.04D-06 DEPred=-1.93D-05 R= 3.65D-01
 Trust test= 3.65D-01 RLast= 1.65D-02 DXMaxT set to 3.00D-01
 ITU=  0  0
     Eigenvalues ---    0.02532   0.03282   0.03294   0.15996   0.15998
     Eigenvalues ---    0.16000   0.17994   0.22021   0.29377   0.37115
     Eigenvalues ---    0.37202   0.37504   0.41169   0.50319   0.52981
     Eigenvalues ---    0.647901000.000001000.000001000.000001000.00000
     Eigenvalues --- 1000.000001000.00000
 En-DIIS/RFO-DIIS IScMMF=        0 using points:     2    1
 RFO step:  Lambda=-8.23603025D-06.
 NNeg= 0 NP= 2 Switch=  2.50D-03 Rises=F DC=  7.04D-06 SmlDif=  1.00D-05
 RMS Error=  0.7445583215D-03 NUsed= 2 EDIIS=F
 DidBck=T Rises=F RFO-DIIS coefs:    0.61037    0.38963
 Iteration  1 RMS(Cart)=  0.00251790 RMS(Int)=  0.00000251
 Iteration  2 RMS(Cart)=  0.00000262 RMS(Int)=  0.00000085
 Iteration  3 RMS(Cart)=  0.00000000 RMS(Int)=  0.00000085
 Iteration  1 RMS(Cart)=  0.00000009 RMS(Int)=  0.00000004
 ITry= 1 IFail=0 DXMaxC= 6.35D-03 DCOld= 1.00D+10 DXMaxT= 3.00D-01 DXLimC= 3.00D+00 Rises=F
 Variable       Old X    -DE/DX   Delta X   Delta X   Delta X     New X
                                 (Linear)    (Quad)   (Total)
    R1        2.47399   0.00015  -0.00003   0.00018   0.00014   2.47413
    R2        2.01774  -0.00009   0.00005  -0.00020  -0.00016   2.01758
    R3        2.65003   0.00042   0.00099  -0.00059   0.00039   2.65043
    R4        2.02232   0.00002   0.00003   0.00000   0.00003   2.02234
    R5        2.02371  -0.00001   0.00001  -0.00002  -0.00002   2.02370
    R6        2.76207   0.00128  -0.00020   0.00236   0.00216   2.76423
    R7        1.83749   0.00004   0.00041  -0.00044  -0.00002   1.83747
    A1        2.18822  -0.00018  -0.00029  -0.00025  -0.00053   2.18768
    A2        2.10846   0.00028   0.00012   0.00064   0.00076   2.10922
    A3        1.98614  -0.00010   0.00010  -0.00034  -0.00024   1.98590
    A4        2.09782   0.00004   0.00012   0.00003   0.00014   2.09796
    A5        2.12256  -0.00002  -0.00012   0.00006  -0.00006   2.12250
    A6        2.06277  -0.00002   0.00000  -0.00009  -0.00009   2.06268
    A7        1.86644   0.00144   0.00289   0.00011   0.00300   1.86944
    A8        1.74923   0.00119   0.00420  -0.00039   0.00381   1.75304
    D1        0.00427   0.00009  -0.00177   0.00191   0.00013   0.00440
    D2        3.13639   0.00005  -0.00208   0.00155  -0.00053   3.13586
    D3       -3.10624  -0.00006   0.00083  -0.00038   0.00044  -3.10580
    D4        0.02588  -0.00010   0.00052  -0.00074  -0.00022   0.02566
    D5       -2.96706   0.00036   0.00000   0.00000   0.00000  -2.96706
    D6        0.20223   0.00023   0.00233  -0.00204   0.00028   0.20252
    D7        2.09439   0.00209   0.00000   0.00000   0.00000   2.09439
         Item               Value     Threshold  Converged?
 Maximum Force            0.001435     0.000015     NO 
 RMS     Force            0.000522     0.000010     NO 
 Maximum Displacement     0.006349     0.000060     NO 
 RMS     Displacement     0.002518     0.000040     NO 
 Predicted change in Energy=-6.096265D-06
 Lowest energy point so far.  Saving SCF results.
 GradGradGradGradGradGradGradGradGradGradGradGradGradGradGradGradGradGrad

 Leave Link  103 at Fri Apr 12 15:36:30 2019, MaxMem=   134217728 cpu:         0.0
 (Enter /cm/shared/c3ddb/gaussian/09.d01/g09/l202.exe)
                          Input orientation:                          
 ---------------------------------------------------------------------
 Center     Atomic      Atomic             Coordinates (Angstroms)
 Number     Number       Type             X           Y           Z
 ---------------------------------------------------------------------
      1          6           0        0.728615    0.636358    0.030207
      2          6           0        1.369700   -0.504341   -0.014115
      3          1           0        1.185176    1.599400    0.093426
      4          1           0        2.439283   -0.522366    0.016659
      5          1           0        0.849573   -1.438636   -0.072202
      6          8           0       -0.673428    0.673732    0.033809
      7          8           0       -1.067236    2.069716   -0.155499
      8          1           0       -1.580251    1.998057   -0.978384
 ---------------------------------------------------------------------
                    Distance matrix (angstroms):
                    1          2          3          4          5
     1  C    0.000000
     2  C    1.309254   0.000000
     3  H    1.067659   2.114554   0.000000
     4  H    2.066207   1.070178   2.465882   0.000000
     5  H    2.081038   1.070894   3.061001   1.837016   0.000000
     6  O    1.402546   2.358924   2.077216   3.334655   2.606314
     7  O    2.305229   3.547451   2.314416   4.363967   3.998703
     8  H    2.863973   3.986730   2.992540   4.847608   4.305353
                    6          7          8
     6  O    0.000000
     7  O    1.462768   0.000000
     8  H    1.897551   0.972348   0.000000
 Symmetry turned off by external request.
 Stoichiometry    C2H4O2
 Framework group  C1[X(C2H4O2)]
 Deg. of freedom    18
 Full point group                 C1      NOp   1
 Rotational constants (GHZ):     42.8392301      4.5477949      4.1771199
 Leave Link  202 at Fri Apr 12 15:36:30 2019, MaxMem=   134217728 cpu:         0.0
 (Enter /cm/shared/c3ddb/gaussian/09.d01/g09/l301.exe)
 Standard basis: 3-21G (6D, 7F)
 Ernie: Thresh=  0.10000D-02 Tol=  0.10000D-05 Strict=F.
    44 basis functions,    72 primitive gaussians,    44 cartesian basis functions
    16 alpha electrons       16 beta electrons
       nuclear repulsion energy       116.5939810566 Hartrees.
 IExCor=    0 DFT=F Ex=HF Corr=None ExCW=0 ScaHFX=  1.000000
 ScaDFX=  1.000000  1.000000  1.000000  1.000000 ScalE2=  1.000000  1.000000
 IRadAn=      0 IRanWt=     -1 IRanGd=            0 ICorTp=0 IEmpDi=  4
 NAtoms=    8 NActive=    8 NUniq=    8 SFac= 1.00D+00 NAtFMM=   60 NAOKFM=F Big=F
 Integral buffers will be    131072 words long.
 Raffenetti 1 integral format.
 Two-electron integral symmetry is turned off.
 Leave Link  301 at Fri Apr 12 15:36:31 2019, MaxMem=   134217728 cpu:         0.2
 (Enter /cm/shared/c3ddb/gaussian/09.d01/g09/l302.exe)
 NPDir=0 NMtPBC=     1 NCelOv=     1 NCel=       1 NClECP=     1 NCelD=      1
         NCelK=      1 NCelE2=     1 NClLst=     1 CellRange=     0.0.
 One-electron integrals computed using PRISM.
 NBasis=    44 RedAO= T EigKep=  1.13D-02  NBF=    44
 NBsUse=    44 1.00D-06 EigRej= -1.00D+00 NBFU=    44
 Leave Link  302 at Fri Apr 12 15:36:31 2019, MaxMem=   134217728 cpu:         0.3
 (Enter /cm/shared/c3ddb/gaussian/09.d01/g09/l303.exe)
 DipDrv:  MaxL=1.
 Leave Link  303 at Fri Apr 12 15:36:31 2019, MaxMem=   134217728 cpu:         0.1
 (Enter /cm/shared/c3ddb/gaussian/09.d01/g09/l401.exe)
 Initial guess from the checkpoint file:  "TMP_CALCS/scangeom_S02_190_120.chk"
 B after Tr=     0.000141   -0.000006   -0.000234
         Rot=    1.000000    0.000051    0.000023   -0.000126 Ang=   0.02 deg.
 Guess basis will be translated and rotated to current coordinates.
 JPrj=2 DoOrth=T DoCkMO=T.
 Leave Link  401 at Fri Apr 12 15:36:32 2019, MaxMem=   134217728 cpu:         0.4
 (Enter /cm/shared/c3ddb/gaussian/09.d01/g09/l502.exe)
 Closed shell SCF:
 Using DIIS extrapolation, IDIIS=  1040.
 Two-electron integral symmetry not used.
 Keep R1 ints in memory in canonical form, NReq=1327190.
 IVT=       24902 IEndB=       24902 NGot=   134217728 MDV=   133702282
 LenX=   133702282 LenY=   133699905
 Requested convergence on RMS density matrix=1.00D-08 within 128 cycles.
 Requested convergence on MAX density matrix=1.00D-06.
 Requested convergence on             energy=1.00D-06.
 No special actions if energy rises.
 FoFCou: FMM=F IPFlag=           0 FMFlag=           0 FMFlg1=           0
         NFxFlg=           0 DoJE=F BraDBF=F KetDBF=F FulRan=T
         wScrn=  0.000000 ICntrl=     600 IOpCl=  0 I1Cent=           0 NGrid=           0
         NMat0=    1 NMatS0=    990 NMatT0=    0 NMatD0=    1 NMtDS0=    0 NMtDT0=    0
 Symmetry not used in FoFCou.

 Cycle   1  Pass 1  IDiag  1:
 E= -226.395306421630    
 DIIS: error= 1.80D-04 at cycle   1 NSaved=   1.
 NSaved= 1 IEnMin= 1 EnMin= -226.395306421630     IErMin= 1 ErrMin= 1.80D-04
 ErrMax= 1.80D-04  0.00D+00 EMaxC= 1.00D-01 BMatC= 2.46D-06 BMatP= 2.46D-06
 IDIUse=3 WtCom= 9.98D-01 WtEn= 1.80D-03
 Coeff-Com:  0.100D+01
 Coeff-En:   0.100D+01
 Coeff:      0.100D+01
 Gap=     0.934 Goal=   None    Shift=    0.000
 RMSDP=3.50D-05 MaxDP=2.58D-04              OVMax= 2.90D-04

 Cycle   2  Pass 1  IDiag  1:
 E= -226.395308412572     Delta-E=       -0.000001990942 Rises=F Damp=F
 DIIS: error= 7.11D-05 at cycle   2 NSaved=   2.
 NSaved= 2 IEnMin= 2 EnMin= -226.395308412572     IErMin= 2 ErrMin= 7.11D-05
 ErrMax= 7.11D-05  0.00D+00 EMaxC= 1.00D-01 BMatC= 1.21D-07 BMatP= 2.46D-06
 IDIUse=1 WtCom= 1.00D+00 WtEn= 0.00D+00
 Coeff-Com: -0.819D-01 0.108D+01
 Coeff:     -0.819D-01 0.108D+01
 Gap=     0.553 Goal=   None    Shift=    0.000
 RMSDP=1.33D-05 MaxDP=8.13D-05 DE=-1.99D-06 OVMax= 1.90D-04

 Cycle   3  Pass 1  IDiag  1:
 E= -226.395308751813     Delta-E=       -0.000000339241 Rises=F Damp=F
 DIIS: error= 4.50D-05 at cycle   3 NSaved=   3.
 NSaved= 3 IEnMin= 3 EnMin= -226.395308751813     IErMin= 3 ErrMin= 4.50D-05
 ErrMax= 4.50D-05  0.00D+00 EMaxC= 1.00D-01 BMatC= 3.05D-08 BMatP= 1.21D-07
 IDIUse=1 WtCom= 1.00D+00 WtEn= 0.00D+00
 Coeff-Com: -0.228D-01-0.833D-01 0.111D+01
 Coeff:     -0.228D-01-0.833D-01 0.111D+01
 Gap=     0.553 Goal=   None    Shift=    0.000
 RMSDP=7.39D-06 MaxDP=5.33D-05 DE=-3.39D-07 OVMax= 1.32D-04

 Cycle   4  Pass 1  IDiag  1:
 E= -226.395308854128     Delta-E=       -0.000000102315 Rises=F Damp=F
 DIIS: error= 2.76D-05 at cycle   4 NSaved=   4.
 NSaved= 4 IEnMin= 4 EnMin= -226.395308854128     IErMin= 4 ErrMin= 2.76D-05
 ErrMax= 2.76D-05  0.00D+00 EMaxC= 1.00D-01 BMatC= 9.57D-09 BMatP= 3.05D-08
 IDIUse=1 WtCom= 1.00D+00 WtEn= 0.00D+00
 Coeff-Com:  0.244D-01-0.315D+00-0.660D-02 0.130D+01
 Coeff:      0.244D-01-0.315D+00-0.660D-02 0.130D+01
 Gap=     0.553 Goal=   None    Shift=    0.000
 RMSDP=6.53D-06 MaxDP=5.02D-05 DE=-1.02D-07 OVMax= 1.25D-04

 Cycle   5  Pass 1  IDiag  1:
 E= -226.395308897530     Delta-E=       -0.000000043402 Rises=F Damp=F
 DIIS: error= 1.04D-05 at cycle   5 NSaved=   5.
 NSaved= 5 IEnMin= 5 EnMin= -226.395308897530     IErMin= 5 ErrMin= 1.04D-05
 ErrMax= 1.04D-05  0.00D+00 EMaxC= 1.00D-01 BMatC= 1.22D-09 BMatP= 9.57D-09
 IDIUse=1 WtCom= 1.00D+00 WtEn= 0.00D+00
 Coeff-Com:  0.745D-03 0.530D-01-0.157D+00-0.156D+00 0.126D+01
 Coeff:      0.745D-03 0.530D-01-0.157D+00-0.156D+00 0.126D+01
 Gap=     0.553 Goal=   None    Shift=    0.000
 RMSDP=2.39D-06 MaxDP=1.77D-05 DE=-4.34D-08 OVMax= 5.35D-05

 Cycle   6  Pass 1  IDiag  1:
 E= -226.395308902839     Delta-E=       -0.000000005309 Rises=F Damp=F
 DIIS: error= 3.76D-06 at cycle   6 NSaved=   6.
 NSaved= 6 IEnMin= 6 EnMin= -226.395308902839     IErMin= 6 ErrMin= 3.76D-06
 ErrMax= 3.76D-06  0.00D+00 EMaxC= 1.00D-01 BMatC= 2.90D-10 BMatP= 1.22D-09
 IDIUse=1 WtCom= 1.00D+00 WtEn= 0.00D+00
 Coeff-Com: -0.399D-02 0.722D-01-0.470D-01-0.285D+00 0.403D+00 0.861D+00
 Coeff:     -0.399D-02 0.722D-01-0.470D-01-0.285D+00 0.403D+00 0.861D+00
 Gap=     0.553 Goal=   None    Shift=    0.000
 RMSDP=8.45D-07 MaxDP=5.20D-06 DE=-5.31D-09 OVMax= 1.73D-05

 Cycle   7  Pass 1  IDiag  1:
 E= -226.395308903595     Delta-E=       -0.000000000756 Rises=F Damp=F
 DIIS: error= 1.36D-06 at cycle   7 NSaved=   7.
 NSaved= 7 IEnMin= 7 EnMin= -226.395308903595     IErMin= 7 ErrMin= 1.36D-06
 ErrMax= 1.36D-06  0.00D+00 EMaxC= 1.00D-01 BMatC= 2.92D-11 BMatP= 2.90D-10
 IDIUse=1 WtCom= 1.00D+00 WtEn= 0.00D+00
 Coeff-Com:  0.113D-02-0.314D-01 0.426D-01 0.109D+00-0.330D+00-0.285D+00
 Coeff-Com:  0.149D+01
 Coeff:      0.113D-02-0.314D-01 0.426D-01 0.109D+00-0.330D+00-0.285D+00
 Coeff:      0.149D+01
 Gap=     0.553 Goal=   None    Shift=    0.000
 RMSDP=4.30D-07 MaxDP=3.16D-06 DE=-7.56D-10 OVMax= 9.17D-06

 Cycle   8  Pass 1  IDiag  1:
 E= -226.395308903733     Delta-E=       -0.000000000138 Rises=F Damp=F
 DIIS: error= 2.36D-07 at cycle   8 NSaved=   8.
 NSaved= 8 IEnMin= 8 EnMin= -226.395308903733     IErMin= 8 ErrMin= 2.36D-07
 ErrMax= 2.36D-07  0.00D+00 EMaxC= 1.00D-01 BMatC= 2.06D-12 BMatP= 2.92D-11
 IDIUse=1 WtCom= 1.00D+00 WtEn= 0.00D+00
 Coeff-Com:  0.304D-03-0.528D-02 0.231D-02 0.228D-01-0.253D-01-0.821D-01
 Coeff-Com: -0.733D-03 0.109D+01
 Coeff:      0.304D-03-0.528D-02 0.231D-02 0.228D-01-0.253D-01-0.821D-01
 Coeff:     -0.733D-03 0.109D+01
 Gap=     0.553 Goal=   None    Shift=    0.000
 RMSDP=8.11D-08 MaxDP=6.69D-07 DE=-1.38D-10 OVMax= 1.33D-06

 Cycle   9  Pass 1  IDiag  1:
 E= -226.395308903739     Delta-E=       -0.000000000007 Rises=F Damp=F
 DIIS: error= 8.99D-08 at cycle   9 NSaved=   9.
 NSaved= 9 IEnMin= 9 EnMin= -226.395308903739     IErMin= 9 ErrMin= 8.99D-08
 ErrMax= 8.99D-08  0.00D+00 EMaxC= 1.00D-01 BMatC= 2.32D-13 BMatP= 2.06D-12
 IDIUse=1 WtCom= 1.00D+00 WtEn= 0.00D+00
 Coeff-Com: -0.157D-03 0.451D-02-0.615D-02-0.157D-01 0.481D-01 0.360D-01
 Coeff-Com: -0.198D+00-0.264D-01 0.116D+01
 Coeff:     -0.157D-03 0.451D-02-0.615D-02-0.157D-01 0.481D-01 0.360D-01
 Coeff:     -0.198D+00-0.264D-01 0.116D+01
 Gap=     0.553 Goal=   None    Shift=    0.000
 RMSDP=2.85D-08 MaxDP=2.33D-07 DE=-6.59D-12 OVMax= 4.81D-07

 Cycle  10  Pass 1  IDiag  1:
 E= -226.395308903740     Delta-E=       -0.000000000001 Rises=F Damp=F
 DIIS: error= 2.91D-08 at cycle  10 NSaved=  10.
 NSaved=10 IEnMin=10 EnMin= -226.395308903740     IErMin=10 ErrMin= 2.91D-08
 ErrMax= 2.91D-08  0.00D+00 EMaxC= 1.00D-01 BMatC= 2.44D-14 BMatP= 2.32D-13
 IDIUse=1 WtCom= 1.00D+00 WtEn= 0.00D+00
 Coeff-Com: -0.301D-04 0.610D-03-0.449D-03-0.247D-02 0.443D-02 0.762D-02
 Coeff-Com: -0.103D-01-0.859D-01 0.788D-01 0.101D+01
 Coeff:     -0.301D-04 0.610D-03-0.449D-03-0.247D-02 0.443D-02 0.762D-02
 Coeff:     -0.103D-01-0.859D-01 0.788D-01 0.101D+01
 Gap=     0.553 Goal=   None    Shift=    0.000
 RMSDP=6.97D-09 MaxDP=5.53D-08 DE=-7.96D-13 OVMax= 1.02D-07

 SCF Done:  E(RHF) =  -226.395308904     A.U. after   10 cycles
            NFock= 10  Conv=0.70D-08     -V/T= 2.0035
 KE= 2.256113254535D+02 PE=-7.664869294956D+02 EE= 1.978863140818D+02
 Leave Link  502 at Fri Apr 12 15:36:32 2019, MaxMem=   134217728 cpu:         0.3
 (Enter /cm/shared/c3ddb/gaussian/09.d01/g09/l701.exe)
 Compute integral first derivatives.
 ... and contract with generalized density number  0.
 Leave Link  701 at Fri Apr 12 15:36:32 2019, MaxMem=   134217728 cpu:         0.3
 (Enter /cm/shared/c3ddb/gaussian/09.d01/g09/l702.exe)
 L702 exits ... SP integral derivatives will be done elsewhere.
 Leave Link  702 at Fri Apr 12 15:36:33 2019, MaxMem=   134217728 cpu:         0.1
 (Enter /cm/shared/c3ddb/gaussian/09.d01/g09/l703.exe)
 Compute integral first derivatives, UseDBF=F ICtDFT=           0.
 Integral derivatives from FoFJK, PRISM(SPDF).
 Calling FoFJK, ICntrl=      2127 FMM=F ISym2X=0 I1Cent= 0 IOpClX= 0 NMat=1 NMatS=1 NMatT=0.
 FoFJK:  IHMeth= 1 ICntrl=    2127 DoSepK=F KAlg= 0 I1Cent=   0 FoldK=F
 IRaf=         0 NMat=   1 IRICut=       1 DoRegI=T DoRafI=F ISym2E= 0.
 FoFCou: FMM=F IPFlag=           0 FMFlag=      100000 FMFlg1=         800
         NFxFlg=           0 DoJE=F BraDBF=F KetDBF=F FulRan=T
         wScrn=  0.000000 ICntrl=    2127 IOpCl=  0 I1Cent=           0 NGrid=           0
         NMat0=    1 NMatS0=      1 NMatT0=    0 NMatD0=    1 NMtDS0=    0 NMtDT0=    0
 Symmetry not used in FoFCou.
 Leave Link  703 at Fri Apr 12 15:36:33 2019, MaxMem=   134217728 cpu:         0.3
 (Enter /cm/shared/c3ddb/gaussian/09.d01/g09/l716.exe)
 Dipole        = 2.45502369D-01 1.23260700D-01-7.04289187D-01
 -------------------------------------------------------------------
 Center     Atomic                   Forces (Hartrees/Bohr)
 Number     Number              X              Y              Z
 -------------------------------------------------------------------
      1        6          -0.000060972    0.000096272    0.001064625
      2        6          -0.000002808    0.000025955   -0.000268069
      3        1           0.000050052   -0.000000926    0.000026785
      4        1          -0.000002868    0.000008476    0.000007504
      5        1           0.000003735   -0.000007956    0.000004888
      6        8          -0.000157837    0.000004131   -0.000798430
      7        8           0.001128110    0.000077161   -0.000586499
      8        1          -0.000957411   -0.000203114    0.000549195
 -------------------------------------------------------------------
 Cartesian Forces:  Max     0.001128110 RMS     0.000445669
 Leave Link  716 at Fri Apr 12 15:36:33 2019, MaxMem=   134217728 cpu:         0.1
 (Enter /cm/shared/c3ddb/gaussian/09.d01/g09/l103.exe)

 GradGradGradGradGradGradGradGradGradGradGradGradGradGradGradGradGradGrad
 Berny optimization.
 Using GEDIIS/GDIIS optimizer.
 FormGI is forming the generalized inverse of G from B-inverse, IUseBI=4.
 Internal  Forces:  Max     0.002025286 RMS     0.000444253
 Search for a local minimum.
 Step number   3 out of a maximum of   32
 All quantities printed in internal units (Hartrees-Bohrs-Radians)
 RMS Force = .43518D-04 SwitMx=.10000D-02 MixMth= 2
 Mixed Optimization -- En-DIIS/RFO-DIIS
 Swapping is turned off.
 Update second derivatives using D2CorX and points    1    2    3
 DE= -5.82D-06 DEPred=-6.10D-06 R= 9.55D-01
 TightC=F SS=  1.41D+00  RLast= 5.47D-03 DXNew= 5.0454D-01 1.6414D-02
 Trust test= 9.55D-01 RLast= 5.47D-03 DXMaxT set to 3.00D-01
 ITU=  1  0  0
     Eigenvalues ---    0.02581   0.03276   0.03294   0.15974   0.16000
     Eigenvalues ---    0.16006   0.17993   0.21971   0.29520   0.37115
     Eigenvalues ---    0.37202   0.37504   0.42402   0.52758   0.53521
     Eigenvalues ---    0.649001000.000001000.000001000.000001000.00000
     Eigenvalues --- 1000.000001000.00000
 En-DIIS/RFO-DIIS IScMMF=        0 using points:     3    2    1
 RFO step:  Lambda=-2.01194584D-07.
 NNeg= 0 NP= 3 Switch=  2.50D-03 Rises=F DC=  7.04D-06 SmlDif=  1.00D-05
 RMS Error=  0.8134146257D-04 NUsed= 3 EDIIS=F
 DidBck=F Rises=F RFO-DIIS coefs:    0.83285    0.10228    0.06487
 Iteration  1 RMS(Cart)=  0.00025090 RMS(Int)=  0.00000012
 Iteration  2 RMS(Cart)=  0.00000008 RMS(Int)=  0.00000010
 Iteration  1 RMS(Cart)=  0.00000004 RMS(Int)=  0.00000002
 ITry= 1 IFail=0 DXMaxC= 5.64D-04 DCOld= 1.00D+10 DXMaxT= 3.00D-01 DXLimC= 3.00D+00 Rises=F
 Variable       Old X    -DE/DX   Delta X   Delta X   Delta X     New X
                                 (Linear)    (Quad)   (Total)
    R1        2.47413  -0.00002  -0.00003   0.00001  -0.00002   2.47411
    R2        2.01758   0.00002   0.00003   0.00001   0.00005   2.01763
    R3        2.65043  -0.00002   0.00010  -0.00011  -0.00001   2.65042
    R4        2.02234   0.00000   0.00000  -0.00001  -0.00001   2.02234
    R5        2.02370   0.00000   0.00000   0.00001   0.00001   2.02371
    R6        2.76423  -0.00016  -0.00039   0.00005  -0.00035   2.76388
    R7        1.83747   0.00006   0.00007   0.00002   0.00010   1.83757
    A1        2.18768  -0.00004   0.00004  -0.00031  -0.00026   2.18742
    A2        2.10922   0.00000  -0.00011   0.00012   0.00002   2.10924
    A3        1.98590   0.00004   0.00006   0.00017   0.00023   1.98613
    A4        2.09796  -0.00002   0.00000  -0.00008  -0.00008   2.09788
    A5        2.12250   0.00002  -0.00001   0.00009   0.00008   2.12257
    A6        2.06268   0.00000   0.00001  -0.00001   0.00000   2.06269
    A7        1.86944  -0.00003  -0.00002   0.00003   0.00001   1.86945
    A8        1.75304  -0.00003   0.00006  -0.00010  -0.00003   1.75300
    D1        0.00440   0.00008  -0.00032   0.00003  -0.00029   0.00412
    D2        3.13586   0.00007  -0.00026  -0.00031  -0.00057   3.13529
    D3       -3.10580  -0.00007   0.00006   0.00052   0.00059  -3.10521
    D4        0.02566  -0.00008   0.00012   0.00018   0.00030   0.02596
    D5       -2.96706   0.00036   0.00000   0.00000   0.00000  -2.96706
    D6        0.20252   0.00022   0.00034   0.00045   0.00079   0.20330
    D7        2.09439   0.00203   0.00000   0.00000   0.00000   2.09439
         Item               Value     Threshold  Converged?
 Maximum Force            0.000161     0.000015     NO 
 RMS     Force            0.000044     0.000010     NO 
 Maximum Displacement     0.000564     0.000060     NO 
 RMS     Displacement     0.000251     0.000040     NO 
 Predicted change in Energy=-7.023136D-08
 Lowest energy point so far.  Saving SCF results.
 GradGradGradGradGradGradGradGradGradGradGradGradGradGradGradGradGradGrad

 Leave Link  103 at Fri Apr 12 15:36:33 2019, MaxMem=   134217728 cpu:         0.0
 (Enter /cm/shared/c3ddb/gaussian/09.d01/g09/l202.exe)
                          Input orientation:                          
 ---------------------------------------------------------------------
 Center     Atomic      Atomic             Coordinates (Angstroms)
 Number     Number       Type             X           Y           Z
 ---------------------------------------------------------------------
      1          6           0        0.728608    0.636429    0.029980
      2          6           0        1.369625   -0.504300   -0.014245
      3          1           0        1.185474    1.599327    0.093628
      4          1           0        2.439198   -0.522308    0.016811
      5          1           0        0.849516   -1.438616   -0.072267
      6          8           0       -0.673428    0.673889    0.033925
      7          8           0       -1.067158    2.069675   -0.155573
      8          1           0       -1.580406    1.997824   -0.978358
 ---------------------------------------------------------------------
                    Distance matrix (angstroms):
                    1          2          3          4          5
     1  C    0.000000
     2  C    1.309244   0.000000
     3  H    1.067685   2.114425   0.000000
     4  H    2.066147   1.070176   2.465575   0.000000
     5  H    2.081078   1.070900   3.060962   1.837021   0.000000
     6  O    1.402542   2.358922   2.077382   3.334610   2.606399
     7  O    2.305082   3.547286   2.314667   4.363786   3.998586
     8  H    2.863858   3.986580   2.992999   4.847540   4.305188
                    6          7          8
     6  O    0.000000
     7  O    1.462584   0.000000
     8  H    1.897401   0.972399   0.000000
 Symmetry turned off by external request.
 Stoichiometry    C2H4O2
 Framework group  C1[X(C2H4O2)]
 Deg. of freedom    18
 Full point group                 C1      NOp   1
 Rotational constants (GHZ):     42.8407455      4.5481376      4.1774465
 Leave Link  202 at Fri Apr 12 15:36:33 2019, MaxMem=   134217728 cpu:         0.0
 (Enter /cm/shared/c3ddb/gaussian/09.d01/g09/l301.exe)
 Standard basis: 3-21G (6D, 7F)
 Ernie: Thresh=  0.10000D-02 Tol=  0.10000D-05 Strict=F.
    44 basis functions,    72 primitive gaussians,    44 cartesian basis functions
    16 alpha electrons       16 beta electrons
       nuclear repulsion energy       116.5978356524 Hartrees.
 IExCor=    0 DFT=F Ex=HF Corr=None ExCW=0 ScaHFX=  1.000000
 ScaDFX=  1.000000  1.000000  1.000000  1.000000 ScalE2=  1.000000  1.000000
 IRadAn=      0 IRanWt=     -1 IRanGd=            0 ICorTp=0 IEmpDi=  4
 NAtoms=    8 NActive=    8 NUniq=    8 SFac= 1.00D+00 NAtFMM=   60 NAOKFM=F Big=F
 Integral buffers will be    131072 words long.
 Raffenetti 1 integral format.
 Two-electron integral symmetry is turned off.
 Leave Link  301 at Fri Apr 12 15:36:34 2019, MaxMem=   134217728 cpu:         0.3
 (Enter /cm/shared/c3ddb/gaussian/09.d01/g09/l302.exe)
 NPDir=0 NMtPBC=     1 NCelOv=     1 NCel=       1 NClECP=     1 NCelD=      1
         NCelK=      1 NCelE2=     1 NClLst=     1 CellRange=     0.0.
 One-electron integrals computed using PRISM.
 NBasis=    44 RedAO= T EigKep=  1.13D-02  NBF=    44
 NBsUse=    44 1.00D-06 EigRej= -1.00D+00 NBFU=    44
 Leave Link  302 at Fri Apr 12 15:36:34 2019, MaxMem=   134217728 cpu:         0.3
 (Enter /cm/shared/c3ddb/gaussian/09.d01/g09/l303.exe)
 DipDrv:  MaxL=1.
 Leave Link  303 at Fri Apr 12 15:36:34 2019, MaxMem=   134217728 cpu:         0.1
 (Enter /cm/shared/c3ddb/gaussian/09.d01/g09/l401.exe)
 Initial guess from the checkpoint file:  "TMP_CALCS/scangeom_S02_190_120.chk"
 B after Tr=    -0.000015    0.000093    0.000046
         Rot=    1.000000    0.000043   -0.000052    0.000012 Ang=   0.01 deg.
 Guess basis will be translated and rotated to current coordinates.
 JPrj=2 DoOrth=T DoCkMO=T.
 Leave Link  401 at Fri Apr 12 15:36:35 2019, MaxMem=   134217728 cpu:         0.4
 (Enter /cm/shared/c3ddb/gaussian/09.d01/g09/l502.exe)
 Closed shell SCF:
 Using DIIS extrapolation, IDIIS=  1040.
 Two-electron integral symmetry not used.
 Keep R1 ints in memory in canonical form, NReq=1327190.
 IVT=       24902 IEndB=       24902 NGot=   134217728 MDV=   133702282
 LenX=   133702282 LenY=   133699905
 Requested convergence on RMS density matrix=1.00D-08 within 128 cycles.
 Requested convergence on MAX density matrix=1.00D-06.
 Requested convergence on             energy=1.00D-06.
 No special actions if energy rises.
 FoFCou: FMM=F IPFlag=           0 FMFlag=           0 FMFlg1=           0
         NFxFlg=           0 DoJE=F BraDBF=F KetDBF=F FulRan=T
         wScrn=  0.000000 ICntrl=     600 IOpCl=  0 I1Cent=           0 NGrid=           0
         NMat0=    1 NMatS0=    990 NMatT0=    0 NMatD0=    1 NMtDS0=    0 NMtDT0=    0
 Symmetry not used in FoFCou.

 Cycle   1  Pass 1  IDiag  1:
 E= -226.395308899402    
 DIIS: error= 2.40D-05 at cycle   1 NSaved=   1.
 NSaved= 1 IEnMin= 1 EnMin= -226.395308899402     IErMin= 1 ErrMin= 2.40D-05
 ErrMax= 2.40D-05  0.00D+00 EMaxC= 1.00D-01 BMatC= 4.46D-08 BMatP= 4.46D-08
 IDIUse=1 WtCom= 1.00D+00 WtEn= 0.00D+00
 Coeff-Com:  0.100D+01
 Coeff:      0.100D+01
 Gap=     0.933 Goal=   None    Shift=    0.000
 RMSDP=5.64D-06 MaxDP=3.48D-05              OVMax= 5.28D-05

 Cycle   2  Pass 1  IDiag  1:
 E= -226.395308958917     Delta-E=       -0.000000059516 Rises=F Damp=F
 DIIS: error= 9.37D-06 at cycle   2 NSaved=   2.
 NSaved= 2 IEnMin= 2 EnMin= -226.395308958917     IErMin= 2 ErrMin= 9.37D-06
 ErrMax= 9.37D-06  0.00D+00 EMaxC= 1.00D-01 BMatC= 3.00D-09 BMatP= 4.46D-08
 IDIUse=1 WtCom= 1.00D+00 WtEn= 0.00D+00
 Coeff-Com: -0.202D+00 0.120D+01
 Coeff:     -0.202D+00 0.120D+01
 Gap=     0.553 Goal=   None    Shift=    0.000
 RMSDP=2.31D-06 MaxDP=1.97D-05 DE=-5.95D-08 OVMax= 3.23D-05

 Cycle   3  Pass 1  IDiag  1:
 E= -226.395308966652     Delta-E=       -0.000000007734 Rises=F Damp=F
 DIIS: error= 3.23D-06 at cycle   3 NSaved=   3.
 NSaved= 3 IEnMin= 3 EnMin= -226.395308966652     IErMin= 3 ErrMin= 3.23D-06
 ErrMax= 3.23D-06  0.00D+00 EMaxC= 1.00D-01 BMatC= 4.00D-10 BMatP= 3.00D-09
 IDIUse=1 WtCom= 1.00D+00 WtEn= 0.00D+00
 Coeff-Com: -0.500D-01 0.860D-01 0.964D+00
 Coeff:     -0.500D-01 0.860D-01 0.964D+00
 Gap=     0.553 Goal=   None    Shift=    0.000
 RMSDP=7.58D-07 MaxDP=4.90D-06 DE=-7.73D-09 OVMax= 1.01D-05

 Cycle   4  Pass 1  IDiag  1:
 E= -226.395308967516     Delta-E=       -0.000000000864 Rises=F Damp=F
 DIIS: error= 1.53D-06 at cycle   4 NSaved=   4.
 NSaved= 4 IEnMin= 4 EnMin= -226.395308967516     IErMin= 4 ErrMin= 1.53D-06
 ErrMax= 1.53D-06  0.00D+00 EMaxC= 1.00D-01 BMatC= 1.01D-10 BMatP= 4.00D-10
 IDIUse=1 WtCom= 1.00D+00 WtEn= 0.00D+00
 Coeff-Com:  0.282D-01-0.226D+00 0.233D+00 0.964D+00
 Coeff:      0.282D-01-0.226D+00 0.233D+00 0.964D+00
 Gap=     0.553 Goal=   None    Shift=    0.000
 RMSDP=4.41D-07 MaxDP=3.08D-06 DE=-8.64D-10 OVMax= 6.52D-06

 Cycle   5  Pass 1  IDiag  1:
 E= -226.395308967743     Delta-E=       -0.000000000228 Rises=F Damp=F
 DIIS: error= 4.40D-07 at cycle   5 NSaved=   5.
 NSaved= 5 IEnMin= 5 EnMin= -226.395308967743     IErMin= 5 ErrMin= 4.40D-07
 ErrMax= 4.40D-07  0.00D+00 EMaxC= 1.00D-01 BMatC= 6.82D-12 BMatP= 1.01D-10
 IDIUse=1 WtCom= 1.00D+00 WtEn= 0.00D+00
 Coeff-Com:  0.163D-02 0.147D-01-0.116D+00-0.776D-01 0.118D+01
 Coeff:      0.163D-02 0.147D-01-0.116D+00-0.776D-01 0.118D+01
 Gap=     0.553 Goal=   None    Shift=    0.000
 RMSDP=1.51D-07 MaxDP=1.19D-06 DE=-2.28D-10 OVMax= 2.56D-06

 Cycle   6  Pass 1  IDiag  1:
 E= -226.395308967765     Delta-E=       -0.000000000022 Rises=F Damp=F
 DIIS: error= 1.40D-07 at cycle   6 NSaved=   6.
 NSaved= 6 IEnMin= 6 EnMin= -226.395308967765     IErMin= 6 ErrMin= 1.40D-07
 ErrMax= 1.40D-07  0.00D+00 EMaxC= 1.00D-01 BMatC= 9.75D-13 BMatP= 6.82D-12
 IDIUse=1 WtCom= 1.00D+00 WtEn= 0.00D+00
 Coeff-Com: -0.315D-02 0.310D-01-0.549D-01-0.136D+00 0.246D+00 0.917D+00
 Coeff:     -0.315D-02 0.310D-01-0.549D-01-0.136D+00 0.246D+00 0.917D+00
 Gap=     0.553 Goal=   None    Shift=    0.000
 RMSDP=4.62D-08 MaxDP=3.74D-07 DE=-2.19D-11 OVMax= 7.87D-07

 Cycle   7  Pass 1  IDiag  1:
 E= -226.395308967768     Delta-E=       -0.000000000002 Rises=F Damp=F
 DIIS: error= 6.95D-08 at cycle   7 NSaved=   7.
 NSaved= 7 IEnMin= 7 EnMin= -226.395308967768     IErMin= 7 ErrMin= 6.95D-08
 ErrMax= 6.95D-08  0.00D+00 EMaxC= 1.00D-01 BMatC= 8.26D-14 BMatP= 9.75D-13
 IDIUse=1 WtCom= 1.00D+00 WtEn= 0.00D+00
 Coeff-Com:  0.597D-03-0.899D-02 0.251D-01 0.417D-01-0.171D+00-0.220D+00
 Coeff-Com:  0.133D+01
 Coeff:      0.597D-03-0.899D-02 0.251D-01 0.417D-01-0.171D+00-0.220D+00
 Coeff:      0.133D+01
 Gap=     0.553 Goal=   None    Shift=    0.000
 RMSDP=1.77D-08 MaxDP=1.47D-07 DE=-2.39D-12 OVMax= 3.10D-07

 Cycle   8  Pass 1  IDiag  1:
 E= -226.395308967768     Delta-E=        0.000000000000 Rises=F Damp=F
 DIIS: error= 2.35D-08 at cycle   8 NSaved=   8.
 NSaved= 8 IEnMin= 8 EnMin= -226.395308967768     IErMin= 8 ErrMin= 2.35D-08
 ErrMax= 2.35D-08  0.00D+00 EMaxC= 1.00D-01 BMatC= 1.33D-14 BMatP= 8.26D-14
 IDIUse=1 WtCom= 1.00D+00 WtEn= 0.00D+00
 Coeff-Com:  0.326D-03-0.326D-02 0.619D-02 0.135D-01-0.259D-01-0.105D+00
 Coeff-Com:  0.866D-02 0.111D+01
 Coeff:      0.326D-03-0.326D-02 0.619D-02 0.135D-01-0.259D-01-0.105D+00
 Coeff:      0.866D-02 0.111D+01
 Gap=     0.553 Goal=   None    Shift=    0.000
 RMSDP=6.26D-09 MaxDP=6.09D-08 DE=-2.84D-13 OVMax= 1.08D-07

 SCF Done:  E(RHF) =  -226.395308968     A.U. after    8 cycles
            NFock=  8  Conv=0.63D-08     -V/T= 2.0035
 KE= 2.256116295299D+02 PE=-7.664948044289D+02 EE= 1.978900302789D+02
 Leave Link  502 at Fri Apr 12 15:36:35 2019, MaxMem=   134217728 cpu:         0.3
 (Enter /cm/shared/c3ddb/gaussian/09.d01/g09/l701.exe)
 Compute integral first derivatives.
 ... and contract with generalized density number  0.
 Leave Link  701 at Fri Apr 12 15:36:36 2019, MaxMem=   134217728 cpu:         0.2
 (Enter /cm/shared/c3ddb/gaussian/09.d01/g09/l702.exe)
 L702 exits ... SP integral derivatives will be done elsewhere.
 Leave Link  702 at Fri Apr 12 15:36:36 2019, MaxMem=   134217728 cpu:         0.1
 (Enter /cm/shared/c3ddb/gaussian/09.d01/g09/l703.exe)
 Compute integral first derivatives, UseDBF=F ICtDFT=           0.
 Integral derivatives from FoFJK, PRISM(SPDF).
 Calling FoFJK, ICntrl=      2127 FMM=F ISym2X=0 I1Cent= 0 IOpClX= 0 NMat=1 NMatS=1 NMatT=0.
 FoFJK:  IHMeth= 1 ICntrl=    2127 DoSepK=F KAlg= 0 I1Cent=   0 FoldK=F
 IRaf=         0 NMat=   1 IRICut=       1 DoRegI=T DoRafI=F ISym2E= 0.
 FoFCou: FMM=F IPFlag=           0 FMFlag=      100000 FMFlg1=         800
         NFxFlg=           0 DoJE=F BraDBF=F KetDBF=F FulRan=T
         wScrn=  0.000000 ICntrl=    2127 IOpCl=  0 I1Cent=           0 NGrid=           0
         NMat0=    1 NMatS0=      1 NMatT0=    0 NMatD0=    1 NMtDS0=    0 NMtDT0=    0
 Symmetry not used in FoFCou.
 Leave Link  703 at Fri Apr 12 15:36:36 2019, MaxMem=   134217728 cpu:         0.3
 (Enter /cm/shared/c3ddb/gaussian/09.d01/g09/l716.exe)
 Dipole        = 2.45353634D-01 1.23008260D-01-7.04086863D-01
 -------------------------------------------------------------------
 Center     Atomic                   Forces (Hartrees/Bohr)
[...]
 IDIUse=1 WtCom= 1.00D+00 WtEn= 0.00D+00
 Coeff-Com:  0.100D+01
 Coeff:      0.100D+01
 Gap=     0.933 Goal=   None    Shift=    0.000
 RMSDP=1.50D-06 MaxDP=1.04D-05              OVMax= 1.44D-05

 Cycle   2  Pass 1  IDiag  1:
 E= -226.395308971570     Delta-E=       -0.000000004905 Rises=F Damp=F
 DIIS: error= 1.78D-06 at cycle   2 NSaved=   2.
 NSaved= 2 IEnMin= 2 EnMin= -226.395308971570     IErMin= 2 ErrMin= 1.78D-06
 ErrMax= 1.78D-06  0.00D+00 EMaxC= 1.00D-01 BMatC= 2.59D-10 BMatP= 3.58D-09
 IDIUse=1 WtCom= 1.00D+00 WtEn= 0.00D+00
 Coeff-Com: -0.165D+00 0.117D+01
 Coeff:     -0.165D+00 0.117D+01
 Gap=     0.553 Goal=   None    Shift=    0.000
 RMSDP=6.06D-07 MaxDP=3.67D-06 DE=-4.91D-09 OVMax= 7.58D-06

 Cycle   3  Pass 1  IDiag  1:
 E= -226.395308972114     Delta-E=       -0.000000000544 Rises=F Damp=F
 DIIS: error= 7.71D-07 at cycle   3 NSaved=   3.
 NSaved= 3 IEnMin= 3 EnMin= -226.395308972114     IErMin= 3 ErrMin= 7.71D-07
 ErrMax= 7.71D-07  0.00D+00 EMaxC= 1.00D-01 BMatC= 5.46D-11 BMatP= 2.59D-10
 IDIUse=1 WtCom= 1.00D+00 WtEn= 0.00D+00
 Coeff-Com: -0.917D-01 0.315D+00 0.776D+00
 Coeff:     -0.917D-01 0.315D+00 0.776D+00
 Gap=     0.553 Goal=   None    Shift=    0.000
 RMSDP=1.95D-07 MaxDP=1.07D-06 DE=-5.44D-10 OVMax= 2.56D-06

 Cycle   4  Pass 1  IDiag  1:
 E= -226.395308972186     Delta-E=       -0.000000000072 Rises=F Damp=F
 DIIS: error= 3.59D-07 at cycle   4 NSaved=   4.
 NSaved= 4 IEnMin= 4 EnMin= -226.395308972186     IErMin= 4 ErrMin= 3.59D-07
 ErrMax= 3.59D-07  0.00D+00 EMaxC= 1.00D-01 BMatC= 7.11D-12 BMatP= 5.46D-11
 IDIUse=1 WtCom= 1.00D+00 WtEn= 0.00D+00
 Coeff-Com:  0.237D-01-0.186D+00 0.612D-01 0.110D+01
 Coeff:      0.237D-01-0.186D+00 0.612D-01 0.110D+01
 Gap=     0.553 Goal=   None    Shift=    0.000
 RMSDP=1.33D-07 MaxDP=8.28D-07 DE=-7.19D-11 OVMax= 1.94D-06

 Cycle   5  Pass 1  IDiag  1:
 E= -226.395308972204     Delta-E=       -0.000000000018 Rises=F Damp=F
 DIIS: error= 1.49D-07 at cycle   5 NSaved=   5.
 NSaved= 5 IEnMin= 5 EnMin= -226.395308972204     IErMin= 5 ErrMin= 1.49D-07
 ErrMax= 1.49D-07  0.00D+00 EMaxC= 1.00D-01 BMatC= 5.80D-13 BMatP= 7.11D-12
 IDIUse=1 WtCom= 1.00D+00 WtEn= 0.00D+00
 Coeff-Com:  0.458D-02-0.679D-02-0.590D-01-0.126D+00 0.119D+01
 Coeff:      0.458D-02-0.679D-02-0.590D-01-0.126D+00 0.119D+01
 Gap=     0.553 Goal=   None    Shift=    0.000
 RMSDP=4.60D-08 MaxDP=3.19D-07 DE=-1.84D-11 OVMax= 7.22D-07

 Cycle   6  Pass 1  IDiag  1:
 E= -226.395308972206     Delta-E=       -0.000000000002 Rises=F Damp=F
 DIIS: error= 7.96D-08 at cycle   6 NSaved=   6.
 NSaved= 6 IEnMin= 6 EnMin= -226.395308972206     IErMin= 6 ErrMin= 7.96D-08
 ErrMax= 7.96D-08  0.00D+00 EMaxC= 1.00D-01 BMatC= 1.10D-13 BMatP= 5.80D-13
 IDIUse=1 WtCom= 1.00D+00 WtEn= 0.00D+00
 Coeff-Com: -0.358D-02 0.321D-01-0.160D-01-0.216D+00 0.168D+00 0.104D+01
 Coeff:     -0.358D-02 0.321D-01-0.160D-01-0.216D+00 0.168D+00 0.104D+01
 Gap=     0.553 Goal=   None    Shift=    0.000
 RMSDP=1.97D-08 MaxDP=1.34D-07 DE=-1.93D-12 OVMax= 3.37D-07

 Cycle   7  Pass 1  IDiag  1:
 E= -226.395308972206     Delta-E=        0.000000000000 Rises=F Damp=F
 DIIS: error= 3.78D-08 at cycle   7 NSaved=   7.
 NSaved= 7 IEnMin= 6 EnMin= -226.395308972206     IErMin= 7 ErrMin= 3.78D-08
 ErrMax= 3.78D-08  0.00D+00 EMaxC= 1.00D-01 BMatC= 1.36D-14 BMatP= 1.10D-13
 IDIUse=1 WtCom= 1.00D+00 WtEn= 0.00D+00
 Coeff-Com:  0.129D-02-0.153D-01 0.158D-01 0.121D+00-0.215D+00-0.521D+00
 Coeff-Com:  0.161D+01
 Coeff:      0.129D-02-0.153D-01 0.158D-01 0.121D+00-0.215D+00-0.521D+00
 Coeff:      0.161D+01
 Gap=     0.553 Goal=   None    Shift=    0.000
 RMSDP=9.28D-09 MaxDP=6.05D-08 DE= 5.68D-14 OVMax= 2.06D-07

 SCF Done:  E(RHF) =  -226.395308972     A.U. after    7 cycles
            NFock=  7  Conv=0.93D-08     -V/T= 2.0035
 KE= 2.256116833757D+02 PE=-7.664963615542D+02 EE= 1.978907332508D+02
 Leave Link  502 at Fri Apr 12 15:36:38 2019, MaxMem=   134217728 cpu:         0.2
 (Enter /cm/shared/c3ddb/gaussian/09.d01/g09/l701.exe)
 Compute integral first derivatives.
 ... and contract with generalized density number  0.
 Leave Link  701 at Fri Apr 12 15:36:39 2019, MaxMem=   134217728 cpu:         0.2
 (Enter /cm/shared/c3ddb/gaussian/09.d01/g09/l702.exe)
 L702 exits ... SP integral derivatives will be done elsewhere.
 Leave Link  702 at Fri Apr 12 15:36:39 2019, MaxMem=   134217728 cpu:         0.1
 (Enter /cm/shared/c3ddb/gaussian/09.d01/g09/l703.exe)
 Compute integral first derivatives, UseDBF=F ICtDFT=           0.
 Integral derivatives from FoFJK, PRISM(SPDF).
 Calling FoFJK, ICntrl=      2127 FMM=F ISym2X=0 I1Cent= 0 IOpClX= 0 NMat=1 NMatS=1 NMatT=0.
 FoFJK:  IHMeth= 1 ICntrl=    2127 DoSepK=F KAlg= 0 I1Cent=   0 FoldK=F
 IRaf=         0 NMat=   1 IRICut=       1 DoRegI=T DoRafI=F ISym2E= 0.
 FoFCou: FMM=F IPFlag=           0 FMFlag=      100000 FMFlg1=         800
         NFxFlg=           0 DoJE=F BraDBF=F KetDBF=F FulRan=T
         wScrn=  0.000000 ICntrl=    2127 IOpCl=  0 I1Cent=           0 NGrid=           0
         NMat0=    1 NMatS0=      1 NMatT0=    0 NMatD0=    1 NMtDS0=    0 NMtDT0=    0
 Symmetry not used in FoFCou.
 Leave Link  703 at Fri Apr 12 15:36:39 2019, MaxMem=   134217728 cpu:         0.2
 (Enter /cm/shared/c3ddb/gaussian/09.d01/g09/l716.exe)
 Dipole        = 2.45321388D-01 1.23095793D-01-7.04181019D-01
 -------------------------------------------------------------------
 Center     Atomic                   Forces (Hartrees/Bohr)
 Number     Number              X              Y              Z
 -------------------------------------------------------------------
      1        6          -0.000012334    0.000083772    0.001134048
      2        6           0.000001084    0.000008123   -0.000281814
      3        1           0.000001271   -0.000001010   -0.000000291
      4        1           0.000000646    0.000000203    0.000002334
      5        1           0.000001591    0.000000221    0.000001496
      6        8          -0.000101544   -0.000119224   -0.000786412
      7        8           0.001038002    0.000209755   -0.000667838
      8        1          -0.000928716   -0.000181840    0.000598477
 -------------------------------------------------------------------
 Cartesian Forces:  Max     0.001134048 RMS     0.000448930
 Leave Link  716 at Fri Apr 12 15:36:39 2019, MaxMem=   134217728 cpu:         0.1
 (Enter /cm/shared/c3ddb/gaussian/09.d01/g09/l103.exe)

 GradGradGradGradGradGradGradGradGradGradGradGradGradGradGradGradGradGrad
 Berny optimization.
 Using GEDIIS/GDIIS optimizer.
 FormGI is forming the generalized inverse of G from B-inverse, IUseBI=4.
 Internal  Forces:  Max     0.002023477 RMS     0.000442946
 Search for a local minimum.
 Step number   5 out of a maximum of   32
 All quantities printed in internal units (Hartrees-Bohrs-Radians)
 RMS Force = .38262D-05 SwitMx=.10000D-02 MixMth= 2
 Mixed Optimization -- En-DIIS/RFO-DIIS
 Swapping is turned off.
 Update second derivatives using D2CorX and points    1    2    3    4    5
 DE= -4.44D-09 DEPred=-4.45D-09 R= 9.98D-01
 Trust test= 9.98D-01 RLast= 3.39D-04 DXMaxT set to 3.00D-01
 ITU=  0  0  1  0  0
     Eigenvalues ---    0.02820   0.03274   0.04734   0.12013   0.15999
     Eigenvalues ---    0.16043   0.18615   0.21164   0.28950   0.37109
     Eigenvalues ---    0.37186   0.37378   0.40136   0.51738   0.53455
     Eigenvalues ---    0.650391000.000001000.000001000.000001000.00000
     Eigenvalues --- 1000.000001000.00000
 En-DIIS/RFO-DIIS IScMMF=        0 using points:     5    4    3    2    1
 RFO step:  Lambda=-1.37070790D-07.
 NNeg= 0 NP= 5 Switch=  2.50D-03 Rises=F DC=  7.04D-06 SmlDif=  1.00D-05
 RMS Error=  0.1602594783D-04 NUsed= 5 EDIIS=F
 DidBck=F Rises=F RFO-DIIS coefs:    1.11213    0.00289   -0.08634   -0.01732   -0.01135
 Iteration  1 RMS(Cart)=  0.00002991 RMS(Int)=  0.00000005
 Iteration  2 RMS(Cart)=  0.00000000 RMS(Int)=  0.00000005
 Iteration  1 RMS(Cart)=  0.00000005 RMS(Int)=  0.00000003
 ITry= 1 IFail=0 DXMaxC= 5.89D-05 DCOld= 1.00D+10 DXMaxT= 3.00D-01 DXLimC= 3.00D+00 Rises=F
 Variable       Old X    -DE/DX   Delta X   Delta X   Delta X     New X
                                 (Linear)    (Quad)   (Total)
    R1        2.47412   0.00000   0.00000   0.00000   0.00001   2.47413
    R2        2.01765   0.00000   0.00000   0.00000   0.00000   2.01765
    R3        2.65035  -0.00001  -0.00003  -0.00002  -0.00004   2.65031
    R4        2.02234   0.00000   0.00000   0.00000   0.00000   2.02234
    R5        2.02371   0.00000   0.00000   0.00000   0.00000   2.02370
    R6        2.76386   0.00001   0.00002  -0.00001   0.00001   2.76387
    R7        1.83758   0.00000   0.00000   0.00000   0.00000   1.83758
    A1        2.18733   0.00000  -0.00005   0.00000  -0.00004   2.18729
    A2        2.10928   0.00001   0.00002   0.00001   0.00003   2.10931
    A3        1.98618   0.00000   0.00002  -0.00001   0.00001   1.98619
    A4        2.09784   0.00000  -0.00001   0.00000  -0.00002   2.09783
    A5        2.12262   0.00000   0.00002   0.00001   0.00002   2.12264
    A6        2.06268   0.00000   0.00000   0.00000  -0.00001   2.06267
    A7        1.86944   0.00000   0.00000   0.00001   0.00001   1.86946
    A8        1.75303   0.00000  -0.00001   0.00000  -0.00001   1.75302
    D1        0.00401   0.00010   0.00001   0.00004   0.00005   0.00406
    D2        3.13541   0.00009  -0.00001  -0.00002  -0.00003   3.13538
    D3       -3.10544  -0.00009   0.00003   0.00001   0.00004  -3.10540
    D4        0.02595  -0.00009   0.00001  -0.00005  -0.00004   0.02591
    D5       -2.96706   0.00038   0.00000   0.00000   0.00000  -2.96706
    D6        0.20319   0.00021   0.00002  -0.00002  -0.00001   0.20318
    D7        2.09439   0.00202   0.00000   0.00000   0.00000   2.09439
         Item               Value     Threshold  Converged?
 Maximum Force            0.000013     0.000015     YES
 RMS     Force            0.000004     0.000010     YES
 Maximum Displacement     0.000059     0.000060     YES
 RMS     Displacement     0.000030     0.000040     YES
 Predicted change in Energy=-6.658765D-10
 Optimization completed.
    -- Stationary point found.
                           ----------------------------
                           !   Optimized Parameters   !
                           ! (Angstroms and Degrees)  !
 --------------------------                            --------------------------
 ! Name  Definition              Value          Derivative Info.                !
 --------------------------------------------------------------------------------
 ! R1    R(1,2)                  1.3092         -DE/DX =    0.0                 !
 ! R2    R(1,3)                  1.0677         -DE/DX =    0.0                 !
 ! R3    R(1,6)                  1.4025         -DE/DX =    0.0                 !
 ! R4    R(2,4)                  1.0702         -DE/DX =    0.0                 !
 ! R5    R(2,5)                  1.0709         -DE/DX =    0.0                 !
 ! R6    R(6,7)                  1.4626         -DE/DX =    0.0                 !
 ! R7    R(7,8)                  0.9724         -DE/DX =    0.0                 !
 ! A1    A(2,1,3)              125.3248         -DE/DX =    0.0                 !
 ! A2    A(2,1,6)              120.8526         -DE/DX =    0.0                 !
 ! A3    A(3,1,6)              113.7999         -DE/DX =    0.0                 !
 ! A4    A(1,2,4)              120.1976         -DE/DX =    0.0                 !
 ! A5    A(1,2,5)              121.6172         -DE/DX =    0.0                 !
 ! A6    A(4,2,5)              118.1828         -DE/DX =    0.0                 !
 ! A7    A(1,6,7)              107.1112         -DE/DX =    0.0                 !
 ! A8    A(6,7,8)              100.4412         -DE/DX =    0.0                 !
 ! D1    D(3,1,2,4)              0.23           -DE/DX =    0.0001              !
 ! D2    D(3,1,2,5)            179.6457         -DE/DX =    0.0001              !
 ! D3    D(6,1,2,4)           -177.9288         -DE/DX =   -0.0001              !
 ! D4    D(6,1,2,5)              1.4869         -DE/DX =   -0.0001              !
 ! D5    D(2,1,6,7)           -170.0            -DE/DX =    0.0004              !
 ! D6    D(3,1,6,7)             11.6418         -DE/DX =    0.0002              !
 ! D7    D(1,6,7,8)            120.0            -DE/DX =    0.002               !
 --------------------------------------------------------------------------------
 Lowest energy point so far.  Saving SCF results.
 GradGradGradGradGradGradGradGradGradGradGradGradGradGradGradGradGradGrad

 Largest change from initial coordinates is atom    8       0.006 Angstoms.
 Leave Link  103 at Fri Apr 12 15:36:39 2019, MaxMem=   134217728 cpu:         0.0
 (Enter /cm/shared/c3ddb/gaussian/09.d01/g09/l202.exe)
                          Input orientation:                          
 ---------------------------------------------------------------------
 Center     Atomic      Atomic             Coordinates (Angstroms)
 Number     Number       Type             X           Y           Z
 ---------------------------------------------------------------------
      1          6           0        0.728552    0.636409    0.030037
      2          6           0        1.369604   -0.504305   -0.014182
      3          1           0        1.185482    1.599289    0.093620
      4          1           0        2.439185   -0.522235    0.016716
      5          1           0        0.849566   -1.438657   -0.072248
      6          8           0       -0.673449    0.673885    0.033914
      7          8           0       -1.067147    2.069668   -0.155569
      8          1           0       -1.580361    1.997866   -0.978386
 ---------------------------------------------------------------------
                    Distance matrix (angstroms):
                    1          2          3          4          5
     1  C    0.000000
     2  C    1.309249   0.000000
     3  H    1.067692   2.114387   0.000000
     4  H    2.066131   1.070177   2.465472   0.000000
     5  H    2.081108   1.070899   3.060959   1.837017   0.000000
     6  O    1.402506   2.358922   2.077393   3.334589   2.606469
     7  O    2.305041   3.547264   2.314668   4.363714   3.998635
     8  H    2.863836   3.986583   2.992983   4.847461   4.305267
                    6          7          8
     6  O    0.000000
     7  O    1.462570   0.000000
     8  H    1.897410   0.972405   0.000000
 Symmetry turned off by external request.
 Stoichiometry    C2H4O2
 Framework group  C1[X(C2H4O2)]
 Deg. of freedom    18
 Full point group                 C1      NOp   1
 Rotational constants (GHZ):     42.8415125      4.5481945      4.1775007
 Leave Link  202 at Fri Apr 12 15:36:39 2019, MaxMem=   134217728 cpu:         0.0
 (Enter /cm/shared/c3ddb/gaussian/09.d01/g09/l601.exe)
 Copying SCF densities to generalized density rwf, IOpCl= 0 IROHF=0.

 **********************************************************************

            Population analysis using the SCF density.

 **********************************************************************

 Alpha  occ. eigenvalues --  -20.53796 -20.53026 -11.24387 -11.16451  -1.48094
 Alpha  occ. eigenvalues --   -1.24111  -1.02827  -0.79865  -0.71664  -0.66667
 Alpha  occ. eigenvalues --   -0.64489  -0.58978  -0.55178  -0.50782  -0.48789
 Alpha  occ. eigenvalues --   -0.36056
 Alpha virt. eigenvalues --    0.19199   0.22504   0.27541   0.31956   0.33995
 Alpha virt. eigenvalues --    0.35891   0.49751   0.57665   0.90312   0.96938
 Alpha virt. eigenvalues --    1.00318   1.06321   1.10867   1.12606   1.22196
 Alpha virt. eigenvalues --    1.32633   1.37154   1.57956   1.59970   1.73692
 Alpha virt. eigenvalues --    1.81717   1.89806   1.94635   2.01753   2.04974
 Alpha virt. eigenvalues --    2.28816   3.06788   3.50310
          Condensed to atoms (all electrons):
               1          2          3          4          5          6
     1  C    4.884812   0.520227   0.364124  -0.047501  -0.051133   0.201331
     2  C    0.520227   5.301927  -0.042348   0.387935   0.390493  -0.050723
     3  H    0.364124  -0.042348   0.443874  -0.000776   0.002203  -0.034447
     4  H   -0.047501   0.387935  -0.000776   0.447562  -0.015310   0.001326
     5  H   -0.051133   0.390493   0.002203  -0.015310   0.436560  -0.000631
     6  O    0.201331  -0.050723  -0.034447   0.001326  -0.000631   8.198377
     7  O   -0.028965   0.002708   0.004016  -0.000026  -0.000017   0.118800
     8  H    0.000655  -0.000265   0.000000   0.000003   0.000003  -0.023640
               7          8
     1  C   -0.028965   0.000655
     2  C    0.002708  -0.000265
     3  H    0.004016   0.000000
     4  H   -0.000026   0.000003
     5  H   -0.000017   0.000003
     6  O    0.118800  -0.023640
     7  O    8.041564   0.243829
     8  H    0.243829   0.361582
 Mulliken charges:
               1
     1  C    0.156449
     2  C   -0.509954
     3  H    0.263355
     4  H    0.226788
     5  H    0.237833
     6  O   -0.410395
     7  O   -0.381908
     8  H    0.417832
 Sum of Mulliken charges =   0.00000
 Mulliken charges with hydrogens summed into heavy atoms:
               1
     1  C    0.419804
     2  C   -0.045334
     6  O   -0.410395
     7  O    0.035924
 Electronic spatial extent (au):  <R**2>=            369.3408
 Charge=              0.0000 electrons
 Dipole moment (field-independent basis, Debye):
    X=              0.6235    Y=              0.3129    Z=             -1.7898  Tot=              1.9210
 Quadrupole moment (field-independent basis, Debye-Ang):
   XX=            -20.2470   YY=            -22.1837   ZZ=            -23.5823
   XY=             -0.7901   XZ=              3.4142   YZ=             -3.4521
 Traceless Quadrupole moment (field-independent basis, Debye-Ang):
   XX=              1.7573   YY=             -0.1794   ZZ=             -1.5780
   XY=             -0.7901   XZ=              3.4142   YZ=             -3.4521
 Octapole moment (field-independent basis, Debye-Ang**2):
  XXX=            -12.9147  YYY=            -49.1240  ZZZ=              0.8833  XYY=             -5.3987
  XXY=            -10.2017  XXZ=             -4.0297  XZZ=             -9.7496  YZZ=            -11.5213
  YYZ=             -6.2853  XYZ=              6.6584
 Hexadecapole moment (field-independent basis, Debye-Ang**3):
 XXXX=           -161.0454 YYYY=           -221.5399 ZZZZ=            -22.9591 XXXY=             40.3255
 XXXZ=              4.7962 YYYX=             48.1758 YYYZ=             -8.1438 ZZZX=             -1.0052
 ZZZY=              2.3543 XXYY=            -54.8552 XXZZ=            -33.2970 YYZZ=            -33.6623
 XXYZ=             -8.2163 YYXZ=             11.7352 ZZXY=             11.4095
 N-N= 1.165986359555D+02 E-N=-7.664963615379D+02  KE= 2.256116833757D+02
 No NMR shielding tensors so no spin-rotation constants.
 Leave Link  601 at Fri Apr 12 15:36:40 2019, MaxMem=   134217728 cpu:         0.2
 (Enter /cm/shared/c3ddb/gaussian/09.d01/g09/l9999.exe)
 1\1\GINC-NODE029\FOpt\RHF\3-21G\C2H4O2\MATTSJ\12-Apr-2019\0\\#p hf 3-2
 1g scf=tight NoSymmetry guess=read opt=(tight,modredundant)\\Geometry 
 optimization at the 2D-PES\\0,1\C,0.7285515885,0.6364092395,0.03003744
 01\C,1.3696041415,-0.5043051037,-0.0141823759\H,1.1854816528,1.5992893
 562,0.0936201248\H,2.4391846157,-0.5222348752,0.0167155181\H,0.8495660
 001,-1.4386574289,-0.0722482214\O,-0.6734487049,0.6738852659,0.0339136
 377\O,-1.0671470204,2.0696679408,-0.1555693899\H,-1.5803612732,1.99786
 56054,-0.9783857334\\Version=AS64L-G09RevD.01\HF=-226.395309\RMSD=9.28
 2e-09\RMSF=4.489e-04\Dipole=0.2453214,0.1230958,-0.704181\Quadrupole=1
 .3065345,-0.1333489,-1.1731856,-0.587415,2.5384071,-2.5665324\PG=C01 [
 X(C2H4O2)]\\@


 SUCCESS IS NEVER CERTAIN,
 FAILURE IS NEVER FINAL.
 Job cpu time:       0 days  0 hours  0 minutes 15.9 seconds.
 File lengths (MBytes):  RWF=      5 Int=      0 D2E=      0 Chk=      1 Scr=      1
 Normal termination of Gaussian 09 at Fri Apr 12 15:36:40 2019.
