 Entering Gaussian System, Link 0=/cm/shared/c3ddb/gaussian/09.d01/g09/g09
 Initial command:
 /cm/shared/c3ddb/gaussian/09.d01/g09/l1.exe "/scratch/users/mattsj/g09/S02-7952157/Gau-45474.inp" -scrdir="/scratch/users/mattsj/g09/S02-7952157/"
 Entering Link 1 = /cm/shared/c3ddb/gaussian/09.d01/g09/l1.exe PID=     45475.
  
 Copyright (c) 1988,1990,1992,1993,1995,1998,2003,2009,2013,
            Gaussian, Inc.  All Rights Reserved.
  
 This is part of the Gaussian(R) 09 program.  It is based on
 the Gaussian(R) 03 system (copyright 2003, Gaussian, Inc.),
 the Gaussian(R) 98 system (copyright 1998, Gaussian, Inc.),
 the Gaussian(R) 94 system (copyright 1995, Gaussian, Inc.),
 the Gaussian 92(TM) system (copyright 1992, Gaussian, Inc.),
 the Gaussian 90(TM) system (copyright 1990, Gaussian, Inc.),
 the Gaussian 88(TM) system (copyright 1988, Gaussian, Inc.),
 the Gaussian 86(TM) system (copyright 1986, Carnegie Mellon
 University), and the Gaussian 82(TM) system (copyright 1983,
 Carnegie Mellon University). Gaussian is a federally registered
 trademark of Gaussian, Inc.
  
 This software contains proprietary and confidential information,
 including trade secrets, belonging to Gaussian, Inc.
  
 This software is provided under written license and may be
 used, copied, transmitted, or stored only in accord with that
 written license.
  
 The following legend is applicable only to US Government
 contracts under FAR:
  
                    RESTRICTED RIGHTS LEGEND
  
 Use, reproduction and disclosure by the US Government is
 subject to restrictions as set forth in subparagraphs (a)
 and (c) of the Commercial Computer Software - Restricted
 Rights clause in FAR 52.227-19.
  
 Gaussian, Inc.
 340 Quinnipiac St., Bldg. 40, Wallingford CT 06492
  
  
 ---------------------------------------------------------------
 Warning -- This program may not be used in any manner that
 competes with the business of Gaussian, Inc. or will provide
 assistance to any competitor of Gaussian, Inc.  The licensee
 of this program is prohibited from giving any competitor of
 Gaussian, Inc. access to this program.  By using this program,
 the user acknowledges that Gaussian, Inc. is engaged in the
 business of creating and licensing software in the field of
 computational chemistry and represents and warrants to the
 licensee that it is not a competitor of Gaussian, Inc. and that
 it will not use this program in any manner prohibited above.
 ---------------------------------------------------------------
  

 Cite this work as:
 Gaussian 09, Revision D.01,
 M. J. Frisch, G. W. Trucks, H. B. Schlegel, G. E. Scuseria, 
 M. A. Robb, J. R. Cheeseman, G. Scalmani, V. Barone, B. Mennucci, 
 G. A. Petersson, H. Nakatsuji, M. Caricato, X. Li, H. P. Hratchian, 
 A. F. Izmaylov, J. Bloino, G. Zheng, J. L. Sonnenberg, M. Hada, 
 M. Ehara, K. Toyota, R. Fukuda, J. Hasegawa, M. Ishida, T. Nakajima, 
 Y. Honda, O. Kitao, H. Nakai, T. Vreven, J. A. Montgomery, Jr., 
 J. E. Peralta, F. Ogliaro, M. Bearpark, J. J. Heyd, E. Brothers, 
 K. N. Kudin, V. N. Staroverov, T. Keith, R. Kobayashi, J. Normand, 
 K. Raghavachari, A. Rendell, J. C. Burant, S. S. Iyengar, J. Tomasi, 
 M. Cossi, N. Rega, J. M. Millam, M. Klene, J. E. Knox, J. B. Cross, 
 V. Bakken, C. Adamo, J. Jaramillo, R. Gomperts, R. E. Stratmann, 
 O. Yazyev, A. J. Austin, R. Cammi, C. Pomelli, J. W. Ochterski, 
 R. L. Martin, K. Morokuma, V. G. Zakrzewski, G. A. Voth, 
 P. Salvador, J. J. Dannenberg, S. Dapprich, A. D. Daniels, 
 O. Farkas, J. B. Foresman, J. V. Ortiz, J. Cioslowski, 
 and D. J. Fox, Gaussian, Inc., Wallingford CT, 2013.
 
 ******************************************
 Gaussian 09:  AS64L-G09RevD.01 24-Apr-2013
                12-Apr-2019 
 ******************************************
 %nproc=1
 Will use up to    1 processors via shared memory.
 %mem=1GB
 %chk=TMP_CALCS/scangeom_S02_070_120.chk
 --------------------------------------------------------------------
 #p hf 3-21g scf=tight NoSymmetry guess=read opt=(tight,modredundant)
 --------------------------------------------------------------------
 1/7=10,18=120,19=15,38=1/1,3;
 2/9=110,12=2,15=1,17=6,18=5,40=1/2;
 3/5=5,11=9,16=1,25=1,30=1,71=1,116=-2/1,2,3;
 4/5=1/1;
 5/5=2,32=2,38=6/2;
 6/7=2,8=2,9=2,10=2,28=1/1;
 7/30=1/1,2,3,16;
 1/7=10,18=20,19=15/3(2);
 2/9=110,15=1/2;
 99//99;
 2/9=110,15=1/2;
 3/5=5,11=9,16=1,25=1,30=1,71=1/1,2,3;
 4/5=5,16=3,69=1/1;
 5/5=2,32=2,38=5/2;
 7/30=1/1,2,3,16;
 1/7=10,18=20,19=15/3(-5);
 2/9=110,15=1/2;
 6/7=2,8=2,9=2,10=2,19=2,28=1/1;
 99/9=1/99;
 Leave Link    1 at Fri Apr 12 16:52:09 2019, MaxMem=   134217728 cpu:         0.1
 (Enter /cm/shared/c3ddb/gaussian/09.d01/g09/l101.exe)
 -----------------------------------
 Geometry optimization at the 2D-PES
 -----------------------------------
 Symbolic Z-matrix:
 Charge =  0 Multiplicity = 1
 C                     0.73751   0.61184   0.04782 
 C                     1.38743  -0.52069  -0.01433 
 H                     1.20854   1.57225   0.09968 
 H                     2.45825  -0.53724  -0.00675 
 H                     0.86632  -1.45507  -0.05931 
 O                    -0.67215   0.68632   0.00238 
 O                    -1.20524   0.13616   1.25835 
 H                    -1.68712   0.90824   1.60306 
 
 The following ModRedundant input section has been read:
 D       2       1       6       7 F                                           
 D       1       6       7       8 F                                           
 
 NAtoms=      8 NQM=        8 NQMF=       0 NMMI=      0 NMMIF=      0
                NMic=       0 NMicF=      0.
                    Isotopes and Nuclear Properties:
 (Nuclear quadrupole moments (NQMom) in fm**2, nuclear magnetic moments (NMagM)
  in nuclear magnetons)

  Atom         1           2           3           4           5           6           7           8
 IAtWgt=          12          12           1           1           1          16          16           1
 AtmWgt=  12.0000000  12.0000000   1.0078250   1.0078250   1.0078250  15.9949146  15.9949146   1.0078250
 NucSpn=           0           0           1           1           1           0           0           1
 AtZEff=   0.0000000   0.0000000   0.0000000   0.0000000   0.0000000   0.0000000   0.0000000   0.0000000
 NQMom=    0.0000000   0.0000000   0.0000000   0.0000000   0.0000000   0.0000000   0.0000000   0.0000000
 NMagM=    0.0000000   0.0000000   2.7928460   2.7928460   2.7928460   0.0000000   0.0000000   2.7928460
 AtZNuc=   6.0000000   6.0000000   1.0000000   1.0000000   1.0000000   8.0000000   8.0000000   1.0000000
 Leave Link  101 at Fri Apr 12 16:52:10 2019, MaxMem=   134217728 cpu:         0.3
 (Enter /cm/shared/c3ddb/gaussian/09.d01/g09/l103.exe)

 GradGradGradGradGradGradGradGradGradGradGradGradGradGradGradGradGradGrad
 Berny optimization.
 Initialization pass.
                           ----------------------------
                           !    Initial Parameters    !
                           ! (Angstroms and Degrees)  !
 --------------------------                            --------------------------
 ! Name  Definition              Value          Derivative Info.                !
 --------------------------------------------------------------------------------
 ! R1    R(1,2)                  1.3072         estimate D2E/DX2                !
 ! R2    R(1,3)                  1.0709         estimate D2E/DX2                !
 ! R3    R(1,6)                  1.4124         estimate D2E/DX2                !
 ! R4    R(2,4)                  1.071          estimate D2E/DX2                !
 ! R5    R(2,5)                  1.0708         estimate D2E/DX2                !
 ! R6    R(6,7)                  1.4712         estimate D2E/DX2                !
 ! R7    R(7,8)                  0.9732         estimate D2E/DX2                !
 ! A1    A(2,1,3)              124.0943         estimate D2E/DX2                !
 ! A2    A(2,1,6)              122.7094         estimate D2E/DX2                !
 ! A3    A(3,1,6)              113.157          estimate D2E/DX2                !
 ! A4    A(1,2,4)              120.6738         estimate D2E/DX2                !
 ! A5    A(1,2,5)              121.0653         estimate D2E/DX2                !
 ! A6    A(4,2,5)              118.2547         estimate D2E/DX2                !
 ! A7    A(1,6,7)              108.3293         estimate D2E/DX2                !
 ! A8    A(6,7,8)              100.6687         estimate D2E/DX2                !
 ! D1    D(3,1,2,4)              0.5812         estimate D2E/DX2                !
 ! D2    D(3,1,2,5)            179.6618         estimate D2E/DX2                !
 ! D3    D(6,1,2,4)            178.1425         estimate D2E/DX2                !
 ! D4    D(6,1,2,5)             -2.777          estimate D2E/DX2                !
 ! D5    D(2,1,6,7)             69.9999         Frozen                          !
 ! D6    D(3,1,6,7)           -112.1965         estimate D2E/DX2                !
 ! D7    D(1,6,7,8)            120.0            Frozen                          !
 --------------------------------------------------------------------------------
 Trust Radius=3.00D-01 FncErr=1.00D-07 GrdErr=1.00D-07
 Number of steps in this run=     32 maximum allowed number of steps=    100.
 GradGradGradGradGradGradGradGradGradGradGradGradGradGradGradGradGradGrad

 Leave Link  103 at Fri Apr 12 16:52:10 2019, MaxMem=   134217728 cpu:         0.0
 (Enter /cm/shared/c3ddb/gaussian/09.d01/g09/l202.exe)
                          Input orientation:                          
 ---------------------------------------------------------------------
 Center     Atomic      Atomic             Coordinates (Angstroms)
 Number     Number       Type             X           Y           Z
 ---------------------------------------------------------------------
      1          6           0        0.737507    0.611843    0.047815
      2          6           0        1.387429   -0.520689   -0.014329
      3          1           0        1.208538    1.572245    0.099679
      4          1           0        2.458254   -0.537240   -0.006746
      5          1           0        0.866317   -1.455068   -0.059314
      6          8           0       -0.672146    0.686324    0.002376
      7          8           0       -1.205236    0.136158    1.258352
      8          1           0       -1.687124    0.908237    1.603059
 ---------------------------------------------------------------------
                    Distance matrix (angstroms):
                    1          2          3          4          5
     1  C    0.000000
     2  C    1.307245   0.000000
     3  H    1.070949   2.103657   0.000000
     4  H    2.069864   1.070980   2.454189   0.000000
     5  H    2.073690   1.070815   3.050741   1.838324   0.000000
     6  O    1.412350   2.387260   2.081177   3.361041   2.637467
     7  O    2.337932   2.961938   3.038285   3.933840   2.925675
     8  H    2.895767   3.756414   3.329552   4.676006   3.856003
                    6          7          8
     6  O    0.000000
     7  O    1.471171   0.000000
     8  H    1.908301   0.973214   0.000000
 Symmetry turned off by external request.
 Stoichiometry    C2H4O2
 Framework group  C1[X(C2H4O2)]
 Deg. of freedom    18
 Full point group                 C1      NOp   1
 Rotational constants (GHZ):     21.3493750      5.6202830      4.8713610
 Leave Link  202 at Fri Apr 12 16:52:10 2019, MaxMem=   134217728 cpu:         0.0
 (Enter /cm/shared/c3ddb/gaussian/09.d01/g09/l301.exe)
 Standard basis: 3-21G (6D, 7F)
 Ernie: Thresh=  0.10000D-02 Tol=  0.10000D-05 Strict=F.
    44 basis functions,    72 primitive gaussians,    44 cartesian basis functions
    16 alpha electrons       16 beta electrons
       nuclear repulsion energy       117.5387886197 Hartrees.
 IExCor=    0 DFT=F Ex=HF Corr=None ExCW=0 ScaHFX=  1.000000
 ScaDFX=  1.000000  1.000000  1.000000  1.000000 ScalE2=  1.000000  1.000000
 IRadAn=      0 IRanWt=     -1 IRanGd=            0 ICorTp=0 IEmpDi=  4
 NAtoms=    8 NActive=    8 NUniq=    8 SFac= 1.00D+00 NAtFMM=   60 NAOKFM=F Big=F
 Integral buffers will be    131072 words long.
 Raffenetti 1 integral format.
 Two-electron integral symmetry is turned off.
 Leave Link  301 at Fri Apr 12 16:52:10 2019, MaxMem=   134217728 cpu:         0.3
 (Enter /cm/shared/c3ddb/gaussian/09.d01/g09/l302.exe)
 NPDir=0 NMtPBC=     1 NCelOv=     1 NCel=       1 NClECP=     1 NCelD=      1
         NCelK=      1 NCelE2=     1 NClLst=     1 CellRange=     0.0.
 One-electron integrals computed using PRISM.
 NBasis=    44 RedAO= T EigKep=  1.19D-02  NBF=    44
 NBsUse=    44 1.00D-06 EigRej= -1.00D+00 NBFU=    44
 Leave Link  302 at Fri Apr 12 16:52:11 2019, MaxMem=   134217728 cpu:         0.2
 (Enter /cm/shared/c3ddb/gaussian/09.d01/g09/l303.exe)
 DipDrv:  MaxL=1.
 Leave Link  303 at Fri Apr 12 16:52:11 2019, MaxMem=   134217728 cpu:         0.1
 (Enter /cm/shared/c3ddb/gaussian/09.d01/g09/l401.exe)
 Initial guess from the checkpoint file:  "TMP_CALCS/scangeom_S02_070_120.chk"
 B after Tr=    -0.002931   -0.002188   -0.004853
         Rot=    0.999995   -0.000079    0.002966   -0.001460 Ang=  -0.38 deg.
 Guess basis will be translated and rotated to current coordinates.
 JPrj=2 DoOrth=T DoCkMO=T.
 Leave Link  401 at Fri Apr 12 16:52:11 2019, MaxMem=   134217728 cpu:         0.2
 (Enter /cm/shared/c3ddb/gaussian/09.d01/g09/l502.exe)
 Closed shell SCF:
 Using DIIS extrapolation, IDIIS=  1040.
 Two-electron integral symmetry not used.
 Keep R1 ints in memory in canonical form, NReq=1327362.
 IVT=       24902 IEndB=       24902 NGot=   134217728 MDV=   133702282
 LenX=   133702282 LenY=   133699905
 Requested convergence on RMS density matrix=1.00D-08 within 128 cycles.
 Requested convergence on MAX density matrix=1.00D-06.
 Requested convergence on             energy=1.00D-06.
 No special actions if energy rises.
 FoFCou: FMM=F IPFlag=           0 FMFlag=           0 FMFlg1=           0
         NFxFlg=           0 DoJE=F BraDBF=F KetDBF=F FulRan=T
         wScrn=  0.000000 ICntrl=     600 IOpCl=  0 I1Cent=           0 NGrid=           0
         NMat0=    1 NMatS0=    990 NMatT0=    0 NMatD0=    1 NMtDS0=    0 NMtDT0=    0
 Symmetry not used in FoFCou.

 Cycle   1  Pass 1  IDiag  1:
 E= -226.387487767812    
 DIIS: error= 6.40D-03 at cycle   1 NSaved=   1.
 NSaved= 1 IEnMin= 1 EnMin= -226.387487767812     IErMin= 1 ErrMin= 6.40D-03
 ErrMax= 6.40D-03  0.00D+00 EMaxC= 1.00D-01 BMatC= 1.91D-03 BMatP= 1.91D-03
 IDIUse=3 WtCom= 9.36D-01 WtEn= 6.40D-02
 Coeff-Com:  0.100D+01
 Coeff-En:   0.100D+01
 Coeff:      0.100D+01
 Gap=     0.537 Goal=   None    Shift=    0.000
 GapD=    0.537 DampG=2.000 DampE=1.000 DampFc=2.0000 IDamp=-1.
 RMSDP=1.12D-03 MaxDP=1.52D-02              OVMax= 1.13D-02

 Cycle   2  Pass 1  IDiag  1:
 E= -226.390473604648     Delta-E=       -0.002985836836 Rises=F Damp=F
 DIIS: error= 2.95D-03 at cycle   2 NSaved=   2.
 NSaved= 2 IEnMin= 2 EnMin= -226.390473604648     IErMin= 2 ErrMin= 2.95D-03
 ErrMax= 2.95D-03  0.00D+00 EMaxC= 1.00D-01 BMatC= 1.88D-04 BMatP= 1.91D-03
 IDIUse=3 WtCom= 9.70D-01 WtEn= 2.95D-02
 Coeff-Com: -0.338D+00 0.134D+01
 Coeff-En:   0.000D+00 0.100D+01
 Coeff:     -0.328D+00 0.133D+01
 Gap=     0.537 Goal=   None    Shift=    0.000
 RMSDP=5.97D-04 MaxDP=5.89D-03 DE=-2.99D-03 OVMax= 8.29D-03

 Cycle   3  Pass 1  IDiag  1:
 E= -226.390977760739     Delta-E=       -0.000504156091 Rises=F Damp=F
 DIIS: error= 8.95D-04 at cycle   3 NSaved=   3.
 NSaved= 3 IEnMin= 3 EnMin= -226.390977760739     IErMin= 3 ErrMin= 8.95D-04
 ErrMax= 8.95D-04  0.00D+00 EMaxC= 1.00D-01 BMatC= 1.69D-05 BMatP= 1.88D-04
 IDIUse=3 WtCom= 9.91D-01 WtEn= 8.95D-03
 Coeff-Com:  0.736D-01-0.439D+00 0.137D+01
 Coeff-En:   0.000D+00 0.000D+00 0.100D+01
 Coeff:      0.729D-01-0.435D+00 0.136D+01
 Gap=     0.537 Goal=   None    Shift=    0.000
 RMSDP=2.40D-04 MaxDP=3.51D-03 DE=-5.04D-04 OVMax= 3.68D-03

 Cycle   4  Pass 1  IDiag  1:
 E= -226.391033184621     Delta-E=       -0.000055423882 Rises=F Damp=F
 DIIS: error= 2.86D-04 at cycle   4 NSaved=   4.
 NSaved= 4 IEnMin= 4 EnMin= -226.391033184621     IErMin= 4 ErrMin= 2.86D-04
 ErrMax= 2.86D-04  0.00D+00 EMaxC= 1.00D-01 BMatC= 3.74D-06 BMatP= 1.69D-05
 IDIUse=3 WtCom= 9.97D-01 WtEn= 2.86D-03
 Coeff-Com:  0.826D-01-0.375D+00 0.443D+00 0.849D+00
 Coeff-En:   0.000D+00 0.000D+00 0.000D+00 0.100D+01
 Coeff:      0.823D-01-0.374D+00 0.442D+00 0.850D+00
 Gap=     0.537 Goal=   None    Shift=    0.000
 RMSDP=8.44D-05 MaxDP=1.19D-03 DE=-5.54D-05 OVMax= 1.29D-03

 Cycle   5  Pass 1  IDiag  1:
 E= -226.391039620799     Delta-E=       -0.000006436178 Rises=F Damp=F
 DIIS: error= 3.72D-05 at cycle   5 NSaved=   5.
 NSaved= 5 IEnMin= 5 EnMin= -226.391039620799     IErMin= 5 ErrMin= 3.72D-05
 ErrMax= 3.72D-05  0.00D+00 EMaxC= 1.00D-01 BMatC= 1.28D-07 BMatP= 3.74D-06
 IDIUse=1 WtCom= 1.00D+00 WtEn= 0.00D+00
 Coeff-Com: -0.373D-02 0.272D-01-0.111D+00 0.501D-01 0.104D+01
 Coeff:     -0.373D-02 0.272D-01-0.111D+00 0.501D-01 0.104D+01
 Gap=     0.537 Goal=   None    Shift=    0.000
 RMSDP=1.67D-05 MaxDP=2.31D-04 DE=-6.44D-06 OVMax= 2.65D-04

 Cycle   6  Pass 1  IDiag  1:
 E= -226.391039860041     Delta-E=       -0.000000239242 Rises=F Damp=F
 DIIS: error= 1.74D-05 at cycle   6 NSaved=   6.
 NSaved= 6 IEnMin= 6 EnMin= -226.391039860041     IErMin= 6 ErrMin= 1.74D-05
 ErrMax= 1.74D-05  0.00D+00 EMaxC= 1.00D-01 BMatC= 1.01D-08 BMatP= 1.28D-07
 IDIUse=1 WtCom= 1.00D+00 WtEn= 0.00D+00
 Coeff-Com: -0.322D-02 0.165D-01-0.343D-01-0.158D-01 0.179D+00 0.857D+00
 Coeff:     -0.322D-02 0.165D-01-0.343D-01-0.158D-01 0.179D+00 0.857D+00
 Gap=     0.537 Goal=   None    Shift=    0.000
 RMSDP=3.18D-06 MaxDP=2.35D-05 DE=-2.39D-07 OVMax= 5.58D-05

 Cycle   7  Pass 1  IDiag  1:
 E= -226.391039882888     Delta-E=       -0.000000022847 Rises=F Damp=F
 DIIS: error= 1.29D-05 at cycle   7 NSaved=   7.
 NSaved= 7 IEnMin= 7 EnMin= -226.391039882888     IErMin= 7 ErrMin= 1.29D-05
 ErrMax= 1.29D-05  0.00D+00 EMaxC= 1.00D-01 BMatC= 2.82D-09 BMatP= 1.01D-08
 IDIUse=1 WtCom= 1.00D+00 WtEn= 0.00D+00
 Coeff-Com:  0.183D-02-0.113D-01 0.356D-01-0.596D-02-0.307D+00-0.198D+00
 Coeff-Com:  0.148D+01
 Coeff:      0.183D-02-0.113D-01 0.356D-01-0.596D-02-0.307D+00-0.198D+00
 Coeff:      0.148D+01
 Gap=     0.537 Goal=   None    Shift=    0.000
 RMSDP=3.52D-06 MaxDP=2.95D-05 DE=-2.28D-08 OVMax= 7.38D-05

 Cycle   8  Pass 1  IDiag  1:
 E= -226.391039896455     Delta-E=       -0.000000013566 Rises=F Damp=F
 DIIS: error= 5.02D-06 at cycle   8 NSaved=   8.
 NSaved= 8 IEnMin= 8 EnMin= -226.391039896455     IErMin= 8 ErrMin= 5.02D-06
 ErrMax= 5.02D-06  0.00D+00 EMaxC= 1.00D-01 BMatC= 3.51D-10 BMatP= 2.82D-09
 IDIUse=1 WtCom= 1.00D+00 WtEn= 0.00D+00
 Coeff-Com:  0.484D-03-0.238D-02 0.481D-02 0.232D-02-0.204D-01-0.131D+00
 Coeff-Com: -0.821D-01 0.123D+01
 Coeff:      0.484D-03-0.238D-02 0.481D-02 0.232D-02-0.204D-01-0.131D+00
 Coeff:     -0.821D-01 0.123D+01
 Gap=     0.537 Goal=   None    Shift=    0.000
 RMSDP=1.49D-06 MaxDP=1.28D-05 DE=-1.36D-08 OVMax= 3.38D-05

 Cycle   9  Pass 1  IDiag  1:
 E= -226.391039898376     Delta-E=       -0.000000001921 Rises=F Damp=F
 DIIS: error= 1.69D-06 at cycle   9 NSaved=   9.
 NSaved= 9 IEnMin= 9 EnMin= -226.391039898376     IErMin= 9 ErrMin= 1.69D-06
 ErrMax= 1.69D-06  0.00D+00 EMaxC= 1.00D-01 BMatC= 4.04D-11 BMatP= 3.51D-10
 IDIUse=1 WtCom= 1.00D+00 WtEn= 0.00D+00
 Coeff-Com: -0.306D-03 0.183D-02-0.537D-02 0.307D-03 0.458D-01 0.402D-01
 Coeff-Com: -0.223D+00-0.889D-01 0.123D+01
 Coeff:     -0.306D-03 0.183D-02-0.537D-02 0.307D-03 0.458D-01 0.402D-01
 Coeff:     -0.223D+00-0.889D-01 0.123D+01
 Gap=     0.537 Goal=   None    Shift=    0.000
 RMSDP=5.44D-07 MaxDP=4.09D-06 DE=-1.92D-09 OVMax= 1.29D-05

 Cycle  10  Pass 1  IDiag  1:
 E= -226.391039898575     Delta-E=       -0.000000000199 Rises=F Damp=F
 DIIS: error= 4.22D-07 at cycle  10 NSaved=  10.
 NSaved=10 IEnMin=10 EnMin= -226.391039898575     IErMin=10 ErrMin= 4.22D-07
 ErrMax= 4.22D-07  0.00D+00 EMaxC= 1.00D-01 BMatC= 4.01D-12 BMatP= 4.04D-11
 IDIUse=1 WtCom= 1.00D+00 WtEn= 0.00D+00
 Coeff-Com:  0.922D-04-0.591D-03 0.195D-02-0.471D-03-0.184D-01-0.150D-02
 Coeff-Com:  0.100D+00-0.858D-01-0.449D+00 0.145D+01
 Coeff:      0.922D-04-0.591D-03 0.195D-02-0.471D-03-0.184D-01-0.150D-02
 Coeff:      0.100D+00-0.858D-01-0.449D+00 0.145D+01
 Gap=     0.537 Goal=   None    Shift=    0.000
 RMSDP=1.32D-07 MaxDP=1.04D-06 DE=-1.99D-10 OVMax= 3.03D-06

 Cycle  11  Pass 1  IDiag  1:
 E= -226.391039898592     Delta-E=       -0.000000000017 Rises=F Damp=F
 DIIS: error= 1.19D-07 at cycle  11 NSaved=  11.
 NSaved=11 IEnMin=11 EnMin= -226.391039898592     IErMin=11 ErrMin= 1.19D-07
 ErrMax= 1.19D-07  0.00D+00 EMaxC= 1.00D-01 BMatC= 4.91D-13 BMatP= 4.01D-12
 IDIUse=1 WtCom= 1.00D+00 WtEn= 0.00D+00
 Coeff-Com:  0.320D-04-0.196D-03 0.583D-03-0.989D-05-0.526D-02-0.435D-02
 Coeff-Com:  0.261D-01 0.881D-02-0.146D+00 0.702D-01 0.105D+01
 Coeff:      0.320D-04-0.196D-03 0.583D-03-0.989D-05-0.526D-02-0.435D-02
 Coeff:      0.261D-01 0.881D-02-0.146D+00 0.702D-01 0.105D+01
 Gap=     0.537 Goal=   None    Shift=    0.000
 RMSDP=3.47D-08 MaxDP=3.12D-07 DE=-1.68D-11 OVMax= 6.91D-07

 Cycle  12  Pass 1  IDiag  1:
 E= -226.391039898594     Delta-E=       -0.000000000002 Rises=F Damp=F
 DIIS: error= 5.22D-08 at cycle  12 NSaved=  12.
 NSaved=12 IEnMin=12 EnMin= -226.391039898594     IErMin=12 ErrMin= 5.22D-08
 ErrMax= 5.22D-08  0.00D+00 EMaxC= 1.00D-01 BMatC= 8.24D-14 BMatP= 4.91D-13
 IDIUse=1 WtCom= 1.00D+00 WtEn= 0.00D+00
 Coeff-Com: -0.189D-04 0.121D-03-0.400D-03 0.119D-03 0.366D-02 0.143D-03
 Coeff-Com: -0.197D-01 0.155D-01 0.930D-01-0.280D+00-0.841D-01 0.127D+01
 Coeff:     -0.189D-04 0.121D-03-0.400D-03 0.119D-03 0.366D-02 0.143D-03
 Coeff:     -0.197D-01 0.155D-01 0.930D-01-0.280D+00-0.841D-01 0.127D+01
 Gap=     0.537 Goal=   None    Shift=    0.000
 RMSDP=1.91D-08 MaxDP=1.56D-07 DE=-1.76D-12 OVMax= 3.69D-07

 Cycle  13  Pass 1  IDiag  1:
 E= -226.391039898594     Delta-E=        0.000000000000 Rises=F Damp=F
 DIIS: error= 1.68D-08 at cycle  13 NSaved=  13.
 NSaved=13 IEnMin=13 EnMin= -226.391039898594     IErMin=13 ErrMin= 1.68D-08
 ErrMax= 1.68D-08  0.00D+00 EMaxC= 1.00D-01 BMatC= 6.53D-15 BMatP= 8.24D-14
 IDIUse=1 WtCom= 1.00D+00 WtEn= 0.00D+00
 Coeff-Com:  0.558D-05-0.362D-04 0.125D-03-0.486D-04-0.114D-02 0.108D-03
 Coeff-Com:  0.673D-02-0.821D-02-0.271D-01 0.114D+00-0.504D-01-0.559D+00
 Coeff-Com:  0.152D+01
 Coeff:      0.558D-05-0.362D-04 0.125D-03-0.486D-04-0.114D-02 0.108D-03
 Coeff:      0.673D-02-0.821D-02-0.271D-01 0.114D+00-0.504D-01-0.559D+00
 Coeff:      0.152D+01
 Gap=     0.537 Goal=   None    Shift=    0.000
 RMSDP=6.11D-09 MaxDP=5.04D-08 DE=-3.98D-13 OVMax= 1.15D-07

 SCF Done:  E(RHF) =  -226.391039899     A.U. after   13 cycles
            NFock= 13  Conv=0.61D-08     -V/T= 2.0034
 KE= 2.256184078171D+02 PE=-7.685996608487D+02 EE= 1.990514245134D+02
 Leave Link  502 at Fri Apr 12 16:52:12 2019, MaxMem=   134217728 cpu:         0.4
 (Enter /cm/shared/c3ddb/gaussian/09.d01/g09/l601.exe)
 Copying SCF densities to generalized density rwf, IOpCl= 0 IROHF=0.

 **********************************************************************

            Population analysis using the SCF density.

 **********************************************************************

 Alpha  occ. eigenvalues --  -20.52303 -20.51697 -11.23636 -11.17519  -1.46199
 Alpha  occ. eigenvalues --   -1.22816  -1.03179  -0.79343  -0.70233  -0.66374
 Alpha  occ. eigenvalues --   -0.63633  -0.59555  -0.55381  -0.48610  -0.45323
 Alpha  occ. eigenvalues --   -0.38117
 Alpha virt. eigenvalues --    0.15611   0.26361   0.29348   0.30687   0.32236
 Alpha virt. eigenvalues --    0.36849   0.49775   0.56828   0.88563   0.97369
 Alpha virt. eigenvalues --    0.98822   1.06732   1.10270   1.12749   1.23347
 Alpha virt. eigenvalues --    1.32238   1.37189   1.57651   1.60712   1.75070
 Alpha virt. eigenvalues --    1.82571   1.88603   2.00882   2.02045   2.07062
 Alpha virt. eigenvalues --    2.21640   3.10910   3.45532
          Condensed to atoms (all electrons):
               1          2          3          4          5          6
     1  C    4.902204   0.472121   0.385985  -0.039555  -0.049109   0.244724
     2  C    0.472121   5.345100  -0.066732   0.371209   0.388644  -0.059556
     3  H    0.385985  -0.066732   0.479841   0.001059   0.002089  -0.038461
     4  H   -0.039555   0.371209   0.001059   0.455748  -0.015385   0.001456
     5  H   -0.049109   0.388644   0.002089  -0.015385   0.421504  -0.002243
     6  O    0.244724  -0.059556  -0.038461   0.001456  -0.002243   8.169061
     7  O   -0.042103  -0.000558   0.001586   0.000004   0.001166   0.119864
     8  H    0.001877  -0.000009   0.000084  -0.000001  -0.000028  -0.023439
               7          8
     1  C   -0.042103   0.001877
     2  C   -0.000558  -0.000009
     3  H    0.001586   0.000084
     4  H    0.000004  -0.000001
     5  H    0.001166  -0.000028
     6  O    0.119864  -0.023439
     7  O    8.064440   0.241334
     8  H    0.241334   0.370056
 Mulliken charges:
               1
     1  C    0.123855
     2  C   -0.450219
     3  H    0.234549
     4  H    0.225465
     5  H    0.253362
     6  O   -0.411406
     7  O   -0.385732
     8  H    0.410125
 Sum of Mulliken charges =   0.00000
 Mulliken charges with hydrogens summed into heavy atoms:
               1
     1  C    0.358404
     2  C    0.028608
     6  O   -0.411406
     7  O    0.024393
 Electronic spatial extent (au):  <R**2>=            297.0826
 Charge=              0.0000 electrons
 Dipole moment (field-independent basis, Debye):
    X=              1.0223    Y=              1.2299    Z=              1.0249  Tot=              1.8995
 Quadrupole moment (field-independent basis, Debye-Ang):
   XX=            -19.9040   YY=            -20.4711   ZZ=            -23.4347
   XY=             -1.9334   XZ=             -2.7158   YZ=              3.2116
 Traceless Quadrupole moment (field-independent basis, Debye-Ang):
   XX=              1.3660   YY=              0.7988   ZZ=             -2.1648
   XY=             -1.9334   XZ=             -2.7158   YZ=              3.2116
 Octapole moment (field-independent basis, Debye-Ang**2):
  XXX=            -10.7518  YYY=            -13.2469  ZZZ=            -18.8425  XYY=             -3.5418
  XXY=             -0.3275  XXZ=             -1.5443  XZZ=            -10.9242  YZZ=             -0.0312
  YYZ=             -4.8133  XYZ=             -4.9650
 Hexadecapole moment (field-independent basis, Debye-Ang**3):
 XXXX=           -171.7448 YYYY=            -68.9415 ZZZZ=            -69.7762 XXXY=              7.1457
 XXXZ=             15.9009 YYYX=             17.9467 YYYZ=             -2.5989 ZZZX=             16.8844
 ZZZY=              1.3093 XXYY=            -39.4823 XXZZ=            -38.1319 YYZZ=            -21.8072
 XXYZ=              7.0937 YYXZ=              4.4819 ZZXY=             -1.7362
 N-N= 1.175387886197D+02 E-N=-7.685996609321D+02  KE= 2.256184078171D+02
 No NMR shielding tensors so no spin-rotation constants.
 Leave Link  601 at Fri Apr 12 16:52:12 2019, MaxMem=   134217728 cpu:         0.1
 (Enter /cm/shared/c3ddb/gaussian/09.d01/g09/l701.exe)
 Compute integral first derivatives.
 ... and contract with generalized density number  0.
 Leave Link  701 at Fri Apr 12 16:52:12 2019, MaxMem=   134217728 cpu:         0.2
 (Enter /cm/shared/c3ddb/gaussian/09.d01/g09/l702.exe)
 L702 exits ... SP integral derivatives will be done elsewhere.
 Leave Link  702 at Fri Apr 12 16:52:12 2019, MaxMem=   134217728 cpu:         0.1
 (Enter /cm/shared/c3ddb/gaussian/09.d01/g09/l703.exe)
 Compute integral first derivatives, UseDBF=F ICtDFT=           0.
 Integral derivatives from FoFJK, PRISM(SPDF).
 Calling FoFJK, ICntrl=      2127 FMM=F ISym2X=0 I1Cent= 0 IOpClX= 0 NMat=1 NMatS=1 NMatT=0.
 FoFJK:  IHMeth= 1 ICntrl=    2127 DoSepK=F KAlg= 0 I1Cent=   0 FoldK=F
 IRaf=         0 NMat=   1 IRICut=       1 DoRegI=T DoRafI=F ISym2E= 0.
 FoFCou: FMM=F IPFlag=           0 FMFlag=      100000 FMFlg1=         800
         NFxFlg=           0 DoJE=F BraDBF=F KetDBF=F FulRan=T
         wScrn=  0.000000 ICntrl=    2127 IOpCl=  0 I1Cent=           0 NGrid=           0
         NMat0=    1 NMatS0=      1 NMatT0=    0 NMatD0=    1 NMtDS0=    0 NMtDT0=    0
 Symmetry not used in FoFCou.
 Leave Link  703 at Fri Apr 12 16:52:13 2019, MaxMem=   134217728 cpu:         0.3
 (Enter /cm/shared/c3ddb/gaussian/09.d01/g09/l716.exe)
 Dipole        = 4.02188389D-01 4.83870687D-01 4.03238372D-01
 -------------------------------------------------------------------
 Center     Atomic                   Forces (Hartrees/Bohr)
 Number     Number              X              Y              Z
 -------------------------------------------------------------------
      1        6          -0.000773714   -0.000767545   -0.000567386
      2        6          -0.000211321   -0.000122991    0.000375102
      3        1          -0.000118499   -0.000096151    0.000134611
      4        1          -0.000029890    0.000027226   -0.000026880
      5        1           0.000050430   -0.000032497    0.000028761
      6        8           0.000195699    0.002188301   -0.000058602
      7        8           0.001480131   -0.001126733    0.001648068
      8        1          -0.000592835   -0.000069610   -0.001533673
 -------------------------------------------------------------------
 Cartesian Forces:  Max     0.002188301 RMS     0.000802954
 Leave Link  716 at Fri Apr 12 16:52:13 2019, MaxMem=   134217728 cpu:         0.1
 (Enter /cm/shared/c3ddb/gaussian/09.d01/g09/l103.exe)

 GradGradGradGradGradGradGradGradGradGradGradGradGradGradGradGradGradGrad
 Berny optimization.
 FormGI is forming the generalized inverse of G from B-inverse, IUseBI=4.
 Internal  Forces:  Max     0.002253655 RMS     0.000772162
 Search for a local minimum.
 Step number   1 out of a maximum of   32
 All quantities printed in internal units (Hartrees-Bohrs-Radians)
 RMS Force = .62157D-03 SwitMx=.10000D-02 MixMth= 2
 Mixed Optimization -- En-DIIS/RFO-DIIS
 Second derivative matrix not updated -- first step.
 ITU=  0
     Eigenvalues ---    0.02518   0.03316   0.03316   0.15993   0.16000
     Eigenvalues ---    0.16000   0.16000   0.22002   0.25000   0.35600
     Eigenvalues ---    0.37107   0.37110   0.37127   0.43634   0.52726
     Eigenvalues ---    0.652211000.000001000.000001000.000001000.00000
     Eigenvalues --- 1000.000001000.00000
 RFO step:  Lambda=-3.76964542D-05 EMin= 2.51819275D-02
 Linear search not attempted -- first point.
 Iteration  1 RMS(Cart)=  0.00621701 RMS(Int)=  0.00002187
 Iteration  2 RMS(Cart)=  0.00002205 RMS(Int)=  0.00000079
 Iteration  3 RMS(Cart)=  0.00000000 RMS(Int)=  0.00000079
 Iteration  1 RMS(Cart)=  0.00000020 RMS(Int)=  0.00000009
 ITry= 1 IFail=0 DXMaxC= 1.66D-02 DCOld= 1.00D+10 DXMaxT= 3.00D-01 DXLimC= 3.00D+00 Rises=F
 Variable       Old X    -DE/DX   Delta X   Delta X   Delta X     New X
                                 (Linear)    (Quad)   (Total)
    R1        2.47033   0.00000   0.00000   0.00000   0.00000   2.47033
    R2        2.02380  -0.00013   0.00000  -0.00036  -0.00036   2.02345
    R3        2.66896  -0.00103   0.00000  -0.00236  -0.00236   2.66659
    R4        2.02386  -0.00003   0.00000  -0.00008  -0.00008   2.02378
    R5        2.02355   0.00000   0.00000   0.00001   0.00001   2.02355
    R6        2.78011   0.00022   0.00000   0.00063   0.00063   2.78074
    R7        1.83911  -0.00030   0.00000  -0.00058  -0.00058   1.83853
    A1        2.16585   0.00016   0.00000   0.00088   0.00087   2.16673
    A2        2.14168  -0.00018   0.00000  -0.00078  -0.00078   2.14090
    A3        1.97496   0.00002   0.00000   0.00004   0.00003   1.97500
    A4        2.10615  -0.00007   0.00000  -0.00046  -0.00046   2.10569
    A5        2.11299   0.00010   0.00000   0.00060   0.00060   2.11359
    A6        2.06393  -0.00002   0.00000  -0.00014  -0.00014   2.06379
    A7        1.89070  -0.00168   0.00000  -0.00672  -0.00672   1.88398
    A8        1.75700  -0.00189   0.00000  -0.01183  -0.01183   1.74517
    D1        0.01014  -0.00019   0.00000  -0.00274  -0.00274   0.00740
    D2        3.13569  -0.00019   0.00000  -0.00279  -0.00279   3.13290
    D3        3.10917   0.00014   0.00000   0.00125   0.00125   3.11043
    D4       -0.04847   0.00013   0.00000   0.00120   0.00120  -0.04727
    D5        1.22173  -0.00045   0.00000   0.00000   0.00000   1.22173
    D6       -1.95820  -0.00015   0.00000   0.00362   0.00362  -1.95458
    D7        2.09439   0.00225   0.00000   0.00000   0.00000   2.09439
         Item               Value     Threshold  Converged?
 Maximum Force            0.001894     0.000015     NO 
 RMS     Force            0.000622     0.000010     NO 
 Maximum Displacement     0.016644     0.000060     NO 
 RMS     Displacement     0.006224     0.000040     NO 
 Predicted change in Energy=-1.884836D-05
 Lowest energy point so far.  Saving SCF results.
 GradGradGradGradGradGradGradGradGradGradGradGradGradGradGradGradGradGrad

 Leave Link  103 at Fri Apr 12 16:52:13 2019, MaxMem=   134217728 cpu:         0.0
 (Enter /cm/shared/c3ddb/gaussian/09.d01/g09/l202.exe)
                          Input orientation:                          
 ---------------------------------------------------------------------
 Center     Atomic      Atomic             Coordinates (Angstroms)
 Number     Number       Type             X           Y           Z
 ---------------------------------------------------------------------
      1          6           0        0.734748    0.612272    0.047627
      2          6           0        1.384790   -0.520240   -0.013594
      3          1           0        1.204748    1.572752    0.103379
      4          1           0        2.455559   -0.536315   -0.003650
      5          1           0        0.864328   -1.454911   -0.060097
      6          8           0       -0.673665    0.685511    0.000583
      7          8           0       -1.198652    0.133294    1.259458
      8          1           0       -1.678316    0.909446    1.597186
 ---------------------------------------------------------------------
                    Distance matrix (angstroms):
                    1          2          3          4          5
     1  C    0.000000
     2  C    1.307244   0.000000
     3  H    1.070761   2.103976   0.000000
     4  H    2.069559   1.070936   2.454414   0.000000
     5  H    2.074040   1.070819   3.051124   1.838211   0.000000
     6  O    1.411101   2.385639   2.079952   3.359304   2.636383
     7  O    2.331521   2.953293   3.030658   3.923911   2.918819
     8  H    2.883110   3.744493   3.314135   4.662813   3.847312
                    6          7          8
     6  O    0.000000
     7  O    1.471503   0.000000
     8  H    1.899634   0.972908   0.000000
 Symmetry turned off by external request.
 Stoichiometry    C2H4O2
 Framework group  C1[X(C2H4O2)]
 Deg. of freedom    18
 Full point group                 C1      NOp   1
 Rotational constants (GHZ):     21.2629607      5.6486680      4.8911572
 Leave Link  202 at Fri Apr 12 16:52:13 2019, MaxMem=   134217728 cpu:         0.0
 (Enter /cm/shared/c3ddb/gaussian/09.d01/g09/l301.exe)
 Standard basis: 3-21G (6D, 7F)
 Ernie: Thresh=  0.10000D-02 Tol=  0.10000D-05 Strict=F.
    44 basis functions,    72 primitive gaussians,    44 cartesian basis functions
    16 alpha electrons       16 beta electrons
       nuclear repulsion energy       117.6445825671 Hartrees.
 IExCor=    0 DFT=F Ex=HF Corr=None ExCW=0 ScaHFX=  1.000000
 ScaDFX=  1.000000  1.000000  1.000000  1.000000 ScalE2=  1.000000  1.000000
 IRadAn=      0 IRanWt=     -1 IRanGd=            0 ICorTp=0 IEmpDi=  4
 NAtoms=    8 NActive=    8 NUniq=    8 SFac= 1.00D+00 NAtFMM=   60 NAOKFM=F Big=F
 Integral buffers will be    131072 words long.
 Raffenetti 1 integral format.
 Two-electron integral symmetry is turned off.
 Leave Link  301 at Fri Apr 12 16:52:14 2019, MaxMem=   134217728 cpu:         0.3
 (Enter /cm/shared/c3ddb/gaussian/09.d01/g09/l302.exe)
 NPDir=0 NMtPBC=     1 NCelOv=     1 NCel=       1 NClECP=     1 NCelD=      1
         NCelK=      1 NCelE2=     1 NClLst=     1 CellRange=     0.0.
 One-electron integrals computed using PRISM.
 NBasis=    44 RedAO= T EigKep=  1.19D-02  NBF=    44
 NBsUse=    44 1.00D-06 EigRej= -1.00D+00 NBFU=    44
 Leave Link  302 at Fri Apr 12 16:52:14 2019, MaxMem=   134217728 cpu:         0.2
 (Enter /cm/shared/c3ddb/gaussian/09.d01/g09/l303.exe)
 DipDrv:  MaxL=1.
 Leave Link  303 at Fri Apr 12 16:52:14 2019, MaxMem=   134217728 cpu:         0.1
 (Enter /cm/shared/c3ddb/gaussian/09.d01/g09/l401.exe)
 Initial guess from the checkpoint file:  "TMP_CALCS/scangeom_S02_070_120.chk"
 B after Tr=     0.000134   -0.001795    0.000237
         Rot=    1.000000    0.000357   -0.000556   -0.000463 Ang=   0.09 deg.
 Guess basis will be translated and rotated to current coordinates.
 JPrj=2 DoOrth=T DoCkMO=T.
 Leave Link  401 at Fri Apr 12 16:52:14 2019, MaxMem=   134217728 cpu:         0.3
 (Enter /cm/shared/c3ddb/gaussian/09.d01/g09/l502.exe)
 Closed shell SCF:
 Using DIIS extrapolation, IDIIS=  1040.
 Two-electron integral symmetry not used.
 Keep R1 ints in memory in canonical form, NReq=1327362.
 IVT=       24902 IEndB=       24902 NGot=   134217728 MDV=   133702282
 LenX=   133702282 LenY=   133699905
 Requested convergence on RMS density matrix=1.00D-08 within 128 cycles.
 Requested convergence on MAX density matrix=1.00D-06.
 Requested convergence on             energy=1.00D-06.
 No special actions if energy rises.
 FoFCou: FMM=F IPFlag=           0 FMFlag=           0 FMFlg1=           0
         NFxFlg=           0 DoJE=F BraDBF=F KetDBF=F FulRan=T
         wScrn=  0.000000 ICntrl=     600 IOpCl=  0 I1Cent=           0 NGrid=           0
         NMat0=    1 NMatS0=    990 NMatT0=    0 NMatD0=    1 NMtDS0=    0 NMtDT0=    0
 Symmetry not used in FoFCou.

 Cycle   1  Pass 1  IDiag  1:
 E= -226.391026814030    
 DIIS: error= 4.20D-04 at cycle   1 NSaved=   1.
 NSaved= 1 IEnMin= 1 EnMin= -226.391026814030     IErMin= 1 ErrMin= 4.20D-04
 ErrMax= 4.20D-04  0.00D+00 EMaxC= 1.00D-01 BMatC= 1.37D-05 BMatP= 1.37D-05
 IDIUse=3 WtCom= 9.96D-01 WtEn= 4.20D-03
 Coeff-Com:  0.100D+01
 Coeff-En:   0.100D+01
 Coeff:      0.100D+01
 Gap=     0.979 Goal=   None    Shift=    0.000
 RMSDP=8.84D-05 MaxDP=6.88D-04              OVMax= 1.05D-03

 Cycle   2  Pass 1  IDiag  1:
 E= -226.391044451642     Delta-E=       -0.000017637612 Rises=F Damp=F
 DIIS: error= 1.84D-04 at cycle   2 NSaved=   2.
 NSaved= 2 IEnMin= 2 EnMin= -226.391044451642     IErMin= 2 ErrMin= 1.84D-04
 ErrMax= 1.84D-04  0.00D+00 EMaxC= 1.00D-01 BMatC= 9.92D-07 BMatP= 1.37D-05
 IDIUse=3 WtCom= 9.98D-01 WtEn= 1.84D-03
 Coeff-Com: -0.158D+00 0.116D+01
 Coeff-En:   0.000D+00 0.100D+01
 Coeff:     -0.158D+00 0.116D+01
 Gap=     0.537 Goal=   None    Shift=    0.000
 RMSDP=3.99D-05 MaxDP=1.95D-04 DE=-1.76D-05 OVMax= 6.76D-04

 Cycle   3  Pass 1  IDiag  1:
 E= -226.391047581833     Delta-E=       -0.000003130192 Rises=F Damp=F
 DIIS: error= 8.48D-05 at cycle   3 NSaved=   3.
 NSaved= 3 IEnMin= 3 EnMin= -226.391047581833     IErMin= 3 ErrMin= 8.48D-05
 ErrMax= 8.48D-05  0.00D+00 EMaxC= 1.00D-01 BMatC= 1.91D-07 BMatP= 9.92D-07
 IDIUse=1 WtCom= 1.00D+00 WtEn= 0.00D+00
 Coeff-Com: -0.172D-01-0.169D+00 0.119D+01
 Coeff:     -0.172D-01-0.169D+00 0.119D+01
 Gap=     0.537 Goal=   None    Shift=    0.000
 RMSDP=2.04D-05 MaxDP=1.24D-04 DE=-3.13D-06 OVMax= 3.54D-04

 Cycle   4  Pass 1  IDiag  1:
 E= -226.391048247831     Delta-E=       -0.000000665998 Rises=F Damp=F
 DIIS: error= 5.41D-05 at cycle   4 NSaved=   4.
 NSaved= 4 IEnMin= 4 EnMin= -226.391048247831     IErMin= 4 ErrMin= 5.41D-05
 ErrMax= 5.41D-05  0.00D+00 EMaxC= 1.00D-01 BMatC= 6.12D-08 BMatP= 1.91D-07
 IDIUse=1 WtCom= 1.00D+00 WtEn= 0.00D+00
 Coeff-Com:  0.312D-01-0.313D+00 0.325D+00 0.957D+00
 Coeff:      0.312D-01-0.313D+00 0.325D+00 0.957D+00
 Gap=     0.537 Goal=   None    Shift=    0.000
 RMSDP=1.17D-05 MaxDP=7.43D-05 DE=-6.66D-07 OVMax= 2.49D-04

 Cycle   5  Pass 1  IDiag  1:
 E= -226.391048428422     Delta-E=       -0.000000180591 Rises=F Damp=F
 DIIS: error= 2.67D-05 at cycle   5 NSaved=   5.
 NSaved= 5 IEnMin= 5 EnMin= -226.391048428422     IErMin= 5 ErrMin= 2.67D-05
 ErrMax= 2.67D-05  0.00D+00 EMaxC= 1.00D-01 BMatC= 8.45D-09 BMatP= 6.12D-08
 IDIUse=1 WtCom= 1.00D+00 WtEn= 0.00D+00
 Coeff-Com: -0.244D-02 0.836D-01-0.252D+00-0.145D+00 0.132D+01
 Coeff:     -0.244D-02 0.836D-01-0.252D+00-0.145D+00 0.132D+01
 Gap=     0.537 Goal=   None    Shift=    0.000
 RMSDP=5.83D-06 MaxDP=4.41D-05 DE=-1.81D-07 OVMax= 1.50D-04

 Cycle   6  Pass 1  IDiag  1:
 E= -226.391048466232     Delta-E=       -0.000000037810 Rises=F Damp=F
 DIIS: error= 1.15D-05 at cycle   6 NSaved=   6.
 NSaved= 6 IEnMin= 6 EnMin= -226.391048466232     IErMin= 6 ErrMin= 1.15D-05
 ErrMax= 1.15D-05  0.00D+00 EMaxC= 1.00D-01 BMatC= 1.59D-09 BMatP= 8.45D-09
 IDIUse=1 WtCom= 1.00D+00 WtEn= 0.00D+00
 Coeff-Com: -0.547D-02 0.640D-01-0.893D-01-0.182D+00 0.133D+00 0.108D+01
 Coeff:     -0.547D-02 0.640D-01-0.893D-01-0.182D+00 0.133D+00 0.108D+01
 Gap=     0.537 Goal=   None    Shift=    0.000
 RMSDP=2.62D-06 MaxDP=1.81D-05 DE=-3.78D-08 OVMax= 7.10D-05

 Cycle   7  Pass 1  IDiag  1:
 E= -226.391048473382     Delta-E=       -0.000000007149 Rises=F Damp=F
 DIIS: error= 4.21D-06 at cycle   7 NSaved=   7.
 NSaved= 7 IEnMin= 7 EnMin= -226.391048473382     IErMin= 7 ErrMin= 4.21D-06
 ErrMax= 4.21D-06  0.00D+00 EMaxC= 1.00D-01 BMatC= 2.58D-10 BMatP= 1.59D-09
 IDIUse=1 WtCom= 1.00D+00 WtEn= 0.00D+00
 Coeff-Com:  0.153D-02-0.302D-01 0.750D-01 0.623D-01-0.331D+00-0.187D+00
 Coeff-Com:  0.141D+01
 Coeff:      0.153D-02-0.302D-01 0.750D-01 0.623D-01-0.331D+00-0.187D+00
 Coeff:      0.141D+01
 Gap=     0.537 Goal=   None    Shift=    0.000
 RMSDP=1.44D-06 MaxDP=9.09D-06 DE=-7.15D-09 OVMax= 3.64D-05

 Cycle   8  Pass 1  IDiag  1:
 E= -226.391048474732     Delta-E=       -0.000000001351 Rises=F Damp=F
 DIIS: error= 4.92D-07 at cycle   8 NSaved=   8.
 NSaved= 8 IEnMin= 8 EnMin= -226.391048474732     IErMin= 8 ErrMin= 4.92D-07
 ErrMax= 4.92D-07  0.00D+00 EMaxC= 1.00D-01 BMatC= 1.39D-11 BMatP= 2.58D-10
 IDIUse=1 WtCom= 1.00D+00 WtEn= 0.00D+00
 Coeff-Com:  0.487D-03-0.655D-02 0.117D-01 0.155D-01-0.298D-01-0.976D-01
 Coeff-Com:  0.124D+00 0.983D+00
 Coeff:      0.487D-03-0.655D-02 0.117D-01 0.155D-01-0.298D-01-0.976D-01
 Coeff:      0.124D+00 0.983D+00
 Gap=     0.537 Goal=   None    Shift=    0.000
 RMSDP=1.94D-07 MaxDP=1.36D-06 DE=-1.35D-09 OVMax= 4.42D-06

 Cycle   9  Pass 1  IDiag  1:
 E= -226.391048474771     Delta-E=       -0.000000000039 Rises=F Damp=F
 DIIS: error= 1.48D-07 at cycle   9 NSaved=   9.
 NSaved= 9 IEnMin= 9 EnMin= -226.391048474771     IErMin= 9 ErrMin= 1.48D-07
 ErrMax= 1.48D-07  0.00D+00 EMaxC= 1.00D-01 BMatC= 1.73D-12 BMatP= 1.39D-11
 IDIUse=1 WtCom= 1.00D+00 WtEn= 0.00D+00
 Coeff-Com: -0.196D-03 0.417D-02-0.103D-01-0.944D-02 0.499D-01 0.174D-01
 Coeff-Com: -0.192D+00 0.230D-01 0.112D+01
 Coeff:     -0.196D-03 0.417D-02-0.103D-01-0.944D-02 0.499D-01 0.174D-01
 Coeff:     -0.192D+00 0.230D-01 0.112D+01
 Gap=     0.537 Goal=   None    Shift=    0.000
 RMSDP=6.62D-08 MaxDP=4.33D-07 DE=-3.90D-11 OVMax= 1.01D-06

 Cycle  10  Pass 1  IDiag  1:
 E= -226.391048474776     Delta-E=       -0.000000000004 Rises=F Damp=F
 DIIS: error= 4.27D-08 at cycle  10 NSaved=  10.
 NSaved=10 IEnMin=10 EnMin= -226.391048474776     IErMin=10 ErrMin= 4.27D-08
 ErrMax= 4.27D-08  0.00D+00 EMaxC= 1.00D-01 BMatC= 1.28D-13 BMatP= 1.73D-12
 IDIUse=1 WtCom= 1.00D+00 WtEn= 0.00D+00
 Coeff-Com: -0.190D-04 0.130D-03 0.201D-04-0.626D-03-0.870D-03 0.433D-02
 Coeff-Com:  0.689D-02-0.780D-01-0.367D-01 0.110D+01
 Coeff:     -0.190D-04 0.130D-03 0.201D-04-0.626D-03-0.870D-03 0.433D-02
 Coeff:      0.689D-02-0.780D-01-0.367D-01 0.110D+01
 Gap=     0.537 Goal=   None    Shift=    0.000
 RMSDP=1.58D-08 MaxDP=8.68D-08 DE=-4.43D-12 OVMax= 2.44D-07

 Cycle  11  Pass 1  IDiag  1:
 E= -226.391048474776     Delta-E=       -0.000000000001 Rises=F Damp=F
 DIIS: error= 1.32D-08 at cycle  11 NSaved=  11.
 NSaved=11 IEnMin=11 EnMin= -226.391048474776     IErMin=11 ErrMin= 1.32D-08
 ErrMax= 1.32D-08  0.00D+00 EMaxC= 1.00D-01 BMatC= 1.41D-14 BMatP= 1.28D-13
 IDIUse=1 WtCom= 1.00D+00 WtEn= 0.00D+00
 Coeff-Com:  0.254D-04-0.571D-03 0.145D-02 0.123D-02-0.680D-02-0.277D-02
 Coeff-Com:  0.281D-01-0.101D-01-0.148D+00 0.317D-01 0.111D+01
 Coeff:      0.254D-04-0.571D-03 0.145D-02 0.123D-02-0.680D-02-0.277D-02
 Coeff:      0.281D-01-0.101D-01-0.148D+00 0.317D-01 0.111D+01
 Gap=     0.537 Goal=   None    Shift=    0.000
 RMSDP=6.46D-09 MaxDP=4.10D-08 DE=-7.39D-13 OVMax= 1.04D-07

 SCF Done:  E(RHF) =  -226.391048475     A.U. after   11 cycles
            NFock= 11  Conv=0.65D-08     -V/T= 2.0034
 KE= 2.256259965557D+02 PE=-7.688119970198D+02 EE= 1.991503694222D+02
 Leave Link  502 at Fri Apr 12 16:52:15 2019, MaxMem=   134217728 cpu:         0.4
 (Enter /cm/shared/c3ddb/gaussian/09.d01/g09/l701.exe)
 Compute integral first derivatives.
 ... and contract with generalized density number  0.
 Leave Link  701 at Fri Apr 12 16:52:15 2019, MaxMem=   134217728 cpu:         0.2
 (Enter /cm/shared/c3ddb/gaussian/09.d01/g09/l702.exe)
 L702 exits ... SP integral derivatives will be done elsewhere.
 Leave Link  702 at Fri Apr 12 16:52:15 2019, MaxMem=   134217728 cpu:         0.1
 (Enter /cm/shared/c3ddb/gaussian/09.d01/g09/l703.exe)
 Compute integral first derivatives, UseDBF=F ICtDFT=           0.
 Integral derivatives from FoFJK, PRISM(SPDF).
 Calling FoFJK, ICntrl=      2127 FMM=F ISym2X=0 I1Cent= 0 IOpClX= 0 NMat=1 NMatS=1 NMatT=0.
 FoFJK:  IHMeth= 1 ICntrl=    2127 DoSepK=F KAlg= 0 I1Cent=   0 FoldK=F
 IRaf=         0 NMat=   1 IRICut=       1 DoRegI=T DoRafI=F ISym2E= 0.
 FoFCou: FMM=F IPFlag=           0 FMFlag=      100000 FMFlg1=         800
         NFxFlg=           0 DoJE=F BraDBF=F KetDBF=F FulRan=T
         wScrn=  0.000000 ICntrl=    2127 IOpCl=  0 I1Cent=           0 NGrid=           0
         NMat0=    1 NMatS0=      1 NMatT0=    0 NMatD0=    1 NMtDS0=    0 NMtDT0=    0
 Symmetry not used in FoFCou.
 Leave Link  703 at Fri Apr 12 16:52:16 2019, MaxMem=   134217728 cpu:         0.2
 (Enter /cm/shared/c3ddb/gaussian/09.d01/g09/l716.exe)
 Dipole        = 4.00699886D-01 4.86237814D-01 4.01271953D-01
 -------------------------------------------------------------------
 Center     Atomic                   Forces (Hartrees/Bohr)
 Number     Number              X              Y              Z
 -------------------------------------------------------------------
      1        6           0.000068118   -0.000827612   -0.001154963
      2        6           0.000088519    0.000029049    0.000261973
      3        1           0.000118474   -0.000023412   -0.000002247
      4        1           0.000019112   -0.000021801    0.000039082
      5        1           0.000009161    0.000020059   -0.000036393
      6        8           0.000509884    0.001215957   -0.000021676
      7        8           0.000515460    0.000336359    0.001010531
      8        1          -0.001328728   -0.000728599   -0.000096307
 -------------------------------------------------------------------
 Cartesian Forces:  Max     0.001328728 RMS     0.000561407
 Leave Link  716 at Fri Apr 12 16:52:16 2019, MaxMem=   134217728 cpu:         0.2
 (Enter /cm/shared/c3ddb/gaussian/09.d01/g09/l103.exe)

 GradGradGradGradGradGradGradGradGradGradGradGradGradGradGradGradGradGrad
 Berny optimization.
 Using GEDIIS/GDIIS optimizer.
 FormGI is forming the generalized inverse of G from B-inverse, IUseBI=4.
 Internal  Forces:  Max     0.002467751 RMS     0.000680831
 Search for a local minimum.
 Step number   2 out of a maximum of   32
 All quantities printed in internal units (Hartrees-Bohrs-Radians)
 RMS Force = .44407D-03 SwitMx=.10000D-02 MixMth= 2
 Mixed Optimization -- En-DIIS/RFO-DIIS
 Swapping is turned off.
 Update second derivatives using D2CorX and points    1    2
 DE= -8.58D-06 DEPred=-1.88D-05 R= 4.55D-01
 Trust test= 4.55D-01 RLast= 1.50D-02 DXMaxT set to 3.00D-01
 ITU=  0  0
     Eigenvalues ---    0.02476   0.03316   0.03324   0.15951   0.15999
     Eigenvalues ---    0.16000   0.19406   0.22059   0.26667   0.37064
     Eigenvalues ---    0.37107   0.37127   0.39861   0.47330   0.52768
     Eigenvalues ---    0.652231000.000001000.000001000.000001000.00000
     Eigenvalues --- 1000.000001000.00000
 En-DIIS/RFO-DIIS IScMMF=        0 using points:     2    1
 RFO step:  Lambda=-6.37104761D-06.
 NNeg= 0 NP= 2 Switch=  2.50D-03 Rises=F DC=  8.58D-06 SmlDif=  1.00D-05
 RMS Error=  0.6705949594D-03 NUsed= 2 EDIIS=F
 DidBck=T Rises=F RFO-DIIS coefs:    0.64621    0.35379
 Iteration  1 RMS(Cart)=  0.00204702 RMS(Int)=  0.00000191
 Iteration  2 RMS(Cart)=  0.00000174 RMS(Int)=  0.00000029
 Iteration  3 RMS(Cart)=  0.00000000 RMS(Int)=  0.00000029
 Iteration  1 RMS(Cart)=  0.00000012 RMS(Int)=  0.00000005
 ITry= 1 IFail=0 DXMaxC= 5.20D-03 DCOld= 1.00D+10 DXMaxT= 3.00D-01 DXLimC= 3.00D+00 Rises=F
 Variable       Old X    -DE/DX   Delta X   Delta X   Delta X     New X
                                 (Linear)    (Quad)   (Total)
    R1        2.47033   0.00002   0.00000   0.00002   0.00002   2.47035
    R2        2.02345   0.00003   0.00013  -0.00010   0.00003   2.02347
    R3        2.66659   0.00032   0.00084  -0.00053   0.00031   2.66690
    R4        2.02378   0.00002   0.00003   0.00000   0.00003   2.02381
    R5        2.02355  -0.00002   0.00000  -0.00003  -0.00003   2.02352
    R6        2.78074   0.00122  -0.00022   0.00248   0.00226   2.78299
    R7        1.83853   0.00004   0.00020  -0.00019   0.00001   1.83854
    A1        2.16673  -0.00017  -0.00031  -0.00027  -0.00058   2.16615
    A2        2.14090   0.00012   0.00028   0.00001   0.00029   2.14118
    A3        1.97500   0.00006  -0.00001   0.00033   0.00032   1.97532
    A4        2.10569   0.00003   0.00016  -0.00009   0.00007   2.10577
    A5        2.11359  -0.00001  -0.00021   0.00020  -0.00001   2.11358
    A6        2.06379  -0.00001   0.00005  -0.00011  -0.00006   2.06373
    A7        1.88398   0.00089   0.00238  -0.00054   0.00183   1.88582
    A8        1.74517   0.00123   0.00419  -0.00004   0.00415   1.74931
    D1        0.00740  -0.00006   0.00097  -0.00093   0.00004   0.00744
    D2        3.13290  -0.00007   0.00099  -0.00100  -0.00001   3.13289
    D3        3.11043   0.00013  -0.00044   0.00166   0.00121   3.11164
    D4       -0.04727   0.00013  -0.00042   0.00159   0.00116  -0.04610
    D5        1.22173  -0.00032   0.00000   0.00000   0.00000   1.22173
    D6       -1.95458  -0.00015  -0.00128   0.00232   0.00104  -1.95354
    D7        2.09439   0.00247   0.00000   0.00000   0.00000   2.09439
         Item               Value     Threshold  Converged?
 Maximum Force            0.001229     0.000015     NO 
 RMS     Force            0.000444     0.000010     NO 
 Maximum Displacement     0.005198     0.000060     NO 
 RMS     Displacement     0.002047     0.000040     NO 
 Predicted change in Energy=-4.943771D-06
 Lowest energy point so far.  Saving SCF results.
 GradGradGradGradGradGradGradGradGradGradGradGradGradGradGradGradGradGrad

 Leave Link  103 at Fri Apr 12 16:52:16 2019, MaxMem=   134217728 cpu:         0.0
 (Enter /cm/shared/c3ddb/gaussian/09.d01/g09/l202.exe)
                          Input orientation:                          
 ---------------------------------------------------------------------
 Center     Atomic      Atomic             Coordinates (Angstroms)
 Number     Number       Type             X           Y           Z
 ---------------------------------------------------------------------
      1          6           0        0.735418    0.612125    0.046651
      2          6           0        1.385559   -0.520374   -0.014010
      3          1           0        1.205897    1.572382    0.102496
      4          1           0        2.456337   -0.536474   -0.003420
      5          1           0        0.865168   -1.455057   -0.060642
      6          8           0       -0.673165    0.685589    0.000205
      7          8           0       -1.200608    0.134426    1.259912
      8          1           0       -1.681067    0.909193    1.599699
 ---------------------------------------------------------------------
                    Distance matrix (angstroms):
                    1          2          3          4          5
     1  C    0.000000
     2  C    1.307255   0.000000
     3  H    1.070777   2.103683   0.000000
     4  H    2.069625   1.070952   2.453996   0.000000
     5  H    2.074026   1.070801   3.050917   1.838175   0.000000
     6  O    1.411263   2.385979   2.080322   3.359648   2.636766
     7  O    2.334180   2.956333   3.032918   3.926750   2.921943
     8  H    2.887838   3.748588   3.319035   4.666697   3.850938
                    6          7          8
     6  O    0.000000
     7  O    1.472697   0.000000
     8  H    1.903745   0.972913   0.000000
 Symmetry turned off by external request.
 Stoichiometry    C2H4O2
 Framework group  C1[X(C2H4O2)]
 Deg. of freedom    18
 Full point group                 C1      NOp   1
 Rotational constants (GHZ):     21.2687997      5.6387858      4.8838700
 Leave Link  202 at Fri Apr 12 16:52:16 2019, MaxMem=   134217728 cpu:         0.0
 (Enter /cm/shared/c3ddb/gaussian/09.d01/g09/l301.exe)
 Standard basis: 3-21G (6D, 7F)
 Ernie: Thresh=  0.10000D-02 Tol=  0.10000D-05 Strict=F.
    44 basis functions,    72 primitive gaussians,    44 cartesian basis functions
    16 alpha electrons       16 beta electrons
       nuclear repulsion energy       117.5890312904 Hartrees.
 IExCor=    0 DFT=F Ex=HF Corr=None ExCW=0 ScaHFX=  1.000000
 ScaDFX=  1.000000  1.000000  1.000000  1.000000 ScalE2=  1.000000  1.000000
 IRadAn=      0 IRanWt=     -1 IRanGd=            0 ICorTp=0 IEmpDi=  4
 NAtoms=    8 NActive=    8 NUniq=    8 SFac= 1.00D+00 NAtFMM=   60 NAOKFM=F Big=F
 Integral buffers will be    131072 words long.
 Raffenetti 1 integral format.
 Two-electron integral symmetry is turned off.
 Leave Link  301 at Fri Apr 12 16:52:16 2019, MaxMem=   134217728 cpu:         0.1
 (Enter /cm/shared/c3ddb/gaussian/09.d01/g09/l302.exe)
 NPDir=0 NMtPBC=     1 NCelOv=     1 NCel=       1 NClECP=     1 NCelD=      1
         NCelK=      1 NCelE2=     1 NClLst=     1 CellRange=     0.0.
 One-electron integrals computed using PRISM.
 NBasis=    44 RedAO= T EigKep=  1.19D-02  NBF=    44
 NBsUse=    44 1.00D-06 EigRej= -1.00D+00 NBFU=    44
 Leave Link  302 at Fri Apr 12 16:52:17 2019, MaxMem=   134217728 cpu:         0.3
 (Enter /cm/shared/c3ddb/gaussian/09.d01/g09/l303.exe)
 DipDrv:  MaxL=1.
 Leave Link  303 at Fri Apr 12 16:52:17 2019, MaxMem=   134217728 cpu:         0.1
 (Enter /cm/shared/c3ddb/gaussian/09.d01/g09/l401.exe)
 Initial guess from the checkpoint file:  "TMP_CALCS/scangeom_S02_070_120.chk"
 B after Tr=    -0.000180    0.000249   -0.000273
         Rot=    1.000000    0.000123    0.000053    0.000087 Ang=   0.02 deg.
 Guess basis will be translated and rotated to current coordinates.
 JPrj=2 DoOrth=T DoCkMO=T.
 Leave Link  401 at Fri Apr 12 16:52:18 2019, MaxMem=   134217728 cpu:         0.5
 (Enter /cm/shared/c3ddb/gaussian/09.d01/g09/l502.exe)
 Closed shell SCF:
 Using DIIS extrapolation, IDIIS=  1040.
 Two-electron integral symmetry not used.
 Keep R1 ints in memory in canonical form, NReq=1327362.
 IVT=       24902 IEndB=       24902 NGot=   134217728 MDV=   133702282
 LenX=   133702282 LenY=   133699905
 Requested convergence on RMS density matrix=1.00D-08 within 128 cycles.
 Requested convergence on MAX density matrix=1.00D-06.
 Requested convergence on             energy=1.00D-06.
 No special actions if energy rises.
 FoFCou: FMM=F IPFlag=           0 FMFlag=           0 FMFlg1=           0
         NFxFlg=           0 DoJE=F BraDBF=F KetDBF=F FulRan=T
         wScrn=  0.000000 ICntrl=     600 IOpCl=  0 I1Cent=           0 NGrid=           0
         NMat0=    1 NMatS0=    990 NMatT0=    0 NMatD0=    1 NMtDS0=    0 NMtDT0=    0
 Symmetry not used in FoFCou.

 Cycle   1  Pass 1  IDiag  1:
 E= -226.391051597472    
 DIIS: error= 1.56D-04 at cycle   1 NSaved=   1.
 NSaved= 1 IEnMin= 1 EnMin= -226.391051597472     IErMin= 1 ErrMin= 1.56D-04
 ErrMax= 1.56D-04  0.00D+00 EMaxC= 1.00D-01 BMatC= 1.67D-06 BMatP= 1.67D-06
 IDIUse=3 WtCom= 9.98D-01 WtEn= 1.56D-03
 Coeff-Com:  0.100D+01
 Coeff-En:   0.100D+01
 Coeff:      0.100D+01
 Gap=     0.979 Goal=   None    Shift=    0.000
 RMSDP=3.02D-05 MaxDP=2.60D-04              OVMax= 2.06D-04

 Cycle   2  Pass 1  IDiag  1:
 E= -226.391052911308     Delta-E=       -0.000001313835 Rises=F Damp=F
 DIIS: error= 5.39D-05 at cycle   2 NSaved=   2.
 NSaved= 2 IEnMin= 2 EnMin= -226.391052911308     IErMin= 2 ErrMin= 5.39D-05
 ErrMax= 5.39D-05  0.00D+00 EMaxC= 1.00D-01 BMatC= 7.24D-08 BMatP= 1.67D-06
 IDIUse=1 WtCom= 1.00D+00 WtEn= 0.00D+00
 Coeff-Com: -0.877D-01 0.109D+01
 Coeff:     -0.877D-01 0.109D+01
 Gap=     0.537 Goal=   None    Shift=    0.000
 RMSDP=1.05D-05 MaxDP=6.28D-05 DE=-1.31D-06 OVMax= 1.86D-04

 Cycle   3  Pass 1  IDiag  1:
 E= -226.391053100436     Delta-E=       -0.000000189129 Rises=F Damp=F
 DIIS: error= 3.33D-05 at cycle   3 NSaved=   3.
 NSaved= 3 IEnMin= 3 EnMin= -226.391053100436     IErMin= 3 ErrMin= 3.33D-05
 ErrMax= 3.33D-05  0.00D+00 EMaxC= 1.00D-01 BMatC= 1.82D-08 BMatP= 7.24D-08
 IDIUse=1 WtCom= 1.00D+00 WtEn= 0.00D+00
 Coeff-Com: -0.301D-01 0.740D-01 0.956D+00
 Coeff:     -0.301D-01 0.740D-01 0.956D+00
 Gap=     0.537 Goal=   None    Shift=    0.000
 RMSDP=5.13D-06 MaxDP=3.42D-05 DE=-1.89D-07 OVMax= 1.08D-04

 Cycle   4  Pass 1  IDiag  1:
 E= -226.391053151868     Delta-E=       -0.000000051432 Rises=F Damp=F
 DIIS: error= 2.37D-05 at cycle   4 NSaved=   4.
 NSaved= 4 IEnMin= 4 EnMin= -226.391053151868     IErMin= 4 ErrMin= 2.37D-05
 ErrMax= 2.37D-05  0.00D+00 EMaxC= 1.00D-01 BMatC= 6.58D-09 BMatP= 1.82D-08
 IDIUse=1 WtCom= 1.00D+00 WtEn= 0.00D+00
 Coeff-Com:  0.252D-01-0.325D+00 0.158D-01 0.128D+01
 Coeff:      0.252D-01-0.325D+00 0.158D-01 0.128D+01
 Gap=     0.537 Goal=   None    Shift=    0.000
 RMSDP=5.26D-06 MaxDP=4.10D-05 DE=-5.14D-08 OVMax= 1.31D-04

 Cycle   5  Pass 1  IDiag  1:
 E= -226.391053181341     Delta-E=       -0.000000029473 Rises=F Damp=F
 DIIS: error= 9.67D-06 at cycle   5 NSaved=   5.
 NSaved= 5 IEnMin= 5 EnMin= -226.391053181341     IErMin= 5 ErrMin= 9.67D-06
 ErrMax= 9.67D-06  0.00D+00 EMaxC= 1.00D-01 BMatC= 1.19D-09 BMatP= 6.58D-09
 IDIUse=1 WtCom= 1.00D+00 WtEn= 0.00D+00
 Coeff-Com:  0.671D-02-0.144D-01-0.196D+00 0.388D-01 0.116D+01
 Coeff:      0.671D-02-0.144D-01-0.196D+00 0.388D-01 0.116D+01
 Gap=     0.537 Goal=   None    Shift=    0.000
 RMSDP=2.31D-06 MaxDP=1.84D-05 DE=-2.95D-08 OVMax= 6.09D-05

 Cycle   6  Pass 1  IDiag  1:
 E= -226.391053186452     Delta-E=       -0.000000005112 Rises=F Damp=F
 DIIS: error= 3.62D-06 at cycle   6 NSaved=   6.
 NSaved= 6 IEnMin= 6 EnMin= -226.391053186452     IErMin= 6 ErrMin= 3.62D-06
 ErrMax= 3.62D-06  0.00D+00 EMaxC= 1.00D-01 BMatC= 1.85D-10 BMatP= 1.19D-09
 IDIUse=1 WtCom= 1.00D+00 WtEn= 0.00D+00
 Coeff-Com: -0.411D-02 0.678D-01-0.424D-01-0.274D+00 0.186D+00 0.107D+01
 Coeff:     -0.411D-02 0.678D-01-0.424D-01-0.274D+00 0.186D+00 0.107D+01
 Gap=     0.537 Goal=   None    Shift=    0.000
 RMSDP=1.03D-06 MaxDP=7.50D-06 DE=-5.11D-09 OVMax= 2.84D-05

 Cycle   7  Pass 1  IDiag  1:
 E= -226.391053187226     Delta-E=       -0.000000000773 Rises=F Damp=F
 DIIS: error= 6.97D-07 at cycle   7 NSaved=   7.
 NSaved= 7 IEnMin= 7 EnMin= -226.391053187226     IErMin= 7 ErrMin= 6.97D-07
 ErrMax= 6.97D-07  0.00D+00 EMaxC= 1.00D-01 BMatC= 1.30D-11 BMatP= 1.85D-10
 IDIUse=1 WtCom= 1.00D+00 WtEn= 0.00D+00
 Coeff-Com:  0.108D-02-0.262D-01 0.369D-01 0.104D+00-0.190D+00-0.399D+00
 Coeff-Com:  0.147D+01
 Coeff:      0.108D-02-0.262D-01 0.369D-01 0.104D+00-0.190D+00-0.399D+00
 Coeff:      0.147D+01
 Gap=     0.537 Goal=   None    Shift=    0.000
 RMSDP=2.75D-07 MaxDP=1.68D-06 DE=-7.73D-10 OVMax= 6.19D-06

 Cycle   8  Pass 1  IDiag  1:
 E= -226.391053187285     Delta-E=       -0.000000000059 Rises=F Damp=F
 DIIS: error= 1.90D-07 at cycle   8 NSaved=   8.
 NSaved= 8 IEnMin= 8 EnMin= -226.391053187285     IErMin= 8 ErrMin= 1.90D-07
 ErrMax= 1.90D-07  0.00D+00 EMaxC= 1.00D-01 BMatC= 8.73D-13 BMatP= 1.30D-11
 IDIUse=1 WtCom= 1.00D+00 WtEn= 0.00D+00
 Coeff-Com:  0.199D-03-0.266D-02 0.322D-03 0.954D-02 0.653D-02-0.553D-01
 Coeff-Com: -0.869D-01 0.113D+01
 Coeff:      0.199D-03-0.266D-02 0.322D-03 0.954D-02 0.653D-02-0.553D-01
 Coeff:     -0.869D-01 0.113D+01
 Gap=     0.537 Goal=   None    Shift=    0.000
 RMSDP=5.15D-08 MaxDP=3.13D-07 DE=-5.92D-11 OVMax= 9.94D-07

 Cycle   9  Pass 1  IDiag  1:
 E= -226.391053187288     Delta-E=       -0.000000000003 Rises=F Damp=F
 DIIS: error= 8.51D-08 at cycle   9 NSaved=   9.
 NSaved= 9 IEnMin= 9 EnMin= -226.391053187288     IErMin= 9 ErrMin= 8.51D-08
 ErrMax= 8.51D-08  0.00D+00 EMaxC= 1.00D-01 BMatC= 1.30D-13 BMatP= 8.73D-13
 IDIUse=1 WtCom= 1.00D+00 WtEn= 0.00D+00
 Coeff-Com: -0.179D-03 0.424D-02-0.510D-02-0.180D-01 0.301D-01 0.620D-01
 Coeff-Com: -0.201D+00-0.143D+00 0.127D+01
 Coeff:     -0.179D-03 0.424D-02-0.510D-02-0.180D-01 0.301D-01 0.620D-01
 Coeff:     -0.201D+00-0.143D+00 0.127D+01
 Gap=     0.537 Goal=   None    Shift=    0.000
 RMSDP=2.23D-08 MaxDP=1.41D-07 DE=-2.84D-12 OVMax= 5.23D-07

 Cycle  10  Pass 1  IDiag  1:
 E= -226.391053187288     Delta-E=        0.000000000000 Rises=F Damp=F
 DIIS: error= 2.92D-08 at cycle  10 NSaved=  10.
 NSaved=10 IEnMin=10 EnMin= -226.391053187288     IErMin=10 ErrMin= 2.92D-08
 ErrMax= 2.92D-08  0.00D+00 EMaxC= 1.00D-01 BMatC= 1.15D-14 BMatP= 1.30D-13
 IDIUse=1 WtCom= 1.00D+00 WtEn= 0.00D+00
 Coeff-Com:  0.610D-04-0.165D-02 0.241D-02 0.677D-02-0.136D-01-0.229D-01
 Coeff-Com:  0.993D-01-0.407D-01-0.554D+00 0.152D+01
 Coeff:      0.610D-04-0.165D-02 0.241D-02 0.677D-02-0.136D-01-0.229D-01
 Coeff:      0.993D-01-0.407D-01-0.554D+00 0.152D+01
 Gap=     0.537 Goal=   None    Shift=    0.000
 RMSDP=7.45D-09 MaxDP=3.85D-08 DE=-3.41D-13 OVMax= 1.85D-07

 SCF Done:  E(RHF) =  -226.391053187     A.U. after   10 cycles
            NFock= 10  Conv=0.75D-08     -V/T= 2.0034
 KE= 2.256216343972D+02 PE=-7.686999307466D+02 EE= 1.990982118717D+02
 Leave Link  502 at Fri Apr 12 16:52:18 2019, MaxMem=   134217728 cpu:         0.2
 (Enter /cm/shared/c3ddb/gaussian/09.d01/g09/l701.exe)
 Compute integral first derivatives.
 ... and contract with generalized density number  0.
 Leave Link  701 at Fri Apr 12 16:52:18 2019, MaxMem=   134217728 cpu:         0.3
 (Enter /cm/shared/c3ddb/gaussian/09.d01/g09/l702.exe)
 L702 exits ... SP integral derivatives will be done elsewhere.
 Leave Link  702 at Fri Apr 12 16:52:19 2019, MaxMem=   134217728 cpu:         0.1
 (Enter /cm/shared/c3ddb/gaussian/09.d01/g09/l703.exe)
 Compute integral first derivatives, UseDBF=F ICtDFT=           0.
 Integral derivatives from FoFJK, PRISM(SPDF).
 Calling FoFJK, ICntrl=      2127 FMM=F ISym2X=0 I1Cent= 0 IOpClX= 0 NMat=1 NMatS=1 NMatT=0.
 FoFJK:  IHMeth= 1 ICntrl=    2127 DoSepK=F KAlg= 0 I1Cent=   0 FoldK=F
 IRaf=         0 NMat=   1 IRICut=       1 DoRegI=T DoRafI=F ISym2E= 0.
 FoFCou: FMM=F IPFlag=           0 FMFlag=      100000 FMFlg1=         800
         NFxFlg=           0 DoJE=F BraDBF=F KetDBF=F FulRan=T
         wScrn=  0.000000 ICntrl=    2127 IOpCl=  0 I1Cent=           0 NGrid=           0
         NMat0=    1 NMatS0=      1 NMatT0=    0 NMatD0=    1 NMtDS0=    0 NMtDT0=    0
 Symmetry not used in FoFCou.
 Leave Link  703 at Fri Apr 12 16:52:19 2019, MaxMem=   134217728 cpu:         0.3
 (Enter /cm/shared/c3ddb/gaussian/09.d01/g09/l716.exe)
 Dipole        = 4.01020619D-01 4.85370152D-01 4.02360135D-01
 -------------------------------------------------------------------
 Center     Atomic                   Forces (Hartrees/Bohr)
 Number     Number              X              Y              Z
 -------------------------------------------------------------------
      1        6          -0.000102034   -0.000891519   -0.000699777
      2        6           0.000024674   -0.000019983    0.000239769
      3        1           0.000044014    0.000003299   -0.000011818
      4        1           0.000007009   -0.000003985   -0.000026734
      5        1           0.000000756    0.000001714    0.000003615
      6        8          -0.000139532    0.001250069    0.000716657
      7        8           0.001280186    0.000020689    0.000410744
      8        1          -0.001115073   -0.000360284   -0.000632456
 -------------------------------------------------------------------
 Cartesian Forces:  Max     0.001280186 RMS     0.000541342
 Leave Link  716 at Fri Apr 12 16:52:19 2019, MaxMem=   134217728 cpu:         0.1
 (Enter /cm/shared/c3ddb/gaussian/09.d01/g09/l103.exe)

 GradGradGradGradGradGradGradGradGradGradGradGradGradGradGradGradGradGrad
 Berny optimization.
 Using GEDIIS/GDIIS optimizer.
 FormGI is forming the generalized inverse of G from B-inverse, IUseBI=4.
 Internal  Forces:  Max     0.002407926 RMS     0.000520427
 Search for a local minimum.
 Step number   3 out of a maximum of   32
 All quantities printed in internal units (Hartrees-Bohrs-Radians)
 RMS Force = .35086D-04 SwitMx=.10000D-02 MixMth= 2
 Mixed Optimization -- En-DIIS/RFO-DIIS
 Swapping is turned off.
 Update second derivatives using D2CorX and points    1    2    3
 DE= -4.71D-06 DEPred=-4.94D-06 R= 9.53D-01
 TightC=F SS=  1.41D+00  RLast= 5.49D-03 DXNew= 5.0454D-01 1.6483D-02
 Trust test= 9.53D-01 RLast= 5.49D-03 DXMaxT set to 3.00D-01
 ITU=  1  0  0
     Eigenvalues ---    0.02550   0.03315   0.03353   0.15826   0.16000
     Eigenvalues ---    0.16005   0.19323   0.22028   0.26906   0.37106
     Eigenvalues ---    0.37119   0.37127   0.41273   0.48809   0.52760
     Eigenvalues ---    0.652241000.000001000.000001000.000001000.00000
     Eigenvalues --- 1000.000001000.00000
 En-DIIS/RFO-DIIS IScMMF=        0 using points:     3    2    1
 RFO step:  Lambda=-2.36905328D-07.
 NNeg= 0 NP= 3 Switch=  2.50D-03 Rises=F DC=  8.58D-06 SmlDif=  1.00D-05
 RMS Error=  0.8006303980D-04 NUsed= 3 EDIIS=F
 DidBck=F Rises=F RFO-DIIS coefs:    0.84766    0.09783    0.05451
 Iteration  1 RMS(Cart)=  0.00038936 RMS(Int)=  0.00000015
 Iteration  2 RMS(Cart)=  0.00000013 RMS(Int)=  0.00000004
 Iteration  1 RMS(Cart)=  0.00000003 RMS(Int)=  0.00000002
 ITry= 1 IFail=0 DXMaxC= 1.15D-03 DCOld= 1.00D+10 DXMaxT= 3.00D-01 DXLimC= 3.00D+00 Rises=F
 Variable       Old X    -DE/DX   Delta X   Delta X   Delta X     New X
                                 (Linear)    (Quad)   (Total)
    R1        2.47035   0.00003   0.00000   0.00004   0.00003   2.47039
    R2        2.02347   0.00002   0.00001   0.00004   0.00005   2.02353
    R3        2.66690   0.00001   0.00008  -0.00005   0.00003   2.66693
    R4        2.02381   0.00001   0.00000   0.00002   0.00002   2.02382
    R5        2.02352   0.00000   0.00000  -0.00001  -0.00001   2.02351
    R6        2.78299  -0.00012  -0.00038   0.00011  -0.00027   2.78273
    R7        1.83854   0.00004   0.00003   0.00004   0.00007   1.83861
    A1        2.16615  -0.00004   0.00004  -0.00031  -0.00027   2.16589
    A2        2.14118   0.00002   0.00000   0.00008   0.00008   2.14126
    A3        1.97532   0.00003  -0.00005   0.00021   0.00016   1.97548
    A4        2.10577   0.00001   0.00001   0.00003   0.00005   2.10582
    A5        2.11358   0.00000  -0.00003   0.00001  -0.00002   2.11355
    A6        2.06373   0.00000   0.00002  -0.00003  -0.00002   2.06371
    A7        1.88582  -0.00001   0.00009  -0.00006   0.00003   1.88585
    A8        1.74931  -0.00003   0.00001  -0.00002   0.00000   1.74931
    D1        0.00744  -0.00008   0.00014  -0.00027  -0.00013   0.00731
    D2        3.13289  -0.00006   0.00015   0.00023   0.00038   3.13327
    D3        3.11164   0.00004  -0.00025  -0.00077  -0.00103   3.11061
    D4       -0.04610   0.00006  -0.00024  -0.00027  -0.00051  -0.04662
    D5        1.22173  -0.00030   0.00000   0.00000   0.00000   1.22173
    D6       -1.95354  -0.00019  -0.00036  -0.00046  -0.00082  -1.95436
    D7        2.09439   0.00241   0.00000   0.00000   0.00000   2.09439
         Item               Value     Threshold  Converged?
 Maximum Force            0.000122     0.000015     NO 
 RMS     Force            0.000035     0.000010     NO 
 Maximum Displacement     0.001145     0.000060     NO 
 RMS     Displacement     0.000389     0.000040     NO 
 Predicted change in Energy=-6.722302D-08
 Lowest energy point so far.  Saving SCF results.
 GradGradGradGradGradGradGradGradGradGradGradGradGradGradGradGradGradGrad

 Leave Link  103 at Fri Apr 12 16:52:19 2019, MaxMem=   134217728 cpu:         0.0
 (Enter /cm/shared/c3ddb/gaussian/09.d01/g09/l202.exe)
                          Input orientation:                          
 ---------------------------------------------------------------------
 Center     Atomic      Atomic             Coordinates (Angstroms)
 Number     Number       Type             X           Y           Z
 ---------------------------------------------------------------------
      1          6           0        0.735438    0.612142    0.047004
      2          6           0        1.385596   -0.520358   -0.013834
      3          1           0        1.206180    1.572329    0.102365
      4          1           0        2.456390   -0.536457   -0.004026
      5          1           0        0.865191   -1.455038   -0.060311
      6          8           0       -0.673149    0.685729    0.000361
      7          8           0       -1.200819    0.134353    1.259714
      8          1           0       -1.681287    0.909111    1.599619
 ---------------------------------------------------------------------
                    Distance matrix (angstroms):
                    1          2          3          4          5
     1  C    0.000000
     2  C    1.307273   0.000000
     3  H    1.070805   2.103576   0.000000
     4  H    2.069676   1.070960   2.453838   0.000000
     5  H    2.074026   1.070798   3.050851   1.838172   0.000000
     6  O    1.411279   2.386059   2.080467   3.359728   2.636864
     7  O    2.334104   2.956368   3.033295   3.927111   2.921819
     8  H    2.887796   3.748651   3.319502   4.667089   3.850859
                    6          7          8
     6  O    0.000000
     7  O    1.472557   0.000000
     8  H    1.903647   0.972952   0.000000
 Symmetry turned off by external request.
 Stoichiometry    C2H4O2
 Framework group  C1[X(C2H4O2)]
 Deg. of freedom    18
 Full point group                 C1      NOp   1
 Rotational constants (GHZ):     21.2723475      5.6386422      4.8837056
 Leave Link  202 at Fri Apr 12 16:52:19 2019, MaxMem=   134217728 cpu:         0.0
 (Enter /cm/shared/c3ddb/gaussian/09.d01/g09/l301.exe)
 Standard basis: 3-21G (6D, 7F)
 Ernie: Thresh=  0.10000D-02 Tol=  0.10000D-05 Strict=F.
    44 basis functions,    72 primitive gaussians,    44 cartesian basis functions
    16 alpha electrons       16 beta electrons
       nuclear repulsion energy       117.5901425178 Hartrees.
 IExCor=    0 DFT=F Ex=HF Corr=None ExCW=0 ScaHFX=  1.000000
 ScaDFX=  1.000000  1.000000  1.000000  1.000000 ScalE2=  1.000000  1.000000
 IRadAn=      0 IRanWt=     -1 IRanGd=            0 ICorTp=0 IEmpDi=  4
 NAtoms=    8 NActive=    8 NUniq=    8 SFac= 1.00D+00 NAtFMM=   60 NAOKFM=F Big=F
 Integral buffers will be    131072 words long.
 Raffenetti 1 integral format.
 Two-electron integral symmetry is turned off.
 Leave Link  301 at Fri Apr 12 16:52:20 2019, MaxMem=   134217728 cpu:         0.3
 (Enter /cm/shared/c3ddb/gaussian/09.d01/g09/l302.exe)
 NPDir=0 NMtPBC=     1 NCelOv=     1 NCel=       1 NClECP=     1 NCelD=      1
         NCelK=      1 NCelE2=     1 NClLst=     1 CellRange=     0.0.
 One-electron integrals computed using PRISM.
 NBasis=    44 RedAO= T EigKep=  1.19D-02  NBF=    44
 NBsUse=    44 1.00D-06 EigRej= -1.00D+00 NBFU=    44
 Leave Link  302 at Fri Apr 12 16:52:20 2019, MaxMem=   134217728 cpu:         0.2
 (Enter /cm/shared/c3ddb/gaussian/09.d01/g09/l303.exe)
 DipDrv:  MaxL=1.
 Leave Link  303 at Fri Apr 12 16:52:20 2019, MaxMem=   134217728 cpu:         0.1
 (Enter /cm/shared/c3ddb/gaussian/09.d01/g09/l401.exe)
 Initial guess from the checkpoint file:  "TMP_CALCS/scangeom_S02_070_120.chk"
 B after Tr=     0.000001    0.000138    0.000071
         Rot=    1.000000   -0.000070    0.000059    0.000020 Ang=  -0.01 deg.
 Guess basis will be translated and rotated to current coordinates.
 JPrj=2 DoOrth=T DoCkMO=T.
 Leave Link  401 at Fri Apr 12 16:52:20 2019, MaxMem=   134217728 cpu:         0.2
 (Enter /cm/shared/c3ddb/gaussian/09.d01/g09/l502.exe)
 Closed shell SCF:
 Using DIIS extrapolation, IDIIS=  1040.
 Two-electron integral symmetry not used.
 Keep R1 ints in memory in canonical form, NReq=1327362.
 IVT=       24902 IEndB=       24902 NGot=   134217728 MDV=   133702282
 LenX=   133702282 LenY=   133699905
 Requested convergence on RMS density matrix=1.00D-08 within 128 cycles.
 Requested convergence on MAX density matrix=1.00D-06.
 Requested convergence on             energy=1.00D-06.
 No special actions if energy rises.
 FoFCou: FMM=F IPFlag=           0 FMFlag=           0 FMFlg1=           0
         NFxFlg=           0 DoJE=F BraDBF=F KetDBF=F FulRan=T
         wScrn=  0.000000 ICntrl=     600 IOpCl=  0 I1Cent=           0 NGrid=           0
         NMat0=    1 NMatS0=    990 NMatT0=    0 NMatD0=    1 NMtDS0=    0 NMtDT0=    0
 Symmetry not used in FoFCou.

 Cycle   1  Pass 1  IDiag  1:
 E= -226.391053101922    
 DIIS: error= 2.78D-05 at cycle   1 NSaved=   1.
 NSaved= 1 IEnMin= 1 EnMin= -226.391053101922     IErMin= 1 ErrMin= 2.78D-05
 ErrMax= 2.78D-05  0.00D+00 EMaxC= 1.00D-01 BMatC= 6.62D-08 BMatP= 6.62D-08
 IDIUse=1 WtCom= 1.00D+00 WtEn= 0.00D+00
 Coeff-Com:  0.100D+01
 Coeff:      0.100D+01
 Gap=     0.979 Goal=   None    Shift=    0.000
 RMSDP=6.27D-06 MaxDP=5.46D-05              OVMax= 1.21D-04

 Cycle   2  Pass 1  IDiag  1:
 E= -226.391053217163     Delta-E=       -0.000000115240 Rises=F Damp=F
 DIIS: error= 1.19D-05 at cycle   2 NSaved=   2.
 NSaved= 2 IEnMin= 2 EnMin= -226.391053217163     IErMin= 2 ErrMin= 1.19D-05
 ErrMax= 1.19D-05  0.00D+00 EMaxC= 1.00D-01 BMatC= 6.08D-09 BMatP= 6.62D-08
 IDIUse=1 WtCom= 1.00D+00 WtEn= 0.00D+00
 Coeff-Com: -0.246D+00 0.125D+01
 Coeff:     -0.246D+00 0.125D+01
 Gap=     0.537 Goal=   None    Shift=    0.000
 RMSDP=3.24D-06 MaxDP=2.67D-05 DE=-1.15D-07 OVMax= 7.68D-05

 Cycle   3  Pass 1  IDiag  1:
 E= -226.391053236606     Delta-E=       -0.000000019443 Rises=F Damp=F
 DIIS: error= 4.57D-06 at cycle   3 NSaved=   3.
 NSaved= 3 IEnMin= 3 EnMin= -226.391053236606     IErMin= 3 ErrMin= 4.57D-06
 ErrMax= 4.57D-06  0.00D+00 EMaxC= 1.00D-01 BMatC= 8.00D-10 BMatP= 6.08D-09
 IDIUse=1 WtCom= 1.00D+00 WtEn= 0.00D+00
 Coeff-Com: -0.603D-01 0.549D-01 0.101D+01
 Coeff:     -0.603D-01 0.549D-01 0.101D+01
 Gap=     0.537 Goal=   None    Shift=    0.000
 RMSDP=1.14D-06 MaxDP=8.66D-06 DE=-1.94D-08 OVMax= 2.57D-05

 Cycle   4  Pass 1  IDiag  1:
 E= -226.391053238696     Delta-E=       -0.000000002090 Rises=F Damp=F
 DIIS: error= 2.40D-06 at cycle   4 NSaved=   4.
 NSaved= 4 IEnMin= 4 EnMin= -226.391053238696     IErMin= 4 ErrMin= 2.40D-06
 ErrMax= 2.40D-06  0.00D+00 EMaxC= 1.00D-01 BMatC= 1.78D-10 BMatP= 8.00D-10
 IDIUse=1 WtCom= 1.00D+00 WtEn= 0.00D+00
 Coeff-Com:  0.306D-01-0.226D+00 0.259D+00 0.936D+00
 Coeff:      0.306D-01-0.226D+00 0.259D+00 0.936D+00
 Gap=     0.537 Goal=   None    Shift=    0.000
 RMSDP=5.49D-07 MaxDP=4.14D-06 DE=-2.09D-09 OVMax= 1.29D-05

 Cycle   5  Pass 1  IDiag  1:
 E= -226.391053239095     Delta-E=       -0.000000000399 Rises=F Damp=F
 DIIS: error= 4.72D-07 at cycle   5 NSaved=   5.
 NSaved= 5 IEnMin= 5 EnMin= -226.391053239095     IErMin= 5 ErrMin= 4.72D-07
 ErrMax= 4.72D-07  0.00D+00 EMaxC= 1.00D-01 BMatC= 8.78D-12 BMatP= 1.78D-10
 IDIUse=1 WtCom= 1.00D+00 WtEn= 0.00D+00
 Coeff-Com:  0.351D-02 0.334D-03-0.759D-01-0.180D-01 0.109D+01
 Coeff:      0.351D-02 0.334D-03-0.759D-01-0.180D-01 0.109D+01
 Gap=     0.537 Goal=   None    Shift=    0.000
 RMSDP=1.33D-07 MaxDP=7.76D-07 DE=-3.99D-10 OVMax= 2.55D-06

 Cycle   6  Pass 1  IDiag  1:
 E= -226.391053239119     Delta-E=       -0.000000000024 Rises=F Damp=F
 DIIS: error= 1.55D-07 at cycle   6 NSaved=   6.
 NSaved= 6 IEnMin= 6 EnMin= -226.391053239119     IErMin= 6 ErrMin= 1.55D-07
 ErrMax= 1.55D-07  0.00D+00 EMaxC= 1.00D-01 BMatC= 1.49D-12 BMatP= 8.78D-12
 IDIUse=1 WtCom= 1.00D+00 WtEn= 0.00D+00
 Coeff-Com: -0.311D-02 0.284D-01-0.482D-01-0.123D+00 0.230D+00 0.916D+00
 Coeff:     -0.311D-02 0.284D-01-0.482D-01-0.123D+00 0.230D+00 0.916D+00
 Gap=     0.537 Goal=   None    Shift=    0.000
 RMSDP=4.48D-08 MaxDP=2.12D-07 DE=-2.40D-11 OVMax= 6.39D-07

 Cycle   7  Pass 1  IDiag  1:
 E= -226.391053239123     Delta-E=       -0.000000000004 Rises=F Damp=F
 DIIS: error= 7.57D-08 at cycle   7 NSaved=   7.
 NSaved= 7 IEnMin= 7 EnMin= -226.391053239123     IErMin= 7 ErrMin= 7.57D-08
 ErrMax= 7.57D-08  0.00D+00 EMaxC= 1.00D-01 BMatC= 1.70D-13 BMatP= 1.49D-12
 IDIUse=1 WtCom= 1.00D+00 WtEn= 0.00D+00
 Coeff-Com:  0.458D-03-0.796D-02 0.237D-01 0.360D-01-0.203D+00-0.249D+00
 Coeff-Com:  0.140D+01
 Coeff:      0.458D-03-0.796D-02 0.237D-01 0.360D-01-0.203D+00-0.249D+00
 Coeff:      0.140D+01
 Gap=     0.537 Goal=   None    Shift=    0.000
 RMSDP=2.48D-08 MaxDP=1.39D-07 DE=-3.69D-12 OVMax= 3.60D-07

 Cycle   8  Pass 1  IDiag  1:
 E= -226.391053239123     Delta-E=        0.000000000000 Rises=F Damp=F
 DIIS: error= 3.02D-08 at cycle   8 NSaved=   8.
 NSaved= 8 IEnMin= 8 EnMin= -226.391053239123     IErMin= 8 ErrMin= 3.02D-08
 ErrMax= 3.02D-08  0.00D+00 EMaxC= 1.00D-01 BMatC= 1.86D-14 BMatP= 1.70D-13
 IDIUse=1 WtCom= 1.00D+00 WtEn= 0.00D+00
 Coeff-Com:  0.334D-03-0.323D-02 0.645D-02 0.137D-01-0.375D-01-0.975D-01
 Coeff-Com:  0.874D-01 0.103D+01
 Coeff:      0.334D-03-0.323D-02 0.645D-02 0.137D-01-0.375D-01-0.975D-01
 Coeff:      0.874D-01 0.103D+01
 Gap=     0.537 Goal=   None    Shift=    0.000
 RMSDP=7.12D-09 MaxDP=4.63D-08 DE=-3.41D-13 OVMax= 1.27D-07

 SCF Done:  E(RHF) =  -226.391053239     A.U. after    8 cycles
            NFock=  8  Conv=0.71D-08     -V/T= 2.0034
 KE= 2.256216660324D+02 PE=-7.687019977675D+02 EE= 1.990991359782D+02
 Leave Link  502 at Fri Apr 12 16:52:21 2019, MaxMem=   134217728 cpu:         0.3
 (Enter /cm/shared/c3ddb/gaussian/09.d01/g09/l701.exe)
 Compute integral first derivatives.
 ... and contract with generalized density number  0.
 Leave Link  701 at Fri Apr 12 16:52:21 2019, MaxMem=   134217728 cpu:         0.2
 (Enter /cm/shared/c3ddb/gaussian/09.d01/g09/l702.exe)
 L702 exits ... SP integral derivatives will be done elsewhere.
 Leave Link  702 at Fri Apr 12 16:52:21 2019, MaxMem=   134217728 cpu:         0.1
 (Enter /cm/shared/c3ddb/gaussian/09.d01/g09/l703.exe)
 Compute integral first derivatives, UseDBF=F ICtDFT=           0.
 Integral derivatives from FoFJK, PRISM(SPDF).
 Calling FoFJK, ICntrl=      2127 FMM=F ISym2X=0 I1Cent= 0 IOpClX= 0 NMat=1 NMatS=1 NMatT=0.
 FoFJK:  IHMeth= 1 ICntrl=    2127 DoSepK=F KAlg= 0 I1Cent=   0 FoldK=F
 IRaf=         0 NMat=   1 IRICut=       1 DoRegI=T DoRafI=F ISym2E= 0.
 FoFCou: FMM=F IPFlag=           0 FMFlag=      100000 FMFlg1=         800
         NFxFlg=           0 DoJE=F BraDBF=F KetDBF=F FulRan=T
         wScrn=  0.000000 ICntrl=    2127 IOpCl=  0 I1Cent=           0 NGrid=           0
         NMat0=    1 NMatS0=      1 NMatT0=    0 NMatD0=    1 NMtDS0=    0 NMtDT0=    0
 Symmetry not used in FoFCou.
 Leave Link  703 at Fri Apr 12 16:52:22 2019, MaxMem=   134217728 cpu:         0.2
 (Enter /cm/shared/c3ddb/gaussian/09.d01/g09/l716.exe)
 Dipole        = 4.00937981D-01 4.85353195D-01 4.02229795D-01
 -------------------------------------------------------------------
 Center     Atomic                   Forces (Hartrees/Bohr)
 Number     Number              X              Y              Z
[...]
 E= -226.391053243642     Delta-E=       -0.000000007396 Rises=F Damp=F
 DIIS: error= 2.47D-06 at cycle   2 NSaved=   2.
 NSaved= 2 IEnMin= 2 EnMin= -226.391053243642     IErMin= 2 ErrMin= 2.47D-06
 ErrMax= 2.47D-06  0.00D+00 EMaxC= 1.00D-01 BMatC= 3.66D-10 BMatP= 4.45D-09
 IDIUse=1 WtCom= 1.00D+00 WtEn= 0.00D+00
 Coeff-Com: -0.247D+00 0.125D+01
 Coeff:     -0.247D+00 0.125D+01
 Gap=     0.537 Goal=   None    Shift=    0.000
 RMSDP=7.71D-07 MaxDP=5.59D-06 DE=-7.40D-09 OVMax= 1.53D-05

 Cycle   3  Pass 1  IDiag  1:
 E= -226.391053244657     Delta-E=       -0.000000001015 Rises=F Damp=F
 DIIS: error= 9.67D-07 at cycle   3 NSaved=   3.
 NSaved= 3 IEnMin= 3 EnMin= -226.391053244657     IErMin= 3 ErrMin= 9.67D-07
 ErrMax= 9.67D-07  0.00D+00 EMaxC= 1.00D-01 BMatC= 3.76D-11 BMatP= 3.66D-10
 IDIUse=1 WtCom= 1.00D+00 WtEn= 0.00D+00
 Coeff-Com: -0.536D-01 0.803D-01 0.973D+00
 Coeff:     -0.536D-01 0.803D-01 0.973D+00
 Gap=     0.537 Goal=   None    Shift=    0.000
 RMSDP=2.29D-07 MaxDP=1.62D-06 DE=-1.02D-09 OVMax= 4.74D-06

 Cycle   4  Pass 1  IDiag  1:
 E= -226.391053244745     Delta-E=       -0.000000000087 Rises=F Damp=F
 DIIS: error= 3.67D-07 at cycle   4 NSaved=   4.
 NSaved= 4 IEnMin= 4 EnMin= -226.391053244745     IErMin= 4 ErrMin= 3.67D-07
 ErrMax= 3.67D-07  0.00D+00 EMaxC= 1.00D-01 BMatC= 9.99D-12 BMatP= 3.76D-11
 IDIUse=1 WtCom= 1.00D+00 WtEn= 0.00D+00
 Coeff-Com:  0.305D-01-0.209D+00 0.269D+00 0.910D+00
 Coeff:      0.305D-01-0.209D+00 0.269D+00 0.910D+00
 Gap=     0.537 Goal=   None    Shift=    0.000
 RMSDP=1.22D-07 MaxDP=8.11D-07 DE=-8.73D-11 OVMax= 2.51D-06

 Cycle   5  Pass 1  IDiag  1:
 E= -226.391053244764     Delta-E=       -0.000000000020 Rises=F Damp=F
 DIIS: error= 1.15D-07 at cycle   5 NSaved=   5.
 NSaved= 5 IEnMin= 5 EnMin= -226.391053244764     IErMin= 5 ErrMin= 1.15D-07
 ErrMax= 1.15D-07  0.00D+00 EMaxC= 1.00D-01 BMatC= 4.64D-13 BMatP= 9.99D-12
 IDIUse=1 WtCom= 1.00D+00 WtEn= 0.00D+00
 Coeff-Com:  0.138D-02 0.110D-01-0.970D-01-0.819D-01 0.117D+01
 Coeff:      0.138D-02 0.110D-01-0.970D-01-0.819D-01 0.117D+01
 Gap=     0.537 Goal=   None    Shift=    0.000
 RMSDP=3.75D-08 MaxDP=2.48D-07 DE=-1.97D-11 OVMax= 7.49D-07

 Cycle   6  Pass 1  IDiag  1:
 E= -226.391053244766     Delta-E=       -0.000000000001 Rises=F Damp=F
 DIIS: error= 2.57D-08 at cycle   6 NSaved=   6.
 NSaved= 6 IEnMin= 6 EnMin= -226.391053244766     IErMin= 6 ErrMin= 2.57D-08
 ErrMax= 2.57D-08  0.00D+00 EMaxC= 1.00D-01 BMatC= 6.32D-14 BMatP= 4.64D-13
 IDIUse=1 WtCom= 1.00D+00 WtEn= 0.00D+00
 Coeff-Com: -0.321D-02 0.261D-01-0.520D-01-0.118D+00 0.240D+00 0.907D+00
 Coeff:     -0.321D-02 0.261D-01-0.520D-01-0.118D+00 0.240D+00 0.907D+00
 Gap=     0.537 Goal=   None    Shift=    0.000
 RMSDP=1.09D-08 MaxDP=6.23D-08 DE=-1.42D-12 OVMax= 1.46D-07

 Cycle   7  Pass 1  IDiag  1:
 E= -226.391053244766     Delta-E=        0.000000000000 Rises=F Damp=F
 DIIS: error= 1.02D-08 at cycle   7 NSaved=   7.
 NSaved= 7 IEnMin= 7 EnMin= -226.391053244766     IErMin= 7 ErrMin= 1.02D-08
 ErrMax= 1.02D-08  0.00D+00 EMaxC= 1.00D-01 BMatC= 4.41D-15 BMatP= 6.32D-14
 IDIUse=1 WtCom= 1.00D+00 WtEn= 0.00D+00
 Coeff-Com:  0.649D-03-0.719D-02 0.198D-01 0.403D-01-0.164D+00-0.206D+00
 Coeff-Com:  0.132D+01
 Coeff:      0.649D-03-0.719D-02 0.198D-01 0.403D-01-0.164D+00-0.206D+00
 Coeff:      0.132D+01
 Gap=     0.537 Goal=   None    Shift=    0.000
 RMSDP=4.19D-09 MaxDP=2.73D-08 DE=-3.41D-13 OVMax= 6.22D-08

 SCF Done:  E(RHF) =  -226.391053245     A.U. after    7 cycles
            NFock=  7  Conv=0.42D-08     -V/T= 2.0034
 KE= 2.256217040726D+02 PE=-7.687025903782D+02 EE= 1.990993744812D+02
 Leave Link  502 at Fri Apr 12 16:52:23 2019, MaxMem=   134217728 cpu:         0.2
 (Enter /cm/shared/c3ddb/gaussian/09.d01/g09/l701.exe)
 Compute integral first derivatives.
 ... and contract with generalized density number  0.
 Leave Link  701 at Fri Apr 12 16:52:24 2019, MaxMem=   134217728 cpu:         0.2
 (Enter /cm/shared/c3ddb/gaussian/09.d01/g09/l702.exe)
 L702 exits ... SP integral derivatives will be done elsewhere.
 Leave Link  702 at Fri Apr 12 16:52:24 2019, MaxMem=   134217728 cpu:         0.1
 (Enter /cm/shared/c3ddb/gaussian/09.d01/g09/l703.exe)
 Compute integral first derivatives, UseDBF=F ICtDFT=           0.
 Integral derivatives from FoFJK, PRISM(SPDF).
 Calling FoFJK, ICntrl=      2127 FMM=F ISym2X=0 I1Cent= 0 IOpClX= 0 NMat=1 NMatS=1 NMatT=0.
 FoFJK:  IHMeth= 1 ICntrl=    2127 DoSepK=F KAlg= 0 I1Cent=   0 FoldK=F
 IRaf=         0 NMat=   1 IRICut=       1 DoRegI=T DoRafI=F ISym2E= 0.
 FoFCou: FMM=F IPFlag=           0 FMFlag=      100000 FMFlg1=         800
         NFxFlg=           0 DoJE=F BraDBF=F KetDBF=F FulRan=T
         wScrn=  0.000000 ICntrl=    2127 IOpCl=  0 I1Cent=           0 NGrid=           0
         NMat0=    1 NMatS0=      1 NMatT0=    0 NMatD0=    1 NMtDS0=    0 NMtDT0=    0
 Symmetry not used in FoFCou.
 Leave Link  703 at Fri Apr 12 16:52:24 2019, MaxMem=   134217728 cpu:         0.2
 (Enter /cm/shared/c3ddb/gaussian/09.d01/g09/l716.exe)
 Dipole        = 4.00951270D-01 4.85348437D-01 4.02322740D-01
 -------------------------------------------------------------------
 Center     Atomic                   Forces (Hartrees/Bohr)
 Number     Number              X              Y              Z
 -------------------------------------------------------------------
      1        6          -0.000035581   -0.000891450   -0.000769436
      2        6          -0.000010236   -0.000017106    0.000238946
      3        1           0.000001254   -0.000000005   -0.000000259
      4        1          -0.000000555    0.000001000   -0.000001414
      5        1           0.000001181   -0.000001471   -0.000001914
      6        8          -0.000066947    0.001287973    0.000647898
      7        8           0.001207181    0.000024419    0.000521546
      8        1          -0.001096296   -0.000403359   -0.000635368
 -------------------------------------------------------------------
 Cartesian Forces:  Max     0.001287973 RMS     0.000541093
 Leave Link  716 at Fri Apr 12 16:52:24 2019, MaxMem=   134217728 cpu:         0.1
 (Enter /cm/shared/c3ddb/gaussian/09.d01/g09/l103.exe)

 GradGradGradGradGradGradGradGradGradGradGradGradGradGradGradGradGradGrad
 Berny optimization.
 Using GEDIIS/GDIIS optimizer.
 FormGI is forming the generalized inverse of G from B-inverse, IUseBI=4.
 Internal  Forces:  Max     0.002406077 RMS     0.000519762
 Search for a local minimum.
 Step number   5 out of a maximum of   32
 All quantities printed in internal units (Hartrees-Bohrs-Radians)
 RMS Force = .35924D-05 SwitMx=.10000D-02 MixMth= 2
 Mixed Optimization -- En-DIIS/RFO-DIIS
 Swapping is turned off.
 Update second derivatives using D2CorX and points    1    2    3    4    5
 DE= -5.64D-09 DEPred=-6.27D-09 R= 8.99D-01
 Trust test= 8.99D-01 RLast= 4.44D-04 DXMaxT set to 3.00D-01
 ITU=  0  0  1  0  0
     Eigenvalues ---    0.02722   0.03361   0.05259   0.14291   0.15999
     Eigenvalues ---    0.16068   0.19567   0.21286   0.26671   0.36846
     Eigenvalues ---    0.37112   0.37134   0.41380   0.46788   0.52897
     Eigenvalues ---    0.651721000.000001000.000001000.000001000.00000
     Eigenvalues --- 1000.000001000.00000
 En-DIIS/RFO-DIIS IScMMF=        0 using points:     5    4    3    2    1
 RFO step:  Lambda=-1.88391986D-07.
 NNeg= 0 NP= 5 Switch=  2.50D-03 Rises=F DC=  8.58D-06 SmlDif=  1.00D-05
 RMS Error=  0.1763064881D-04 NUsed= 5 EDIIS=F
 DidBck=F Rises=F RFO-DIIS coefs:    1.02631    0.00777   -0.02285   -0.00688   -0.00435
 Iteration  1 RMS(Cart)=  0.00002225 RMS(Int)=  0.00000004
 Iteration  2 RMS(Cart)=  0.00000000 RMS(Int)=  0.00000004
 Iteration  1 RMS(Cart)=  0.00000005 RMS(Int)=  0.00000002
 ITry= 1 IFail=0 DXMaxC= 4.41D-05 DCOld= 1.00D+10 DXMaxT= 3.00D-01 DXLimC= 3.00D+00 Rises=F
 Variable       Old X    -DE/DX   Delta X   Delta X   Delta X     New X
                                 (Linear)    (Quad)   (Total)
    R1        2.47039   0.00000   0.00000   0.00000   0.00000   2.47040
    R2        2.02354   0.00000   0.00000   0.00000   0.00000   2.02354
    R3        2.66690  -0.00001  -0.00001  -0.00003  -0.00004   2.66686
    R4        2.02382   0.00000   0.00000   0.00000   0.00000   2.02382
    R5        2.02352   0.00000   0.00000   0.00000   0.00000   2.02352
    R6        2.78269   0.00000   0.00002  -0.00001   0.00001   2.78270
    R7        1.83862   0.00000   0.00000   0.00000   0.00000   1.83862
    A1        2.16585   0.00000  -0.00001  -0.00001  -0.00002   2.16583
    A2        2.14130   0.00000   0.00000   0.00001   0.00001   2.14132
    A3        1.97548   0.00000   0.00001   0.00000   0.00001   1.97549
    A4        2.10580   0.00000   0.00000  -0.00002  -0.00002   2.10578
    A5        2.11357   0.00000   0.00000   0.00002   0.00002   2.11360
    A6        2.06371   0.00000   0.00000   0.00000   0.00000   2.06370
    A7        1.88588   0.00000  -0.00001   0.00001   0.00000   1.88588
    A8        1.74928   0.00000  -0.00001   0.00001   0.00000   1.74928
    D1        0.00740  -0.00008  -0.00001  -0.00002  -0.00003   0.00737
    D2        3.13307  -0.00008   0.00000   0.00003   0.00003   3.13310
    D3        3.11093   0.00008  -0.00001  -0.00001  -0.00002   3.11091
    D4       -0.04660   0.00008   0.00000   0.00004   0.00005  -0.04655
    D5        1.22173  -0.00031   0.00000   0.00000   0.00000   1.22173
    D6       -1.95416  -0.00017   0.00000   0.00001   0.00001  -1.95415
    D7        2.09439   0.00241   0.00000   0.00000   0.00000   2.09439
         Item               Value     Threshold  Converged?
 Maximum Force            0.000014     0.000015     YES
 RMS     Force            0.000004     0.000010     YES
 Maximum Displacement     0.000044     0.000060     YES
 RMS     Displacement     0.000022     0.000040     YES
 Predicted change in Energy=-4.447057D-10
 Optimization completed.
    -- Stationary point found.
                           ----------------------------
                           !   Optimized Parameters   !
                           ! (Angstroms and Degrees)  !
 --------------------------                            --------------------------
 ! Name  Definition              Value          Derivative Info.                !
 --------------------------------------------------------------------------------
 ! R1    R(1,2)                  1.3073         -DE/DX =    0.0                 !
 ! R2    R(1,3)                  1.0708         -DE/DX =    0.0                 !
 ! R3    R(1,6)                  1.4113         -DE/DX =    0.0                 !
 ! R4    R(2,4)                  1.071          -DE/DX =    0.0                 !
 ! R5    R(2,5)                  1.0708         -DE/DX =    0.0                 !
 ! R6    R(6,7)                  1.4725         -DE/DX =    0.0                 !
 ! R7    R(7,8)                  0.973          -DE/DX =    0.0                 !
 ! A1    A(2,1,3)              124.0939         -DE/DX =    0.0                 !
 ! A2    A(2,1,6)              122.6877         -DE/DX =    0.0                 !
 ! A3    A(3,1,6)              113.1869         -DE/DX =    0.0                 !
 ! A4    A(1,2,4)              120.6534         -DE/DX =    0.0                 !
 ! A5    A(1,2,5)              121.0989         -DE/DX =    0.0                 !
 ! A6    A(4,2,5)              118.2416         -DE/DX =    0.0                 !
 ! A7    A(1,6,7)              108.0528         -DE/DX =    0.0                 !
 ! A8    A(6,7,8)              100.2264         -DE/DX =    0.0                 !
 ! D1    D(3,1,2,4)              0.4242         -DE/DX =   -0.0001              !
 ! D2    D(3,1,2,5)            179.5115         -DE/DX =   -0.0001              !
 ! D3    D(6,1,2,4)            178.2429         -DE/DX =    0.0001              !
 ! D4    D(6,1,2,5)             -2.6698         -DE/DX =    0.0001              !
 ! D5    D(2,1,6,7)             69.9999         -DE/DX =   -0.0003              !
 ! D6    D(3,1,6,7)           -111.9651         -DE/DX =   -0.0002              !
 ! D7    D(1,6,7,8)            120.0            -DE/DX =    0.0024              !
 --------------------------------------------------------------------------------
 Lowest energy point so far.  Saving SCF results.
 GradGradGradGradGradGradGradGradGradGradGradGradGradGradGradGradGradGrad

 Largest change from initial coordinates is atom    8       0.007 Angstoms.
 Leave Link  103 at Fri Apr 12 16:52:24 2019, MaxMem=   134217728 cpu:         0.0
 (Enter /cm/shared/c3ddb/gaussian/09.d01/g09/l202.exe)
                          Input orientation:                          
 ---------------------------------------------------------------------
 Center     Atomic      Atomic             Coordinates (Angstroms)
 Number     Number       Type             X           Y           Z
 ---------------------------------------------------------------------
      1          6           0        0.735395    0.612116    0.046923
      2          6           0        1.385593   -0.520364   -0.013929
      3          1           0        1.206142    1.572298    0.102426
      4          1           0        2.456385   -0.536420   -0.003899
      5          1           0        0.865241   -1.455078   -0.060369
      6          8           0       -0.673177    0.685708    0.000372
      7          8           0       -1.200802    0.134378    1.259743
      8          1           0       -1.681237    0.909172    1.599625
 ---------------------------------------------------------------------
                    Distance matrix (angstroms):
                    1          2          3          4          5
     1  C    0.000000
     2  C    1.307276   0.000000
     3  H    1.070809   2.103562   0.000000
     4  H    2.069668   1.070959   2.453793   0.000000
     5  H    2.074044   1.070800   3.050855   1.838168   0.000000
     6  O    1.411261   2.386074   2.080456   3.359728   2.636927
     7  O    2.334100   2.956411   3.033211   3.927057   2.921916
     8  H    2.887773   3.748677   3.319382   4.667006   3.850949
                    6          7          8
     6  O    0.000000
     7  O    1.472537   0.000000
     8  H    1.903610   0.972956   0.000000
 Symmetry turned off by external request.
 Stoichiometry    C2H4O2
 Framework group  C1[X(C2H4O2)]
 Deg. of freedom    18
 Full point group                 C1      NOp   1
 Rotational constants (GHZ):     21.2730160      5.6385525      4.8836868
 Leave Link  202 at Fri Apr 12 16:52:24 2019, MaxMem=   134217728 cpu:         0.0
 (Enter /cm/shared/c3ddb/gaussian/09.d01/g09/l601.exe)
 Copying SCF densities to generalized density rwf, IOpCl= 0 IROHF=0.

 **********************************************************************

            Population analysis using the SCF density.

 **********************************************************************

 Alpha  occ. eigenvalues --  -20.52321 -20.51732 -11.23620 -11.17506  -1.46227
 Alpha  occ. eigenvalues --   -1.22866  -1.03169  -0.79337  -0.70274  -0.66329
 Alpha  occ. eigenvalues --   -0.63651  -0.59572  -0.55374  -0.48672  -0.45351
 Alpha  occ. eigenvalues --   -0.38104
 Alpha virt. eigenvalues --    0.15602   0.26391   0.29332   0.30674   0.32235
 Alpha virt. eigenvalues --    0.36807   0.49789   0.56835   0.88585   0.97387
 Alpha virt. eigenvalues --    0.98834   1.06733   1.10274   1.12780   1.23446
 Alpha virt. eigenvalues --    1.32239   1.37203   1.57653   1.60699   1.75094
 Alpha virt. eigenvalues --    1.82641   1.88669   2.00825   2.01935   2.07130
 Alpha virt. eigenvalues --    2.21406   3.10967   3.45701
          Condensed to atoms (all electrons):
               1          2          3          4          5          6
     1  C    4.902151   0.472352   0.386015  -0.039613  -0.049081   0.244664
     2  C    0.472352   5.344719  -0.066694   0.371220   0.388708  -0.059723
     3  H    0.386015  -0.066694   0.480058   0.001060   0.002087  -0.038599
     4  H   -0.039613   0.371220   0.001060   0.455972  -0.015409   0.001461
     5  H   -0.049081   0.388708   0.002087  -0.015409   0.421564  -0.002245
     6  O    0.244664  -0.059723  -0.038599   0.001461  -0.002245   8.170065
     7  O   -0.042541  -0.000630   0.001598   0.000005   0.001169   0.120038
     8  H    0.001905  -0.000003   0.000085  -0.000001  -0.000028  -0.023567
               7          8
     1  C   -0.042541   0.001905
     2  C   -0.000630  -0.000003
     3  H    0.001598   0.000085
     4  H    0.000005  -0.000001
     5  H    0.001169  -0.000028
     6  O    0.120038  -0.023567
     7  O    8.064338   0.241324
     8  H    0.241324   0.370016
 Mulliken charges:
               1
     1  C    0.124149
     2  C   -0.449950
     3  H    0.234390
     4  H    0.225304
     5  H    0.253235
     6  O   -0.412095
     7  O   -0.385301
     8  H    0.410269
 Sum of Mulliken charges =   0.00000
 Mulliken charges with hydrogens summed into heavy atoms:
               1
     1  C    0.358538
     2  C    0.028589
     6  O   -0.412095
     7  O    0.024968
 Electronic spatial extent (au):  <R**2>=            296.5709
 Charge=              0.0000 electrons
 Dipole moment (field-independent basis, Debye):
    X=              1.0191    Y=              1.2336    Z=              1.0226  Tot=              1.8990
 Quadrupole moment (field-independent basis, Debye-Ang):
   XX=            -19.9339   YY=            -20.4665   ZZ=            -23.4546
   XY=             -1.9293   XZ=             -2.6917   YZ=              3.2133
 Traceless Quadrupole moment (field-independent basis, Debye-Ang):
   XX=              1.3511   YY=              0.8185   ZZ=             -2.1696
   XY=             -1.9293   XZ=             -2.6917   YZ=              3.2133
 Octapole moment (field-independent basis, Debye-Ang**2):
  XXX=            -10.7062  YYY=            -13.2151  ZZZ=            -18.8779  XYY=             -3.5442
  XXY=             -0.3506  XXZ=             -1.5748  XZZ=            -10.8652  YZZ=             -0.0355
  YYZ=             -4.8036  XYZ=             -4.9419
 Hexadecapole moment (field-independent basis, Debye-Ang**3):
 XXXX=           -171.3154 YYYY=            -68.8921 ZZZZ=            -69.9476 XXXY=              7.1851
 XXXZ=             15.9830 YYYX=             17.8820 YYYZ=             -2.5219 ZZZX=             16.8881
 ZZZY=              1.3257 XXYY=            -39.4063 XXZZ=            -38.1684 YYZZ=            -21.8193
 XXYZ=              7.0545 YYXZ=              4.4679 ZZXY=             -1.7033
 N-N= 1.175904585796D+02 E-N=-7.687025903659D+02  KE= 2.256217040726D+02
 No NMR shielding tensors so no spin-rotation constants.
 Leave Link  601 at Fri Apr 12 16:52:25 2019, MaxMem=   134217728 cpu:         0.2
 (Enter /cm/shared/c3ddb/gaussian/09.d01/g09/l9999.exe)
 1\1\GINC-NODE029\FOpt\RHF\3-21G\C2H4O2\MATTSJ\12-Apr-2019\0\\#p hf 3-2
 1g scf=tight NoSymmetry guess=read opt=(tight,modredundant)\\Geometry 
 optimization at the 2D-PES\\0,1\C,0.7353945824,0.6121157232,0.04692295
 42\C,1.3855933656,-0.5203640256,-0.0139292163\H,1.2061418694,1.5722976
 412,0.1024262472\H,2.4563849854,-0.5364197934,-0.003898918\H,0.8652405
 924,-1.4550775492,-0.0603688633\O,-0.6731774443,0.685707897,0.00037199
 96\O,-1.2008019145,0.1343781353,1.2597425332\H,-1.6812370365,0.9091719
 716,1.5996252634\\Version=AS64L-G09RevD.01\HF=-226.3910532\RMSD=4.192e
 -09\RMSF=5.411e-04\Dipole=0.4009513,0.4853484,0.4023227\Quadrupole=1.0
 045447,0.6085252,-1.6130699,-1.4343975,-2.0012339,2.3890454\PG=C01 [X(
 C2H4O2)]\\@


 ALL OUR THINKING ABOUT NATURE MUST NECESSARILY MOVE IN CIRCLES OR SPIRALS;
 FOR WE CAN ONLY UNDERSTAND NATURE IF WE THINK ABOUT HER, AND WE CAN ONLY
 THINK BECAUSE OUR BRAIN IS BUILT IN ACCORDANCE WITH NATURE'S LAWS.

                                             -- TIMOTHY FERRIS, "GALAXIES"
 Job cpu time:       0 days  0 hours  0 minutes 13.9 seconds.
 File lengths (MBytes):  RWF=      5 Int=      0 D2E=      0 Chk=      1 Scr=      1
 Normal termination of Gaussian 09 at Fri Apr 12 16:52:25 2019.
