 Entering Gaussian System, Link 0=/cm/shared/c3ddb/gaussian/09.d01/g09/g09
 Initial command:
 /cm/shared/c3ddb/gaussian/09.d01/g09/l1.exe "/scratch/users/mattsj/g09/S02-7952157/Gau-47935.inp" -scrdir="/scratch/users/mattsj/g09/S02-7952157/"
 Entering Link 1 = /cm/shared/c3ddb/gaussian/09.d01/g09/l1.exe PID=     47936.
  
 Copyright (c) 1988,1990,1992,1993,1995,1998,2003,2009,2013,
            Gaussian, Inc.  All Rights Reserved.
  
 This is part of the Gaussian(R) 09 program.  It is based on
 the Gaussian(R) 03 system (copyright 2003, Gaussian, Inc.),
 the Gaussian(R) 98 system (copyright 1998, Gaussian, Inc.),
 the Gaussian(R) 94 system (copyright 1995, Gaussian, Inc.),
 the Gaussian 92(TM) system (copyright 1992, Gaussian, Inc.),
 the Gaussian 90(TM) system (copyright 1990, Gaussian, Inc.),
 the Gaussian 88(TM) system (copyright 1988, Gaussian, Inc.),
 the Gaussian 86(TM) system (copyright 1986, Carnegie Mellon
 University), and the Gaussian 82(TM) system (copyright 1983,
 Carnegie Mellon University). Gaussian is a federally registered
 trademark of Gaussian, Inc.
  
 This software contains proprietary and confidential information,
 including trade secrets, belonging to Gaussian, Inc.
  
 This software is provided under written license and may be
 used, copied, transmitted, or stored only in accord with that
 written license.
  
 The following legend is applicable only to US Government
 contracts under FAR:
  
                    RESTRICTED RIGHTS LEGEND
  
 Use, reproduction and disclosure by the US Government is
 subject to restrictions as set forth in subparagraphs (a)
 and (c) of the Commercial Computer Software - Restricted
 Rights clause in FAR 52.227-19.
  
 Gaussian, Inc.
 340 Quinnipiac St., Bldg. 40, Wallingford CT 06492
  
  
 ---------------------------------------------------------------
 Warning -- This program may not be used in any manner that
 competes with the business of Gaussian, Inc. or will provide
 assistance to any competitor of Gaussian, Inc.  The licensee
 of this program is prohibited from giving any competitor of
 Gaussian, Inc. access to this program.  By using this program,
 the user acknowledges that Gaussian, Inc. is engaged in the
 business of creating and licensing software in the field of
 computational chemistry and represents and warrants to the
 licensee that it is not a competitor of Gaussian, Inc. and that
 it will not use this program in any manner prohibited above.
 ---------------------------------------------------------------
  

 Cite this work as:
 Gaussian 09, Revision D.01,
 M. J. Frisch, G. W. Trucks, H. B. Schlegel, G. E. Scuseria, 
 M. A. Robb, J. R. Cheeseman, G. Scalmani, V. Barone, B. Mennucci, 
 G. A. Petersson, H. Nakatsuji, M. Caricato, X. Li, H. P. Hratchian, 
 A. F. Izmaylov, J. Bloino, G. Zheng, J. L. Sonnenberg, M. Hada, 
 M. Ehara, K. Toyota, R. Fukuda, J. Hasegawa, M. Ishida, T. Nakajima, 
 Y. Honda, O. Kitao, H. Nakai, T. Vreven, J. A. Montgomery, Jr., 
 J. E. Peralta, F. Ogliaro, M. Bearpark, J. J. Heyd, E. Brothers, 
 K. N. Kudin, V. N. Staroverov, T. Keith, R. Kobayashi, J. Normand, 
 K. Raghavachari, A. Rendell, J. C. Burant, S. S. Iyengar, J. Tomasi, 
 M. Cossi, N. Rega, J. M. Millam, M. Klene, J. E. Knox, J. B. Cross, 
 V. Bakken, C. Adamo, J. Jaramillo, R. Gomperts, R. E. Stratmann, 
 O. Yazyev, A. J. Austin, R. Cammi, C. Pomelli, J. W. Ochterski, 
 R. L. Martin, K. Morokuma, V. G. Zakrzewski, G. A. Voth, 
 P. Salvador, J. J. Dannenberg, S. Dapprich, A. D. Daniels, 
 O. Farkas, J. B. Foresman, J. V. Ortiz, J. Cioslowski, 
 and D. J. Fox, Gaussian, Inc., Wallingford CT, 2013.
 
 ******************************************
 Gaussian 09:  AS64L-G09RevD.01 24-Apr-2013
                12-Apr-2019 
 ******************************************
 %nproc=1
 Will use up to    1 processors via shared memory.
 %mem=1GB
 %chk=TMP_CALCS/scangeom_S02_000_110.chk
 --------------------------------------------------------------------
 #p hf 3-21g scf=tight NoSymmetry guess=read opt=(tight,modredundant)
 --------------------------------------------------------------------
 1/7=10,18=120,19=15,38=1/1,3;
 2/9=110,12=2,15=1,17=6,18=5,40=1/2;
 3/5=5,11=9,16=1,25=1,30=1,71=1,116=-2/1,2,3;
 4/5=1/1;
 5/5=2,32=2,38=6/2;
 6/7=2,8=2,9=2,10=2,28=1/1;
 7/30=1/1,2,3,16;
 1/7=10,18=20,19=15/3(2);
 2/9=110,15=1/2;
 99//99;
 2/9=110,15=1/2;
 3/5=5,11=9,16=1,25=1,30=1,71=1/1,2,3;
 4/5=5,16=3,69=1/1;
 5/5=2,32=2,38=5/2;
 7/30=1/1,2,3,16;
 1/7=10,18=20,19=15/3(-5);
 2/9=110,15=1/2;
 6/7=2,8=2,9=2,10=2,19=2,28=1/1;
 99/9=1/99;
 Leave Link    1 at Fri Apr 12 18:00:58 2019, MaxMem=   134217728 cpu:         0.1
 (Enter /cm/shared/c3ddb/gaussian/09.d01/g09/l101.exe)
 -----------------------------------
 Geometry optimization at the 2D-PES
 -----------------------------------
 Symbolic Z-matrix:
 Charge =  0 Multiplicity = 1
 C                     0.7375    0.57113   0.03179 
 C                     1.42867  -0.53629  -0.05268 
 H                     1.16668   1.5499    0.0939 
 H                     2.498    -0.49459  -0.05658 
 H                     0.95501  -1.48972  -0.13002 
 O                    -0.65171   0.7081    0.05058 
 O                    -1.28202  -0.6044   -0.04025 
 H                    -1.6458   -0.68306   0.8581 
 
 The following ModRedundant input section has been read:
 D       2       1       6       7 F                                           
 D       1       6       7       8 F                                           
 
 NAtoms=      8 NQM=        8 NQMF=       0 NMMI=      0 NMMIF=      0
                NMic=       0 NMicF=      0.
                    Isotopes and Nuclear Properties:
 (Nuclear quadrupole moments (NQMom) in fm**2, nuclear magnetic moments (NMagM)
  in nuclear magnetons)

  Atom         1           2           3           4           5           6           7           8
 IAtWgt=          12          12           1           1           1          16          16           1
 AtmWgt=  12.0000000  12.0000000   1.0078250   1.0078250   1.0078250  15.9949146  15.9949146   1.0078250
 NucSpn=           0           0           1           1           1           0           0           1
 AtZEff=   0.0000000   0.0000000   0.0000000   0.0000000   0.0000000   0.0000000   0.0000000   0.0000000
 NQMom=    0.0000000   0.0000000   0.0000000   0.0000000   0.0000000   0.0000000   0.0000000   0.0000000
 NMagM=    0.0000000   0.0000000   2.7928460   2.7928460   2.7928460   0.0000000   0.0000000   2.7928460
 AtZNuc=   6.0000000   6.0000000   1.0000000   1.0000000   1.0000000   8.0000000   8.0000000   1.0000000
 Leave Link  101 at Fri Apr 12 18:00:59 2019, MaxMem=   134217728 cpu:         0.5
 (Enter /cm/shared/c3ddb/gaussian/09.d01/g09/l103.exe)

 GradGradGradGradGradGradGradGradGradGradGradGradGradGradGradGradGradGrad
 Berny optimization.
 Initialization pass.
                           ----------------------------
                           !    Initial Parameters    !
                           ! (Angstroms and Degrees)  !
 --------------------------                            --------------------------
 ! Name  Definition              Value          Derivative Info.                !
 --------------------------------------------------------------------------------
 ! R1    R(1,2)                  1.3081         estimate D2E/DX2                !
 ! R2    R(1,3)                  1.0705         estimate D2E/DX2                !
 ! R3    R(1,6)                  1.3961         estimate D2E/DX2                !
 ! R4    R(2,4)                  1.0702         estimate D2E/DX2                !
 ! R5    R(2,5)                  1.0674         estimate D2E/DX2                !
 ! R6    R(6,7)                  1.4588         estimate D2E/DX2                !
 ! R7    R(7,8)                  0.9724         estimate D2E/DX2                !
 ! A1    A(2,1,3)              124.4664         estimate D2E/DX2                !
 ! A2    A(2,1,6)              127.5666         estimate D2E/DX2                !
 ! A3    A(3,1,6)              107.9662         estimate D2E/DX2                !
 ! A4    A(1,2,4)              119.6828         estimate D2E/DX2                !
 ! A5    A(1,2,5)              121.7615         estimate D2E/DX2                !
 ! A6    A(4,2,5)              118.5518         estimate D2E/DX2                !
 ! A7    A(1,6,7)              109.9282         estimate D2E/DX2                !
 ! A8    A(6,7,8)              100.1892         estimate D2E/DX2                !
 ! D1    D(3,1,2,4)              0.3763         estimate D2E/DX2                !
 ! D2    D(3,1,2,5)           -178.8976         estimate D2E/DX2                !
 ! D3    D(6,1,2,4)            179.9956         estimate D2E/DX2                !
 ! D4    D(6,1,2,5)              0.7217         estimate D2E/DX2                !
 ! D5    D(2,1,6,7)             -0.0004         Frozen                          !
 ! D6    D(3,1,6,7)            179.6697         estimate D2E/DX2                !
 ! D7    D(1,6,7,8)            110.0            Frozen                          !
 --------------------------------------------------------------------------------
 Trust Radius=3.00D-01 FncErr=1.00D-07 GrdErr=1.00D-07
 Number of steps in this run=     32 maximum allowed number of steps=    100.
 GradGradGradGradGradGradGradGradGradGradGradGradGradGradGradGradGradGrad

 Leave Link  103 at Fri Apr 12 18:00:59 2019, MaxMem=   134217728 cpu:         0.1
 (Enter /cm/shared/c3ddb/gaussian/09.d01/g09/l202.exe)
                          Input orientation:                          
 ---------------------------------------------------------------------
 Center     Atomic      Atomic             Coordinates (Angstroms)
 Number     Number       Type             X           Y           Z
 ---------------------------------------------------------------------
      1          6           0        0.737504    0.571132    0.031788
      2          6           0        1.428668   -0.536288   -0.052679
      3          1           0        1.166684    1.549898    0.093902
      4          1           0        2.498002   -0.494585   -0.056584
      5          1           0        0.955005   -1.489719   -0.130018
      6          8           0       -0.651711    0.708095    0.050584
      7          8           0       -1.282025   -0.604395   -0.040251
      8          1           0       -1.645799   -0.683064    0.858098
 ---------------------------------------------------------------------
                    Distance matrix (angstroms):
                    1          2          3          4          5
     1  C    0.000000
     2  C    1.308137   0.000000
     3  H    1.070531   2.107675   0.000000
     4  H    2.059834   1.070154   2.444374   0.000000
     5  H    2.078604   1.067412   3.055196   1.837532   0.000000
     6  O    1.396077   2.426341   2.004263   3.373220   2.728468
     7  O    2.337852   2.711577   3.264223   3.781657   2.407522
     8  H    2.817078   3.209892   3.671536   4.247735   2.896765
                    6          7          8
     6  O    0.000000
     7  O    1.458827   0.000000
     8  H    1.890929   0.972395   0.000000
 Symmetry turned off by external request.
 Stoichiometry    C2H4O2
 Framework group  C1[X(C2H4O2)]
 Deg. of freedom    18
 Full point group                 C1      NOp   1
 Rotational constants (GHZ):     18.4520876      6.6335702      4.9521778
 Leave Link  202 at Fri Apr 12 18:00:59 2019, MaxMem=   134217728 cpu:         0.0
 (Enter /cm/shared/c3ddb/gaussian/09.d01/g09/l301.exe)
 Standard basis: 3-21G (6D, 7F)
 Ernie: Thresh=  0.10000D-02 Tol=  0.10000D-05 Strict=F.
    44 basis functions,    72 primitive gaussians,    44 cartesian basis functions
    16 alpha electrons       16 beta electrons
       nuclear repulsion energy       119.0875757154 Hartrees.
 IExCor=    0 DFT=F Ex=HF Corr=None ExCW=0 ScaHFX=  1.000000
 ScaDFX=  1.000000  1.000000  1.000000  1.000000 ScalE2=  1.000000  1.000000
 IRadAn=      0 IRanWt=     -1 IRanGd=            0 ICorTp=0 IEmpDi=  4
 NAtoms=    8 NActive=    8 NUniq=    8 SFac= 1.00D+00 NAtFMM=   60 NAOKFM=F Big=F
 Integral buffers will be    131072 words long.
 Raffenetti 1 integral format.
 Two-electron integral symmetry is turned off.
 Leave Link  301 at Fri Apr 12 18:01:00 2019, MaxMem=   134217728 cpu:         0.4
 (Enter /cm/shared/c3ddb/gaussian/09.d01/g09/l302.exe)
 NPDir=0 NMtPBC=     1 NCelOv=     1 NCel=       1 NClECP=     1 NCelD=      1
         NCelK=      1 NCelE2=     1 NClLst=     1 CellRange=     0.0.
 One-electron integrals computed using PRISM.
 NBasis=    44 RedAO= T EigKep=  1.17D-02  NBF=    44
 NBsUse=    44 1.00D-06 EigRej= -1.00D+00 NBFU=    44
 Leave Link  302 at Fri Apr 12 18:01:00 2019, MaxMem=   134217728 cpu:         0.3
 (Enter /cm/shared/c3ddb/gaussian/09.d01/g09/l303.exe)
 DipDrv:  MaxL=1.
 Leave Link  303 at Fri Apr 12 18:01:00 2019, MaxMem=   134217728 cpu:         0.1
 (Enter /cm/shared/c3ddb/gaussian/09.d01/g09/l401.exe)
 Initial guess from the checkpoint file:  "TMP_CALCS/scangeom_S02_000_110.chk"
 B after Tr=     0.007880   -0.004194    0.003933
         Rot=    0.999995   -0.000358   -0.002537   -0.001780 Ang=  -0.36 deg.
 Guess basis will be translated and rotated to current coordinates.
 JPrj=2 DoOrth=T DoCkMO=T.
 Leave Link  401 at Fri Apr 12 18:01:01 2019, MaxMem=   134217728 cpu:         0.4
 (Enter /cm/shared/c3ddb/gaussian/09.d01/g09/l502.exe)
 Closed shell SCF:
 Using DIIS extrapolation, IDIIS=  1040.
 Two-electron integral symmetry not used.
 Keep R1 ints in memory in canonical form, NReq=1327432.
 IVT=       24902 IEndB=       24902 NGot=   134217728 MDV=   133702282
 LenX=   133702282 LenY=   133699905
 Requested convergence on RMS density matrix=1.00D-08 within 128 cycles.
 Requested convergence on MAX density matrix=1.00D-06.
 Requested convergence on             energy=1.00D-06.
 No special actions if energy rises.
 FoFCou: FMM=F IPFlag=           0 FMFlag=           0 FMFlg1=           0
         NFxFlg=           0 DoJE=F BraDBF=F KetDBF=F FulRan=T
         wScrn=  0.000000 ICntrl=     600 IOpCl=  0 I1Cent=           0 NGrid=           0
         NMat0=    1 NMatS0=    990 NMatT0=    0 NMatD0=    1 NMtDS0=    0 NMtDT0=    0
 Symmetry not used in FoFCou.

 Cycle   1  Pass 1  IDiag  1:
 E= -226.394296621453    
 DIIS: error= 7.66D-03 at cycle   1 NSaved=   1.
 NSaved= 1 IEnMin= 1 EnMin= -226.394296621453     IErMin= 1 ErrMin= 7.66D-03
 ErrMax= 7.66D-03  0.00D+00 EMaxC= 1.00D-01 BMatC= 1.89D-03 BMatP= 1.89D-03
 IDIUse=3 WtCom= 9.23D-01 WtEn= 7.66D-02
 Coeff-Com:  0.100D+01
 Coeff-En:   0.100D+01
 Coeff:      0.100D+01
 Gap=     0.560 Goal=   None    Shift=    0.000
 GapD=    0.560 DampG=2.000 DampE=1.000 DampFc=2.0000 IDamp=-1.
 RMSDP=1.12D-03 MaxDP=1.43D-02              OVMax= 1.45D-02

 Cycle   2  Pass 1  IDiag  1:
 E= -226.397253110226     Delta-E=       -0.002956488773 Rises=F Damp=F
 DIIS: error= 3.36D-03 at cycle   2 NSaved=   2.
 NSaved= 2 IEnMin= 2 EnMin= -226.397253110226     IErMin= 2 ErrMin= 3.36D-03
 ErrMax= 3.36D-03  0.00D+00 EMaxC= 1.00D-01 BMatC= 1.85D-04 BMatP= 1.89D-03
 IDIUse=3 WtCom= 9.66D-01 WtEn= 3.36D-02
 Coeff-Com: -0.334D+00 0.133D+01
 Coeff-En:   0.000D+00 0.100D+01
 Coeff:     -0.323D+00 0.132D+01
 Gap=     0.560 Goal=   None    Shift=    0.000
 RMSDP=5.85D-04 MaxDP=5.63D-03 DE=-2.96D-03 OVMax= 1.07D-02

 Cycle   3  Pass 1  IDiag  1:
 E= -226.397737738678     Delta-E=       -0.000484628452 Rises=F Damp=F
 DIIS: error= 1.06D-03 at cycle   3 NSaved=   3.
 NSaved= 3 IEnMin= 3 EnMin= -226.397737738678     IErMin= 3 ErrMin= 1.06D-03
 ErrMax= 1.06D-03  0.00D+00 EMaxC= 1.00D-01 BMatC= 1.61D-05 BMatP= 1.85D-04
 IDIUse=3 WtCom= 9.89D-01 WtEn= 1.06D-02
 Coeff-Com:  0.419D-01-0.313D+00 0.127D+01
 Coeff-En:   0.000D+00 0.000D+00 0.100D+01
 Coeff:      0.415D-01-0.309D+00 0.127D+01
 Gap=     0.560 Goal=   None    Shift=    0.000
 RMSDP=2.17D-04 MaxDP=3.07D-03 DE=-4.85D-04 OVMax= 4.39D-03

 Cycle   4  Pass 1  IDiag  1:
 E= -226.397788747776     Delta-E=       -0.000051009098 Rises=F Damp=F
 DIIS: error= 2.80D-04 at cycle   4 NSaved=   4.
 NSaved= 4 IEnMin= 4 EnMin= -226.397788747776     IErMin= 4 ErrMin= 2.80D-04
 ErrMax= 2.80D-04  0.00D+00 EMaxC= 1.00D-01 BMatC= 2.97D-06 BMatP= 1.61D-05
 IDIUse=3 WtCom= 9.97D-01 WtEn= 2.80D-03
 Coeff-Com:  0.724D-01-0.319D+00 0.247D+00 0.100D+01
 Coeff-En:   0.000D+00 0.000D+00 0.000D+00 0.100D+01
 Coeff:      0.722D-01-0.318D+00 0.246D+00 0.100D+01
 Gap=     0.560 Goal=   None    Shift=    0.000
 RMSDP=9.50D-05 MaxDP=1.41D-03 DE=-5.10D-05 OVMax= 1.89D-03

 Cycle   5  Pass 1  IDiag  1:
 E= -226.397795582266     Delta-E=       -0.000006834490 Rises=F Damp=F
 DIIS: error= 4.59D-05 at cycle   5 NSaved=   5.
 NSaved= 5 IEnMin= 5 EnMin= -226.397795582266     IErMin= 5 ErrMin= 4.59D-05
 ErrMax= 4.59D-05  0.00D+00 EMaxC= 1.00D-01 BMatC= 1.35D-07 BMatP= 2.97D-06
 IDIUse=1 WtCom= 1.00D+00 WtEn= 0.00D+00
 Coeff-Com:  0.628D-02-0.193D-01-0.528D-01 0.145D+00 0.921D+00
 Coeff:      0.628D-02-0.193D-01-0.528D-01 0.145D+00 0.921D+00
 Gap=     0.560 Goal=   None    Shift=    0.000
 RMSDP=1.36D-05 MaxDP=1.67D-04 DE=-6.83D-06 OVMax= 2.76D-04

 Cycle   6  Pass 1  IDiag  1:
 E= -226.397795782510     Delta-E=       -0.000000200245 Rises=F Damp=F
 DIIS: error= 2.39D-05 at cycle   6 NSaved=   6.
 NSaved= 6 IEnMin= 6 EnMin= -226.397795782510     IErMin= 6 ErrMin= 2.39D-05
 ErrMax= 2.39D-05  0.00D+00 EMaxC= 1.00D-01 BMatC= 2.52D-08 BMatP= 1.35D-07
 IDIUse=1 WtCom= 1.00D+00 WtEn= 0.00D+00
 Coeff-Com: -0.499D-02 0.250D-01-0.413D-01-0.500D-01 0.293D+00 0.779D+00
 Coeff:     -0.499D-02 0.250D-01-0.413D-01-0.500D-01 0.293D+00 0.779D+00
 Gap=     0.560 Goal=   None    Shift=    0.000
 RMSDP=4.06D-06 MaxDP=2.77D-05 DE=-2.00D-07 OVMax= 7.31D-05

 Cycle   7  Pass 1  IDiag  1:
 E= -226.397795818696     Delta-E=       -0.000000036186 Rises=F Damp=F
 DIIS: error= 1.61D-05 at cycle   7 NSaved=   7.
 NSaved= 7 IEnMin= 7 EnMin= -226.397795818696     IErMin= 7 ErrMin= 1.61D-05
 ErrMax= 1.61D-05  0.00D+00 EMaxC= 1.00D-01 BMatC= 3.02D-09 BMatP= 2.52D-08
 IDIUse=1 WtCom= 1.00D+00 WtEn= 0.00D+00
 Coeff-Com:  0.274D-02-0.152D-01 0.357D-01 0.160D-01-0.324D+00-0.573D+00
 Coeff-Com:  0.186D+01
 Coeff:      0.274D-02-0.152D-01 0.357D-01 0.160D-01-0.324D+00-0.573D+00
 Coeff:      0.186D+01
 Gap=     0.560 Goal=   None    Shift=    0.000
 RMSDP=4.30D-06 MaxDP=3.90D-05 DE=-3.62D-08 OVMax= 1.06D-04

 Cycle   8  Pass 1  IDiag  1:
 E= -226.397795834756     Delta-E=       -0.000000016059 Rises=F Damp=F
 DIIS: error= 4.47D-06 at cycle   8 NSaved=   8.
 NSaved= 8 IEnMin= 8 EnMin= -226.397795834756     IErMin= 8 ErrMin= 4.47D-06
 ErrMax= 4.47D-06  0.00D+00 EMaxC= 1.00D-01 BMatC= 2.06D-10 BMatP= 3.02D-09
 IDIUse=1 WtCom= 1.00D+00 WtEn= 0.00D+00
 Coeff-Com: -0.441D-03 0.275D-02-0.804D-02-0.288D-03 0.802D-01 0.116D+00
 Coeff-Com: -0.653D+00 0.146D+01
 Coeff:     -0.441D-03 0.275D-02-0.804D-02-0.288D-03 0.802D-01 0.116D+00
 Coeff:     -0.653D+00 0.146D+01
 Gap=     0.560 Goal=   None    Shift=    0.000
 RMSDP=1.34D-06 MaxDP=1.17D-05 DE=-1.61D-08 OVMax= 3.32D-05

 Cycle   9  Pass 1  IDiag  1:
 E= -226.397795835926     Delta-E=       -0.000000001170 Rises=F Damp=F
 DIIS: error= 9.19D-07 at cycle   9 NSaved=   9.
 NSaved= 9 IEnMin= 9 EnMin= -226.397795835926     IErMin= 9 ErrMin= 9.19D-07
 ErrMax= 9.19D-07  0.00D+00 EMaxC= 1.00D-01 BMatC= 1.49D-11 BMatP= 2.06D-10
 IDIUse=1 WtCom= 1.00D+00 WtEn= 0.00D+00
 Coeff-Com: -0.191D-03 0.107D-02-0.242D-02-0.141D-02 0.227D-01 0.424D-01
 Coeff-Com: -0.139D+00 0.558D-02 0.107D+01
 Coeff:     -0.191D-03 0.107D-02-0.242D-02-0.141D-02 0.227D-01 0.424D-01
 Coeff:     -0.139D+00 0.558D-02 0.107D+01
 Gap=     0.560 Goal=   None    Shift=    0.000
 RMSDP=2.42D-07 MaxDP=1.61D-06 DE=-1.17D-09 OVMax= 5.62D-06

 Cycle  10  Pass 1  IDiag  1:
 E= -226.397795835978     Delta-E=       -0.000000000052 Rises=F Damp=F
 DIIS: error= 2.87D-07 at cycle  10 NSaved=  10.
 NSaved=10 IEnMin=10 EnMin= -226.397795835978     IErMin=10 ErrMin= 2.87D-07
 ErrMax= 2.87D-07  0.00D+00 EMaxC= 1.00D-01 BMatC= 2.26D-12 BMatP= 1.49D-11
 IDIUse=1 WtCom= 1.00D+00 WtEn= 0.00D+00
 Coeff-Com:  0.878D-04-0.525D-03 0.145D-02 0.938D-04-0.137D-01-0.215D-01
 Coeff-Com:  0.109D+00-0.207D+00-0.861D-01 0.122D+01
 Coeff:      0.878D-04-0.525D-03 0.145D-02 0.938D-04-0.137D-01-0.215D-01
 Coeff:      0.109D+00-0.207D+00-0.861D-01 0.122D+01
 Gap=     0.560 Goal=   None    Shift=    0.000
 RMSDP=8.45D-08 MaxDP=5.46D-07 DE=-5.15D-11 OVMax= 1.44D-06

 Cycle  11  Pass 1  IDiag  1:
 E= -226.397795835986     Delta-E=       -0.000000000008 Rises=F Damp=F
 DIIS: error= 8.86D-08 at cycle  11 NSaved=  11.
 NSaved=11 IEnMin=11 EnMin= -226.397795835986     IErMin=11 ErrMin= 8.86D-08
 ErrMax= 8.86D-08  0.00D+00 EMaxC= 1.00D-01 BMatC= 2.95D-13 BMatP= 2.26D-12
 IDIUse=1 WtCom= 1.00D+00 WtEn= 0.00D+00
 Coeff-Com:  0.226D-04-0.128D-03 0.303D-03 0.140D-03-0.280D-02-0.551D-02
 Coeff-Com:  0.187D-01-0.552D-02-0.124D+00 0.713D-01 0.105D+01
 Coeff:      0.226D-04-0.128D-03 0.303D-03 0.140D-03-0.280D-02-0.551D-02
 Coeff:      0.187D-01-0.552D-02-0.124D+00 0.713D-01 0.105D+01
 Gap=     0.560 Goal=   None    Shift=    0.000
 RMSDP=2.44D-08 MaxDP=2.04D-07 DE=-7.96D-12 OVMax= 4.11D-07

 Cycle  12  Pass 1  IDiag  1:
 E= -226.397795835987     Delta-E=       -0.000000000001 Rises=F Damp=F
 DIIS: error= 4.07D-08 at cycle  12 NSaved=  12.
 NSaved=12 IEnMin=12 EnMin= -226.397795835987     IErMin=12 ErrMin= 4.07D-08
 ErrMax= 4.07D-08  0.00D+00 EMaxC= 1.00D-01 BMatC= 4.40D-14 BMatP= 2.95D-13
 IDIUse=1 WtCom= 1.00D+00 WtEn= 0.00D+00
 Coeff-Com: -0.181D-04 0.107D-03-0.287D-03-0.314D-04 0.273D-02 0.419D-02
 Coeff-Com: -0.214D-01 0.395D-01 0.160D-01-0.219D+00-0.390D-01 0.122D+01
 Coeff:     -0.181D-04 0.107D-03-0.287D-03-0.314D-04 0.273D-02 0.419D-02
 Coeff:     -0.214D-01 0.395D-01 0.160D-01-0.219D+00-0.390D-01 0.122D+01
 Gap=     0.560 Goal=   None    Shift=    0.000
 RMSDP=1.31D-08 MaxDP=1.21D-07 DE=-1.25D-12 OVMax= 2.48D-07

 Cycle  13  Pass 1  IDiag  1:
 E= -226.397795835987     Delta-E=        0.000000000000 Rises=F Damp=F
 DIIS: error= 1.63D-08 at cycle  13 NSaved=  13.
 NSaved=13 IEnMin=13 EnMin= -226.397795835987     IErMin=13 ErrMin= 1.63D-08
 ErrMax= 1.63D-08  0.00D+00 EMaxC= 1.00D-01 BMatC= 4.18D-15 BMatP= 4.40D-14
 IDIUse=1 WtCom= 1.00D+00 WtEn= 0.00D+00
 Coeff-Com:  0.534D-05-0.319D-04 0.887D-04 0.244D-05-0.876D-03-0.116D-02
 Coeff-Com:  0.707D-02-0.163D-01 0.596D-02 0.856D-01-0.980D-01-0.504D+00
 Coeff-Com:  0.152D+01
 Coeff:      0.534D-05-0.319D-04 0.887D-04 0.244D-05-0.876D-03-0.116D-02
 Coeff:      0.707D-02-0.163D-01 0.596D-02 0.856D-01-0.980D-01-0.504D+00
 Coeff:      0.152D+01
 Gap=     0.560 Goal=   None    Shift=    0.000
 RMSDP=5.13D-09 MaxDP=4.65D-08 DE=-3.41D-13 OVMax= 9.29D-08

 SCF Done:  E(RHF) =  -226.397795836     A.U. after   13 cycles
            NFock= 13  Conv=0.51D-08     -V/T= 2.0035
 KE= 2.256090198664D+02 PE=-7.714454225080D+02 EE= 2.003510310901D+02
 Leave Link  502 at Fri Apr 12 18:01:01 2019, MaxMem=   134217728 cpu:         0.4
 (Enter /cm/shared/c3ddb/gaussian/09.d01/g09/l601.exe)
 Copying SCF densities to generalized density rwf, IOpCl= 0 IROHF=0.

 **********************************************************************

            Population analysis using the SCF density.

 **********************************************************************

 Alpha  occ. eigenvalues --  -20.54243 -20.53171 -11.24511 -11.16113  -1.48444
 Alpha  occ. eigenvalues --   -1.24237  -1.03231  -0.79642  -0.70752  -0.68771
 Alpha  occ. eigenvalues --   -0.64680  -0.58012  -0.54284  -0.51600  -0.48873
 Alpha  occ. eigenvalues --   -0.36153
 Alpha virt. eigenvalues --    0.19875   0.22497   0.28695   0.29830   0.33689
 Alpha virt. eigenvalues --    0.37240   0.49675   0.58828   0.88910   0.96676
 Alpha virt. eigenvalues --    1.01746   1.07175   1.10355   1.12444   1.22628
 Alpha virt. eigenvalues --    1.33209   1.36971   1.56795   1.60526   1.74604
 Alpha virt. eigenvalues --    1.82136   1.91462   1.94313   1.99736   2.02370
 Alpha virt. eigenvalues --    2.33355   3.06998   3.54846
          Condensed to atoms (all electrons):
               1          2          3          4          5          6
     1  C    4.909695   0.480439   0.386506  -0.044512  -0.055232   0.219528
     2  C    0.480439   5.353899  -0.044708   0.380234   0.391807  -0.050686
     3  H    0.386506  -0.044708   0.427635  -0.000154   0.001760  -0.032155
     4  H   -0.044512   0.380234  -0.000154   0.456983  -0.015021   0.001240
     5  H   -0.055232   0.391807   0.001760  -0.015021   0.421398  -0.004911
     6  O    0.219528  -0.050686  -0.032155   0.001240  -0.004911   8.175726
     7  O   -0.043488  -0.000221   0.001639   0.000222   0.011601   0.125022
     8  H    0.001042   0.000386  -0.000145  -0.000024  -0.000502  -0.025736
               7          8
     1  C   -0.043488   0.001042
     2  C   -0.000221   0.000386
     3  H    0.001639  -0.000145
     4  H    0.000222  -0.000024
     5  H    0.011601  -0.000502
     6  O    0.125022  -0.025736
     7  O    8.036139   0.243155
     8  H    0.243155   0.364348
 Mulliken charges:
               1
     1  C    0.146021
     2  C   -0.511151
     3  H    0.259622
     4  H    0.221031
     5  H    0.249099
     6  O   -0.408030
     7  O   -0.374068
     8  H    0.417476
 Sum of Mulliken charges =   0.00000
 Mulliken charges with hydrogens summed into heavy atoms:
               1
     1  C    0.405643
     2  C   -0.041021
     6  O   -0.408030
     7  O    0.043408
 Electronic spatial extent (au):  <R**2>=            264.3483
 Charge=              0.0000 electrons
 Dipole moment (field-independent basis, Debye):
    X=              0.7761    Y=             -0.3468    Z=              1.8804  Tot=              2.0636
 Quadrupole moment (field-independent basis, Debye-Ang):
   XX=            -20.9588   YY=            -22.1456   ZZ=            -24.0267
   XY=              2.5120   XZ=             -3.2819   YZ=             -1.1526
 Traceless Quadrupole moment (field-independent basis, Debye-Ang):
   XX=              1.4182   YY=              0.2315   ZZ=             -1.6497
   XY=              2.5120   XZ=             -3.2819   YZ=             -1.1526
 Octapole moment (field-independent basis, Debye-Ang**2):
  XXX=            -10.6088  YYY=              0.2965  ZZZ=              0.7516  XYY=             -1.0275
  XXY=             -1.9991  XXZ=              5.1675  XZZ=             -8.6103  YZZ=             -0.7546
  YYZ=              0.6420  XYZ=              2.7290
 Hexadecapole moment (field-independent basis, Debye-Ang**3):
 XXXX=           -186.1040 YYYY=            -77.6464 ZZZZ=            -22.6741 XXXY=              5.0438
 XXXZ=             -6.9193 YYYX=              5.8687 YYYZ=             -1.5693 ZZZX=              0.4324
 ZZZY=             -2.7182 XXYY=            -45.9662 XXZZ=            -38.2509 YYZZ=            -18.3518
 XXYZ=             -3.9207 YYXZ=             -0.6998 ZZXY=              2.7192
 N-N= 1.190875757154D+02 E-N=-7.714454226371D+02  KE= 2.256090198664D+02
 No NMR shielding tensors so no spin-rotation constants.
 Leave Link  601 at Fri Apr 12 18:01:02 2019, MaxMem=   134217728 cpu:         0.2
 (Enter /cm/shared/c3ddb/gaussian/09.d01/g09/l701.exe)
 Compute integral first derivatives.
 ... and contract with generalized density number  0.
 Leave Link  701 at Fri Apr 12 18:01:02 2019, MaxMem=   134217728 cpu:         0.2
 (Enter /cm/shared/c3ddb/gaussian/09.d01/g09/l702.exe)
 L702 exits ... SP integral derivatives will be done elsewhere.
 Leave Link  702 at Fri Apr 12 18:01:02 2019, MaxMem=   134217728 cpu:         0.1
 (Enter /cm/shared/c3ddb/gaussian/09.d01/g09/l703.exe)
 Compute integral first derivatives, UseDBF=F ICtDFT=           0.
 Integral derivatives from FoFJK, PRISM(SPDF).
 Calling FoFJK, ICntrl=      2127 FMM=F ISym2X=0 I1Cent= 0 IOpClX= 0 NMat=1 NMatS=1 NMatT=0.
 FoFJK:  IHMeth= 1 ICntrl=    2127 DoSepK=F KAlg= 0 I1Cent=   0 FoldK=F
 IRaf=         0 NMat=   1 IRICut=       1 DoRegI=T DoRafI=F ISym2E= 0.
 FoFCou: FMM=F IPFlag=           0 FMFlag=      100000 FMFlg1=         800
         NFxFlg=           0 DoJE=F BraDBF=F KetDBF=F FulRan=T
         wScrn=  0.000000 ICntrl=    2127 IOpCl=  0 I1Cent=           0 NGrid=           0
         NMat0=    1 NMatS0=      1 NMatT0=    0 NMatD0=    1 NMtDS0=    0 NMtDT0=    0
 Symmetry not used in FoFCou.
 Leave Link  703 at Fri Apr 12 18:01:03 2019, MaxMem=   134217728 cpu:         0.3
 (Enter /cm/shared/c3ddb/gaussian/09.d01/g09/l716.exe)
 Dipole        = 3.05333906D-01-1.36445822D-01 7.39821273D-01
 -------------------------------------------------------------------
 Center     Atomic                   Forces (Hartrees/Bohr)
 Number     Number              X              Y              Z
 -------------------------------------------------------------------
      1        6           0.000709541    0.000896894   -0.001861999
      2        6           0.000113630   -0.000041734    0.000669037
      3        1           0.000129146   -0.000053103    0.000045981
      4        1          -0.000047022   -0.000067714    0.000064429
      5        1           0.000085410   -0.000036281   -0.000366448
      6        8          -0.000387046   -0.001059168    0.001047088
      7        8           0.001321635    0.000689109    0.000527847
      8        1          -0.001925293   -0.000328002   -0.000125936
 -------------------------------------------------------------------
 Cartesian Forces:  Max     0.001925293 RMS     0.000766786
 Leave Link  716 at Fri Apr 12 18:01:03 2019, MaxMem=   134217728 cpu:         0.1
 (Enter /cm/shared/c3ddb/gaussian/09.d01/g09/l103.exe)

 GradGradGradGradGradGradGradGradGradGradGradGradGradGradGradGradGradGrad
 Berny optimization.
 FormGI is forming the generalized inverse of G from B-inverse, IUseBI=4.
 Internal  Forces:  Max     0.002773573 RMS     0.000859562
 Search for a local minimum.
 Step number   1 out of a maximum of   32
 All quantities printed in internal units (Hartrees-Bohrs-Radians)
 RMS Force = .65362D-03 SwitMx=.10000D-02 MixMth= 2
 Mixed Optimization -- En-DIIS/RFO-DIIS
 Second derivative matrix not updated -- first step.
 ITU=  0
     Eigenvalues ---    0.02635   0.03304   0.03304   0.16000   0.16000
     Eigenvalues ---    0.16000   0.16000   0.22000   0.25000   0.37112
     Eigenvalues ---    0.37163   0.37211   0.37559   0.46277   0.52891
     Eigenvalues ---    0.649831000.000001000.000001000.000001000.00000
     Eigenvalues --- 1000.000001000.00000
 RFO step:  Lambda=-4.92547912D-05 EMin= 2.63469911D-02
 Linear search not attempted -- first point.
 Iteration  1 RMS(Cart)=  0.00783461 RMS(Int)=  0.00002915
 Iteration  2 RMS(Cart)=  0.00003262 RMS(Int)=  0.00000516
 Iteration  3 RMS(Cart)=  0.00000000 RMS(Int)=  0.00000516
 Iteration  1 RMS(Cart)=  0.00000062 RMS(Int)=  0.00000038
 ITry= 1 IFail=0 DXMaxC= 1.97D-02 DCOld= 1.00D+10 DXMaxT= 3.00D-01 DXLimC= 3.00D+00 Rises=F
 Variable       Old X    -DE/DX   Delta X   Delta X   Delta X     New X
                                 (Linear)    (Quad)   (Total)
    R1        2.47202   0.00018   0.00000   0.00028   0.00028   2.47230
    R2        2.02301   0.00001   0.00000   0.00002   0.00002   2.02303
    R3        2.63820   0.00094   0.00000   0.00202   0.00202   2.64023
    R4        2.02230  -0.00005   0.00000  -0.00013  -0.00013   2.02216
    R5        2.01712   0.00002   0.00000   0.00006   0.00006   2.01717
    R6        2.75678  -0.00009   0.00000  -0.00024  -0.00024   2.75654
    R7        1.83756   0.00063   0.00000   0.00119   0.00119   1.83875
    A1        2.17235  -0.00018   0.00000  -0.00102  -0.00103   2.17131
    A2        2.22646   0.00007   0.00000   0.00035   0.00033   2.22679
    A3        1.88437   0.00010   0.00000   0.00072   0.00071   1.88508
    A4        2.08886   0.00001   0.00000   0.00005   0.00004   2.08890
    A5        2.12514   0.00010   0.00000   0.00059   0.00058   2.12572
    A6        2.06912  -0.00011   0.00000  -0.00072  -0.00073   2.06839
    A7        1.91861   0.00179   0.00000   0.00714   0.00714   1.92575
    A8        1.74863   0.00191   0.00000   0.01194   0.01194   1.76057
    D1        0.00657  -0.00010   0.00000  -0.00309  -0.00309   0.00348
    D2       -3.12235   0.00015   0.00000   0.00445   0.00445  -3.11790
    D3        3.14152   0.00022   0.00000   0.00678   0.00678  -3.13489
    D4        0.01260   0.00047   0.00000   0.01432   0.01432   0.02691
    D5       -0.00001  -0.00011   0.00000   0.00000   0.00000  -0.00001
    D6        3.13583   0.00016   0.00000   0.00855   0.00855  -3.13880
    D7        1.91986   0.00277   0.00000   0.00000   0.00000   1.91986
         Item               Value     Threshold  Converged?
 Maximum Force            0.001910     0.000015     NO 
 RMS     Force            0.000654     0.000010     NO 
 Maximum Displacement     0.019688     0.000060     NO 
 RMS     Displacement     0.007836     0.000040     NO 
 Predicted change in Energy=-2.464157D-05
 Lowest energy point so far.  Saving SCF results.
 GradGradGradGradGradGradGradGradGradGradGradGradGradGradGradGradGradGrad

 Leave Link  103 at Fri Apr 12 18:01:03 2019, MaxMem=   134217728 cpu:         0.0
 (Enter /cm/shared/c3ddb/gaussian/09.d01/g09/l202.exe)
                          Input orientation:                          
 ---------------------------------------------------------------------
 Center     Atomic      Atomic             Coordinates (Angstroms)
 Number     Number       Type             X           Y           Z
 ---------------------------------------------------------------------
      1          6           0        0.739613    0.570985    0.027913
      2          6           0        1.432273   -0.535985   -0.052360
      3          1           0        1.168619    1.549613    0.093453
      4          1           0        2.501504   -0.493303   -0.051732
      5          1           0        0.960485   -1.489715   -0.137495
      6          8           0       -0.650783    0.706677    0.048134
      7          8           0       -1.289165   -0.602265   -0.035206
      8          1           0       -1.656218   -0.684931    0.862133
 ---------------------------------------------------------------------
                    Distance matrix (angstroms):
                    1          2          3          4          5
     1  C    0.000000
     2  C    1.308283   0.000000
     3  H    1.070539   2.107248   0.000000
     4  H    2.059931   1.070083   2.443598   0.000000
     5  H    2.079093   1.067442   3.055188   1.837099   0.000000
     6  O    1.397148   2.427639   2.005697   3.374439   2.730345
     7  O    2.344449   2.722299   3.269225   3.792271   2.420528
     8  H    2.830769   3.224477   3.682901   4.261282   2.914458
                    6          7          8
     6  O    0.000000
     7  O    1.458700   0.000000
     8  H    1.900017   0.973025   0.000000
 Symmetry turned off by external request.
 Stoichiometry    C2H4O2
 Framework group  C1[X(C2H4O2)]
 Deg. of freedom    18
 Full point group                 C1      NOp   1
 Rotational constants (GHZ):     18.5140741      6.5896158      4.9319906
 Leave Link  202 at Fri Apr 12 18:01:03 2019, MaxMem=   134217728 cpu:         0.0
 (Enter /cm/shared/c3ddb/gaussian/09.d01/g09/l301.exe)
 Standard basis: 3-21G (6D, 7F)
 Ernie: Thresh=  0.10000D-02 Tol=  0.10000D-05 Strict=F.
    44 basis functions,    72 primitive gaussians,    44 cartesian basis functions
    16 alpha electrons       16 beta electrons
       nuclear repulsion energy       118.9580497820 Hartrees.
 IExCor=    0 DFT=F Ex=HF Corr=None ExCW=0 ScaHFX=  1.000000
 ScaDFX=  1.000000  1.000000  1.000000  1.000000 ScalE2=  1.000000  1.000000
 IRadAn=      0 IRanWt=     -1 IRanGd=            0 ICorTp=0 IEmpDi=  4
 NAtoms=    8 NActive=    8 NUniq=    8 SFac= 1.00D+00 NAtFMM=   60 NAOKFM=F Big=F
 Integral buffers will be    131072 words long.
 Raffenetti 1 integral format.
 Two-electron integral symmetry is turned off.
 Leave Link  301 at Fri Apr 12 18:01:03 2019, MaxMem=   134217728 cpu:         0.3
 (Enter /cm/shared/c3ddb/gaussian/09.d01/g09/l302.exe)
 NPDir=0 NMtPBC=     1 NCelOv=     1 NCel=       1 NClECP=     1 NCelD=      1
         NCelK=      1 NCelE2=     1 NClLst=     1 CellRange=     0.0.
 One-electron integrals computed using PRISM.
 NBasis=    44 RedAO= T EigKep=  1.17D-02  NBF=    44
 NBsUse=    44 1.00D-06 EigRej= -1.00D+00 NBFU=    44
 Leave Link  302 at Fri Apr 12 18:01:04 2019, MaxMem=   134217728 cpu:         0.3
 (Enter /cm/shared/c3ddb/gaussian/09.d01/g09/l303.exe)
 DipDrv:  MaxL=1.
 Leave Link  303 at Fri Apr 12 18:01:04 2019, MaxMem=   134217728 cpu:         0.1
 (Enter /cm/shared/c3ddb/gaussian/09.d01/g09/l401.exe)
 Initial guess from the checkpoint file:  "TMP_CALCS/scangeom_S02_000_110.chk"
 B after Tr=    -0.000922    0.000251    0.000042
         Rot=    0.999999    0.001261   -0.000520    0.000314 Ang=   0.16 deg.
 Guess basis will be translated and rotated to current coordinates.
 JPrj=2 DoOrth=T DoCkMO=T.
 Leave Link  401 at Fri Apr 12 18:01:05 2019, MaxMem=   134217728 cpu:         0.5
 (Enter /cm/shared/c3ddb/gaussian/09.d01/g09/l502.exe)
 Closed shell SCF:
 Using DIIS extrapolation, IDIIS=  1040.
 Two-electron integral symmetry not used.
 Keep R1 ints in memory in canonical form, NReq=1327432.
 IVT=       24902 IEndB=       24902 NGot=   134217728 MDV=   133702282
 LenX=   133702282 LenY=   133699905
 Requested convergence on RMS density matrix=1.00D-08 within 128 cycles.
 Requested convergence on MAX density matrix=1.00D-06.
 Requested convergence on             energy=1.00D-06.
 No special actions if energy rises.
 FoFCou: FMM=F IPFlag=           0 FMFlag=           0 FMFlg1=           0
         NFxFlg=           0 DoJE=F BraDBF=F KetDBF=F FulRan=T
         wScrn=  0.000000 ICntrl=     600 IOpCl=  0 I1Cent=           0 NGrid=           0
         NMat0=    1 NMatS0=    990 NMatT0=    0 NMatD0=    1 NMtDS0=    0 NMtDT0=    0
 Symmetry not used in FoFCou.

 Cycle   1  Pass 1  IDiag  1:
 E= -226.397765638070    
 DIIS: error= 4.06D-04 at cycle   1 NSaved=   1.
 NSaved= 1 IEnMin= 1 EnMin= -226.397765638070     IErMin= 1 ErrMin= 4.06D-04
 ErrMax= 4.06D-04  0.00D+00 EMaxC= 1.00D-01 BMatC= 2.16D-05 BMatP= 2.16D-05
 IDIUse=3 WtCom= 9.96D-01 WtEn= 4.06D-03
 Coeff-Com:  0.100D+01
 Coeff-En:   0.100D+01
 Coeff:      0.100D+01
 Gap=     0.961 Goal=   None    Shift=    0.000
 RMSDP=1.13D-04 MaxDP=6.73D-04              OVMax= 1.43D-03

 Cycle   2  Pass 1  IDiag  1:
 E= -226.397795621265     Delta-E=       -0.000029983194 Rises=F Damp=F
 DIIS: error= 2.08D-04 at cycle   2 NSaved=   2.
 NSaved= 2 IEnMin= 2 EnMin= -226.397795621265     IErMin= 2 ErrMin= 2.08D-04
 ErrMax= 2.08D-04  0.00D+00 EMaxC= 1.00D-01 BMatC= 1.66D-06 BMatP= 2.16D-05
 IDIUse=3 WtCom= 9.98D-01 WtEn= 2.08D-03
 Coeff-Com: -0.180D+00 0.118D+01
 Coeff-En:   0.000D+00 0.100D+01
 Coeff:     -0.180D+00 0.118D+01
 Gap=     0.560 Goal=   None    Shift=    0.000
 RMSDP=5.33D-05 MaxDP=2.56D-04 DE=-3.00D-05 OVMax= 8.63D-04

 Cycle   3  Pass 1  IDiag  1:
 E= -226.397800935503     Delta-E=       -0.000005314238 Rises=F Damp=F
 DIIS: error= 1.20D-04 at cycle   3 NSaved=   3.
 NSaved= 3 IEnMin= 3 EnMin= -226.397800935503     IErMin= 3 ErrMin= 1.20D-04
 ErrMax= 1.20D-04  0.00D+00 EMaxC= 1.00D-01 BMatC= 2.80D-07 BMatP= 1.66D-06
 IDIUse=3 WtCom= 9.99D-01 WtEn= 1.20D-03
 Coeff-Com:  0.454D-02-0.323D+00 0.132D+01
 Coeff-En:   0.000D+00 0.000D+00 0.100D+01
 Coeff:      0.454D-02-0.322D+00 0.132D+01
 Gap=     0.560 Goal=   None    Shift=    0.000
 RMSDP=2.82D-05 MaxDP=1.48D-04 DE=-5.31D-06 OVMax= 4.17D-04

 Cycle   4  Pass 1  IDiag  1:
 E= -226.397802036459     Delta-E=       -0.000001100956 Rises=F Damp=F
 DIIS: error= 6.00D-05 at cycle   4 NSaved=   4.
 NSaved= 4 IEnMin= 4 EnMin= -226.397802036459     IErMin= 4 ErrMin= 6.00D-05
 ErrMax= 6.00D-05  0.00D+00 EMaxC= 1.00D-01 BMatC= 6.12D-08 BMatP= 2.80D-07
 IDIUse=1 WtCom= 1.00D+00 WtEn= 0.00D+00
 Coeff-Com:  0.296D-01-0.244D+00 0.221D+00 0.994D+00
 Coeff:      0.296D-01-0.244D+00 0.221D+00 0.994D+00
 Gap=     0.560 Goal=   None    Shift=    0.000
 RMSDP=1.23D-05 MaxDP=7.55D-05 DE=-1.10D-06 OVMax= 1.86D-04

 Cycle   5  Pass 1  IDiag  1:
 E= -226.397802234456     Delta-E=       -0.000000197998 Rises=F Damp=F
 DIIS: error= 3.05D-05 at cycle   5 NSaved=   5.
 NSaved= 5 IEnMin= 5 EnMin= -226.397802234456     IErMin= 5 ErrMin= 3.05D-05
 ErrMax= 3.05D-05  0.00D+00 EMaxC= 1.00D-01 BMatC= 1.06D-08 BMatP= 6.12D-08
 IDIUse=1 WtCom= 1.00D+00 WtEn= 0.00D+00
 Coeff-Com: -0.185D-02 0.703D-01-0.240D+00-0.618D-01 0.123D+01
 Coeff:     -0.185D-02 0.703D-01-0.240D+00-0.618D-01 0.123D+01
 Gap=     0.560 Goal=   None    Shift=    0.000
 RMSDP=6.19D-06 MaxDP=4.46D-05 DE=-1.98D-07 OVMax= 1.27D-04

 Cycle   6  Pass 1  IDiag  1:
 E= -226.397802276244     Delta-E=       -0.000000041788 Rises=F Damp=F
 DIIS: error= 1.22D-05 at cycle   6 NSaved=   6.
 NSaved= 6 IEnMin= 6 EnMin= -226.397802276244     IErMin= 6 ErrMin= 1.22D-05
 ErrMax= 1.22D-05  0.00D+00 EMaxC= 1.00D-01 BMatC= 2.35D-09 BMatP= 1.06D-08
 IDIUse=1 WtCom= 1.00D+00 WtEn= 0.00D+00
 Coeff-Com: -0.537D-02 0.592D-01-0.977D-01-0.188D+00 0.316D+00 0.916D+00
 Coeff:     -0.537D-02 0.592D-01-0.977D-01-0.188D+00 0.316D+00 0.916D+00
 Gap=     0.560 Goal=   None    Shift=    0.000
 RMSDP=2.44D-06 MaxDP=1.62D-05 DE=-4.18D-08 OVMax= 4.62D-05

 Cycle   7  Pass 1  IDiag  1:
 E= -226.397802283339     Delta-E=       -0.000000007095 Rises=F Damp=F
 DIIS: error= 5.31D-06 at cycle   7 NSaved=   7.
 NSaved= 7 IEnMin= 7 EnMin= -226.397802283339     IErMin= 7 ErrMin= 5.31D-06
 ErrMax= 5.31D-06  0.00D+00 EMaxC= 1.00D-01 BMatC= 3.42D-10 BMatP= 2.35D-09
 IDIUse=1 WtCom= 1.00D+00 WtEn= 0.00D+00
 Coeff-Com:  0.120D-02-0.242D-01 0.710D-01 0.324D-01-0.328D+00-0.137D+00
 Coeff-Com:  0.139D+01
 Coeff:      0.120D-02-0.242D-01 0.710D-01 0.324D-01-0.328D+00-0.137D+00
 Coeff:      0.139D+01
 Gap=     0.560 Goal=   None    Shift=    0.000
 RMSDP=1.55D-06 MaxDP=9.69D-06 DE=-7.09D-09 OVMax= 3.18D-05

 Cycle   8  Pass 1  IDiag  1:
 E= -226.397802284955     Delta-E=       -0.000000001615 Rises=F Damp=F
 DIIS: error= 9.15D-07 at cycle   8 NSaved=   8.
 NSaved= 8 IEnMin= 8 EnMin= -226.397802284955     IErMin= 8 ErrMin= 9.15D-07
 ErrMax= 9.15D-07  0.00D+00 EMaxC= 1.00D-01 BMatC= 2.04D-11 BMatP= 3.42D-10
 IDIUse=1 WtCom= 1.00D+00 WtEn= 0.00D+00
 Coeff-Com:  0.519D-03-0.658D-02 0.130D-01 0.178D-01-0.509D-01-0.902D-01
 Coeff-Com:  0.122D+00 0.994D+00
 Coeff:      0.519D-03-0.658D-02 0.130D-01 0.178D-01-0.509D-01-0.902D-01
 Coeff:      0.122D+00 0.994D+00
 Gap=     0.560 Goal=   None    Shift=    0.000
 RMSDP=2.63D-07 MaxDP=1.49D-06 DE=-1.62D-09 OVMax= 4.88D-06

 Cycle   9  Pass 1  IDiag  1:
 E= -226.397802285016     Delta-E=       -0.000000000061 Rises=F Damp=F
 DIIS: error= 2.26D-07 at cycle   9 NSaved=   9.
 NSaved= 9 IEnMin= 9 EnMin= -226.397802285016     IErMin= 9 ErrMin= 2.26D-07
 ErrMax= 2.26D-07  0.00D+00 EMaxC= 1.00D-01 BMatC= 2.06D-12 BMatP= 2.04D-11
 IDIUse=1 WtCom= 1.00D+00 WtEn= 0.00D+00
 Coeff-Com: -0.155D-03 0.323D-02-0.948D-02-0.475D-02 0.450D-01 0.149D-01
 Coeff-Com: -0.175D+00-0.234D-01 0.115D+01
 Coeff:     -0.155D-03 0.323D-02-0.948D-02-0.475D-02 0.450D-01 0.149D-01
 Coeff:     -0.175D+00-0.234D-01 0.115D+01
 Gap=     0.560 Goal=   None    Shift=    0.000
 RMSDP=8.99D-08 MaxDP=5.67D-07 DE=-6.11D-11 OVMax= 1.38D-06

 Cycle  10  Pass 1  IDiag  1:
 E= -226.397802285021     Delta-E=       -0.000000000005 Rises=F Damp=F
 DIIS: error= 4.22D-08 at cycle  10 NSaved=  10.
 NSaved=10 IEnMin=10 EnMin= -226.397802285021     IErMin=10 ErrMin= 4.22D-08
 ErrMax= 4.22D-08  0.00D+00 EMaxC= 1.00D-01 BMatC= 1.40D-13 BMatP= 2.06D-12
 IDIUse=1 WtCom= 1.00D+00 WtEn= 0.00D+00
 Coeff-Com: -0.394D-04 0.560D-03-0.127D-02-0.144D-02 0.589D-02 0.571D-02
 Coeff-Com: -0.167D-01-0.643D-01 0.897D-01 0.982D+00
 Coeff:     -0.394D-04 0.560D-03-0.127D-02-0.144D-02 0.589D-02 0.571D-02
 Coeff:     -0.167D-01-0.643D-01 0.897D-01 0.982D+00
 Gap=     0.560 Goal=   None    Shift=    0.000
 RMSDP=1.57D-08 MaxDP=1.40D-07 DE=-5.46D-12 OVMax= 1.93D-07

 Cycle  11  Pass 1  IDiag  1:
 E= -226.397802285022     Delta-E=       -0.000000000001 Rises=F Damp=F
 DIIS: error= 1.76D-08 at cycle  11 NSaved=  11.
 NSaved=11 IEnMin=11 EnMin= -226.397802285022     IErMin=11 ErrMin= 1.76D-08
 ErrMax= 1.76D-08  0.00D+00 EMaxC= 1.00D-01 BMatC= 1.49D-14 BMatP= 1.40D-13
 IDIUse=1 WtCom= 1.00D+00 WtEn= 0.00D+00
 Coeff-Com:  0.210D-04-0.451D-03 0.133D-02 0.640D-03-0.621D-02-0.239D-02
 Coeff-Com:  0.253D-01 0.634D-03-0.158D+00 0.878D-02 0.113D+01
 Coeff:      0.210D-04-0.451D-03 0.133D-02 0.640D-03-0.621D-02-0.239D-02
 Coeff:      0.253D-01 0.634D-03-0.158D+00 0.878D-02 0.113D+01
 Gap=     0.560 Goal=   None    Shift=    0.000
 RMSDP=6.63D-09 MaxDP=6.34D-08 DE=-7.39D-13 OVMax= 6.90D-08

 SCF Done:  E(RHF) =  -226.397802285     A.U. after   11 cycles
            NFock= 11  Conv=0.66D-08     -V/T= 2.0035
 KE= 2.256003136498D+02 PE=-7.711866426570D+02 EE= 2.002304769401D+02
 Leave Link  502 at Fri Apr 12 18:01:05 2019, MaxMem=   134217728 cpu:         0.4
 (Enter /cm/shared/c3ddb/gaussian/09.d01/g09/l701.exe)
 Compute integral first derivatives.
 ... and contract with generalized density number  0.
 Leave Link  701 at Fri Apr 12 18:01:06 2019, MaxMem=   134217728 cpu:         0.2
 (Enter /cm/shared/c3ddb/gaussian/09.d01/g09/l702.exe)
 L702 exits ... SP integral derivatives will be done elsewhere.
 Leave Link  702 at Fri Apr 12 18:01:06 2019, MaxMem=   134217728 cpu:         0.1
 (Enter /cm/shared/c3ddb/gaussian/09.d01/g09/l703.exe)
 Compute integral first derivatives, UseDBF=F ICtDFT=           0.
 Integral derivatives from FoFJK, PRISM(SPDF).
 Calling FoFJK, ICntrl=      2127 FMM=F ISym2X=0 I1Cent= 0 IOpClX= 0 NMat=1 NMatS=1 NMatT=0.
 FoFJK:  IHMeth= 1 ICntrl=    2127 DoSepK=F KAlg= 0 I1Cent=   0 FoldK=F
 IRaf=         0 NMat=   1 IRICut=       1 DoRegI=T DoRafI=F ISym2E= 0.
 FoFCou: FMM=F IPFlag=           0 FMFlag=      100000 FMFlg1=         800
         NFxFlg=           0 DoJE=F BraDBF=F KetDBF=F FulRan=T
         wScrn=  0.000000 ICntrl=    2127 IOpCl=  0 I1Cent=           0 NGrid=           0
         NMat0=    1 NMatS0=      1 NMatT0=    0 NMatD0=    1 NMtDS0=    0 NMtDT0=    0
 Symmetry not used in FoFCou.
 Leave Link  703 at Fri Apr 12 18:01:06 2019, MaxMem=   134217728 cpu:         0.2
 (Enter /cm/shared/c3ddb/gaussian/09.d01/g09/l716.exe)
 Dipole        = 3.06469722D-01-1.36874880D-01 7.39069401D-01
 -------------------------------------------------------------------
 Center     Atomic                   Forces (Hartrees/Bohr)
 Number     Number              X              Y              Z
 -------------------------------------------------------------------
      1        6          -0.000184333   -0.000438862   -0.000730626
      2        6          -0.000185843    0.000166259   -0.000207101
      3        1          -0.000194146    0.000033537   -0.000080859
      4        1           0.000018119   -0.000044902   -0.000049931
      5        1          -0.000116759   -0.000099683    0.000160809
      6        8          -0.000773906   -0.000429209    0.001707983
      7        8           0.002316099   -0.000432639   -0.000510018
      8        1          -0.000879229    0.001245501   -0.000290257
 -------------------------------------------------------------------
 Cartesian Forces:  Max     0.002316099 RMS     0.000732735
 Leave Link  716 at Fri Apr 12 18:01:06 2019, MaxMem=   134217728 cpu:         0.1
 (Enter /cm/shared/c3ddb/gaussian/09.d01/g09/l103.exe)

 GradGradGradGradGradGradGradGradGradGradGradGradGradGradGradGradGradGrad
 Berny optimization.
 Using GEDIIS/GDIIS optimizer.
 FormGI is forming the generalized inverse of G from B-inverse, IUseBI=4.
 Internal  Forces:  Max     0.002480188 RMS     0.000787221
 Search for a local minimum.
 Step number   2 out of a maximum of   32
 All quantities printed in internal units (Hartrees-Bohrs-Radians)
 RMS Force = .61118D-03 SwitMx=.10000D-02 MixMth= 2
 Mixed Optimization -- En-DIIS/RFO-DIIS
 Swapping is turned off.
 Update second derivatives using D2CorX and points    1    2
 DE= -6.45D-06 DEPred=-2.46D-05 R= 2.62D-01
 Trust test= 2.62D-01 RLast= 2.36D-02 DXMaxT set to 3.00D-01
 ITU=  0  0
     Eigenvalues ---    0.02711   0.03303   0.03339   0.15912   0.16000
     Eigenvalues ---    0.16000   0.17675   0.22069   0.30746   0.37163
     Eigenvalues ---    0.37207   0.37555   0.41752   0.50520   0.52934
     Eigenvalues ---    0.651341000.000001000.000001000.000001000.00000
     Eigenvalues --- 1000.000001000.00000
 En-DIIS/RFO-DIIS IScMMF=        0 using points:     2    1
 RFO step:  Lambda=-1.15443501D-05.
 NNeg= 0 NP= 2 Switch=  2.50D-03 Rises=F DC=  6.45D-06 SmlDif=  1.00D-05
 RMS Error=  0.9029423223D-03 NUsed= 2 EDIIS=F
 DidBck=T Rises=F RFO-DIIS coefs:    0.57670    0.42330
 Iteration  1 RMS(Cart)=  0.00394333 RMS(Int)=  0.00000598
 Iteration  2 RMS(Cart)=  0.00000642 RMS(Int)=  0.00000166
 Iteration  3 RMS(Cart)=  0.00000000 RMS(Int)=  0.00000166
 Iteration  1 RMS(Cart)=  0.00000007 RMS(Int)=  0.00000004
 ITry= 1 IFail=0 DXMaxC= 1.07D-02 DCOld= 1.00D+10 DXMaxT= 3.00D-01 DXLimC= 3.00D+00 Rises=F
 Variable       Old X    -DE/DX   Delta X   Delta X   Delta X     New X
                                 (Linear)    (Quad)   (Total)
    R1        2.47230  -0.00016  -0.00012  -0.00001  -0.00013   2.47217
    R2        2.02303  -0.00005  -0.00001  -0.00007  -0.00008   2.02295
    R3        2.64023  -0.00061  -0.00086   0.00021  -0.00065   2.63958
    R4        2.02216   0.00002   0.00006  -0.00004   0.00002   2.02218
    R5        2.01717   0.00013  -0.00002   0.00022   0.00020   2.01737
    R6        2.75654  -0.00131   0.00010  -0.00215  -0.00205   2.75449
    R7        1.83875  -0.00004  -0.00050   0.00052   0.00002   1.83877
    A1        2.17131   0.00040   0.00044   0.00073   0.00117   2.17249
    A2        2.22679  -0.00041  -0.00014  -0.00092  -0.00106   2.22573
    A3        1.88508   0.00002  -0.00030   0.00019  -0.00011   1.88497
    A4        2.08890   0.00011  -0.00002   0.00042   0.00041   2.08931
    A5        2.12572  -0.00012  -0.00025  -0.00015  -0.00039   2.12533
    A6        2.06839   0.00001   0.00031  -0.00030   0.00001   2.06840
    A7        1.92575  -0.00176  -0.00302  -0.00066  -0.00369   1.92206
    A8        1.76057  -0.00133  -0.00505   0.00091  -0.00414   1.75643
    D1        0.00348   0.00003   0.00131  -0.00015   0.00116   0.00464
    D2       -3.11790  -0.00007  -0.00188   0.00162  -0.00026  -3.11817
    D3       -3.13489  -0.00011  -0.00287   0.00048  -0.00239  -3.13728
    D4        0.02691  -0.00022  -0.00606   0.00225  -0.00381   0.02310
    D5       -0.00001  -0.00009   0.00000   0.00000   0.00000  -0.00001
    D6       -3.13880  -0.00021  -0.00362   0.00054  -0.00308   3.14130
    D7        1.91986   0.00248   0.00000   0.00000   0.00000   1.91986
         Item               Value     Threshold  Converged?
 Maximum Force            0.001763     0.000015     NO 
 RMS     Force            0.000611     0.000010     NO 
 Maximum Displacement     0.010654     0.000060     NO 
 RMS     Displacement     0.003942     0.000040     NO 
 Predicted change in Energy=-8.965234D-06
 Lowest energy point so far.  Saving SCF results.
 GradGradGradGradGradGradGradGradGradGradGradGradGradGradGradGradGradGrad

 Leave Link  103 at Fri Apr 12 18:01:06 2019, MaxMem=   134217728 cpu:         0.0
 (Enter /cm/shared/c3ddb/gaussian/09.d01/g09/l202.exe)
                          Input orientation:                          
 ---------------------------------------------------------------------
 Center     Atomic      Atomic             Coordinates (Angstroms)
 Number     Number       Type             X           Y           Z
 ---------------------------------------------------------------------
      1          6           0        0.738670    0.571505    0.029318
      2          6           0        1.430162   -0.536038   -0.052008
      3          1           0        1.167495    1.550261    0.093413
      4          1           0        2.499458   -0.494777   -0.052842
      5          1           0        0.956942   -1.489336   -0.135332
      6          8           0       -0.651396    0.707156    0.048674
      7          8           0       -1.284423   -0.603019   -0.037095
      8          1           0       -1.650580   -0.684679    0.860712
 ---------------------------------------------------------------------
                    Distance matrix (angstroms):
                    1          2          3          4          5
     1  C    0.000000
     2  C    1.308214   0.000000
     3  H    1.070497   2.107792   0.000000
     4  H    2.060117   1.070093   2.444933   0.000000
     5  H    2.078898   1.067547   3.055456   1.837202   0.000000
     6  O    1.396803   2.426634   2.005291   3.373845   2.728587
     7  O    2.340261   2.715452   3.265815   3.785462   2.412245
     8  H    2.824487   3.216539   3.677669   4.253641   2.904952
                    6          7          8
     6  O    0.000000
     7  O    1.457614   0.000000
     8  H    1.896043   0.973035   0.000000
 Symmetry turned off by external request.
 Stoichiometry    C2H4O2
 Framework group  C1[X(C2H4O2)]
 Deg. of freedom    18
 Full point group                 C1      NOp   1
 Rotational constants (GHZ):     18.4870279      6.6165321      4.9451786
 Leave Link  202 at Fri Apr 12 18:01:06 2019, MaxMem=   134217728 cpu:         0.0
 (Enter /cm/shared/c3ddb/gaussian/09.d01/g09/l301.exe)
 Standard basis: 3-21G (6D, 7F)
 Ernie: Thresh=  0.10000D-02 Tol=  0.10000D-05 Strict=F.
    44 basis functions,    72 primitive gaussians,    44 cartesian basis functions
    16 alpha electrons       16 beta electrons
       nuclear repulsion energy       119.0486968216 Hartrees.
 IExCor=    0 DFT=F Ex=HF Corr=None ExCW=0 ScaHFX=  1.000000
 ScaDFX=  1.000000  1.000000  1.000000  1.000000 ScalE2=  1.000000  1.000000
 IRadAn=      0 IRanWt=     -1 IRanGd=            0 ICorTp=0 IEmpDi=  4
 NAtoms=    8 NActive=    8 NUniq=    8 SFac= 1.00D+00 NAtFMM=   60 NAOKFM=F Big=F
 Integral buffers will be    131072 words long.
 Raffenetti 1 integral format.
 Two-electron integral symmetry is turned off.
 Leave Link  301 at Fri Apr 12 18:01:07 2019, MaxMem=   134217728 cpu:         0.2
 (Enter /cm/shared/c3ddb/gaussian/09.d01/g09/l302.exe)
 NPDir=0 NMtPBC=     1 NCelOv=     1 NCel=       1 NClECP=     1 NCelD=      1
         NCelK=      1 NCelE2=     1 NClLst=     1 CellRange=     0.0.
 One-electron integrals computed using PRISM.
 NBasis=    44 RedAO= T EigKep=  1.17D-02  NBF=    44
 NBsUse=    44 1.00D-06 EigRej= -1.00D+00 NBFU=    44
 Leave Link  302 at Fri Apr 12 18:01:07 2019, MaxMem=   134217728 cpu:         0.2
 (Enter /cm/shared/c3ddb/gaussian/09.d01/g09/l303.exe)
 DipDrv:  MaxL=1.
 Leave Link  303 at Fri Apr 12 18:01:07 2019, MaxMem=   134217728 cpu:         0.1
 (Enter /cm/shared/c3ddb/gaussian/09.d01/g09/l401.exe)
 Initial guess from the checkpoint file:  "TMP_CALCS/scangeom_S02_000_110.chk"
 B after Tr=     0.000825    0.000044   -0.000051
         Rot=    1.000000   -0.000363    0.000258   -0.000207 Ang=  -0.06 deg.
 Guess basis will be translated and rotated to current coordinates.
 JPrj=2 DoOrth=T DoCkMO=T.
 Leave Link  401 at Fri Apr 12 18:01:08 2019, MaxMem=   134217728 cpu:         0.3
 (Enter /cm/shared/c3ddb/gaussian/09.d01/g09/l502.exe)
 Closed shell SCF:
 Using DIIS extrapolation, IDIIS=  1040.
 Two-electron integral symmetry not used.
 Keep R1 ints in memory in canonical form, NReq=1327432.
 IVT=       24902 IEndB=       24902 NGot=   134217728 MDV=   133702282
 LenX=   133702282 LenY=   133699905
 Requested convergence on RMS density matrix=1.00D-08 within 128 cycles.
 Requested convergence on MAX density matrix=1.00D-06.
 Requested convergence on             energy=1.00D-06.
 No special actions if energy rises.
 FoFCou: FMM=F IPFlag=           0 FMFlag=           0 FMFlg1=           0
         NFxFlg=           0 DoJE=F BraDBF=F KetDBF=F FulRan=T
         wScrn=  0.000000 ICntrl=     600 IOpCl=  0 I1Cent=           0 NGrid=           0
         NMat0=    1 NMatS0=    990 NMatT0=    0 NMatD0=    1 NMtDS0=    0 NMtDT0=    0
 Symmetry not used in FoFCou.

 Cycle   1  Pass 1  IDiag  1:
 E= -226.397803616325    
 DIIS: error= 1.83D-04 at cycle   1 NSaved=   1.
 NSaved= 1 IEnMin= 1 EnMin= -226.397803616325     IErMin= 1 ErrMin= 1.83D-04
 ErrMax= 1.83D-04  0.00D+00 EMaxC= 1.00D-01 BMatC= 4.95D-06 BMatP= 4.95D-06
 IDIUse=3 WtCom= 9.98D-01 WtEn= 1.83D-03
 Coeff-Com:  0.100D+01
 Coeff-En:   0.100D+01
 Coeff:      0.100D+01
 Gap=     0.962 Goal=   None    Shift=    0.000
 RMSDP=5.36D-05 MaxDP=3.19D-04              OVMax= 4.77D-04

 Cycle   2  Pass 1  IDiag  1:
 E= -226.397809632304     Delta-E=       -0.000006015979 Rises=F Damp=F
 DIIS: error= 1.05D-04 at cycle   2 NSaved=   2.
 NSaved= 2 IEnMin= 2 EnMin= -226.397809632304     IErMin= 2 ErrMin= 1.05D-04
 ErrMax= 1.05D-04  0.00D+00 EMaxC= 1.00D-01 BMatC= 3.54D-07 BMatP= 4.95D-06
 IDIUse=3 WtCom= 9.99D-01 WtEn= 1.05D-03
 Coeff-Com: -0.146D+00 0.115D+01
 Coeff-En:   0.000D+00 0.100D+01
 Coeff:     -0.146D+00 0.115D+01
 Gap=     0.560 Goal=   None    Shift=    0.000
 RMSDP=2.33D-05 MaxDP=1.58D-04 DE=-6.02D-06 OVMax= 2.98D-04

 Cycle   3  Pass 1  IDiag  1:
 E= -226.397810711664     Delta-E=       -0.000001079360 Rises=F Damp=F
 DIIS: error= 6.29D-05 at cycle   3 NSaved=   3.
 NSaved= 3 IEnMin= 3 EnMin= -226.397810711664     IErMin= 3 ErrMin= 6.29D-05
 ErrMax= 6.29D-05  0.00D+00 EMaxC= 1.00D-01 BMatC= 7.17D-08 BMatP= 3.54D-07
 IDIUse=1 WtCom= 1.00D+00 WtEn= 0.00D+00
 Coeff-Com: -0.150D-01-0.221D+00 0.124D+01
 Coeff:     -0.150D-01-0.221D+00 0.124D+01
 Gap=     0.560 Goal=   None    Shift=    0.000
 RMSDP=1.26D-05 MaxDP=8.97D-05 DE=-1.08D-06 OVMax= 2.03D-04

 Cycle   4  Pass 1  IDiag  1:
 E= -226.397810973031     Delta-E=       -0.000000261367 Rises=F Damp=F
 DIIS: error= 3.36D-05 at cycle   4 NSaved=   4.
 NSaved= 4 IEnMin= 4 EnMin= -226.397810973031     IErMin= 4 ErrMin= 3.36D-05
 ErrMax= 3.36D-05  0.00D+00 EMaxC= 1.00D-01 BMatC= 1.75D-08 BMatP= 7.17D-08
 IDIUse=1 WtCom= 1.00D+00 WtEn= 0.00D+00
 Coeff-Com:  0.310D-01-0.272D+00 0.127D+00 0.111D+01
 Coeff:      0.310D-01-0.272D+00 0.127D+00 0.111D+01
 Gap=     0.560 Goal=   None    Shift=    0.000
 RMSDP=7.39D-06 MaxDP=5.77D-05 DE=-2.61D-07 OVMax= 1.40D-04

 Cycle   5  Pass 1  IDiag  1:
 E= -226.397811038722     Delta-E=       -0.000000065691 Rises=F Damp=F
 DIIS: error= 1.47D-05 at cycle   5 NSaved=   5.
 NSaved= 5 IEnMin= 5 EnMin= -226.397811038722     IErMin= 5 ErrMin= 1.47D-05
 ErrMax= 1.47D-05  0.00D+00 EMaxC= 1.00D-01 BMatC= 2.21D-09 BMatP= 1.75D-08
 IDIUse=1 WtCom= 1.00D+00 WtEn= 0.00D+00
 Coeff-Com: -0.512D-02 0.105D+00-0.209D+00-0.320D+00 0.143D+01
 Coeff:     -0.512D-02 0.105D+00-0.209D+00-0.320D+00 0.143D+01
 Gap=     0.560 Goal=   None    Shift=    0.000
 RMSDP=3.44D-06 MaxDP=2.78D-05 DE=-6.57D-08 OVMax= 7.82D-05

 Cycle   6  Pass 1  IDiag  1:
 E= -226.397811049186     Delta-E=       -0.000000010464 Rises=F Damp=F
 DIIS: error= 4.62D-06 at cycle   6 NSaved=   6.
 NSaved= 6 IEnMin= 6 EnMin= -226.397811049186     IErMin= 6 ErrMin= 4.62D-06
 ErrMax= 4.62D-06  0.00D+00 EMaxC= 1.00D-01 BMatC= 3.85D-10 BMatP= 2.21D-09
 IDIUse=1 WtCom= 1.00D+00 WtEn= 0.00D+00
 Coeff-Com: -0.428D-02 0.525D-01-0.603D-01-0.194D+00 0.336D+00 0.870D+00
 Coeff:     -0.428D-02 0.525D-01-0.603D-01-0.194D+00 0.336D+00 0.870D+00
 Gap=     0.560 Goal=   None    Shift=    0.000
 RMSDP=8.96D-07 MaxDP=6.09D-06 DE=-1.05D-08 OVMax= 1.82D-05

 Cycle   7  Pass 1  IDiag  1:
 E= -226.397811050229     Delta-E=       -0.000000001043 Rises=F Damp=F
 DIIS: error= 2.21D-06 at cycle   7 NSaved=   7.
 NSaved= 7 IEnMin= 7 EnMin= -226.397811050229     IErMin= 7 ErrMin= 2.21D-06
 ErrMax= 2.21D-06  0.00D+00 EMaxC= 1.00D-01 BMatC= 7.22D-11 BMatP= 3.85D-10
 IDIUse=1 WtCom= 1.00D+00 WtEn= 0.00D+00
 Coeff-Com:  0.121D-02-0.266D-01 0.564D-01 0.750D-01-0.388D+00 0.195D-01
 Coeff-Com:  0.126D+01
 Coeff:      0.121D-02-0.266D-01 0.564D-01 0.750D-01-0.388D+00 0.195D-01
 Coeff:      0.126D+01
 Gap=     0.560 Goal=   None    Shift=    0.000
 RMSDP=6.41D-07 MaxDP=4.13D-06 DE=-1.04D-09 OVMax= 1.44D-05

 Cycle   8  Pass 1  IDiag  1:
 E= -226.397811050522     Delta-E=       -0.000000000293 Rises=F Damp=F
 DIIS: error= 3.94D-07 at cycle   8 NSaved=   8.
 NSaved= 8 IEnMin= 8 EnMin= -226.397811050522     IErMin= 8 ErrMin= 3.94D-07
 ErrMax= 3.94D-07  0.00D+00 EMaxC= 1.00D-01 BMatC= 5.02D-12 BMatP= 7.22D-11
 IDIUse=1 WtCom= 1.00D+00 WtEn= 0.00D+00
 Coeff-Com:  0.493D-03-0.719D-02 0.102D-01 0.261D-01-0.686D-01-0.840D-01
 Coeff-Com:  0.142D+00 0.981D+00
 Coeff:      0.493D-03-0.719D-02 0.102D-01 0.261D-01-0.686D-01-0.840D-01
 Coeff:      0.142D+00 0.981D+00
 Gap=     0.560 Goal=   None    Shift=    0.000
 RMSDP=1.19D-07 MaxDP=6.19D-07 DE=-2.93D-10 OVMax= 2.14D-06

 Cycle   9  Pass 1  IDiag  1:
 E= -226.397811050535     Delta-E=       -0.000000000013 Rises=F Damp=F
 DIIS: error= 1.12D-07 at cycle   9 NSaved=   9.
 NSaved= 9 IEnMin= 9 EnMin= -226.397811050535     IErMin= 9 ErrMin= 1.12D-07
 ErrMax= 1.12D-07  0.00D+00 EMaxC= 1.00D-01 BMatC= 4.60D-13 BMatP= 5.02D-12
 IDIUse=1 WtCom= 1.00D+00 WtEn= 0.00D+00
 Coeff-Com: -0.142D-03 0.332D-02-0.739D-02-0.900D-02 0.502D-01-0.913D-02
 Coeff-Com: -0.151D+00 0.112D-02 0.112D+01
 Coeff:     -0.142D-03 0.332D-02-0.739D-02-0.900D-02 0.502D-01-0.913D-02
 Coeff:     -0.151D+00 0.112D-02 0.112D+01
 Gap=     0.560 Goal=   None    Shift=    0.000
 RMSDP=4.19D-08 MaxDP=2.87D-07 DE=-1.32D-11 OVMax= 5.76D-07

 Cycle  10  Pass 1  IDiag  1:
 E= -226.397811050536     Delta-E=       -0.000000000001 Rises=F Damp=F
 DIIS: error= 3.06D-08 at cycle  10 NSaved=  10.
 NSaved=10 IEnMin=10 EnMin= -226.397811050536     IErMin=10 ErrMin= 3.06D-08
 ErrMax= 3.06D-08  0.00D+00 EMaxC= 1.00D-01 BMatC= 4.20D-14 BMatP= 4.60D-13
 IDIUse=1 WtCom= 1.00D+00 WtEn= 0.00D+00
 Coeff-Com: -0.404D-04 0.678D-03-0.112D-02-0.227D-02 0.779D-02 0.481D-02
 Coeff-Com: -0.185D-01-0.711D-01 0.108D+00 0.972D+00
 Coeff:     -0.404D-04 0.678D-03-0.112D-02-0.227D-02 0.779D-02 0.481D-02
 Coeff:     -0.185D-01-0.711D-01 0.108D+00 0.972D+00
 Gap=     0.560 Goal=   None    Shift=    0.000
 RMSDP=8.42D-09 MaxDP=5.40D-08 DE=-9.09D-13 OVMax= 1.23D-07

 SCF Done:  E(RHF) =  -226.397811051     A.U. after   10 cycles
            NFock= 10  Conv=0.84D-08     -V/T= 2.0035
 KE= 2.256057503550D+02 PE=-7.713692004377D+02 EE= 2.003169422106D+02
 Leave Link  502 at Fri Apr 12 18:01:08 2019, MaxMem=   134217728 cpu:         0.3
 (Enter /cm/shared/c3ddb/gaussian/09.d01/g09/l701.exe)
 Compute integral first derivatives.
 ... and contract with generalized density number  0.
 Leave Link  701 at Fri Apr 12 18:01:08 2019, MaxMem=   134217728 cpu:         0.2
 (Enter /cm/shared/c3ddb/gaussian/09.d01/g09/l702.exe)
 L702 exits ... SP integral derivatives will be done elsewhere.
 Leave Link  702 at Fri Apr 12 18:01:09 2019, MaxMem=   134217728 cpu:         0.1
 (Enter /cm/shared/c3ddb/gaussian/09.d01/g09/l703.exe)
 Compute integral first derivatives, UseDBF=F ICtDFT=           0.
 Integral derivatives from FoFJK, PRISM(SPDF).
 Calling FoFJK, ICntrl=      2127 FMM=F ISym2X=0 I1Cent= 0 IOpClX= 0 NMat=1 NMatS=1 NMatT=0.
 FoFJK:  IHMeth= 1 ICntrl=    2127 DoSepK=F KAlg= 0 I1Cent=   0 FoldK=F
 IRaf=         0 NMat=   1 IRICut=       1 DoRegI=T DoRafI=F ISym2E= 0.
 FoFCou: FMM=F IPFlag=           0 FMFlag=      100000 FMFlg1=         800
         NFxFlg=           0 DoJE=F BraDBF=F KetDBF=F FulRan=T
         wScrn=  0.000000 ICntrl=    2127 IOpCl=  0 I1Cent=           0 NGrid=           0
         NMat0=    1 NMatS0=      1 NMatT0=    0 NMatD0=    1 NMtDS0=    0 NMtDT0=    0
 Symmetry not used in FoFCou.
 Leave Link  703 at Fri Apr 12 18:01:09 2019, MaxMem=   134217728 cpu:         0.2
 (Enter /cm/shared/c3ddb/gaussian/09.d01/g09/l716.exe)
 Dipole        = 3.05939288D-01-1.36550732D-01 7.38897276D-01
 -------------------------------------------------------------------
 Center     Atomic                   Forces (Hartrees/Bohr)
 Number     Number              X              Y              Z
 -------------------------------------------------------------------
      1        6           0.000129857    0.000108334   -0.001112097
      2        6          -0.000005735   -0.000001806   -0.000004642
      3        1          -0.000019503   -0.000013986   -0.000008844
      4        1           0.000005536   -0.000008515    0.000001416
      5        1           0.000010475    0.000022327    0.000046619
      6        8          -0.000180988   -0.000008082    0.001447218
      7        8           0.001254303   -0.000728697    0.000110345
      8        1          -0.001193945    0.000630425   -0.000480015
 -------------------------------------------------------------------
 Cartesian Forces:  Max     0.001447218 RMS     0.000561472
 Leave Link  716 at Fri Apr 12 18:01:09 2019, MaxMem=   134217728 cpu:         0.1
 (Enter /cm/shared/c3ddb/gaussian/09.d01/g09/l103.exe)

 GradGradGradGradGradGradGradGradGradGradGradGradGradGradGradGradGradGrad
 Berny optimization.
 Using GEDIIS/GDIIS optimizer.
 FormGI is forming the generalized inverse of G from B-inverse, IUseBI=4.
 Internal  Forces:  Max     0.002588158 RMS     0.000554813
 Search for a local minimum.
 Step number   3 out of a maximum of   32
 All quantities printed in internal units (Hartrees-Bohrs-Radians)
 RMS Force = .53685D-04 SwitMx=.10000D-02 MixMth= 2
 Mixed Optimization -- En-DIIS/RFO-DIIS
 Swapping is turned off.
 Update second derivatives using D2CorX and points    1    2    3
 DE= -8.77D-06 DEPred=-8.97D-06 R= 9.78D-01
 TightC=F SS=  1.41D+00  RLast= 8.33D-03 DXNew= 5.0454D-01 2.4996D-02
 Trust test= 9.78D-01 RLast= 8.33D-03 DXMaxT set to 3.00D-01
 ITU=  1  0  0
     Eigenvalues ---    0.02684   0.03307   0.03368   0.15874   0.16000
     Eigenvalues ---    0.16000   0.17655   0.21962   0.30833   0.37150
     Eigenvalues ---    0.37211   0.37544   0.41816   0.52789   0.55257
     Eigenvalues ---    0.651501000.000001000.000001000.000001000.00000
     Eigenvalues --- 1000.000001000.00000
 En-DIIS/RFO-DIIS IScMMF=        0 using points:     3    2    1
 RFO step:  Lambda=-3.20106441D-07.
 NNeg= 0 NP= 3 Switch=  2.50D-03 Rises=F DC=  6.45D-06 SmlDif=  1.00D-05
 RMS Error=  0.1149094259D-03 NUsed= 3 EDIIS=F
 DidBck=F Rises=F RFO-DIIS coefs:    0.80619    0.10747    0.08634
 Iteration  1 RMS(Cart)=  0.00056729 RMS(Int)=  0.00000032
 Iteration  2 RMS(Cart)=  0.00000025 RMS(Int)=  0.00000021
 Iteration  1 RMS(Cart)=  0.00000003 RMS(Int)=  0.00000002
 ITry= 1 IFail=0 DXMaxC= 1.31D-03 DCOld= 1.00D+10 DXMaxT= 3.00D-01 DXLimC= 3.00D+00 Rises=F
 Variable       Old X    -DE/DX   Delta X   Delta X   Delta X     New X
                                 (Linear)    (Quad)   (Total)
    R1        2.47217  -0.00001   0.00000  -0.00001  -0.00001   2.47215
    R2        2.02295  -0.00002   0.00001  -0.00006  -0.00005   2.02290
    R3        2.63958   0.00012  -0.00005   0.00025   0.00020   2.63978
    R4        2.02218   0.00001   0.00001   0.00000   0.00001   2.02219
    R5        2.01737  -0.00003  -0.00004  -0.00001  -0.00006   2.01731
    R6        2.75449   0.00008   0.00042  -0.00027   0.00015   2.75464
    R7        1.83877  -0.00005  -0.00011   0.00003  -0.00007   1.83869
    A1        2.17249   0.00000  -0.00014   0.00018   0.00005   2.17253
    A2        2.22573   0.00002   0.00018  -0.00012   0.00006   2.22579
    A3        1.88497  -0.00002  -0.00004  -0.00006  -0.00010   1.88487
    A4        2.08931   0.00001  -0.00008   0.00016   0.00008   2.08938
    A5        2.12533  -0.00001   0.00003  -0.00007  -0.00004   2.12529
    A6        2.06840   0.00000   0.00006  -0.00008  -0.00002   2.06838
    A7        1.92206   0.00016   0.00010   0.00034   0.00044   1.92250
    A8        1.75643  -0.00002  -0.00023   0.00002  -0.00021   1.75622
    D1        0.00464  -0.00001   0.00004   0.00047   0.00051   0.00515
    D2       -3.11817  -0.00005  -0.00033  -0.00019  -0.00052  -3.11869
    D3       -3.13728   0.00001  -0.00012  -0.00033  -0.00045  -3.13773
    D4        0.02310  -0.00003  -0.00050  -0.00099  -0.00148   0.02162
    D5       -0.00001  -0.00010   0.00000   0.00000   0.00000  -0.00001
    D6        3.14130  -0.00008  -0.00014  -0.00069  -0.00084   3.14047
    D7        1.91986   0.00259   0.00000   0.00000   0.00000   1.91986
         Item               Value     Threshold  Converged?
 Maximum Force            0.000160     0.000015     NO 
 RMS     Force            0.000054     0.000010     NO 
 Maximum Displacement     0.001313     0.000060     NO 
 RMS     Displacement     0.000567     0.000040     NO 
 Predicted change in Energy=-1.395371D-07
 Lowest energy point so far.  Saving SCF results.
 GradGradGradGradGradGradGradGradGradGradGradGradGradGradGradGradGradGrad

 Leave Link  103 at Fri Apr 12 18:01:09 2019, MaxMem=   134217728 cpu:         0.0
 (Enter /cm/shared/c3ddb/gaussian/09.d01/g09/l202.exe)
                          Input orientation:                          
 ---------------------------------------------------------------------
 Center     Atomic      Atomic             Coordinates (Angstroms)
 Number     Number       Type             X           Y           Z
 ---------------------------------------------------------------------
      1          6           0        0.738820    0.571430    0.029628
      2          6           0        1.430410   -0.536006   -0.052205
      3          1           0        1.167493    1.550251    0.093340
      4          1           0        2.499711   -0.494699   -0.053429
      5          1           0        0.957234   -1.489369   -0.134637
      6          8           0       -0.651357    0.707037    0.049033
      7          8           0       -1.284950   -0.602914   -0.037339
      8          1           0       -1.651032   -0.684656    0.860449
 ---------------------------------------------------------------------
                    Distance matrix (angstroms):
                    1          2          3          4          5
     1  C    0.000000
     2  C    1.308208   0.000000
     3  H    1.070472   2.107789   0.000000
     4  H    2.060161   1.070099   2.445028   0.000000
     5  H    2.078841   1.067517   3.055400   1.837172   0.000000
     6  O    1.396910   2.426759   2.005291   3.374003   2.728644
     7  O    2.340773   2.716225   3.266141   3.786242   2.413018
     8  H    2.824785   3.217192   3.677955   4.254401   2.905307
                    6          7          8
     6  O    0.000000
     7  O    1.457694   0.000000
     8  H    1.895930   0.972995   0.000000
 Symmetry turned off by external request.
 Stoichiometry    C2H4O2
 Framework group  C1[X(C2H4O2)]
 Deg. of freedom    18
 Full point group                 C1      NOp   1
 Rotational constants (GHZ):     18.4908507      6.6134921      4.9437338
 Leave Link  202 at Fri Apr 12 18:01:09 2019, MaxMem=   134217728 cpu:         0.0
 (Enter /cm/shared/c3ddb/gaussian/09.d01/g09/l301.exe)
 Standard basis: 3-21G (6D, 7F)
 Ernie: Thresh=  0.10000D-02 Tol=  0.10000D-05 Strict=F.
    44 basis functions,    72 primitive gaussians,    44 cartesian basis functions
    16 alpha electrons       16 beta electrons
       nuclear repulsion energy       119.0395988605 Hartrees.
 IExCor=    0 DFT=F Ex=HF Corr=None ExCW=0 ScaHFX=  1.000000
 ScaDFX=  1.000000  1.000000  1.000000  1.000000 ScalE2=  1.000000  1.000000
 IRadAn=      0 IRanWt=     -1 IRanGd=            0 ICorTp=0 IEmpDi=  4
 NAtoms=    8 NActive=    8 NUniq=    8 SFac= 1.00D+00 NAtFMM=   60 NAOKFM=F Big=F
 Integral buffers will be    131072 words long.
 Raffenetti 1 integral format.
 Two-electron integral symmetry is turned off.
 Leave Link  301 at Fri Apr 12 18:01:09 2019, MaxMem=   134217728 cpu:         0.2
 (Enter /cm/shared/c3ddb/gaussian/09.d01/g09/l302.exe)
 NPDir=0 NMtPBC=     1 NCelOv=     1 NCel=       1 NClECP=     1 NCelD=      1
         NCelK=      1 NCelE2=     1 NClLst=     1 CellRange=     0.0.
 One-electron integrals computed using PRISM.
 NBasis=    44 RedAO= T EigKep=  1.17D-02  NBF=    44
 NBsUse=    44 1.00D-06 EigRej= -1.00D+00 NBFU=    44
 Leave Link  302 at Fri Apr 12 18:01:10 2019, MaxMem=   134217728 cpu:         0.2
 (Enter /cm/shared/c3ddb/gaussian/09.d01/g09/l303.exe)
 DipDrv:  MaxL=1.
 Leave Link  303 at Fri Apr 12 18:01:10 2019, MaxMem=   134217728 cpu:         0.1
 (Enter /cm/shared/c3ddb/gaussian/09.d01/g09/l401.exe)
 Initial guess from the checkpoint file:  "TMP_CALCS/scangeom_S02_000_110.chk"
 B after Tr=    -0.000084   -0.000006    0.000082
         Rot=    1.000000   -0.000131    0.000000    0.000026 Ang=  -0.02 deg.
 Guess basis will be translated and rotated to current coordinates.
 JPrj=2 DoOrth=T DoCkMO=T.
 Leave Link  401 at Fri Apr 12 18:01:10 2019, MaxMem=   134217728 cpu:         0.3
 (Enter /cm/shared/c3ddb/gaussian/09.d01/g09/l502.exe)
 Closed shell SCF:
 Using DIIS extrapolation, IDIIS=  1040.
 Two-electron integral symmetry not used.
 Keep R1 ints in memory in canonical form, NReq=1327432.
 IVT=       24902 IEndB=       24902 NGot=   134217728 MDV=   133702282
 LenX=   133702282 LenY=   133699905
 Requested convergence on RMS density matrix=1.00D-08 within 128 cycles.
 Requested convergence on MAX density matrix=1.00D-06.
 Requested convergence on             energy=1.00D-06.
 No special actions if energy rises.
 FoFCou: FMM=F IPFlag=           0 FMFlag=           0 FMFlg1=           0
         NFxFlg=           0 DoJE=F BraDBF=F KetDBF=F FulRan=T
         wScrn=  0.000000 ICntrl=     600 IOpCl=  0 I1Cent=           0 NGrid=           0
         NMat0=    1 NMatS0=    990 NMatT0=    0 NMatD0=    1 NMtDS0=    0 NMtDT0=    0
 Symmetry not used in FoFCou.

 Cycle   1  Pass 1  IDiag  1:
 E= -226.397810894186    
 DIIS: error= 3.74D-05 at cycle   1 NSaved=   1.
 NSaved= 1 IEnMin= 1 EnMin= -226.397810894186     IErMin= 1 ErrMin= 3.74D-05
 ErrMax= 3.74D-05  0.00D+00 EMaxC= 1.00D-01 BMatC= 1.34D-07 BMatP= 1.34D-07
 IDIUse=1 WtCom= 1.00D+00 WtEn= 0.00D+00
 Coeff-Com:  0.100D+01
 Coeff:      0.100D+01
 Gap=     0.962 Goal=   None    Shift=    0.000
 RMSDP=8.71D-06 MaxDP=6.32D-05              OVMax= 1.32D-04

 Cycle   2  Pass 1  IDiag  1:
 E= -226.397811103313     Delta-E=       -0.000000209127 Rises=F Damp=F
 DIIS: error= 1.81D-05 at cycle   2 NSaved=   2.
 NSaved= 2 IEnMin= 2 EnMin= -226.397811103313     IErMin= 2 ErrMin= 1.81D-05
 ErrMax= 1.81D-05  0.00D+00 EMaxC= 1.00D-01 BMatC= 1.15D-08 BMatP= 1.34D-07
 IDIUse=1 WtCom= 1.00D+00 WtEn= 0.00D+00
 Coeff-Com: -0.215D+00 0.122D+01
 Coeff:     -0.215D+00 0.122D+01
 Gap=     0.560 Goal=   None    Shift=    0.000
 RMSDP=4.51D-06 MaxDP=2.65D-05 DE=-2.09D-07 OVMax= 8.06D-05

 Cycle   3  Pass 1  IDiag  1:
 E= -226.397811141583     Delta-E=       -0.000000038270 Rises=F Damp=F
 DIIS: error= 6.95D-06 at cycle   3 NSaved=   3.
 NSaved= 3 IEnMin= 3 EnMin= -226.397811141583     IErMin= 3 ErrMin= 6.95D-06
 ErrMax= 6.95D-06  0.00D+00 EMaxC= 1.00D-01 BMatC= 1.62D-09 BMatP= 1.15D-08
 IDIUse=1 WtCom= 1.00D+00 WtEn= 0.00D+00
 Coeff-Com:  0.189D-01-0.396D+00 0.138D+01
 Coeff:      0.189D-01-0.396D+00 0.138D+01
 Gap=     0.560 Goal=   None    Shift=    0.000
 RMSDP=2.36D-06 MaxDP=1.33D-05 DE=-3.83D-08 OVMax= 3.53D-05

 Cycle   4  Pass 1  IDiag  1:
 E= -226.397811148266     Delta-E=       -0.000000006683 Rises=F Damp=F
 DIIS: error= 2.52D-06 at cycle   4 NSaved=   4.
 NSaved= 4 IEnMin= 4 EnMin= -226.397811148266     IErMin= 4 ErrMin= 2.52D-06
 ErrMax= 2.52D-06  0.00D+00 EMaxC= 1.00D-01 BMatC= 2.60D-10 BMatP= 1.62D-09
 IDIUse=1 WtCom= 1.00D+00 WtEn= 0.00D+00
 Coeff-Com:  0.293D-01-0.202D+00 0.191D+00 0.982D+00
 Coeff:      0.293D-01-0.202D+00 0.191D+00 0.982D+00
 Gap=     0.560 Goal=   None    Shift=    0.000
 RMSDP=7.60D-07 MaxDP=5.30D-06 DE=-6.68D-09 OVMax= 1.25D-05

 Cycle   5  Pass 1  IDiag  1:
 E= -226.397811149032     Delta-E=       -0.000000000766 Rises=F Damp=F
 DIIS: error= 1.34D-06 at cycle   5 NSaved=   5.
 NSaved= 5 IEnMin= 5 EnMin= -226.397811149032     IErMin= 5 ErrMin= 1.34D-06
 ErrMax= 1.34D-06  0.00D+00 EMaxC= 1.00D-01 BMatC= 3.91D-11 BMatP= 2.60D-10
 IDIUse=1 WtCom= 1.00D+00 WtEn= 0.00D+00
 Coeff-Com: -0.667D-02 0.935D-01-0.262D+00-0.124D+00 0.130D+01
 Coeff:     -0.667D-02 0.935D-01-0.262D+00-0.124D+00 0.130D+01
 Gap=     0.560 Goal=   None    Shift=    0.000
 RMSDP=3.87D-07 MaxDP=3.33D-06 DE=-7.66D-10 OVMax= 8.92D-06

 Cycle   6  Pass 1  IDiag  1:
 E= -226.397811149186     Delta-E=       -0.000000000155 Rises=F Damp=F
 DIIS: error= 4.66D-07 at cycle   6 NSaved=   6.
 NSaved= 6 IEnMin= 6 EnMin= -226.397811149186     IErMin= 6 ErrMin= 4.66D-07
 ErrMax= 4.66D-07  0.00D+00 EMaxC= 1.00D-01 BMatC= 6.79D-12 BMatP= 3.91D-11
 IDIUse=1 WtCom= 1.00D+00 WtEn= 0.00D+00
 Coeff-Com: -0.389D-02 0.387D-01-0.717D-01-0.121D+00 0.264D+00 0.894D+00
 Coeff:     -0.389D-02 0.387D-01-0.717D-01-0.121D+00 0.264D+00 0.894D+00
 Gap=     0.560 Goal=   None    Shift=    0.000
 RMSDP=1.08D-07 MaxDP=9.09D-07 DE=-1.55D-10 OVMax= 2.35D-06

 Cycle   7  Pass 1  IDiag  1:
 E= -226.397811149204     Delta-E=       -0.000000000018 Rises=F Damp=F
 DIIS: error= 2.56D-07 at cycle   7 NSaved=   7.
 NSaved= 7 IEnMin= 7 EnMin= -226.397811149204     IErMin= 7 ErrMin= 2.56D-07
 ErrMax= 2.56D-07  0.00D+00 EMaxC= 1.00D-01 BMatC= 1.39D-12 BMatP= 6.79D-12
 IDIUse=1 WtCom= 1.00D+00 WtEn= 0.00D+00
 Coeff-Com:  0.176D-02-0.266D-01 0.791D-01 0.241D-01-0.398D+00 0.601D-01
 Coeff-Com:  0.126D+01
 Coeff:      0.176D-02-0.266D-01 0.791D-01 0.241D-01-0.398D+00 0.601D-01
 Coeff:      0.126D+01
 Gap=     0.560 Goal=   None    Shift=    0.000
 RMSDP=8.78D-08 MaxDP=7.06D-07 DE=-1.77D-11 OVMax= 2.19D-06

 Cycle   8  Pass 1  IDiag  1:
 E= -226.397811149210     Delta-E=       -0.000000000006 Rises=F Damp=F
 DIIS: error= 6.30D-08 at cycle   8 NSaved=   8.
 NSaved= 8 IEnMin= 8 EnMin= -226.397811149210     IErMin= 8 ErrMin= 6.30D-08
 ErrMax= 6.30D-08  0.00D+00 EMaxC= 1.00D-01 BMatC= 7.16D-14 BMatP= 1.39D-12
 IDIUse=1 WtCom= 1.00D+00 WtEn= 0.00D+00
 Coeff-Com: -0.496D-03 0.925D-02-0.309D-01-0.194D-02 0.161D+00-0.106D+00
 Coeff-Com: -0.533D+00 0.150D+01
 Coeff:     -0.496D-03 0.925D-02-0.309D-01-0.194D-02 0.161D+00-0.106D+00
 Coeff:     -0.533D+00 0.150D+01
 Gap=     0.560 Goal=   None    Shift=    0.000
 RMSDP=1.97D-08 MaxDP=1.42D-07 DE=-6.03D-12 OVMax= 4.56D-07

 Cycle   9  Pass 1  IDiag  1:
 E= -226.397811149210     Delta-E=        0.000000000000 Rises=F Damp=F
 DIIS: error= 1.69D-08 at cycle   9 NSaved=   9.
 NSaved= 9 IEnMin= 9 EnMin= -226.397811149210     IErMin= 9 ErrMin= 1.69D-08
 ErrMax= 1.69D-08  0.00D+00 EMaxC= 1.00D-01 BMatC= 4.87D-15 BMatP= 7.16D-14
 IDIUse=1 WtCom= 1.00D+00 WtEn= 0.00D+00
 Coeff-Com:  0.359D-04-0.103D-02 0.398D-02-0.994D-03-0.206D-01 0.236D-01
 Coeff-Com:  0.800D-01-0.434D+00 0.135D+01
 Coeff:      0.359D-04-0.103D-02 0.398D-02-0.994D-03-0.206D-01 0.236D-01
 Coeff:      0.800D-01-0.434D+00 0.135D+01
 Gap=     0.560 Goal=   None    Shift=    0.000
 RMSDP=4.55D-09 MaxDP=3.31D-08 DE=-3.41D-13 OVMax= 7.15D-08

 SCF Done:  E(RHF) =  -226.397811149     A.U. after    9 cycles
            NFock=  9  Conv=0.46D-08     -V/T= 2.0035
 KE= 2.256054085895D+02 PE=-7.713509106894D+02 EE= 2.003080920903D+02
 Leave Link  502 at Fri Apr 12 18:01:11 2019, MaxMem=   134217728 cpu:         0.3
 (Enter /cm/shared/c3ddb/gaussian/09.d01/g09/l701.exe)
 Compute integral first derivatives.
 ... and contract with generalized density number  0.
 Leave Link  701 at Fri Apr 12 18:01:11 2019, MaxMem=   134217728 cpu:         0.2
 (Enter /cm/shared/c3ddb/gaussian/09.d01/g09/l702.exe)
 L702 exits ... SP integral derivatives will be done elsewhere.
 Leave Link  702 at Fri Apr 12 18:01:11 2019, MaxMem=   134217728 cpu:         0.1
 (Enter /cm/shared/c3ddb/gaussian/09.d01/g09/l703.exe)
 Compute integral first derivatives, UseDBF=F ICtDFT=           0.
 Integral derivatives from FoFJK, PRISM(SPDF).
 Calling FoFJK, ICntrl=      2127 FMM=F ISym2X=0 I1Cent= 0 IOpClX= 0 NMat=1 NMatS=1 NMatT=0.
 FoFJK:  IHMeth= 1 ICntrl=    2127 DoSepK=F KAlg= 0 I1Cent=   0 FoldK=F
[...]
         NFxFlg=           0 DoJE=F BraDBF=F KetDBF=F FulRan=T
         wScrn=  0.000000 ICntrl=     600 IOpCl=  0 I1Cent=           0 NGrid=           0
         NMat0=    1 NMatS0=    990 NMatT0=    0 NMatD0=    1 NMtDS0=    0 NMtDT0=    0
 Symmetry not used in FoFCou.

 Cycle   1  Pass 1  IDiag  1:
 E= -226.397811159430    
 DIIS: error= 2.51D-06 at cycle   1 NSaved=   1.
 NSaved= 1 IEnMin= 1 EnMin= -226.397811159430     IErMin= 1 ErrMin= 2.51D-06
 ErrMax= 2.51D-06  0.00D+00 EMaxC= 1.00D-01 BMatC= 8.81D-10 BMatP= 8.81D-10
 IDIUse=1 WtCom= 1.00D+00 WtEn= 0.00D+00
 Coeff-Com:  0.100D+01
 Coeff:      0.100D+01
 Gap=     0.963 Goal=   None    Shift=    0.000
 RMSDP=7.24D-07 MaxDP=5.00D-06              OVMax= 4.91D-06

 Cycle   2  Pass 1  IDiag  1:
 E= -226.397811160379     Delta-E=       -0.000000000949 Rises=F Damp=F
 DIIS: error= 6.93D-07 at cycle   2 NSaved=   2.
 NSaved= 2 IEnMin= 2 EnMin= -226.397811160379     IErMin= 2 ErrMin= 6.93D-07
 ErrMax= 6.93D-07  0.00D+00 EMaxC= 1.00D-01 BMatC= 5.55D-11 BMatP= 8.81D-10
 IDIUse=1 WtCom= 1.00D+00 WtEn= 0.00D+00
 Coeff-Com: -0.923D-01 0.109D+01
 Coeff:     -0.923D-01 0.109D+01
 Gap=     0.560 Goal=   None    Shift=    0.000
 RMSDP=2.44D-07 MaxDP=1.46D-06 DE=-9.49D-10 OVMax= 2.96D-06

 Cycle   3  Pass 1  IDiag  1:
 E= -226.397811160463     Delta-E=       -0.000000000084 Rises=F Damp=F
 DIIS: error= 5.70D-07 at cycle   3 NSaved=   3.
 NSaved= 3 IEnMin= 3 EnMin= -226.397811160463     IErMin= 3 ErrMin= 5.70D-07
 ErrMax= 5.70D-07  0.00D+00 EMaxC= 1.00D-01 BMatC= 1.74D-11 BMatP= 5.55D-11
 IDIUse=1 WtCom= 1.00D+00 WtEn= 0.00D+00
 Coeff-Com: -0.854D-01 0.370D+00 0.716D+00
 Coeff:     -0.854D-01 0.370D+00 0.716D+00
 Gap=     0.560 Goal=   None    Shift=    0.000
 RMSDP=9.20D-08 MaxDP=6.15D-07 DE=-8.36D-11 OVMax= 1.09D-06

 Cycle   4  Pass 1  IDiag  1:
 E= -226.397811160481     Delta-E=       -0.000000000018 Rises=F Damp=F
 DIIS: error= 1.33D-07 at cycle   4 NSaved=   4.
 NSaved= 4 IEnMin= 4 EnMin= -226.397811160481     IErMin= 4 ErrMin= 1.33D-07
 ErrMax= 1.33D-07  0.00D+00 EMaxC= 1.00D-01 BMatC= 1.18D-12 BMatP= 1.74D-11
 IDIUse=1 WtCom= 1.00D+00 WtEn= 0.00D+00
 Coeff-Com:  0.177D-01-0.166D+00-0.170D-01 0.117D+01
 Coeff:      0.177D-01-0.166D+00-0.170D-01 0.117D+01
 Gap=     0.560 Goal=   None    Shift=    0.000
 RMSDP=5.25D-08 MaxDP=3.25D-07 DE=-1.79D-11 OVMax= 6.72D-07

 Cycle   5  Pass 1  IDiag  1:
 E= -226.397811160484     Delta-E=       -0.000000000003 Rises=F Damp=F
 DIIS: error= 4.45D-08 at cycle   5 NSaved=   5.
 NSaved= 5 IEnMin= 5 EnMin= -226.397811160484     IErMin= 5 ErrMin= 4.45D-08
 ErrMax= 4.45D-08  0.00D+00 EMaxC= 1.00D-01 BMatC= 8.40D-14 BMatP= 1.18D-12
 IDIUse=1 WtCom= 1.00D+00 WtEn= 0.00D+00
 Coeff-Com:  0.106D-02 0.172D-01-0.300D-01-0.322D+00 0.133D+01
 Coeff:      0.106D-02 0.172D-01-0.300D-01-0.322D+00 0.133D+01
 Gap=     0.560 Goal=   None    Shift=    0.000
 RMSDP=1.83D-08 MaxDP=9.17D-08 DE=-2.67D-12 OVMax= 2.75D-07

 Cycle   6  Pass 1  IDiag  1:
 E= -226.397811160484     Delta-E=        0.000000000000 Rises=F Damp=F
 DIIS: error= 1.26D-08 at cycle   6 NSaved=   6.
 NSaved= 6 IEnMin= 5 EnMin= -226.397811160484     IErMin= 6 ErrMin= 1.26D-08
 ErrMax= 1.26D-08  0.00D+00 EMaxC= 1.00D-01 BMatC= 1.11D-14 BMatP= 8.40D-14
 IDIUse=1 WtCom= 1.00D+00 WtEn= 0.00D+00
 Coeff-Com: -0.209D-02 0.238D-01 0.615D-03-0.205D+00 0.234D+00 0.948D+00
 Coeff:     -0.209D-02 0.238D-01 0.615D-03-0.205D+00 0.234D+00 0.948D+00
 Gap=     0.560 Goal=   None    Shift=    0.000
 RMSDP=4.83D-09 MaxDP=2.60D-08 DE= 1.14D-13 OVMax= 7.57D-08

 SCF Done:  E(RHF) =  -226.397811160     A.U. after    6 cycles
            NFock=  6  Conv=0.48D-08     -V/T= 2.0035
 KE= 2.256053975017D+02 PE=-7.713525482954D+02 EE= 2.003089885156D+02
 Leave Link  502 at Fri Apr 12 18:01:16 2019, MaxMem=   134217728 cpu:         0.2
 (Enter /cm/shared/c3ddb/gaussian/09.d01/g09/l701.exe)
 Compute integral first derivatives.
 ... and contract with generalized density number  0.
 Leave Link  701 at Fri Apr 12 18:01:16 2019, MaxMem=   134217728 cpu:         0.2
 (Enter /cm/shared/c3ddb/gaussian/09.d01/g09/l702.exe)
 L702 exits ... SP integral derivatives will be done elsewhere.
 Leave Link  702 at Fri Apr 12 18:01:16 2019, MaxMem=   134217728 cpu:         0.1
 (Enter /cm/shared/c3ddb/gaussian/09.d01/g09/l703.exe)
 Compute integral first derivatives, UseDBF=F ICtDFT=           0.
 Integral derivatives from FoFJK, PRISM(SPDF).
 Calling FoFJK, ICntrl=      2127 FMM=F ISym2X=0 I1Cent= 0 IOpClX= 0 NMat=1 NMatS=1 NMatT=0.
 FoFJK:  IHMeth= 1 ICntrl=    2127 DoSepK=F KAlg= 0 I1Cent=   0 FoldK=F
 IRaf=         0 NMat=   1 IRICut=       1 DoRegI=T DoRafI=F ISym2E= 0.
 FoFCou: FMM=F IPFlag=           0 FMFlag=      100000 FMFlg1=         800
         NFxFlg=           0 DoJE=F BraDBF=F KetDBF=F FulRan=T
         wScrn=  0.000000 ICntrl=    2127 IOpCl=  0 I1Cent=           0 NGrid=           0
         NMat0=    1 NMatS0=      1 NMatT0=    0 NMatD0=    1 NMtDS0=    0 NMtDT0=    0
 Symmetry not used in FoFCou.
 Leave Link  703 at Fri Apr 12 18:01:16 2019, MaxMem=   134217728 cpu:         0.2
 (Enter /cm/shared/c3ddb/gaussian/09.d01/g09/l716.exe)
 Dipole        = 3.06288414D-01-1.36725827D-01 7.39016177D-01
 -------------------------------------------------------------------
 Center     Atomic                   Forces (Hartrees/Bohr)
 Number     Number              X              Y              Z
 -------------------------------------------------------------------
      1        6          -0.000006726    0.000082614   -0.001191793
      2        6          -0.000000307   -0.000005500    0.000077707
      3        1           0.000000324    0.000000463    0.000000009
      4        1          -0.000000134    0.000000539    0.000001036
      5        1          -0.000000492   -0.000000560    0.000001682
      6        8          -0.000138897   -0.000028238    0.001462813
      7        8           0.001363980   -0.000665409    0.000088054
      8        1          -0.001217747    0.000616091   -0.000439508
 -------------------------------------------------------------------
 Cartesian Forces:  Max     0.001462813 RMS     0.000575899
 Leave Link  716 at Fri Apr 12 18:01:17 2019, MaxMem=   134217728 cpu:         0.1
 (Enter /cm/shared/c3ddb/gaussian/09.d01/g09/l103.exe)

 GradGradGradGradGradGradGradGradGradGradGradGradGradGradGradGradGradGrad
 Berny optimization.
 Using GEDIIS/GDIIS optimizer.
 FormGI is forming the generalized inverse of G from B-inverse, IUseBI=4.
 Internal  Forces:  Max     0.002590992 RMS     0.000553079
 Search for a local minimum.
 Step number   6 out of a maximum of   32
 All quantities printed in internal units (Hartrees-Bohrs-Radians)
 RMS Force = .10719D-05 SwitMx=.10000D-02 MixMth= 2
 Mixed Optimization -- En-DIIS/RFO-DIIS
 Swapping is turned off.
 Update second derivatives using D2CorX and points    1    2    3    4    5
                                                      6
 DE= -7.63D-10 DEPred=-9.05D-10 R= 8.43D-01
 Trust test= 8.43D-01 RLast= 1.50D-04 DXMaxT set to 3.00D-01
 ITU=  0  0  0  1  0  0
     Eigenvalues ---    0.02909   0.03436   0.04623   0.12260   0.15999
     Eigenvalues ---    0.16001   0.19743   0.21266   0.31036   0.37042
     Eigenvalues ---    0.37220   0.37525   0.42893   0.52923   0.54691
     Eigenvalues ---    0.658691000.000001000.000001000.000001000.00000
     Eigenvalues --- 1000.000001000.00000
 En-DIIS/RFO-DIIS IScMMF=        0 using points:     6    5    4    3    2
 RFO step:  Lambda=-2.12871245D-07.
 NNeg= 0 NP= 5 Switch=  2.50D-03 Rises=F DC=  8.77D-06 SmlDif=  1.00D-05
 RMS Error=  0.1773772025D-04 NUsed= 5 EDIIS=F
 DidBck=F Rises=F RFO-DIIS coefs:    0.81850    0.25939   -0.05721   -0.02018   -0.00049
 Iteration  1 RMS(Cart)=  0.00001254 RMS(Int)=  0.00000001
 Iteration  2 RMS(Cart)=  0.00000000 RMS(Int)=  0.00000001
 Iteration  1 RMS(Cart)=  0.00000001 RMS(Int)=  0.00000001
 ITry= 1 IFail=0 DXMaxC= 3.04D-05 DCOld= 1.00D+10 DXMaxT= 3.00D-01 DXLimC= 3.00D+00 Rises=F
 Variable       Old X    -DE/DX   Delta X   Delta X   Delta X     New X
                                 (Linear)    (Quad)   (Total)
    R1        2.47213   0.00000   0.00000   0.00000   0.00000   2.47213
    R2        2.02288   0.00000   0.00000   0.00000   0.00000   2.02288
    R3        2.63986   0.00000   0.00000   0.00001   0.00000   2.63987
    R4        2.02219   0.00000   0.00000   0.00000   0.00000   2.02219
    R5        2.01732   0.00000   0.00000   0.00000   0.00000   2.01732
    R6        2.75466   0.00000   0.00001  -0.00001   0.00000   2.75466
    R7        1.83868   0.00000   0.00000   0.00000   0.00000   1.83868
    A1        2.17270   0.00000   0.00000   0.00000   0.00000   2.17270
    A2        2.22569   0.00000   0.00000   0.00000  -0.00001   2.22568
    A3        1.88480   0.00000   0.00000   0.00000   0.00000   1.88480
    A4        2.08945   0.00000   0.00000   0.00000   0.00000   2.08945
    A5        2.12522   0.00000   0.00000   0.00000   0.00000   2.12522
    A6        2.06837   0.00000   0.00000   0.00000   0.00000   2.06838
    A7        1.92241   0.00000   0.00000   0.00000   0.00000   1.92241
    A8        1.75627   0.00000   0.00000   0.00001   0.00001   1.75628
    D1        0.00500  -0.00002   0.00001   0.00001   0.00002   0.00502
    D2       -3.11861  -0.00003  -0.00002   0.00000  -0.00002  -3.11864
    D3       -3.13761   0.00003   0.00001   0.00001   0.00001  -3.13759
    D4        0.02197   0.00002  -0.00003  -0.00001  -0.00004   0.02193
    D5       -0.00001  -0.00010   0.00000   0.00000   0.00000  -0.00001
    D6        3.14071  -0.00006   0.00000  -0.00001  -0.00001   3.14070
    D7        1.91986   0.00259   0.00000   0.00000   0.00000   1.91986
         Item               Value     Threshold  Converged?
 Maximum Force            0.000002     0.000015     YES
 RMS     Force            0.000001     0.000010     YES
 Maximum Displacement     0.000030     0.000060     YES
 RMS     Displacement     0.000013     0.000040     YES
 Predicted change in Energy=-9.523778D-11
 Optimization completed.
    -- Stationary point found.
                           ----------------------------
                           !   Optimized Parameters   !
                           ! (Angstroms and Degrees)  !
 --------------------------                            --------------------------
 ! Name  Definition              Value          Derivative Info.                !
 --------------------------------------------------------------------------------
 ! R1    R(1,2)                  1.3082         -DE/DX =    0.0                 !
 ! R2    R(1,3)                  1.0705         -DE/DX =    0.0                 !
 ! R3    R(1,6)                  1.397          -DE/DX =    0.0                 !
 ! R4    R(2,4)                  1.0701         -DE/DX =    0.0                 !
 ! R5    R(2,5)                  1.0675         -DE/DX =    0.0                 !
 ! R6    R(6,7)                  1.4577         -DE/DX =    0.0                 !
 ! R7    R(7,8)                  0.973          -DE/DX =    0.0                 !
 ! A1    A(2,1,3)              124.4864         -DE/DX =    0.0                 !
 ! A2    A(2,1,6)              127.5224         -DE/DX =    0.0                 !
 ! A3    A(3,1,6)              107.9912         -DE/DX =    0.0                 !
 ! A4    A(1,2,4)              119.7168         -DE/DX =    0.0                 !
 ! A5    A(1,2,5)              121.7664         -DE/DX =    0.0                 !
 ! A6    A(4,2,5)              118.509          -DE/DX =    0.0                 !
 ! A7    A(1,6,7)              110.1462         -DE/DX =    0.0                 !
 ! A8    A(6,7,8)              100.6266         -DE/DX =    0.0                 !
 ! D1    D(3,1,2,4)              0.2863         -DE/DX =    0.0                 !
 ! D2    D(3,1,2,5)           -178.6834         -DE/DX =    0.0                 !
 ! D3    D(6,1,2,4)           -179.7716         -DE/DX =    0.0                 !
 ! D4    D(6,1,2,5)              1.2586         -DE/DX =    0.0                 !
 ! D5    D(2,1,6,7)             -0.0004         -DE/DX =   -0.0001              !
 ! D6    D(3,1,6,7)            179.9494         -DE/DX =   -0.0001              !
 ! D7    D(1,6,7,8)            110.0            -DE/DX =    0.0026              !
 --------------------------------------------------------------------------------
 Lowest energy point so far.  Saving SCF results.
 GradGradGradGradGradGradGradGradGradGradGradGradGradGradGradGradGradGrad

 Largest change from initial coordinates is atom    8       0.006 Angstoms.
 Leave Link  103 at Fri Apr 12 18:01:17 2019, MaxMem=   134217728 cpu:         0.0
 (Enter /cm/shared/c3ddb/gaussian/09.d01/g09/l202.exe)
                          Input orientation:                          
 ---------------------------------------------------------------------
 Center     Atomic      Atomic             Coordinates (Angstroms)
 Number     Number       Type             X           Y           Z
 ---------------------------------------------------------------------
      1          6           0        0.738860    0.571491    0.029538
      2          6           0        1.430365   -0.535993   -0.052160
      3          1           0        1.167437    1.550336    0.093370
      4          1           0        2.499669   -0.494843   -0.053290
      5          1           0        0.957062   -1.489282   -0.134779
      6          8           0       -0.651366    0.707059    0.048933
      7          8           0       -1.284805   -0.602989   -0.037274
      8          1           0       -1.650894   -0.684705    0.860503
 ---------------------------------------------------------------------
                    Distance matrix (angstroms):
                    1          2          3          4          5
     1  C    0.000000
     2  C    1.308195   0.000000
     3  H    1.070463   2.107861   0.000000
     4  H    2.060189   1.070097   2.445221   0.000000
     5  H    2.078797   1.067521   3.055419   1.837168   0.000000
     6  O    1.396955   2.426726   2.005278   3.374024   2.728498
     7  O    2.340745   2.716037   3.266094   3.786053   2.412673
     8  H    2.824793   3.217021   3.677892   4.254203   2.905058
                    6          7          8
     6  O    0.000000
     7  O    1.457704   0.000000
     8  H    1.895971   0.972987   0.000000
 Symmetry turned off by external request.
 Stoichiometry    C2H4O2
 Framework group  C1[X(C2H4O2)]
 Deg. of freedom    18
 Full point group                 C1      NOp   1
 Rotational constants (GHZ):     18.4891224      6.6141456      4.9439778
 Leave Link  202 at Fri Apr 12 18:01:17 2019, MaxMem=   134217728 cpu:         0.0
 (Enter /cm/shared/c3ddb/gaussian/09.d01/g09/l601.exe)
 Copying SCF densities to generalized density rwf, IOpCl= 0 IROHF=0.

 **********************************************************************

            Population analysis using the SCF density.

 **********************************************************************

 Alpha  occ. eigenvalues --  -20.54217 -20.53137 -11.24523 -11.16121  -1.48405
 Alpha  occ. eigenvalues --   -1.24182  -1.03229  -0.79664  -0.70710  -0.68760
 Alpha  occ. eigenvalues --   -0.64659  -0.58053  -0.54276  -0.51551  -0.48815
 Alpha  occ. eigenvalues --   -0.36154
 Alpha virt. eigenvalues --    0.19864   0.22494   0.28733   0.29846   0.33673
 Alpha virt. eigenvalues --    0.37247   0.49660   0.58830   0.88897   0.96679
 Alpha virt. eigenvalues --    1.01676   1.07170   1.10342   1.12426   1.22506
 Alpha virt. eigenvalues --    1.33205   1.36968   1.56772   1.60512   1.74614
 Alpha virt. eigenvalues --    1.82086   1.91445   1.94290   1.99868   2.02389
 Alpha virt. eigenvalues --    2.33549   3.06961   3.54641
          Condensed to atoms (all electrons):
               1          2          3          4          5          6
     1  C    4.909431   0.480313   0.386465  -0.044418  -0.055200   0.219704
     2  C    0.480313   5.354108  -0.044710   0.380161   0.391808  -0.050653
     3  H    0.386465  -0.044710   0.427374  -0.000149   0.001758  -0.032030
     4  H   -0.044418   0.380161  -0.000149   0.456941  -0.015061   0.001240
     5  H   -0.055200   0.391808   0.001758  -0.015061   0.421401  -0.004910
     6  O    0.219704  -0.050653  -0.032030   0.001240  -0.004910   8.174818
     7  O   -0.043354  -0.000010   0.001621   0.000217   0.011491   0.124929
     8  H    0.001060   0.000379  -0.000142  -0.000023  -0.000497  -0.025590
               7          8
     1  C   -0.043354   0.001060
     2  C   -0.000010   0.000379
     3  H    0.001621  -0.000142
     4  H    0.000217  -0.000023
     5  H    0.011491  -0.000497
     6  O    0.124929  -0.025590
     7  O    8.036523   0.243087
     8  H    0.243087   0.364432
 Mulliken charges:
               1
     1  C    0.146000
     2  C   -0.511396
     3  H    0.259813
     4  H    0.221092
     5  H    0.249210
     6  O   -0.407508
     7  O   -0.374505
     8  H    0.417294
 Sum of Mulliken charges =   0.00000
 Mulliken charges with hydrogens summed into heavy atoms:
               1
     1  C    0.405813
     2  C   -0.041094
     6  O   -0.407508
     7  O    0.042789
 Electronic spatial extent (au):  <R**2>=            264.6899
 Charge=              0.0000 electrons
 Dipole moment (field-independent basis, Debye):
    X=              0.7785    Y=             -0.3475    Z=              1.8784  Tot=              2.0628
 Quadrupole moment (field-independent basis, Debye-Ang):
   XX=            -20.9357   YY=            -22.1390   ZZ=            -24.0170
   XY=              2.5191   XZ=             -3.2937   YZ=             -1.1471
 Traceless Quadrupole moment (field-independent basis, Debye-Ang):
   XX=              1.4282   YY=              0.2249   ZZ=             -1.6531
   XY=              2.5191   XZ=             -3.2937   YZ=             -1.1471
 Octapole moment (field-independent basis, Debye-Ang**2):
  XXX=            -10.6556  YYY=              0.2900  ZZZ=              0.7682  XYY=             -1.0290
  XXY=             -2.0255  XXZ=              5.2302  XZZ=             -8.6375  YZZ=             -0.7711
  YYZ=              0.6345  XYZ=              2.7454
 Hexadecapole moment (field-independent basis, Debye-Ang**3):
 XXXX=           -186.4658 YYYY=            -77.5543 ZZZZ=            -22.6578 XXXY=              5.0708
 XXXZ=             -6.8956 YYYX=              5.8578 YYYZ=             -1.4871 ZZZX=              0.4725
 ZZZY=             -2.6546 XXYY=            -45.9959 XXZZ=            -38.2939 YYZZ=            -18.3240
 XXYZ=             -3.9298 YYXZ=             -0.7044 ZZXY=              2.7298
 N-N= 1.190403511177D+02 E-N=-7.713525478825D+02  KE= 2.256053975017D+02
 No NMR shielding tensors so no spin-rotation constants.
 Leave Link  601 at Fri Apr 12 18:01:17 2019, MaxMem=   134217728 cpu:         0.2
 (Enter /cm/shared/c3ddb/gaussian/09.d01/g09/l9999.exe)
 1\1\GINC-NODE029\FOpt\RHF\3-21G\C2H4O2\MATTSJ\12-Apr-2019\0\\#p hf 3-2
 1g scf=tight NoSymmetry guess=read opt=(tight,modredundant)\\Geometry 
 optimization at the 2D-PES\\0,1\C,0.7388600058,0.5714910061,0.02953801
 03\C,1.4303646163,-0.5359932762,-0.0521601944\H,1.1674374869,1.5503359
 136,0.0933701678\H,2.499669187,-0.4948427431,-0.0532903934\H,0.9570618
 952,-1.4892816766,-0.134779391\O,-0.6513662585,0.7070586282,0.04893271
 89\O,-1.2848050956,-0.6029891315,-0.0372742402\H,-1.6508938372,-0.6847
 047204,0.860503322\\Version=AS64L-G09RevD.01\HF=-226.3978112\RMSD=4.82
 6e-09\RMSF=5.759e-04\Dipole=0.3062884,-0.1367258,0.7390162\Quadrupole=
 1.0618238,0.1672287,-1.2290525,1.8728874,-2.448786,-0.8528687\PG=C01 [
 X(C2H4O2)]\\@


 IF YOU GIVE EVERYONE A PIECE OF YOUR MIND,
 PRETTY SOON IT WILL BE ALL GONE.
 Job cpu time:       0 days  0 hours  0 minutes 17.1 seconds.
 File lengths (MBytes):  RWF=      5 Int=      0 D2E=      0 Chk=      1 Scr=      1
 Normal termination of Gaussian 09 at Fri Apr 12 18:01:17 2019.
