 Entering Gaussian System, Link 0=/cm/shared/c3ddb/gaussian/09.d01/g09/g09
 Initial command:
 /cm/shared/c3ddb/gaussian/09.d01/g09/l1.exe "/scratch/users/mattsj/g09/S02-7952157/Gau-44921.inp" -scrdir="/scratch/users/mattsj/g09/S02-7952157/"
 Entering Link 1 = /cm/shared/c3ddb/gaussian/09.d01/g09/l1.exe PID=     44922.
  
 Copyright (c) 1988,1990,1992,1993,1995,1998,2003,2009,2013,
            Gaussian, Inc.  All Rights Reserved.
  
 This is part of the Gaussian(R) 09 program.  It is based on
 the Gaussian(R) 03 system (copyright 2003, Gaussian, Inc.),
 the Gaussian(R) 98 system (copyright 1998, Gaussian, Inc.),
 the Gaussian(R) 94 system (copyright 1995, Gaussian, Inc.),
 the Gaussian 92(TM) system (copyright 1992, Gaussian, Inc.),
 the Gaussian 90(TM) system (copyright 1990, Gaussian, Inc.),
 the Gaussian 88(TM) system (copyright 1988, Gaussian, Inc.),
 the Gaussian 86(TM) system (copyright 1986, Carnegie Mellon
 University), and the Gaussian 82(TM) system (copyright 1983,
 Carnegie Mellon University). Gaussian is a federally registered
 trademark of Gaussian, Inc.
  
 This software contains proprietary and confidential information,
 including trade secrets, belonging to Gaussian, Inc.
  
 This software is provided under written license and may be
 used, copied, transmitted, or stored only in accord with that
 written license.
  
 The following legend is applicable only to US Government
 contracts under FAR:
  
                    RESTRICTED RIGHTS LEGEND
  
 Use, reproduction and disclosure by the US Government is
 subject to restrictions as set forth in subparagraphs (a)
 and (c) of the Commercial Computer Software - Restricted
 Rights clause in FAR 52.227-19.
  
 Gaussian, Inc.
 340 Quinnipiac St., Bldg. 40, Wallingford CT 06492
  
  
 ---------------------------------------------------------------
 Warning -- This program may not be used in any manner that
 competes with the business of Gaussian, Inc. or will provide
 assistance to any competitor of Gaussian, Inc.  The licensee
 of this program is prohibited from giving any competitor of
 Gaussian, Inc. access to this program.  By using this program,
 the user acknowledges that Gaussian, Inc. is engaged in the
 business of creating and licensing software in the field of
 computational chemistry and represents and warrants to the
 licensee that it is not a competitor of Gaussian, Inc. and that
 it will not use this program in any manner prohibited above.
 ---------------------------------------------------------------
  

 Cite this work as:
 Gaussian 09, Revision D.01,
 M. J. Frisch, G. W. Trucks, H. B. Schlegel, G. E. Scuseria, 
 M. A. Robb, J. R. Cheeseman, G. Scalmani, V. Barone, B. Mennucci, 
 G. A. Petersson, H. Nakatsuji, M. Caricato, X. Li, H. P. Hratchian, 
 A. F. Izmaylov, J. Bloino, G. Zheng, J. L. Sonnenberg, M. Hada, 
 M. Ehara, K. Toyota, R. Fukuda, J. Hasegawa, M. Ishida, T. Nakajima, 
 Y. Honda, O. Kitao, H. Nakai, T. Vreven, J. A. Montgomery, Jr., 
 J. E. Peralta, F. Ogliaro, M. Bearpark, J. J. Heyd, E. Brothers, 
 K. N. Kudin, V. N. Staroverov, T. Keith, R. Kobayashi, J. Normand, 
 K. Raghavachari, A. Rendell, J. C. Burant, S. S. Iyengar, J. Tomasi, 
 M. Cossi, N. Rega, J. M. Millam, M. Klene, J. E. Knox, J. B. Cross, 
 V. Bakken, C. Adamo, J. Jaramillo, R. Gomperts, R. E. Stratmann, 
 O. Yazyev, A. J. Austin, R. Cammi, C. Pomelli, J. W. Ochterski, 
 R. L. Martin, K. Morokuma, V. G. Zakrzewski, G. A. Voth, 
 P. Salvador, J. J. Dannenberg, S. Dapprich, A. D. Daniels, 
 O. Farkas, J. B. Foresman, J. V. Ortiz, J. Cioslowski, 
 and D. J. Fox, Gaussian, Inc., Wallingford CT, 2013.
 
 ******************************************
 Gaussian 09:  AS64L-G09RevD.01 24-Apr-2013
                12-Apr-2019 
 ******************************************
 %nproc=1
 Will use up to    1 processors via shared memory.
 %mem=1GB
 %chk=TMP_CALCS/scangeom_S02_090_060.chk
 --------------------------------------------------------------------
 #p hf 3-21g scf=tight NoSymmetry guess=read opt=(tight,modredundant)
 --------------------------------------------------------------------
 1/7=10,18=120,19=15,38=1/1,3;
 2/9=110,12=2,15=1,17=6,18=5,40=1/2;
 3/5=5,11=9,16=1,25=1,30=1,71=1,116=-2/1,2,3;
 4/5=1/1;
 5/5=2,32=2,38=6/2;
 6/7=2,8=2,9=2,10=2,28=1/1;
 7/30=1/1,2,3,16;
 1/7=10,18=20,19=15/3(2);
 2/9=110,15=1/2;
 99//99;
 2/9=110,15=1/2;
 3/5=5,11=9,16=1,25=1,30=1,71=1/1,2,3;
 4/5=5,16=3,69=1/1;
 5/5=2,32=2,38=5/2;
 7/30=1/1,2,3,16;
 1/7=10,18=20,19=15/3(-5);
 2/9=110,15=1/2;
 6/7=2,8=2,9=2,10=2,19=2,28=1/1;
 99/9=1/99;
 Leave Link    1 at Fri Apr 12 16:36:16 2019, MaxMem=   134217728 cpu:         0.1
 (Enter /cm/shared/c3ddb/gaussian/09.d01/g09/l101.exe)
 -----------------------------------
 Geometry optimization at the 2D-PES
 -----------------------------------
 Symbolic Z-matrix:
 Charge =  0 Multiplicity = 1
 C                     0.74733   0.61893   0.04179 
 C                     1.38822  -0.52018  -0.00733 
 H                     1.22672   1.57671   0.08987 
 H                     2.45896  -0.54997  -0.00641 
 H                     0.85353  -1.44684  -0.05723 
 O                    -0.66399   0.67948  -0.00884 
 O                    -1.20239   0.61022   1.36203 
 H                    -0.81178   1.38896   1.80086 
 
 The following ModRedundant input section has been read:
 D       2       1       6       7 F                                           
 D       1       6       7       8 F                                           
 
 NAtoms=      8 NQM=        8 NQMF=       0 NMMI=      0 NMMIF=      0
                NMic=       0 NMicF=      0.
                    Isotopes and Nuclear Properties:
 (Nuclear quadrupole moments (NQMom) in fm**2, nuclear magnetic moments (NMagM)
  in nuclear magnetons)

  Atom         1           2           3           4           5           6           7           8
 IAtWgt=          12          12           1           1           1          16          16           1
 AtmWgt=  12.0000000  12.0000000   1.0078250   1.0078250   1.0078250  15.9949146  15.9949146   1.0078250
 NucSpn=           0           0           1           1           1           0           0           1
 AtZEff=   0.0000000   0.0000000   0.0000000   0.0000000   0.0000000   0.0000000   0.0000000   0.0000000
 NQMom=    0.0000000   0.0000000   0.0000000   0.0000000   0.0000000   0.0000000   0.0000000   0.0000000
 NMagM=    0.0000000   0.0000000   2.7928460   2.7928460   2.7928460   0.0000000   0.0000000   2.7928460
 AtZNuc=   6.0000000   6.0000000   1.0000000   1.0000000   1.0000000   8.0000000   8.0000000   1.0000000
 Leave Link  101 at Fri Apr 12 16:36:16 2019, MaxMem=   134217728 cpu:         0.2
 (Enter /cm/shared/c3ddb/gaussian/09.d01/g09/l103.exe)

 GradGradGradGradGradGradGradGradGradGradGradGradGradGradGradGradGradGrad
 Berny optimization.
 Initialization pass.
                           ----------------------------
                           !    Initial Parameters    !
                           ! (Angstroms and Degrees)  !
 --------------------------                            --------------------------
 ! Name  Definition              Value          Derivative Info.                !
 --------------------------------------------------------------------------------
 ! R1    R(1,2)                  1.3079         estimate D2E/DX2                !
 ! R2    R(1,3)                  1.0721         estimate D2E/DX2                !
 ! R3    R(1,6)                  1.4135         estimate D2E/DX2                !
 ! R4    R(2,4)                  1.0712         estimate D2E/DX2                !
 ! R5    R(2,5)                  1.071          estimate D2E/DX2                !
 ! R6    R(6,7)                  1.4744         estimate D2E/DX2                !
 ! R7    R(7,8)                  0.9755         estimate D2E/DX2                !
 ! A1    A(2,1,3)              124.0988         estimate D2E/DX2                !
 ! A2    A(2,1,6)              121.6806         estimate D2E/DX2                !
 ! A3    A(3,1,6)              114.1909         estimate D2E/DX2                !
 ! A4    A(1,2,4)              120.9299         estimate D2E/DX2                !
 ! A5    A(1,2,5)              120.7078         estimate D2E/DX2                !
 ! A6    A(4,2,5)              118.3606         estimate D2E/DX2                !
 ! A7    A(1,6,7)              109.2248         estimate D2E/DX2                !
 ! A8    A(6,7,8)              103.5642         estimate D2E/DX2                !
 ! D1    D(3,1,2,4)             -0.3004         estimate D2E/DX2                !
 ! D2    D(3,1,2,5)           -179.8193         estimate D2E/DX2                !
 ! D3    D(6,1,2,4)            177.6028         estimate D2E/DX2                !
 ! D4    D(6,1,2,5)             -1.9162         estimate D2E/DX2                !
 ! D5    D(2,1,6,7)             90.0            Frozen                          !
 ! D6    D(3,1,6,7)            -91.9035         estimate D2E/DX2                !
 ! D7    D(1,6,7,8)             60.0001         Frozen                          !
 --------------------------------------------------------------------------------
 Trust Radius=3.00D-01 FncErr=1.00D-07 GrdErr=1.00D-07
 Number of steps in this run=     32 maximum allowed number of steps=    100.
 GradGradGradGradGradGradGradGradGradGradGradGradGradGradGradGradGradGrad

 Leave Link  103 at Fri Apr 12 16:36:16 2019, MaxMem=   134217728 cpu:         0.0
 (Enter /cm/shared/c3ddb/gaussian/09.d01/g09/l202.exe)
                          Input orientation:                          
 ---------------------------------------------------------------------
 Center     Atomic      Atomic             Coordinates (Angstroms)
 Number     Number       Type             X           Y           Z
 ---------------------------------------------------------------------
      1          6           0        0.747334    0.618934    0.041787
      2          6           0        1.388215   -0.520181   -0.007329
      3          1           0        1.226716    1.576708    0.089870
      4          1           0        2.458963   -0.549971   -0.006412
      5          1           0        0.853528   -1.446836   -0.057229
      6          8           0       -0.663990    0.679478   -0.008843
      7          8           0       -1.202394    0.610220    1.362031
      8          1           0       -0.811781    1.388963    1.800857
 ---------------------------------------------------------------------
                    Distance matrix (angstroms):
                    1          2          3          4          5
     1  C    0.000000
     2  C    1.307946   0.000000
     3  H    1.072124   2.105344   0.000000
     4  H    2.073243   1.071163   2.459770   0.000000
     5  H    2.070866   1.071013   3.050037   1.839666   0.000000
     6  O    1.413529   2.377126   2.095122   3.356246   2.612741
     7  O    2.354689   3.140734   2.907416   4.077280   3.236139
     8  H    2.473482   3.428462   2.667995   4.209923   3.777234
                    6          7          8
     6  O    0.000000
     7  O    1.474439   0.000000
     8  H    1.949417   0.975493   0.000000
 Symmetry turned off by external request.
 Stoichiometry    C2H4O2
 Framework group  C1[X(C2H4O2)]
 Deg. of freedom    18
 Full point group                 C1      NOp   1
 Rotational constants (GHZ):     23.2659597      5.1701492      4.8474036
 Leave Link  202 at Fri Apr 12 16:36:17 2019, MaxMem=   134217728 cpu:         0.0
 (Enter /cm/shared/c3ddb/gaussian/09.d01/g09/l301.exe)
 Standard basis: 3-21G (6D, 7F)
 Ernie: Thresh=  0.10000D-02 Tol=  0.10000D-05 Strict=F.
    44 basis functions,    72 primitive gaussians,    44 cartesian basis functions
    16 alpha electrons       16 beta electrons
       nuclear repulsion energy       117.0935864514 Hartrees.
 IExCor=    0 DFT=F Ex=HF Corr=None ExCW=0 ScaHFX=  1.000000
 ScaDFX=  1.000000  1.000000  1.000000  1.000000 ScalE2=  1.000000  1.000000
 IRadAn=      0 IRanWt=     -1 IRanGd=            0 ICorTp=0 IEmpDi=  4
 NAtoms=    8 NActive=    8 NUniq=    8 SFac= 1.00D+00 NAtFMM=   60 NAOKFM=F Big=F
 Integral buffers will be    131072 words long.
 Raffenetti 1 integral format.
 Two-electron integral symmetry is turned off.
 Leave Link  301 at Fri Apr 12 16:36:17 2019, MaxMem=   134217728 cpu:         0.1
 (Enter /cm/shared/c3ddb/gaussian/09.d01/g09/l302.exe)
 NPDir=0 NMtPBC=     1 NCelOv=     1 NCel=       1 NClECP=     1 NCelD=      1
         NCelK=      1 NCelE2=     1 NClLst=     1 CellRange=     0.0.
 One-electron integrals computed using PRISM.
 NBasis=    44 RedAO= T EigKep=  1.18D-02  NBF=    44
 NBsUse=    44 1.00D-06 EigRej= -1.00D+00 NBFU=    44
 Leave Link  302 at Fri Apr 12 16:36:17 2019, MaxMem=   134217728 cpu:         0.2
 (Enter /cm/shared/c3ddb/gaussian/09.d01/g09/l303.exe)
 DipDrv:  MaxL=1.
 Leave Link  303 at Fri Apr 12 16:36:17 2019, MaxMem=   134217728 cpu:         0.1
 (Enter /cm/shared/c3ddb/gaussian/09.d01/g09/l401.exe)
 Initial guess from the checkpoint file:  "TMP_CALCS/scangeom_S02_090_060.chk"
 B after Tr=    -0.003933   -0.000294    0.002902
         Rot=    0.999991    0.004006    0.000847   -0.001425 Ang=   0.50 deg.
 Guess basis will be translated and rotated to current coordinates.
 JPrj=2 DoOrth=T DoCkMO=T.
 Leave Link  401 at Fri Apr 12 16:36:18 2019, MaxMem=   134217728 cpu:         0.3
 (Enter /cm/shared/c3ddb/gaussian/09.d01/g09/l502.exe)
 Closed shell SCF:
 Using DIIS extrapolation, IDIIS=  1040.
 Two-electron integral symmetry not used.
 Keep R1 ints in memory in canonical form, NReq=1327373.
 IVT=       24902 IEndB=       24902 NGot=   134217728 MDV=   133702282
 LenX=   133702282 LenY=   133699905
 Requested convergence on RMS density matrix=1.00D-08 within 128 cycles.
 Requested convergence on MAX density matrix=1.00D-06.
 Requested convergence on             energy=1.00D-06.
 No special actions if energy rises.
 FoFCou: FMM=F IPFlag=           0 FMFlag=           0 FMFlg1=           0
         NFxFlg=           0 DoJE=F BraDBF=F KetDBF=F FulRan=T
         wScrn=  0.000000 ICntrl=     600 IOpCl=  0 I1Cent=           0 NGrid=           0
         NMat0=    1 NMatS0=    990 NMatT0=    0 NMatD0=    1 NMtDS0=    0 NMtDT0=    0
 Symmetry not used in FoFCou.

 Cycle   1  Pass 1  IDiag  1:
 E= -226.382350279046    
 DIIS: error= 6.28D-03 at cycle   1 NSaved=   1.
 NSaved= 1 IEnMin= 1 EnMin= -226.382350279046     IErMin= 1 ErrMin= 6.28D-03
 ErrMax= 6.28D-03  0.00D+00 EMaxC= 1.00D-01 BMatC= 1.94D-03 BMatP= 1.94D-03
 IDIUse=3 WtCom= 9.37D-01 WtEn= 6.28D-02
 Coeff-Com:  0.100D+01
 Coeff-En:   0.100D+01
 Coeff:      0.100D+01
 Gap=     0.536 Goal=   None    Shift=    0.000
 GapD=    0.536 DampG=2.000 DampE=1.000 DampFc=2.0000 IDamp=-1.
 RMSDP=1.12D-03 MaxDP=1.33D-02              OVMax= 1.08D-02

 Cycle   2  Pass 1  IDiag  1:
 E= -226.385322407013     Delta-E=       -0.002972127967 Rises=F Damp=F
 DIIS: error= 2.83D-03 at cycle   2 NSaved=   2.
 NSaved= 2 IEnMin= 2 EnMin= -226.385322407013     IErMin= 2 ErrMin= 2.83D-03
 ErrMax= 2.83D-03  0.00D+00 EMaxC= 1.00D-01 BMatC= 1.84D-04 BMatP= 1.94D-03
 IDIUse=3 WtCom= 9.72D-01 WtEn= 2.83D-02
 Coeff-Com: -0.326D+00 0.133D+01
 Coeff-En:   0.000D+00 0.100D+01
 Coeff:     -0.317D+00 0.132D+01
 Gap=     0.536 Goal=   None    Shift=    0.000
 RMSDP=5.82D-04 MaxDP=5.32D-03 DE=-2.97D-03 OVMax= 8.19D-03

 Cycle   3  Pass 1  IDiag  1:
 E= -226.385813180775     Delta-E=       -0.000490773762 Rises=F Damp=F
 DIIS: error= 9.46D-04 at cycle   3 NSaved=   3.
 NSaved= 3 IEnMin= 3 EnMin= -226.385813180775     IErMin= 3 ErrMin= 9.46D-04
 ErrMax= 9.46D-04  0.00D+00 EMaxC= 1.00D-01 BMatC= 1.66D-05 BMatP= 1.84D-04
 IDIUse=3 WtCom= 9.91D-01 WtEn= 9.46D-03
 Coeff-Com:  0.868D-01-0.504D+00 0.142D+01
 Coeff-En:   0.000D+00 0.000D+00 0.100D+01
 Coeff:      0.860D-01-0.499D+00 0.141D+01
 Gap=     0.536 Goal=   None    Shift=    0.000
 RMSDP=2.51D-04 MaxDP=3.22D-03 DE=-4.91D-04 OVMax= 4.07D-03

 Cycle   4  Pass 1  IDiag  1:
 E= -226.385870851733     Delta-E=       -0.000057670958 Rises=F Damp=F
 DIIS: error= 2.29D-04 at cycle   4 NSaved=   4.
 NSaved= 4 IEnMin= 4 EnMin= -226.385870851733     IErMin= 4 ErrMin= 2.29D-04
 ErrMax= 2.29D-04  0.00D+00 EMaxC= 1.00D-01 BMatC= 3.12D-06 BMatP= 1.66D-05
 IDIUse=3 WtCom= 9.98D-01 WtEn= 2.29D-03
 Coeff-Com:  0.723D-01-0.339D+00 0.413D+00 0.854D+00
 Coeff-En:   0.000D+00 0.000D+00 0.000D+00 0.100D+01
 Coeff:      0.721D-01-0.338D+00 0.412D+00 0.854D+00
 Gap=     0.536 Goal=   None    Shift=    0.000
 RMSDP=7.82D-05 MaxDP=1.06D-03 DE=-5.77D-05 OVMax= 1.22D-03

 Cycle   5  Pass 1  IDiag  1:
 E= -226.385876525862     Delta-E=       -0.000005674129 Rises=F Damp=F
 DIIS: error= 5.34D-05 at cycle   5 NSaved=   5.
 NSaved= 5 IEnMin= 5 EnMin= -226.385876525862     IErMin= 5 ErrMin= 5.34D-05
 ErrMax= 5.34D-05  0.00D+00 EMaxC= 1.00D-01 BMatC= 1.65D-07 BMatP= 3.12D-06
 IDIUse=1 WtCom= 1.00D+00 WtEn= 0.00D+00
 Coeff-Com: -0.487D-02 0.355D-01-0.144D+00 0.876D-01 0.103D+01
 Coeff:     -0.487D-02 0.355D-01-0.144D+00 0.876D-01 0.103D+01
 Gap=     0.536 Goal=   None    Shift=    0.000
 RMSDP=2.07D-05 MaxDP=2.59D-04 DE=-5.67D-06 OVMax= 3.41D-04

 Cycle   6  Pass 1  IDiag  1:
 E= -226.385876825607     Delta-E=       -0.000000299745 Rises=F Damp=F
 DIIS: error= 1.03D-05 at cycle   6 NSaved=   6.
 NSaved= 6 IEnMin= 6 EnMin= -226.385876825607     IErMin= 6 ErrMin= 1.03D-05
 ErrMax= 1.03D-05  0.00D+00 EMaxC= 1.00D-01 BMatC= 6.03D-09 BMatP= 1.65D-07
 IDIUse=1 WtCom= 1.00D+00 WtEn= 0.00D+00
 Coeff-Com: -0.221D-02 0.128D-01-0.347D-01 0.935D-03 0.186D+00 0.837D+00
 Coeff:     -0.221D-02 0.128D-01-0.347D-01 0.935D-03 0.186D+00 0.837D+00
 Gap=     0.536 Goal=   None    Shift=    0.000
 RMSDP=2.47D-06 MaxDP=1.31D-05 DE=-3.00D-07 OVMax= 3.96D-05

 Cycle   7  Pass 1  IDiag  1:
 E= -226.385876836596     Delta-E=       -0.000000010989 Rises=F Damp=F
 DIIS: error= 6.80D-06 at cycle   7 NSaved=   7.
 NSaved= 7 IEnMin= 7 EnMin= -226.385876836596     IErMin= 7 ErrMin= 6.80D-06
 ErrMax= 6.80D-06  0.00D+00 EMaxC= 1.00D-01 BMatC= 1.26D-09 BMatP= 6.03D-09
 IDIUse=1 WtCom= 1.00D+00 WtEn= 0.00D+00
 Coeff-Com:  0.104D-02-0.750D-02 0.296D-01-0.172D-01-0.213D+00-0.625D-01
 Coeff-Com:  0.127D+01
 Coeff:      0.104D-02-0.750D-02 0.296D-01-0.172D-01-0.213D+00-0.625D-01
 Coeff:      0.127D+01
 Gap=     0.536 Goal=   None    Shift=    0.000
 RMSDP=2.07D-06 MaxDP=1.41D-05 DE=-1.10D-08 OVMax= 4.06D-05

 Cycle   8  Pass 1  IDiag  1:
 E= -226.385876841644     Delta-E=       -0.000000005047 Rises=F Damp=F
 DIIS: error= 3.84D-06 at cycle   8 NSaved=   8.
 NSaved= 8 IEnMin= 8 EnMin= -226.385876841644     IErMin= 8 ErrMin= 3.84D-06
 ErrMax= 3.84D-06  0.00D+00 EMaxC= 1.00D-01 BMatC= 1.96D-10 BMatP= 1.26D-09
 IDIUse=1 WtCom= 1.00D+00 WtEn= 0.00D+00
 Coeff-Com:  0.131D-03-0.455D-03-0.316D-03 0.262D-02 0.130D-01-0.104D+00
 Coeff-Com: -0.274D+00 0.136D+01
 Coeff:      0.131D-03-0.455D-03-0.316D-03 0.262D-02 0.130D-01-0.104D+00
 Coeff:     -0.274D+00 0.136D+01
 Gap=     0.536 Goal=   None    Shift=    0.000
 RMSDP=1.04D-06 MaxDP=7.86D-06 DE=-5.05D-09 OVMax= 2.37D-05

 Cycle   9  Pass 1  IDiag  1:
 E= -226.385876842695     Delta-E=       -0.000000001051 Rises=F Damp=F
 DIIS: error= 1.65D-06 at cycle   9 NSaved=   9.
 NSaved= 9 IEnMin= 9 EnMin= -226.385876842695     IErMin= 9 ErrMin= 1.65D-06
 ErrMax= 1.65D-06  0.00D+00 EMaxC= 1.00D-01 BMatC= 3.06D-11 BMatP= 1.96D-10
 IDIUse=1 WtCom= 1.00D+00 WtEn= 0.00D+00
 Coeff-Com: -0.174D-03 0.123D-02-0.466D-02 0.260D-02 0.330D-01 0.216D-01
 Coeff-Com: -0.216D+00-0.834D-01 0.125D+01
 Coeff:     -0.174D-03 0.123D-02-0.466D-02 0.260D-02 0.330D-01 0.216D-01
 Coeff:     -0.216D+00-0.834D-01 0.125D+01
 Gap=     0.536 Goal=   None    Shift=    0.000
 RMSDP=4.70D-07 MaxDP=3.42D-06 DE=-1.05D-09 OVMax= 1.15D-05

 Cycle  10  Pass 1  IDiag  1:
 E= -226.385876842861     Delta-E=       -0.000000000166 Rises=F Damp=F
 DIIS: error= 5.22D-07 at cycle  10 NSaved=  10.
 NSaved=10 IEnMin=10 EnMin= -226.385876842861     IErMin=10 ErrMin= 5.22D-07
 ErrMax= 5.22D-07  0.00D+00 EMaxC= 1.00D-01 BMatC= 3.78D-12 BMatP= 3.06D-11
 IDIUse=1 WtCom= 1.00D+00 WtEn= 0.00D+00
 Coeff-Com:  0.388D-04-0.336D-03 0.154D-02-0.108D-02-0.128D-01 0.120D-01
 Coeff-Com:  0.890D-01-0.140D+00-0.341D+00 0.139D+01
 Coeff:      0.388D-04-0.336D-03 0.154D-02-0.108D-02-0.128D-01 0.120D-01
 Coeff:      0.890D-01-0.140D+00-0.341D+00 0.139D+01
 Gap=     0.536 Goal=   None    Shift=    0.000
 RMSDP=1.54D-07 MaxDP=8.09D-07 DE=-1.66D-10 OVMax= 3.82D-06

 Cycle  11  Pass 1  IDiag  1:
 E= -226.385876842879     Delta-E=       -0.000000000018 Rises=F Damp=F
 DIIS: error= 1.22D-07 at cycle  11 NSaved=  11.
 NSaved=11 IEnMin=11 EnMin= -226.385876842879     IErMin=11 ErrMin= 1.22D-07
 ErrMax= 1.22D-07  0.00D+00 EMaxC= 1.00D-01 BMatC= 4.60D-13 BMatP= 3.78D-12
 IDIUse=1 WtCom= 1.00D+00 WtEn= 0.00D+00
 Coeff-Com:  0.252D-04-0.179D-03 0.671D-03-0.335D-03-0.503D-02-0.130D-02
 Coeff-Com:  0.278D-01 0.696D-02-0.154D+00 0.454D-01 0.108D+01
 Coeff:      0.252D-04-0.179D-03 0.671D-03-0.335D-03-0.503D-02-0.130D-02
 Coeff:      0.278D-01 0.696D-02-0.154D+00 0.454D-01 0.108D+01
 Gap=     0.536 Goal=   None    Shift=    0.000
 RMSDP=3.64D-08 MaxDP=2.39D-07 DE=-1.77D-11 OVMax= 8.81D-07

 Cycle  12  Pass 1  IDiag  1:
 E= -226.385876842880     Delta-E=       -0.000000000001 Rises=F Damp=F
 DIIS: error= 3.52D-08 at cycle  12 NSaved=  12.
 NSaved=12 IEnMin=12 EnMin= -226.385876842880     IErMin=12 ErrMin= 3.52D-08
 ErrMax= 3.52D-08  0.00D+00 EMaxC= 1.00D-01 BMatC= 6.01D-14 BMatP= 4.60D-13
 IDIUse=1 WtCom= 1.00D+00 WtEn= 0.00D+00
 Coeff-Com: -0.104D-04 0.813D-04-0.348D-03 0.245D-03 0.271D-02-0.207D-02
 Coeff-Com: -0.189D-01 0.270D-01 0.693D-01-0.257D+00-0.181D-01 0.120D+01
 Coeff:     -0.104D-04 0.813D-04-0.348D-03 0.245D-03 0.271D-02-0.207D-02
 Coeff:     -0.189D-01 0.270D-01 0.693D-01-0.257D+00-0.181D-01 0.120D+01
 Gap=     0.536 Goal=   None    Shift=    0.000
 RMSDP=1.43D-08 MaxDP=1.16D-07 DE=-1.08D-12 OVMax= 3.27D-07

 Cycle  13  Pass 1  IDiag  1:
 E= -226.385876842881     Delta-E=       -0.000000000001 Rises=F Damp=F
 DIIS: error= 1.00D-08 at cycle  13 NSaved=  13.
 NSaved=13 IEnMin=13 EnMin= -226.385876842881     IErMin=13 ErrMin= 1.00D-08
 ErrMax= 1.00D-08  0.00D+00 EMaxC= 1.00D-01 BMatC= 2.98D-15 BMatP= 6.01D-14
 IDIUse=1 WtCom= 1.00D+00 WtEn= 0.00D+00
 Coeff-Com:  0.234D-05-0.194D-04 0.896D-04-0.672D-04-0.726D-03 0.700D-03
 Coeff-Com:  0.568D-02-0.112D-01-0.159D-01 0.912D-01-0.576D-01-0.430D+00
 Coeff-Com:  0.142D+01
 Coeff:      0.234D-05-0.194D-04 0.896D-04-0.672D-04-0.726D-03 0.700D-03
 Coeff:      0.568D-02-0.112D-01-0.159D-01 0.912D-01-0.576D-01-0.430D+00
 Coeff:      0.142D+01
 Gap=     0.536 Goal=   None    Shift=    0.000
 RMSDP=3.69D-09 MaxDP=3.17D-08 DE=-5.68D-13 OVMax= 7.82D-08

 SCF Done:  E(RHF) =  -226.385876843     A.U. after   13 cycles
            NFock= 13  Conv=0.37D-08     -V/T= 2.0035
 KE= 2.256074508409D+02 PE=-7.675325655376D+02 EE= 1.984456514025D+02
 Leave Link  502 at Fri Apr 12 16:36:18 2019, MaxMem=   134217728 cpu:         0.3
 (Enter /cm/shared/c3ddb/gaussian/09.d01/g09/l601.exe)
 Copying SCF densities to generalized density rwf, IOpCl= 0 IROHF=0.

 **********************************************************************

            Population analysis using the SCF density.

 **********************************************************************

 Alpha  occ. eigenvalues --  -20.52690 -20.51932 -11.24287 -11.18723  -1.46359
 Alpha  occ. eigenvalues --   -1.23085  -1.04059  -0.80756  -0.69586  -0.68899
 Alpha  occ. eigenvalues --   -0.61459  -0.58648  -0.57271  -0.49250  -0.45407
 Alpha  occ. eigenvalues --   -0.39279
 Alpha virt. eigenvalues --    0.14282   0.26586   0.27821   0.30001   0.31797
 Alpha virt. eigenvalues --    0.35979   0.49463   0.55890   0.87868   0.96527
 Alpha virt. eigenvalues --    0.98492   1.06140   1.09371   1.10533   1.25373
 Alpha virt. eigenvalues --    1.31284   1.36144   1.56631   1.59727   1.75695
 Alpha virt. eigenvalues --    1.81495   1.84482   1.99593   2.04651   2.09800
 Alpha virt. eigenvalues --    2.19481   3.09344   3.46640
          Condensed to atoms (all electrons):
               1          2          3          4          5          6
     1  C    4.943879   0.471712   0.378875  -0.039270  -0.048915   0.245865
     2  C    0.471712   5.340621  -0.068123   0.368848   0.386307  -0.060098
     3  H    0.378875  -0.068123   0.494489   0.001456   0.002250  -0.040610
     4  H   -0.039270   0.368848   0.001456   0.452337  -0.014727   0.001471
     5  H   -0.048915   0.386307   0.002250  -0.014727   0.417171  -0.001153
     6  O    0.245865  -0.060098  -0.040610   0.001471  -0.001153   8.140780
     7  O   -0.036887  -0.000218   0.000602  -0.000027   0.000373   0.124484
     8  H   -0.001569   0.000256   0.001415   0.000007   0.000038  -0.024970
               7          8
     1  C   -0.036887  -0.001569
     2  C   -0.000218   0.000256
     3  H    0.000602   0.001415
     4  H   -0.000027   0.000007
     5  H    0.000373   0.000038
     6  O    0.124484  -0.024970
     7  O    8.052065   0.235165
     8  H    0.235165   0.393541
 Mulliken charges:
               1
     1  C    0.086310
     2  C   -0.439305
     3  H    0.229646
     4  H    0.229905
     5  H    0.258655
     6  O   -0.385770
     7  O   -0.375558
     8  H    0.396117
 Sum of Mulliken charges =   0.00000
 Mulliken charges with hydrogens summed into heavy atoms:
               1
     1  C    0.315956
     2  C    0.049255
     6  O   -0.385770
     7  O    0.020559
 Electronic spatial extent (au):  <R**2>=            315.0201
 Charge=              0.0000 electrons
 Dipole moment (field-independent basis, Debye):
    X=              2.8935    Y=              1.1207    Z=              1.0914  Tot=              3.2893
 Quadrupole moment (field-independent basis, Debye-Ang):
   XX=            -24.4590   YY=            -18.9004   ZZ=            -22.7152
   XY=              0.1074   XZ=              0.2837   YZ=              3.9060
 Traceless Quadrupole moment (field-independent basis, Debye-Ang):
   XX=             -2.4341   YY=              3.1245   ZZ=             -0.6903
   XY=              0.1074   XZ=              0.2837   YZ=              3.9060
 Octapole moment (field-independent basis, Debye-Ang**2):
  XXX=             -2.5122  YYY=            -18.4265  ZZZ=            -18.4774  XYY=             -3.5601
  XXY=             -8.9079  XXZ=            -10.2490  XZZ=             -6.6331  YZZ=             -0.4618
  YYZ=             -1.9792  XYZ=             -2.1229
 Hexadecapole moment (field-independent basis, Debye-Ang**3):
 XXXX=           -182.4881 YYYY=            -77.9188 ZZZZ=            -73.7706 XXXY=             25.6604
 XXXZ=             31.8613 YYYX=             24.8478 YYYZ=             -7.6994 ZZZX=             23.7591
 ZZZY=             -3.6131 XXYY=            -44.5528 XXZZ=            -51.7705 YYZZ=            -19.1602
 XXYZ=             -4.8771 YYXZ=              4.7463 ZZXY=              3.9977
 N-N= 1.170935864514D+02 E-N=-7.675325656331D+02  KE= 2.256074508409D+02
 No NMR shielding tensors so no spin-rotation constants.
 Leave Link  601 at Fri Apr 12 16:36:18 2019, MaxMem=   134217728 cpu:         0.2
 (Enter /cm/shared/c3ddb/gaussian/09.d01/g09/l701.exe)
 Compute integral first derivatives.
 ... and contract with generalized density number  0.
 Leave Link  701 at Fri Apr 12 16:36:18 2019, MaxMem=   134217728 cpu:         0.2
 (Enter /cm/shared/c3ddb/gaussian/09.d01/g09/l702.exe)
 L702 exits ... SP integral derivatives will be done elsewhere.
 Leave Link  702 at Fri Apr 12 16:36:19 2019, MaxMem=   134217728 cpu:         0.1
 (Enter /cm/shared/c3ddb/gaussian/09.d01/g09/l703.exe)
 Compute integral first derivatives, UseDBF=F ICtDFT=           0.
 Integral derivatives from FoFJK, PRISM(SPDF).
 Calling FoFJK, ICntrl=      2127 FMM=F ISym2X=0 I1Cent= 0 IOpClX= 0 NMat=1 NMatS=1 NMatT=0.
 FoFJK:  IHMeth= 1 ICntrl=    2127 DoSepK=F KAlg= 0 I1Cent=   0 FoldK=F
 IRaf=         0 NMat=   1 IRICut=       1 DoRegI=T DoRafI=F ISym2E= 0.
 FoFCou: FMM=F IPFlag=           0 FMFlag=      100000 FMFlg1=         800
         NFxFlg=           0 DoJE=F BraDBF=F KetDBF=F FulRan=T
         wScrn=  0.000000 ICntrl=    2127 IOpCl=  0 I1Cent=           0 NGrid=           0
         NMat0=    1 NMatS0=      1 NMatT0=    0 NMatD0=    1 NMtDS0=    0 NMtDT0=    0
 Symmetry not used in FoFCou.
 Leave Link  703 at Fri Apr 12 16:36:19 2019, MaxMem=   134217728 cpu:         0.2
 (Enter /cm/shared/c3ddb/gaussian/09.d01/g09/l716.exe)
 Dipole        = 1.13839107D+00 4.40911424D-01 4.29385584D-01
 -------------------------------------------------------------------
 Center     Atomic                   Forces (Hartrees/Bohr)
 Number     Number              X              Y              Z
 -------------------------------------------------------------------
      1        6          -0.000090294   -0.003047226    0.001483721
      2        6          -0.000201652    0.000297060   -0.000729167
      3        1           0.000049174   -0.000106606    0.000141625
      4        1          -0.000023019    0.000008959   -0.000093085
      5        1           0.000013369    0.000033887    0.000162079
      6        8          -0.001295923    0.004189116    0.000696272
      7        8           0.004433806   -0.003960489    0.000538986
      8        1          -0.002885461    0.002585300   -0.002200431
 -------------------------------------------------------------------
 Cartesian Forces:  Max     0.004433806 RMS     0.001908594
 Leave Link  716 at Fri Apr 12 16:36:19 2019, MaxMem=   134217728 cpu:         0.1
 (Enter /cm/shared/c3ddb/gaussian/09.d01/g09/l103.exe)

 GradGradGradGradGradGradGradGradGradGradGradGradGradGradGradGradGradGrad
 Berny optimization.
 FormGI is forming the generalized inverse of G from B-inverse, IUseBI=4.
 Internal  Forces:  Max     0.007723722 RMS     0.001829552
 Search for a local minimum.
 Step number   1 out of a maximum of   32
 All quantities printed in internal units (Hartrees-Bohrs-Radians)
 RMS Force = .79856D-03 SwitMx=.10000D-02 MixMth= 2
 Mixed Optimization -- En-DIIS/RFO-DIIS
 Second derivative matrix not updated -- first step.
 ITU=  0
     Eigenvalues ---    0.02498   0.03306   0.03307   0.15995   0.16000
     Eigenvalues ---    0.16000   0.16000   0.22001   0.25000   0.35214
     Eigenvalues ---    0.36963   0.37084   0.37102   0.43450   0.52270
     Eigenvalues ---    0.650341000.000001000.000001000.000001000.00000
     Eigenvalues --- 1000.000001000.00000
 RFO step:  Lambda=-5.68843725D-05 EMin= 2.49840094D-02
 Linear search not attempted -- first point.
 Iteration  1 RMS(Cart)=  0.00886715 RMS(Int)=  0.00004227
 Iteration  2 RMS(Cart)=  0.00004222 RMS(Int)=  0.00000016
 Iteration  3 RMS(Cart)=  0.00000000 RMS(Int)=  0.00000016
 Iteration  1 RMS(Cart)=  0.00000002 RMS(Int)=  0.00000001
 ITry= 1 IFail=0 DXMaxC= 2.37D-02 DCOld= 1.00D+10 DXMaxT= 3.00D-01 DXLimC= 3.00D+00 Rises=F
 Variable       Old X    -DE/DX   Delta X   Delta X   Delta X     New X
                                 (Linear)    (Quad)   (Total)
    R1        2.47166  -0.00037   0.00000  -0.00058  -0.00058   2.47108
    R2        2.02602  -0.00007   0.00000  -0.00018  -0.00018   2.02584
    R3        2.67118  -0.00010   0.00000  -0.00022  -0.00022   2.67096
    R4        2.02420  -0.00002   0.00000  -0.00006  -0.00006   2.02414
    R5        2.02392  -0.00004   0.00000  -0.00012  -0.00012   2.02380
    R6        2.78629  -0.00205   0.00000  -0.00581  -0.00581   2.78048
    R7        1.84342  -0.00008   0.00000  -0.00016  -0.00016   1.84326
    A1        2.16593  -0.00002   0.00000  -0.00018  -0.00018   2.16576
    A2        2.12373  -0.00017   0.00000  -0.00077  -0.00077   2.12296
    A3        1.99301   0.00018   0.00000   0.00096   0.00096   1.99397
    A4        2.11063   0.00000   0.00000   0.00000   0.00000   2.11063
    A5        2.10675  -0.00001   0.00000  -0.00005  -0.00005   2.10670
    A6        2.06578   0.00001   0.00000   0.00006   0.00005   2.06584
    A7        1.90633  -0.00200   0.00000  -0.00798  -0.00798   1.89835
    A8        1.80754  -0.00208   0.00000  -0.01297  -0.01297   1.79457
    D1       -0.00524   0.00013   0.00000  -0.00267  -0.00267  -0.00792
    D2       -3.13844   0.00008   0.00000  -0.00443  -0.00443   3.14031
    D3        3.09975  -0.00030   0.00000  -0.00222  -0.00222   3.09753
    D4       -0.03344  -0.00035   0.00000  -0.00398  -0.00398  -0.03742
    D5        1.57080   0.00089   0.00000   0.00000   0.00000   1.57080
    D6       -1.60402   0.00050   0.00000   0.00039   0.00039  -1.60362
    D7        1.04720   0.00772   0.00000   0.00000   0.00000   1.04720
         Item               Value     Threshold  Converged?
 Maximum Force            0.002076     0.000015     NO 
 RMS     Force            0.000799     0.000010     NO 
 Maximum Displacement     0.023704     0.000060     NO 
 RMS     Displacement     0.008864     0.000040     NO 
 Predicted change in Energy=-2.845122D-05
 Lowest energy point so far.  Saving SCF results.
 GradGradGradGradGradGradGradGradGradGradGradGradGradGradGradGradGradGrad

 Leave Link  103 at Fri Apr 12 16:36:19 2019, MaxMem=   134217728 cpu:         0.0
 (Enter /cm/shared/c3ddb/gaussian/09.d01/g09/l202.exe)
                          Input orientation:                          
 ---------------------------------------------------------------------
 Center     Atomic      Atomic             Coordinates (Angstroms)
 Number     Number       Type             X           Y           Z
 ---------------------------------------------------------------------
      1          6           0        0.744124    0.620015    0.044333
      2          6           0        1.385305   -0.518534   -0.005870
      3          1           0        1.223231    1.577616    0.096315
      4          1           0        2.456030   -0.547932   -0.004349
      5          1           0        0.850964   -1.445321   -0.055677
      6          8           0       -0.667010    0.679194   -0.009798
      7          8           0       -1.196817    0.605566    1.360896
      8          1           0       -0.799237    1.386710    1.788881
 ---------------------------------------------------------------------
                    Distance matrix (angstroms):
                    1          2          3          4          5
     1  C    0.000000
     2  C    1.307641   0.000000
     3  H    1.072028   2.104888   0.000000
     4  H    2.072943   1.071129   2.459244   0.000000
     5  H    2.070515   1.070951   3.049563   1.839614   0.000000
     6  O    1.413411   2.376250   2.095574   3.355480   2.611497
     7  O    2.345378   3.130336   2.898392   4.066662   3.225868
     8  H    2.452189   3.409298   2.644163   4.189902   3.761112
                    6          7          8
     6  O    0.000000
     7  O    1.471366   0.000000
     8  H    1.937345   0.975411   0.000000
 Symmetry turned off by external request.
 Stoichiometry    C2H4O2
 Framework group  C1[X(C2H4O2)]
 Deg. of freedom    18
 Full point group                 C1      NOp   1
 Rotational constants (GHZ):     23.2028044      5.2000153      4.8734200
 Leave Link  202 at Fri Apr 12 16:36:19 2019, MaxMem=   134217728 cpu:         0.0
 (Enter /cm/shared/c3ddb/gaussian/09.d01/g09/l301.exe)
 Standard basis: 3-21G (6D, 7F)
 Ernie: Thresh=  0.10000D-02 Tol=  0.10000D-05 Strict=F.
    44 basis functions,    72 primitive gaussians,    44 cartesian basis functions
    16 alpha electrons       16 beta electrons
       nuclear repulsion energy       117.2667825974 Hartrees.
 IExCor=    0 DFT=F Ex=HF Corr=None ExCW=0 ScaHFX=  1.000000
 ScaDFX=  1.000000  1.000000  1.000000  1.000000 ScalE2=  1.000000  1.000000
 IRadAn=      0 IRanWt=     -1 IRanGd=            0 ICorTp=0 IEmpDi=  4
 NAtoms=    8 NActive=    8 NUniq=    8 SFac= 1.00D+00 NAtFMM=   60 NAOKFM=F Big=F
 Integral buffers will be    131072 words long.
 Raffenetti 1 integral format.
 Two-electron integral symmetry is turned off.
 Leave Link  301 at Fri Apr 12 16:36:19 2019, MaxMem=   134217728 cpu:         0.2
 (Enter /cm/shared/c3ddb/gaussian/09.d01/g09/l302.exe)
 NPDir=0 NMtPBC=     1 NCelOv=     1 NCel=       1 NClECP=     1 NCelD=      1
         NCelK=      1 NCelE2=     1 NClLst=     1 CellRange=     0.0.
 One-electron integrals computed using PRISM.
 NBasis=    44 RedAO= T EigKep=  1.18D-02  NBF=    44
 NBsUse=    44 1.00D-06 EigRej= -1.00D+00 NBFU=    44
 Leave Link  302 at Fri Apr 12 16:36:20 2019, MaxMem=   134217728 cpu:         0.2
 (Enter /cm/shared/c3ddb/gaussian/09.d01/g09/l303.exe)
 DipDrv:  MaxL=1.
 Leave Link  303 at Fri Apr 12 16:36:20 2019, MaxMem=   134217728 cpu:         0.1
 (Enter /cm/shared/c3ddb/gaussian/09.d01/g09/l401.exe)
 Initial guess from the checkpoint file:  "TMP_CALCS/scangeom_S02_090_060.chk"
 B after Tr=    -0.000527   -0.000995    0.000069
         Rot=    1.000000   -0.000208   -0.000220   -0.000397 Ang=  -0.06 deg.
 Guess basis will be translated and rotated to current coordinates.
 JPrj=2 DoOrth=T DoCkMO=T.
 Generating alternative initial guess.
 ExpMin= 1.83D-01 ExpMax= 3.22D+02 ExpMxC= 3.22D+02 IAcc=1 IRadAn=         1 AccDes= 0.00D+00
 Harris functional with IExCor=  205 and IRadAn=       1 diagonalized for initial guess.
 HarFok:  IExCor=  205 AccDes= 0.00D+00 IRadAn=         1 IDoV= 1 UseB2=F ITyADJ=14
 ICtDFT=  3500011 ScaDFX=  1.000000  1.000000  1.000000  1.000000
 FoFCou: FMM=F IPFlag=           0 FMFlag=      100000 FMFlg1=           0
         NFxFlg=           0 DoJE=T BraDBF=F KetDBF=T FulRan=T
         wScrn=  0.000000 ICntrl=     500 IOpCl=  0 I1Cent=   200000004 NGrid=           0
         NMat0=    1 NMatS0=      1 NMatT0=    0 NMatD0=    1 NMtDS0=    0 NMtDT0=    0
 Symmetry not used in FoFCou.
 Harris En= -226.610810606493    
 Leave Link  401 at Fri Apr 12 16:36:20 2019, MaxMem=   134217728 cpu:         0.5
 (Enter /cm/shared/c3ddb/gaussian/09.d01/g09/l502.exe)
 Closed shell SCF:
 Using DIIS extrapolation, IDIIS=  1040.
 Two-electron integral symmetry not used.
 Keep R1 ints in memory in canonical form, NReq=1327387.
 IVT=       24902 IEndB=       24902 NGot=   134217728 MDV=   133702282
 LenX=   133702282 LenY=   133699905
 Requested convergence on RMS density matrix=1.00D-08 within 128 cycles.
 Requested convergence on MAX density matrix=1.00D-06.
 Requested convergence on             energy=1.00D-06.
 No special actions if energy rises.
 FoFCou: FMM=F IPFlag=           0 FMFlag=           0 FMFlg1=           0
         NFxFlg=           0 DoJE=F BraDBF=F KetDBF=F FulRan=T
         wScrn=  0.000000 ICntrl=     600 IOpCl=  0 I1Cent=           0 NGrid=           0
         NMat0=    1 NMatS0=    990 NMatT0=    0 NMatD0=    1 NMtDS0=    0 NMtDT0=    0
 Symmetry not used in FoFCou.

 Cycle   1  Pass 1  IDiag  1:
 E= -226.385848585758    
 DIIS: error= 5.13D-04 at cycle   1 NSaved=   1.
 NSaved= 1 IEnMin= 1 EnMin= -226.385848585758     IErMin= 1 ErrMin= 5.13D-04
 ErrMax= 5.13D-04  0.00D+00 EMaxC= 1.00D-01 BMatC= 2.54D-05 BMatP= 2.54D-05
 IDIUse=3 WtCom= 9.95D-01 WtEn= 5.13D-03
 Coeff-Com:  0.100D+01
 Coeff-En:   0.100D+01
 Coeff:      0.100D+01
 Gap=     0.975 Goal=   None    Shift=    0.000
 RMSDP=1.17D-04 MaxDP=7.89D-04              OVMax= 1.05D-03

 Cycle   2  Pass 1  IDiag  1:
 E= -226.385878571048     Delta-E=       -0.000029985290 Rises=F Damp=F
 DIIS: error= 2.23D-04 at cycle   2 NSaved=   2.
 NSaved= 2 IEnMin= 2 EnMin= -226.385878571048     IErMin= 2 ErrMin= 2.23D-04
 ErrMax= 2.23D-04  0.00D+00 EMaxC= 1.00D-01 BMatC= 1.75D-06 BMatP= 2.54D-05
 IDIUse=3 WtCom= 9.98D-01 WtEn= 2.23D-03
 Coeff-Com: -0.162D+00 0.116D+01
 Coeff-En:   0.000D+00 0.100D+01
 Coeff:     -0.162D+00 0.116D+01
 Gap=     0.537 Goal=   None    Shift=    0.000
 RMSDP=5.02D-05 MaxDP=4.10D-04 DE=-3.00D-05 OVMax= 9.55D-04

 Cycle   3  Pass 1  IDiag  1:
 E= -226.385883980922     Delta-E=       -0.000005409874 Rises=F Damp=F
 DIIS: error= 1.34D-04 at cycle   3 NSaved=   3.
 NSaved= 3 IEnMin= 3 EnMin= -226.385883980922     IErMin= 3 ErrMin= 1.34D-04
 ErrMax= 1.34D-04  0.00D+00 EMaxC= 1.00D-01 BMatC= 3.20D-07 BMatP= 1.75D-06
 IDIUse=3 WtCom= 9.99D-01 WtEn= 1.34D-03
 Coeff-Com:  0.260D-01-0.497D+00 0.147D+01
 Coeff-En:   0.000D+00 0.000D+00 0.100D+01
 Coeff:      0.259D-01-0.497D+00 0.147D+01
 Gap=     0.537 Goal=   None    Shift=    0.000
 RMSDP=3.07D-05 MaxDP=2.80D-04 DE=-5.41D-06 OVMax= 6.73D-04

 Cycle   4  Pass 1  IDiag  1:
 E= -226.385885318688     Delta-E=       -0.000001337765 Rises=F Damp=F
 DIIS: error= 5.82D-05 at cycle   4 NSaved=   4.
 NSaved= 4 IEnMin= 4 EnMin= -226.385885318688     IErMin= 4 ErrMin= 5.82D-05
 ErrMax= 5.82D-05  0.00D+00 EMaxC= 1.00D-01 BMatC= 6.03D-08 BMatP= 3.20D-07
 IDIUse=1 WtCom= 1.00D+00 WtEn= 0.00D+00
 Coeff-Com:  0.262D-01-0.236D+00 0.248D+00 0.962D+00
 Coeff:      0.262D-01-0.236D+00 0.248D+00 0.962D+00
 Gap=     0.537 Goal=   None    Shift=    0.000
 RMSDP=1.08D-05 MaxDP=9.85D-05 DE=-1.34D-06 OVMax= 2.58D-04

 Cycle   5  Pass 1  IDiag  1:
 E= -226.385885499917     Delta-E=       -0.000000181229 Rises=F Damp=F
 DIIS: error= 2.74D-05 at cycle   5 NSaved=   5.
 NSaved= 5 IEnMin= 5 EnMin= -226.385885499917     IErMin= 5 ErrMin= 2.74D-05
 ErrMax= 2.74D-05  0.00D+00 EMaxC= 1.00D-01 BMatC= 9.65D-09 BMatP= 6.03D-08
 IDIUse=1 WtCom= 1.00D+00 WtEn= 0.00D+00
 Coeff-Com: -0.529D-02 0.109D+00-0.323D+00-0.458D-01 0.127D+01
 Coeff:     -0.529D-02 0.109D+00-0.323D+00-0.458D-01 0.127D+01
 Gap=     0.537 Goal=   None    Shift=    0.000
 RMSDP=6.43D-06 MaxDP=5.51D-05 DE=-1.81D-07 OVMax= 1.64D-04

 Cycle   6  Pass 1  IDiag  1:
 E= -226.385885539849     Delta-E=       -0.000000039932 Rises=F Damp=F
 DIIS: error= 6.48D-06 at cycle   6 NSaved=   6.
 NSaved= 6 IEnMin= 6 EnMin= -226.385885539849     IErMin= 6 ErrMin= 6.48D-06
 ErrMax= 6.48D-06  0.00D+00 EMaxC= 1.00D-01 BMatC= 9.96D-10 BMatP= 9.65D-09
 IDIUse=1 WtCom= 1.00D+00 WtEn= 0.00D+00
 Coeff-Com: -0.277D-02 0.331D-01-0.559D-01-0.104D+00 0.166D+00 0.964D+00
 Coeff:     -0.277D-02 0.331D-01-0.559D-01-0.104D+00 0.166D+00 0.964D+00
 Gap=     0.537 Goal=   None    Shift=    0.000
 RMSDP=1.48D-06 MaxDP=1.03D-05 DE=-3.99D-08 OVMax= 3.59D-05

 Cycle   7  Pass 1  IDiag  1:
 E= -226.385885542738     Delta-E=       -0.000000002889 Rises=F Damp=F
 DIIS: error= 2.24D-06 at cycle   7 NSaved=   7.
 NSaved= 7 IEnMin= 7 EnMin= -226.385885542738     IErMin= 7 ErrMin= 2.24D-06
 ErrMax= 2.24D-06  0.00D+00 EMaxC= 1.00D-01 BMatC= 1.78D-10 BMatP= 9.96D-10
 IDIUse=1 WtCom= 1.00D+00 WtEn= 0.00D+00
 Coeff-Com:  0.924D-03-0.197D-01 0.611D-01-0.272D-02-0.240D+00 0.101D+00
 Coeff-Com:  0.110D+01
 Coeff:      0.924D-03-0.197D-01 0.611D-01-0.272D-02-0.240D+00 0.101D+00
 Coeff:      0.110D+01
 Gap=     0.537 Goal=   None    Shift=    0.000
 RMSDP=7.65D-07 MaxDP=4.73D-06 DE=-2.89D-09 OVMax= 1.69D-05

 Cycle   8  Pass 1  IDiag  1:
 E= -226.385885543319     Delta-E=       -0.000000000581 Rises=F Damp=F
 DIIS: error= 9.77D-07 at cycle   8 NSaved=   8.
 NSaved= 8 IEnMin= 8 EnMin= -226.385885543319     IErMin= 8 ErrMin= 9.77D-07
 ErrMax= 9.77D-07  0.00D+00 EMaxC= 1.00D-01 BMatC= 1.65D-11 BMatP= 1.78D-10
 IDIUse=1 WtCom= 1.00D+00 WtEn= 0.00D+00
 Coeff-Com:  0.320D-03-0.431D-02 0.932D-02 0.100D-01-0.368D-01-0.674D-01
 Coeff-Com:  0.574D-01 0.103D+01
 Coeff:      0.320D-03-0.431D-02 0.932D-02 0.100D-01-0.368D-01-0.674D-01
 Coeff:      0.574D-01 0.103D+01
 Gap=     0.537 Goal=   None    Shift=    0.000
 RMSDP=2.15D-07 MaxDP=1.23D-06 DE=-5.81D-10 OVMax= 4.49D-06

 Cycle   9  Pass 1  IDiag  1:
 E= -226.385885543379     Delta-E=       -0.000000000060 Rises=F Damp=F
 DIIS: error= 5.35D-07 at cycle   9 NSaved=   9.
 NSaved= 9 IEnMin= 9 EnMin= -226.385885543379     IErMin= 9 ErrMin= 5.35D-07
 ErrMax= 5.35D-07  0.00D+00 EMaxC= 1.00D-01 BMatC= 4.14D-12 BMatP= 1.65D-11
 IDIUse=1 WtCom= 1.00D+00 WtEn= 0.00D+00
 Coeff-Com: -0.254D-03 0.511D-02-0.154D-01 0.126D-03 0.566D-01 0.431D-03
 Coeff-Com: -0.265D+00-0.138D+00 0.136D+01
 Coeff:     -0.254D-03 0.511D-02-0.154D-01 0.126D-03 0.566D-01 0.431D-03
 Coeff:     -0.265D+00-0.138D+00 0.136D+01
 Gap=     0.537 Goal=   None    Shift=    0.000
 RMSDP=1.40D-07 MaxDP=8.25D-07 DE=-5.96D-11 OVMax= 3.50D-06

 Cycle  10  Pass 1  IDiag  1:
 E= -226.385885543397     Delta-E=       -0.000000000018 Rises=F Damp=F
 DIIS: error= 2.09D-07 at cycle  10 NSaved=  10.
 NSaved=10 IEnMin=10 EnMin= -226.385885543397     IErMin=10 ErrMin= 2.09D-07
 ErrMax= 2.09D-07  0.00D+00 EMaxC= 1.00D-01 BMatC= 5.13D-13 BMatP= 4.14D-12
 IDIUse=1 WtCom= 1.00D+00 WtEn= 0.00D+00
 Coeff-Com:  0.279D-06-0.330D-03 0.156D-02-0.119D-02-0.614D-02 0.110D-01
 Coeff-Com:  0.385D-01-0.116D+00-0.219D+00 0.129D+01
 Coeff:      0.279D-06-0.330D-03 0.156D-02-0.119D-02-0.614D-02 0.110D-01
 Coeff:      0.385D-01-0.116D+00-0.219D+00 0.129D+01
 Gap=     0.537 Goal=   None    Shift=    0.000
 RMSDP=5.17D-08 MaxDP=3.84D-07 DE=-1.77D-11 OVMax= 1.41D-06

 Cycle  11  Pass 1  IDiag  1:
 E= -226.385885543399     Delta-E=       -0.000000000003 Rises=F Damp=F
 DIIS: error= 7.59D-08 at cycle  11 NSaved=  11.
 NSaved=11 IEnMin=11 EnMin= -226.385885543399     IErMin=11 ErrMin= 7.59D-08
 ErrMax= 7.59D-08  0.00D+00 EMaxC= 1.00D-01 BMatC= 9.00D-14 BMatP= 5.13D-13
 IDIUse=1 WtCom= 1.00D+00 WtEn= 0.00D+00
 Coeff-Com:  0.460D-04-0.982D-03 0.300D-02-0.435D-04-0.111D-01 0.508D-03
 Coeff-Com:  0.546D-01 0.127D-01-0.281D+00 0.105D+00 0.112D+01
 Coeff:      0.460D-04-0.982D-03 0.300D-02-0.435D-04-0.111D-01 0.508D-03
 Coeff:      0.546D-01 0.127D-01-0.281D+00 0.105D+00 0.112D+01
 Gap=     0.537 Goal=   None    Shift=    0.000
 RMSDP=2.21D-08 MaxDP=1.75D-07 DE=-2.84D-12 OVMax= 5.92D-07

 Cycle  12  Pass 1  IDiag  1:
 E= -226.385885543399     Delta-E=        0.000000000000 Rises=F Damp=F
 DIIS: error= 1.94D-08 at cycle  12 NSaved=  12.
 NSaved=12 IEnMin=11 EnMin= -226.385885543399     IErMin=12 ErrMin= 1.94D-08
 ErrMax= 1.94D-08  0.00D+00 EMaxC= 1.00D-01 BMatC= 9.34D-15 BMatP= 9.00D-14
 IDIUse=1 WtCom= 1.00D+00 WtEn= 0.00D+00
 Coeff-Com: -0.192D-04 0.469D-03-0.150D-02 0.146D-03 0.566D-02-0.208D-02
 Coeff-Com: -0.279D-01 0.893D-02 0.155D+00-0.236D+00-0.459D+00 0.156D+01
 Coeff:     -0.192D-04 0.469D-03-0.150D-02 0.146D-03 0.566D-02-0.208D-02
 Coeff:     -0.279D-01 0.893D-02 0.155D+00-0.236D+00-0.459D+00 0.156D+01
 Gap=     0.537 Goal=   None    Shift=    0.000
 RMSDP=8.08D-09 MaxDP=5.61D-08 DE= 0.00D+00 OVMax= 1.88D-07

 SCF Done:  E(RHF) =  -226.385885543     A.U. after   12 cycles
            NFock= 12  Conv=0.81D-08     -V/T= 2.0034
 KE= 2.256199019357D+02 PE=-7.678786029615D+02 EE= 1.986060328850D+02
 Leave Link  502 at Fri Apr 12 16:36:21 2019, MaxMem=   134217728 cpu:         0.3
 (Enter /cm/shared/c3ddb/gaussian/09.d01/g09/l701.exe)
 Compute integral first derivatives.
 ... and contract with generalized density number  0.
 Leave Link  701 at Fri Apr 12 16:36:21 2019, MaxMem=   134217728 cpu:         0.2
 (Enter /cm/shared/c3ddb/gaussian/09.d01/g09/l702.exe)
 L702 exits ... SP integral derivatives will be done elsewhere.
 Leave Link  702 at Fri Apr 12 16:36:21 2019, MaxMem=   134217728 cpu:         0.1
 (Enter /cm/shared/c3ddb/gaussian/09.d01/g09/l703.exe)
 Compute integral first derivatives, UseDBF=F ICtDFT=           0.
 Integral derivatives from FoFJK, PRISM(SPDF).
 Calling FoFJK, ICntrl=      2127 FMM=F ISym2X=0 I1Cent= 0 IOpClX= 0 NMat=1 NMatS=1 NMatT=0.
 FoFJK:  IHMeth= 1 ICntrl=    2127 DoSepK=F KAlg= 0 I1Cent=   0 FoldK=F
 IRaf=         0 NMat=   1 IRICut=       1 DoRegI=T DoRafI=F ISym2E= 0.
 FoFCou: FMM=F IPFlag=           0 FMFlag=      100000 FMFlg1=         800
         NFxFlg=           0 DoJE=F BraDBF=F KetDBF=F FulRan=T
         wScrn=  0.000000 ICntrl=    2127 IOpCl=  0 I1Cent=           0 NGrid=           0
         NMat0=    1 NMatS0=      1 NMatT0=    0 NMatD0=    1 NMtDS0=    0 NMtDT0=    0
 Symmetry not used in FoFCou.
 Leave Link  703 at Fri Apr 12 16:36:21 2019, MaxMem=   134217728 cpu:         0.2
 (Enter /cm/shared/c3ddb/gaussian/09.d01/g09/l716.exe)
 Dipole        = 1.14068603D+00 4.40810471D-01 4.24047596D-01
 -------------------------------------------------------------------
 Center     Atomic                   Forces (Hartrees/Bohr)
 Number     Number              X              Y              Z
 -------------------------------------------------------------------
      1        6           0.000180033   -0.003189460    0.000236353
      2        6           0.000105215    0.000089654   -0.000583213
      3        1          -0.000004629    0.000052889    0.000009051
      4        1           0.000010900   -0.000031030    0.000101875
      5        1          -0.000003922    0.000006092   -0.000111225
      6        8          -0.000210187    0.003413310   -0.001377676
      7        8           0.003897269   -0.002551243    0.002193858
      8        1          -0.003974677    0.002209787   -0.000469023
 -------------------------------------------------------------------
 Cartesian Forces:  Max     0.003974677 RMS     0.001727855
 Leave Link  716 at Fri Apr 12 16:36:22 2019, MaxMem=   134217728 cpu:         0.1
 (Enter /cm/shared/c3ddb/gaussian/09.d01/g09/l103.exe)

 GradGradGradGradGradGradGradGradGradGradGradGradGradGradGradGradGradGrad
 Berny optimization.
 Using GEDIIS/GDIIS optimizer.
 FormGI is forming the generalized inverse of G from B-inverse, IUseBI=4.
 Internal  Forces:  Max     0.008048491 RMS     0.001816542
 Search for a local minimum.
 Step number   2 out of a maximum of   32
 All quantities printed in internal units (Hartrees-Bohrs-Radians)
 RMS Force = .57426D-03 SwitMx=.10000D-02 MixMth= 2
 Mixed Optimization -- En-DIIS/RFO-DIIS
 Swapping is turned off.
 Update second derivatives using D2CorX and points    1    2
 DE= -8.70D-06 DEPred=-2.85D-05 R= 3.06D-01
 Trust test= 3.06D-01 RLast= 1.78D-02 DXMaxT set to 3.00D-01
 ITU=  0  0
     Eigenvalues ---    0.02491   0.03305   0.03353   0.15988   0.15999
     Eigenvalues ---    0.16000   0.19710   0.22051   0.26294   0.36961
     Eigenvalues ---    0.37083   0.37101   0.42253   0.47046   0.52275
     Eigenvalues ---    0.649531000.000001000.000001000.000001000.00000
     Eigenvalues --- 1000.000001000.00000
 En-DIIS/RFO-DIIS IScMMF=        0 using points:     2    1
 RFO step:  Lambda=-1.26093316D-05.
 NNeg= 0 NP= 2 Switch=  2.50D-03 Rises=F DC=  8.70D-06 SmlDif=  1.00D-05
 RMS Error=  0.8941490095D-03 NUsed= 2 EDIIS=F
 DidBck=T Rises=F RFO-DIIS coefs:    0.58773    0.41227
 Iteration  1 RMS(Cart)=  0.00307522 RMS(Int)=  0.00000550
 Iteration  2 RMS(Cart)=  0.00000510 RMS(Int)=  0.00000035
 Iteration  3 RMS(Cart)=  0.00000000 RMS(Int)=  0.00000035
 Iteration  1 RMS(Cart)=  0.00000012 RMS(Int)=  0.00000005
 ITry= 1 IFail=0 DXMaxC= 8.75D-03 DCOld= 1.00D+10 DXMaxT= 3.00D-01 DXLimC= 3.00D+00 Rises=F
 Variable       Old X    -DE/DX   Delta X   Delta X   Delta X     New X
                                 (Linear)    (Quad)   (Total)
    R1        2.47108   0.00002   0.00024  -0.00023   0.00001   2.47109
    R2        2.02584   0.00005   0.00007  -0.00001   0.00007   2.02591
    R3        2.67096   0.00040   0.00009   0.00045   0.00054   2.67150
    R4        2.02414   0.00001   0.00003  -0.00001   0.00002   2.02416
    R5        2.02380   0.00000   0.00005  -0.00005   0.00000   2.02381
    R6        2.78048   0.00165   0.00239   0.00025   0.00265   2.78313
    R7        1.84326  -0.00006   0.00006  -0.00013  -0.00007   1.84319
    A1        2.16576  -0.00005   0.00007  -0.00011  -0.00004   2.16571
    A2        2.12296   0.00012   0.00032   0.00002   0.00033   2.12329
    A3        1.99397  -0.00008  -0.00039   0.00018  -0.00022   1.99375
    A4        2.11063   0.00004   0.00000   0.00014   0.00014   2.11077
    A5        2.10670  -0.00002   0.00002  -0.00011  -0.00009   2.10661
    A6        2.06584  -0.00001  -0.00002  -0.00003  -0.00005   2.06578
    A7        1.89835   0.00086   0.00329  -0.00141   0.00188   1.90023
    A8        1.79457   0.00169   0.00535   0.00063   0.00598   1.80054
    D1       -0.00792   0.00026   0.00110  -0.00085   0.00025  -0.00766
    D2        3.14031   0.00026   0.00183  -0.00148   0.00035   3.14066
    D3        3.09753  -0.00008   0.00092   0.00192   0.00283   3.10037
    D4       -0.03742  -0.00007   0.00164   0.00129   0.00293  -0.03449
    D5        1.57080   0.00089   0.00000   0.00000   0.00000   1.57080
    D6       -1.60362   0.00059  -0.00016   0.00251   0.00235  -1.60128
    D7        1.04720   0.00805   0.00000   0.00000   0.00000   1.04720
         Item               Value     Threshold  Converged?
 Maximum Force            0.001694     0.000015     NO 
 RMS     Force            0.000574     0.000010     NO 
 Maximum Displacement     0.008747     0.000060     NO 
 RMS     Displacement     0.003075     0.000040     NO 
 Predicted change in Energy=-8.762094D-06
 Lowest energy point so far.  Saving SCF results.
 GradGradGradGradGradGradGradGradGradGradGradGradGradGradGradGradGradGrad

 Leave Link  103 at Fri Apr 12 16:36:22 2019, MaxMem=   134217728 cpu:         0.0
 (Enter /cm/shared/c3ddb/gaussian/09.d01/g09/l202.exe)
                          Input orientation:                          
 ---------------------------------------------------------------------
 Center     Atomic      Atomic             Coordinates (Angstroms)
 Number     Number       Type             X           Y           Z
 ---------------------------------------------------------------------
      1          6           0        0.744920    0.619453    0.042455
      2          6           0        1.386266   -0.519056   -0.006623
      3          1           0        1.223935    1.577131    0.094621
      4          1           0        2.456996   -0.548512   -0.003678
      5          1           0        0.851990   -1.445850   -0.057005
      6          8           0       -0.666553    0.678754   -0.010145
      7          8           0       -1.197863    0.607515    1.361597
      8          1           0       -0.803099    1.387881    1.793509
 ---------------------------------------------------------------------
                    Distance matrix (angstroms):
                    1          2          3          4          5
     1  C    0.000000
     2  C    1.307646   0.000000
     3  H    1.072065   2.104900   0.000000
     4  H    2.073036   1.071139   2.459362   0.000000
     5  H    2.070468   1.070952   3.049549   1.839594   0.000000
     6  O    1.413697   2.376727   2.095710   3.356007   2.611917
     7  O    2.348335   3.133514   2.900084   4.069197   3.229649
     8  H    2.460291   3.416168   2.651585   4.196155   3.767460
                    6          7          8
     6  O    0.000000
     7  O    1.472766   0.000000
     8  H    1.942852   0.975376   0.000000
 Symmetry turned off by external request.
 Stoichiometry    C2H4O2
 Framework group  C1[X(C2H4O2)]
 Deg. of freedom    18
 Full point group                 C1      NOp   1
 Rotational constants (GHZ):     23.2062183      5.1903152      4.8651330
 Leave Link  202 at Fri Apr 12 16:36:22 2019, MaxMem=   134217728 cpu:         0.0
 (Enter /cm/shared/c3ddb/gaussian/09.d01/g09/l301.exe)
 Standard basis: 3-21G (6D, 7F)
 Ernie: Thresh=  0.10000D-02 Tol=  0.10000D-05 Strict=F.
    44 basis functions,    72 primitive gaussians,    44 cartesian basis functions
    16 alpha electrons       16 beta electrons
       nuclear repulsion energy       117.2002312260 Hartrees.
 IExCor=    0 DFT=F Ex=HF Corr=None ExCW=0 ScaHFX=  1.000000
 ScaDFX=  1.000000  1.000000  1.000000  1.000000 ScalE2=  1.000000  1.000000
 IRadAn=      0 IRanWt=     -1 IRanGd=            0 ICorTp=0 IEmpDi=  4
 NAtoms=    8 NActive=    8 NUniq=    8 SFac= 1.00D+00 NAtFMM=   60 NAOKFM=F Big=F
 Integral buffers will be    131072 words long.
 Raffenetti 1 integral format.
 Two-electron integral symmetry is turned off.
 Leave Link  301 at Fri Apr 12 16:36:22 2019, MaxMem=   134217728 cpu:         0.2
 (Enter /cm/shared/c3ddb/gaussian/09.d01/g09/l302.exe)
 NPDir=0 NMtPBC=     1 NCelOv=     1 NCel=       1 NClECP=     1 NCelD=      1
         NCelK=      1 NCelE2=     1 NClLst=     1 CellRange=     0.0.
 One-electron integrals computed using PRISM.
 NBasis=    44 RedAO= T EigKep=  1.18D-02  NBF=    44
 NBsUse=    44 1.00D-06 EigRej= -1.00D+00 NBFU=    44
 Leave Link  302 at Fri Apr 12 16:36:22 2019, MaxMem=   134217728 cpu:         0.2
 (Enter /cm/shared/c3ddb/gaussian/09.d01/g09/l303.exe)
 DipDrv:  MaxL=1.
 Leave Link  303 at Fri Apr 12 16:36:23 2019, MaxMem=   134217728 cpu:         0.1
 (Enter /cm/shared/c3ddb/gaussian/09.d01/g09/l401.exe)
 Initial guess from the checkpoint file:  "TMP_CALCS/scangeom_S02_090_060.chk"
 B after Tr=     0.000019   -0.000173   -0.000160
         Rot=    1.000000    0.000320   -0.000119    0.000054 Ang=   0.04 deg.
 Guess basis will be translated and rotated to current coordinates.
 JPrj=2 DoOrth=T DoCkMO=T.
 Leave Link  401 at Fri Apr 12 16:36:23 2019, MaxMem=   134217728 cpu:         0.3
 (Enter /cm/shared/c3ddb/gaussian/09.d01/g09/l502.exe)
 Closed shell SCF:
 Using DIIS extrapolation, IDIIS=  1040.
 Two-electron integral symmetry not used.
 Keep R1 ints in memory in canonical form, NReq=1327373.
 IVT=       24902 IEndB=       24902 NGot=   134217728 MDV=   133702282
 LenX=   133702282 LenY=   133699905
 Requested convergence on RMS density matrix=1.00D-08 within 128 cycles.
 Requested convergence on MAX density matrix=1.00D-06.
 Requested convergence on             energy=1.00D-06.
 No special actions if energy rises.
 FoFCou: FMM=F IPFlag=           0 FMFlag=           0 FMFlg1=           0
         NFxFlg=           0 DoJE=F BraDBF=F KetDBF=F FulRan=T
         wScrn=  0.000000 ICntrl=     600 IOpCl=  0 I1Cent=           0 NGrid=           0
         NMat0=    1 NMatS0=    990 NMatT0=    0 NMatD0=    1 NMtDS0=    0 NMtDT0=    0
 Symmetry not used in FoFCou.

 Cycle   1  Pass 1  IDiag  1:
 E= -226.385889618592    
 DIIS: error= 2.08D-04 at cycle   1 NSaved=   1.
 NSaved= 1 IEnMin= 1 EnMin= -226.385889618592     IErMin= 1 ErrMin= 2.08D-04
 ErrMax= 2.08D-04  0.00D+00 EMaxC= 1.00D-01 BMatC= 3.61D-06 BMatP= 3.61D-06
 IDIUse=3 WtCom= 9.98D-01 WtEn= 2.08D-03
 Coeff-Com:  0.100D+01
 Coeff-En:   0.100D+01
 Coeff:      0.100D+01
 Gap=     0.975 Goal=   None    Shift=    0.000
 RMSDP=4.35D-05 MaxDP=3.51D-04              OVMax= 3.44D-04

 Cycle   2  Pass 1  IDiag  1:
 E= -226.385893362185     Delta-E=       -0.000003743593 Rises=F Damp=F
 DIIS: error= 9.24D-05 at cycle   2 NSaved=   2.
 NSaved= 2 IEnMin= 2 EnMin= -226.385893362185     IErMin= 2 ErrMin= 9.24D-05
 ErrMax= 9.24D-05  0.00D+00 EMaxC= 1.00D-01 BMatC= 2.19D-07 BMatP= 3.61D-06
 IDIUse=1 WtCom= 1.00D+00 WtEn= 0.00D+00
 Coeff-Com: -0.142D+00 0.114D+01
 Coeff:     -0.142D+00 0.114D+01
 Gap=     0.536 Goal=   None    Shift=    0.000
 RMSDP=1.72D-05 MaxDP=1.23D-04 DE=-3.74D-06 OVMax= 3.45D-04

 Cycle   3  Pass 1  IDiag  1:
 E= -226.385893959031     Delta-E=       -0.000000596846 Rises=F Damp=F
 DIIS: error= 5.30D-05 at cycle   3 NSaved=   3.
 NSaved= 3 IEnMin= 3 EnMin= -226.385893959031     IErMin= 3 ErrMin= 5.30D-05
 ErrMax= 5.30D-05  0.00D+00 EMaxC= 1.00D-01 BMatC= 4.30D-08 BMatP= 2.19D-07
 IDIUse=1 WtCom= 1.00D+00 WtEn= 0.00D+00
 Coeff-Com: -0.226D-01-0.888D-01 0.111D+01
 Coeff:     -0.226D-01-0.888D-01 0.111D+01
 Gap=     0.536 Goal=   None    Shift=    0.000
 RMSDP=8.69D-06 MaxDP=6.54D-05 DE=-5.97D-07 OVMax= 2.02D-04

 Cycle   4  Pass 1  IDiag  1:
 E= -226.385894096384     Delta-E=       -0.000000137353 Rises=F Damp=F
 DIIS: error= 2.98D-05 at cycle   4 NSaved=   4.
 NSaved= 4 IEnMin= 4 EnMin= -226.385894096384     IErMin= 4 ErrMin= 2.98D-05
 ErrMax= 2.98D-05  0.00D+00 EMaxC= 1.00D-01 BMatC= 1.44D-08 BMatP= 4.30D-08
 IDIUse=1 WtCom= 1.00D+00 WtEn= 0.00D+00
 Coeff-Com:  0.312D-01-0.317D+00 0.224D+00 0.106D+01
 Coeff:      0.312D-01-0.317D+00 0.224D+00 0.106D+01
 Gap=     0.536 Goal=   None    Shift=    0.000
 RMSDP=6.08D-06 MaxDP=4.70D-05 DE=-1.37D-07 OVMax= 1.51D-04

 Cycle   5  Pass 1  IDiag  1:
 E= -226.385894143948     Delta-E=       -0.000000047564 Rises=F Damp=F
 DIIS: error= 1.12D-05 at cycle   5 NSaved=   5.
 NSaved= 5 IEnMin= 5 EnMin= -226.385894143948     IErMin= 5 ErrMin= 1.12D-05
 ErrMax= 1.12D-05  0.00D+00 EMaxC= 1.00D-01 BMatC= 1.76D-09 BMatP= 1.44D-08
 IDIUse=1 WtCom= 1.00D+00 WtEn= 0.00D+00
 Coeff-Com:  0.137D-02 0.481D-01-0.218D+00-0.812D-01 0.125D+01
 Coeff:      0.137D-02 0.481D-01-0.218D+00-0.812D-01 0.125D+01
 Gap=     0.536 Goal=   None    Shift=    0.000
 RMSDP=2.61D-06 MaxDP=1.91D-05 DE=-4.76D-08 OVMax= 6.77D-05

 Cycle   6  Pass 1  IDiag  1:
 E= -226.385894150630     Delta-E=       -0.000000006682 Rises=F Damp=F
 DIIS: error= 2.79D-06 at cycle   6 NSaved=   6.
 NSaved= 6 IEnMin= 6 EnMin= -226.385894150630     IErMin= 6 ErrMin= 2.79D-06
 ErrMax= 2.79D-06  0.00D+00 EMaxC= 1.00D-01 BMatC= 1.89D-10 BMatP= 1.76D-09
 IDIUse=1 WtCom= 1.00D+00 WtEn= 0.00D+00
 Coeff-Com: -0.343D-02 0.492D-01-0.794D-01-0.147D+00 0.261D+00 0.920D+00
 Coeff:     -0.343D-02 0.492D-01-0.794D-01-0.147D+00 0.261D+00 0.920D+00
 Gap=     0.536 Goal=   None    Shift=    0.000
 RMSDP=7.23D-07 MaxDP=5.06D-06 DE=-6.68D-09 OVMax= 1.75D-05

 Cycle   7  Pass 1  IDiag  1:
 E= -226.385894151150     Delta-E=       -0.000000000520 Rises=F Damp=F
 DIIS: error= 5.30D-07 at cycle   7 NSaved=   7.
 NSaved= 7 IEnMin= 7 EnMin= -226.385894151150     IErMin= 7 ErrMin= 5.30D-07
 ErrMax= 5.30D-07  0.00D+00 EMaxC= 1.00D-01 BMatC= 1.46D-11 BMatP= 1.89D-10
 IDIUse=1 WtCom= 1.00D+00 WtEn= 0.00D+00
 Coeff-Com:  0.358D-03-0.106D-01 0.314D-01 0.253D-01-0.162D+00-0.728D-01
 Coeff-Com:  0.119D+01
 Coeff:      0.358D-03-0.106D-01 0.314D-01 0.253D-01-0.162D+00-0.728D-01
 Coeff:      0.119D+01
 Gap=     0.536 Goal=   None    Shift=    0.000
 RMSDP=2.02D-07 MaxDP=1.13D-06 DE=-5.20D-10 OVMax= 3.76D-06

 Cycle   8  Pass 1  IDiag  1:
 E= -226.385894151190     Delta-E=       -0.000000000040 Rises=F Damp=F
 DIIS: error= 1.03D-07 at cycle   8 NSaved=   8.
 NSaved= 8 IEnMin= 8 EnMin= -226.385894151190     IErMin= 8 ErrMin= 1.03D-07
 ErrMax= 1.03D-07  0.00D+00 EMaxC= 1.00D-01 BMatC= 1.03D-12 BMatP= 1.46D-11
 IDIUse=1 WtCom= 1.00D+00 WtEn= 0.00D+00
 Coeff-Com:  0.335D-03-0.562D-02 0.118D-01 0.150D-01-0.479D-01-0.823D-01
 Coeff-Com:  0.198D+00 0.911D+00
 Coeff:      0.335D-03-0.562D-02 0.118D-01 0.150D-01-0.479D-01-0.823D-01
 Coeff:      0.198D+00 0.911D+00
 Gap=     0.536 Goal=   None    Shift=    0.000
 RMSDP=3.97D-08 MaxDP=1.93D-07 DE=-4.02D-11 OVMax= 6.27D-07

 Cycle   9  Pass 1  IDiag  1:
 E= -226.385894151193     Delta-E=       -0.000000000002 Rises=F Damp=F
 DIIS: error= 5.12D-08 at cycle   9 NSaved=   9.
 NSaved= 9 IEnMin= 9 EnMin= -226.385894151193     IErMin= 9 ErrMin= 5.12D-08
 ErrMax= 5.12D-08  0.00D+00 EMaxC= 1.00D-01 BMatC= 1.06D-13 BMatP= 1.03D-12
 IDIUse=1 WtCom= 1.00D+00 WtEn= 0.00D+00
 Coeff-Com: -0.774D-04 0.182D-02-0.443D-02-0.543D-02 0.232D-01 0.175D-01
 Coeff-Com: -0.133D+00-0.122D+00 0.122D+01
 Coeff:     -0.774D-04 0.182D-02-0.443D-02-0.543D-02 0.232D-01 0.175D-01
 Coeff:     -0.133D+00-0.122D+00 0.122D+01
 Gap=     0.536 Goal=   None    Shift=    0.000
 RMSDP=1.70D-08 MaxDP=1.15D-07 DE=-2.27D-12 OVMax= 2.74D-07

 Cycle  10  Pass 1  IDiag  1:
 E= -226.385894151193     Delta-E=       -0.000000000001 Rises=F Damp=F
 DIIS: error= 2.90D-08 at cycle  10 NSaved=  10.
 NSaved=10 IEnMin=10 EnMin= -226.385894151193     IErMin=10 ErrMin= 2.90D-08
 ErrMax= 2.90D-08  0.00D+00 EMaxC= 1.00D-01 BMatC= 1.60D-14 BMatP= 1.06D-13
 IDIUse=1 WtCom= 1.00D+00 WtEn= 0.00D+00
 Coeff-Com: -0.373D-04 0.668D-03-0.134D-02-0.207D-02 0.639D-02 0.891D-02
 Coeff-Com: -0.267D-01-0.102D+00 0.818D-01 0.103D+01
 Coeff:     -0.373D-04 0.668D-03-0.134D-02-0.207D-02 0.639D-02 0.891D-02
 Coeff:     -0.267D-01-0.102D+00 0.818D-01 0.103D+01
 Gap=     0.536 Goal=   None    Shift=    0.000
 RMSDP=6.43D-09 MaxDP=3.18D-08 DE=-6.82D-13 OVMax= 1.35D-07

 SCF Done:  E(RHF) =  -226.385894151     A.U. after   10 cycles
            NFock= 10  Conv=0.64D-08     -V/T= 2.0034
 KE= 2.256146689363D+02 PE=-7.677454662135D+02 EE= 1.985446719001D+02
 Leave Link  502 at Fri Apr 12 16:36:24 2019, MaxMem=   134217728 cpu:         0.3
 (Enter /cm/shared/c3ddb/gaussian/09.d01/g09/l701.exe)
 Compute integral first derivatives.
 ... and contract with generalized density number  0.
 Leave Link  701 at Fri Apr 12 16:36:24 2019, MaxMem=   134217728 cpu:         0.2
 (Enter /cm/shared/c3ddb/gaussian/09.d01/g09/l702.exe)
 L702 exits ... SP integral derivatives will be done elsewhere.
 Leave Link  702 at Fri Apr 12 16:36:24 2019, MaxMem=   134217728 cpu:         0.1
 (Enter /cm/shared/c3ddb/gaussian/09.d01/g09/l703.exe)
 Compute integral first derivatives, UseDBF=F ICtDFT=           0.
 Integral derivatives from FoFJK, PRISM(SPDF).
 Calling FoFJK, ICntrl=      2127 FMM=F ISym2X=0 I1Cent= 0 IOpClX= 0 NMat=1 NMatS=1 NMatT=0.
 FoFJK:  IHMeth= 1 ICntrl=    2127 DoSepK=F KAlg= 0 I1Cent=   0 FoldK=F
 IRaf=         0 NMat=   1 IRICut=       1 DoRegI=T DoRafI=F ISym2E= 0.
 FoFCou: FMM=F IPFlag=           0 FMFlag=      100000 FMFlg1=         800
         NFxFlg=           0 DoJE=F BraDBF=F KetDBF=F FulRan=T
         wScrn=  0.000000 ICntrl=    2127 IOpCl=  0 I1Cent=           0 NGrid=           0
         NMat0=    1 NMatS0=      1 NMatT0=    0 NMatD0=    1 NMtDS0=    0 NMtDT0=    0
 Symmetry not used in FoFCou.
 Leave Link  703 at Fri Apr 12 16:36:24 2019, MaxMem=   134217728 cpu:         0.3
 (Enter /cm/shared/c3ddb/gaussian/09.d01/g09/l716.exe)
 Dipole        = 1.14010412D+00 4.41342126D-01 4.25965444D-01
 -------------------------------------------------------------------
 Center     Atomic                   Forces (Hartrees/Bohr)
 Number     Number              X              Y              Z
 -------------------------------------------------------------------
      1        6          -0.000067392   -0.003000436    0.000867528
      2        6           0.000022278    0.000037098   -0.000658002
      3        1          -0.000011067    0.000009993   -0.000019389
      4        1          -0.000001454   -0.000002462   -0.000022763
      5        1           0.000000678   -0.000007235   -0.000012680
      6        8          -0.000429500    0.003766599   -0.000324615
      7        8           0.003949349   -0.003241631    0.001409893
      8        1          -0.003462891    0.002438074   -0.001239972
 -------------------------------------------------------------------
 Cartesian Forces:  Max     0.003949349 RMS     0.001734932
 Leave Link  716 at Fri Apr 12 16:36:24 2019, MaxMem=   134217728 cpu:         0.1
 (Enter /cm/shared/c3ddb/gaussian/09.d01/g09/l103.exe)

 GradGradGradGradGradGradGradGradGradGradGradGradGradGradGradGradGradGrad
 Berny optimization.
 Using GEDIIS/GDIIS optimizer.
 FormGI is forming the generalized inverse of G from B-inverse, IUseBI=4.
 Internal  Forces:  Max     0.007919916 RMS     0.001707271
 Search for a local minimum.
 Step number   3 out of a maximum of   32
 All quantities printed in internal units (Hartrees-Bohrs-Radians)
 RMS Force = .23404D-04 SwitMx=.10000D-02 MixMth= 2
 Mixed Optimization -- En-DIIS/RFO-DIIS
 Swapping is turned off.
 Update second derivatives using D2CorX and points    1    2    3
 DE= -8.61D-06 DEPred=-8.76D-06 R= 9.82D-01
 TightC=F SS=  1.41D+00  RLast= 8.31D-03 DXNew= 5.0454D-01 2.4928D-02
 Trust test= 9.82D-01 RLast= 8.31D-03 DXMaxT set to 3.00D-01
 ITU=  1  0  0
     Eigenvalues ---    0.02551   0.03308   0.03371   0.15996   0.15999
     Eigenvalues ---    0.16001   0.20184   0.22111   0.26350   0.36962
     Eigenvalues ---    0.37083   0.37102   0.42623   0.45540   0.52269
     Eigenvalues ---    0.649761000.000001000.000001000.000001000.00000
     Eigenvalues --- 1000.000001000.00000
 En-DIIS/RFO-DIIS IScMMF=        0 using points:     3    2    1
 RFO step:  Lambda=-2.05454633D-06.
 NNeg= 0 NP= 3 Switch=  2.50D-03 Rises=F DC=  8.70D-06 SmlDif=  1.00D-05
 RMS Error=  0.8450931720D-04 NUsed= 3 EDIIS=F
 DidBck=F Rises=F RFO-DIIS coefs:    0.83424    0.09876    0.06700
 Iteration  1 RMS(Cart)=  0.00029818 RMS(Int)=  0.00000016
 Iteration  2 RMS(Cart)=  0.00000010 RMS(Int)=  0.00000013
 Iteration  1 RMS(Cart)=  0.00000014 RMS(Int)=  0.00000006
 ITry= 1 IFail=0 DXMaxC= 7.85D-04 DCOld= 1.00D+10 DXMaxT= 3.00D-01 DXLimC= 3.00D+00 Rises=F
 Variable       Old X    -DE/DX   Delta X   Delta X   Delta X     New X
                                 (Linear)    (Quad)   (Total)
    R1        2.47109   0.00001   0.00004  -0.00002   0.00002   2.47111
    R2        2.02591   0.00000   0.00000   0.00001   0.00001   2.02592
    R3        2.67150   0.00007  -0.00007   0.00022   0.00015   2.67165
    R4        2.02416   0.00000   0.00000   0.00000   0.00000   2.02416
    R5        2.02381   0.00001   0.00001   0.00001   0.00001   2.02382
    R6        2.78313   0.00002  -0.00005   0.00014   0.00009   2.78321
    R7        1.84319   0.00000   0.00002  -0.00002   0.00000   1.84319
    A1        2.16571   0.00001   0.00002   0.00007   0.00009   2.16581
    A2        2.12329  -0.00002   0.00000  -0.00005  -0.00005   2.12324
    A3        1.99375   0.00000  -0.00003  -0.00003  -0.00006   1.99368
    A4        2.11077   0.00000  -0.00002   0.00003   0.00001   2.11078
    A5        2.10661   0.00000   0.00002   0.00000   0.00002   2.10663
    A6        2.06578  -0.00001   0.00001  -0.00004  -0.00003   2.06575
    A7        1.90023   0.00001   0.00022  -0.00015   0.00008   1.90030
    A8        1.80054  -0.00004  -0.00012  -0.00004  -0.00016   1.80039
    D1       -0.00766   0.00023   0.00014  -0.00024  -0.00011  -0.00777
    D2        3.14066   0.00026   0.00024   0.00042   0.00066   3.14133
    D3        3.10037  -0.00027  -0.00032  -0.00053  -0.00085   3.09952
    D4       -0.03449  -0.00024  -0.00022   0.00014  -0.00008  -0.03457
    D5        1.57080   0.00095   0.00000   0.00000   0.00000   1.57080
    D6       -1.60128   0.00050  -0.00042  -0.00025  -0.00067  -1.60195
    D7        1.04720   0.00792   0.00000   0.00000   0.00000   1.04720
         Item               Value     Threshold  Converged?
 Maximum Force            0.000073     0.000015     NO 
 RMS     Force            0.000023     0.000010     NO 
 Maximum Displacement     0.000785     0.000060     NO 
 RMS     Displacement     0.000298     0.000040     NO 
 Predicted change in Energy=-4.570970D-08
 Lowest energy point so far.  Saving SCF results.
 GradGradGradGradGradGradGradGradGradGradGradGradGradGradGradGradGradGrad

 Leave Link  103 at Fri Apr 12 16:36:24 2019, MaxMem=   134217728 cpu:         0.0
 (Enter /cm/shared/c3ddb/gaussian/09.d01/g09/l202.exe)
                          Input orientation:                          
 ---------------------------------------------------------------------
 Center     Atomic      Atomic             Coordinates (Angstroms)
 Number     Number       Type             X           Y           Z
 ---------------------------------------------------------------------
      1          6           0        0.745068    0.619489    0.042715
      2          6           0        1.386322   -0.519080   -0.006408
      3          1           0        1.224083    1.577197    0.094408
      4          1           0        2.457050   -0.548609   -0.004093
      5          1           0        0.851979   -1.445839   -0.056905
      6          8           0       -0.666472    0.678856   -0.010087
      7          8           0       -1.198106    0.607483    1.361571
      8          1           0       -0.803332    1.387818    1.793530
 ---------------------------------------------------------------------
                    Distance matrix (angstroms):
                    1          2          3          4          5
     1  C    0.000000
     2  C    1.307655   0.000000
     3  H    1.072069   2.104962   0.000000
     4  H    2.073048   1.071137   2.459464   0.000000
     5  H    2.070492   1.070960   3.049608   1.839582   0.000000
     6  O    1.413775   2.376769   2.095742   3.356054   2.611937
     7  O    2.348500   3.133653   2.900526   4.069614   3.229714
     8  H    2.460330   3.416229   2.652035   4.196581   3.767463
                    6          7          8
     6  O    0.000000
     7  O    1.472812   0.000000
     8  H    1.942779   0.975376   0.000000
 Symmetry turned off by external request.
 Stoichiometry    C2H4O2
 Framework group  C1[X(C2H4O2)]
 Deg. of freedom    18
 Full point group                 C1      NOp   1
 Rotational constants (GHZ):     23.2068190      5.1898431      4.8646449
 Leave Link  202 at Fri Apr 12 16:36:24 2019, MaxMem=   134217728 cpu:         0.0
 (Enter /cm/shared/c3ddb/gaussian/09.d01/g09/l301.exe)
 Standard basis: 3-21G (6D, 7F)
 Ernie: Thresh=  0.10000D-02 Tol=  0.10000D-05 Strict=F.
    44 basis functions,    72 primitive gaussians,    44 cartesian basis functions
    16 alpha electrons       16 beta electrons
       nuclear repulsion energy       117.1965959041 Hartrees.
 IExCor=    0 DFT=F Ex=HF Corr=None ExCW=0 ScaHFX=  1.000000
 ScaDFX=  1.000000  1.000000  1.000000  1.000000 ScalE2=  1.000000  1.000000
 IRadAn=      0 IRanWt=     -1 IRanGd=            0 ICorTp=0 IEmpDi=  4
 NAtoms=    8 NActive=    8 NUniq=    8 SFac= 1.00D+00 NAtFMM=   60 NAOKFM=F Big=F
 Integral buffers will be    131072 words long.
 Raffenetti 1 integral format.
 Two-electron integral symmetry is turned off.
 Leave Link  301 at Fri Apr 12 16:36:25 2019, MaxMem=   134217728 cpu:         0.2
 (Enter /cm/shared/c3ddb/gaussian/09.d01/g09/l302.exe)
 NPDir=0 NMtPBC=     1 NCelOv=     1 NCel=       1 NClECP=     1 NCelD=      1
         NCelK=      1 NCelE2=     1 NClLst=     1 CellRange=     0.0.
 One-electron integrals computed using PRISM.
 NBasis=    44 RedAO= T EigKep=  1.18D-02  NBF=    44
 NBsUse=    44 1.00D-06 EigRej= -1.00D+00 NBFU=    44
 Leave Link  302 at Fri Apr 12 16:36:25 2019, MaxMem=   134217728 cpu:         0.3
 (Enter /cm/shared/c3ddb/gaussian/09.d01/g09/l303.exe)
 DipDrv:  MaxL=1.
 Leave Link  303 at Fri Apr 12 16:36:25 2019, MaxMem=   134217728 cpu:         0.1
 (Enter /cm/shared/c3ddb/gaussian/09.d01/g09/l401.exe)
 Initial guess from the checkpoint file:  "TMP_CALCS/scangeom_S02_090_060.chk"
 B after Tr=     0.000055    0.000091    0.000093
         Rot=    1.000000   -0.000036    0.000055    0.000015 Ang=  -0.01 deg.
 Guess basis will be translated and rotated to current coordinates.
 JPrj=2 DoOrth=T DoCkMO=T.
 Leave Link  401 at Fri Apr 12 16:36:26 2019, MaxMem=   134217728 cpu:         0.3
 (Enter /cm/shared/c3ddb/gaussian/09.d01/g09/l502.exe)
 Closed shell SCF:
 Using DIIS extrapolation, IDIIS=  1040.
 Two-electron integral symmetry not used.
 Keep R1 ints in memory in canonical form, NReq=1327373.
 IVT=       24902 IEndB=       24902 NGot=   134217728 MDV=   133702282
 LenX=   133702282 LenY=   133699905
 Requested convergence on RMS density matrix=1.00D-08 within 128 cycles.
 Requested convergence on MAX density matrix=1.00D-06.
 Requested convergence on             energy=1.00D-06.
 No special actions if energy rises.
 FoFCou: FMM=F IPFlag=           0 FMFlag=           0 FMFlg1=           0
         NFxFlg=           0 DoJE=F BraDBF=F KetDBF=F FulRan=T
         wScrn=  0.000000 ICntrl=     600 IOpCl=  0 I1Cent=           0 NGrid=           0
         NMat0=    1 NMatS0=    990 NMatT0=    0 NMatD0=    1 NMtDS0=    0 NMtDT0=    0
 Symmetry not used in FoFCou.

 Cycle   1  Pass 1  IDiag  1:
 E= -226.385894101646    
 DIIS: error= 1.98D-05 at cycle   1 NSaved=   1.
 NSaved= 1 IEnMin= 1 EnMin= -226.385894101646     IErMin= 1 ErrMin= 1.98D-05
 ErrMax= 1.98D-05  0.00D+00 EMaxC= 1.00D-01 BMatC= 3.98D-08 BMatP= 3.98D-08
 IDIUse=1 WtCom= 1.00D+00 WtEn= 0.00D+00
 Coeff-Com:  0.100D+01
 Coeff:      0.100D+01
 Gap=     0.975 Goal=   None    Shift=    0.000
 RMSDP=4.84D-06 MaxDP=4.25D-05              OVMax= 6.91D-05

 Cycle   2  Pass 1  IDiag  1:
 E= -226.385894171198     Delta-E=       -0.000000069552 Rises=F Damp=F
 DIIS: error= 9.22D-06 at cycle   2 NSaved=   2.
 NSaved= 2 IEnMin= 2 EnMin= -226.385894171198     IErMin= 2 ErrMin= 9.22D-06
 ErrMax= 9.22D-06  0.00D+00 EMaxC= 1.00D-01 BMatC= 3.44D-09 BMatP= 3.98D-08
 IDIUse=1 WtCom= 1.00D+00 WtEn= 0.00D+00
 Coeff-Com: -0.255D+00 0.125D+01
 Coeff:     -0.255D+00 0.125D+01
 Gap=     0.536 Goal=   None    Shift=    0.000
 RMSDP=2.45D-06 MaxDP=1.91D-05 DE=-6.96D-08 OVMax= 4.61D-05

 Cycle   3  Pass 1  IDiag  1:
 E= -226.385894182064     Delta-E=       -0.000000010866 Rises=F Damp=F
 DIIS: error= 3.25D-06 at cycle   3 NSaved=   3.
 NSaved= 3 IEnMin= 3 EnMin= -226.385894182064     IErMin= 3 ErrMin= 3.25D-06
 ErrMax= 3.25D-06  0.00D+00 EMaxC= 1.00D-01 BMatC= 2.97D-10 BMatP= 3.44D-09
 IDIUse=1 WtCom= 1.00D+00 WtEn= 0.00D+00
 Coeff-Com: -0.327D-02-0.203D+00 0.121D+01
 Coeff:     -0.327D-02-0.203D+00 0.121D+01
 Gap=     0.536 Goal=   None    Shift=    0.000
 RMSDP=9.04D-07 MaxDP=6.90D-06 DE=-1.09D-08 OVMax= 1.76D-05

 Cycle   4  Pass 1  IDiag  1:
 E= -226.385894183149     Delta-E=       -0.000000001085 Rises=F Damp=F
 DIIS: error= 8.17D-07 at cycle   4 NSaved=   4.
 NSaved= 4 IEnMin= 4 EnMin= -226.385894183149     IErMin= 4 ErrMin= 8.17D-07
 ErrMax= 8.17D-07  0.00D+00 EMaxC= 1.00D-01 BMatC= 5.93D-11 BMatP= 2.97D-10
 IDIUse=1 WtCom= 1.00D+00 WtEn= 0.00D+00
 Coeff-Com:  0.278D-01-0.191D+00 0.311D+00 0.853D+00
 Coeff:      0.278D-01-0.191D+00 0.311D+00 0.853D+00
 Gap=     0.536 Goal=   None    Shift=    0.000
 RMSDP=2.86D-07 MaxDP=1.79D-06 DE=-1.08D-09 OVMax= 5.07D-06

 Cycle   5  Pass 1  IDiag  1:
 E= -226.385894183270     Delta-E=       -0.000000000121 Rises=F Damp=F
 DIIS: error= 5.17D-07 at cycle   5 NSaved=   5.
 NSaved= 5 IEnMin= 5 EnMin= -226.385894183270     IErMin= 5 ErrMin= 5.17D-07
 ErrMax= 5.17D-07  0.00D+00 EMaxC= 1.00D-01 BMatC= 6.08D-12 BMatP= 5.93D-11
 IDIUse=1 WtCom= 1.00D+00 WtEn= 0.00D+00
 Coeff-Com: -0.479D-03 0.283D-01-0.154D+00-0.161D-01 0.114D+01
 Coeff:     -0.479D-03 0.283D-01-0.154D+00-0.161D-01 0.114D+01
 Gap=     0.536 Goal=   None    Shift=    0.000
 RMSDP=1.24D-07 MaxDP=6.17D-07 DE=-1.21D-10 OVMax= 2.48D-06

 Cycle   6  Pass 1  IDiag  1:
 E= -226.385894183291     Delta-E=       -0.000000000020 Rises=F Damp=F
 DIIS: error= 2.69D-07 at cycle   6 NSaved=   6.
 NSaved= 6 IEnMin= 6 EnMin= -226.385894183291     IErMin= 6 ErrMin= 2.69D-07
 ErrMax= 2.69D-07  0.00D+00 EMaxC= 1.00D-01 BMatC= 1.25D-12 BMatP= 6.08D-12
 IDIUse=1 WtCom= 1.00D+00 WtEn= 0.00D+00
 Coeff-Com: -0.375D-02 0.311D-01-0.715D-01-0.119D+00 0.225D+00 0.938D+00
 Coeff:     -0.375D-02 0.311D-01-0.715D-01-0.119D+00 0.225D+00 0.938D+00
 Gap=     0.536 Goal=   None    Shift=    0.000
 RMSDP=4.85D-08 MaxDP=3.12D-07 DE=-2.05D-11 OVMax= 1.19D-06

 Cycle   7  Pass 1  IDiag  1:
 E= -226.385894183295     Delta-E=       -0.000000000004 Rises=F Damp=F
 DIIS: error= 1.59D-07 at cycle   7 NSaved=   7.
 NSaved= 7 IEnMin= 7 EnMin= -226.385894183295     IErMin= 7 ErrMin= 1.59D-07
 ErrMax= 1.59D-07  0.00D+00 EMaxC= 1.00D-01 BMatC= 2.60D-13 BMatP= 1.25D-12
 IDIUse=1 WtCom= 1.00D+00 WtEn= 0.00D+00
 Coeff-Com:  0.158D-02-0.184D-01 0.632D-01 0.480D-01-0.344D+00-0.379D+00
 Coeff-Com:  0.163D+01
 Coeff:      0.158D-02-0.184D-01 0.632D-01 0.480D-01-0.344D+00-0.379D+00
 Coeff:      0.163D+01
 Gap=     0.536 Goal=   None    Shift=    0.000
 RMSDP=4.35D-08 MaxDP=2.90D-07 DE=-4.38D-12 OVMax= 1.17D-06

 Cycle   8  Pass 1  IDiag  1:
 E= -226.385894183296     Delta-E=       -0.000000000001 Rises=F Damp=F
 DIIS: error= 4.57D-08 at cycle   8 NSaved=   8.
 NSaved= 8 IEnMin= 8 EnMin= -226.385894183296     IErMin= 8 ErrMin= 4.57D-08
 ErrMax= 4.57D-08  0.00D+00 EMaxC= 1.00D-01 BMatC= 2.63D-14 BMatP= 2.60D-13
 IDIUse=1 WtCom= 1.00D+00 WtEn= 0.00D+00
 Coeff-Com:  0.183D-03 0.239D-04-0.510D-02 0.493D-02 0.512D-01-0.550D-01
 Coeff-Com: -0.353D+00 0.136D+01
 Coeff:      0.183D-03 0.239D-04-0.510D-02 0.493D-02 0.512D-01-0.550D-01
 Coeff:     -0.353D+00 0.136D+01
 Gap=     0.536 Goal=   None    Shift=    0.000
 RMSDP=1.42D-08 MaxDP=8.99D-08 DE=-5.68D-13 OVMax= 3.75D-07

 Cycle   9  Pass 1  IDiag  1:
 E= -226.385894183296     Delta-E=        0.000000000000 Rises=F Damp=F
 DIIS: error= 9.42D-09 at cycle   9 NSaved=   9.
 NSaved= 9 IEnMin= 8 EnMin= -226.385894183296     IErMin= 9 ErrMin= 9.42D-09
 ErrMax= 9.42D-09  0.00D+00 EMaxC= 1.00D-01 BMatC= 2.38D-15 BMatP= 2.63D-14
[...]
 IDIUse=1 WtCom= 1.00D+00 WtEn= 0.00D+00
 Coeff-Com: -0.930D-01 0.109D+01
 Coeff:     -0.930D-01 0.109D+01
 Gap=     0.536 Goal=   None    Shift=    0.000
 RMSDP=2.39D-07 MaxDP=1.30D-06 DE=-5.96D-10 OVMax= 2.76D-06

 Cycle   3  Pass 1  IDiag  1:
 E= -226.385894189156     Delta-E=       -0.000000000090 Rises=F Damp=F
 DIIS: error= 6.03D-07 at cycle   3 NSaved=   3.
 NSaved= 3 IEnMin= 3 EnMin= -226.385894189156     IErMin= 3 ErrMin= 6.03D-07
 ErrMax= 6.03D-07  0.00D+00 EMaxC= 1.00D-01 BMatC= 1.23D-11 BMatP= 4.27D-11
 IDIUse=1 WtCom= 1.00D+00 WtEn= 0.00D+00
 Coeff-Com: -0.845D-01 0.296D+00 0.789D+00
 Coeff:     -0.845D-01 0.296D+00 0.789D+00
 Gap=     0.536 Goal=   None    Shift=    0.000
 RMSDP=8.71D-08 MaxDP=5.96D-07 DE=-8.96D-11 OVMax= 1.50D-06

 Cycle   4  Pass 1  IDiag  1:
 E= -226.385894189176     Delta-E=       -0.000000000021 Rises=F Damp=F
 DIIS: error= 2.44D-07 at cycle   4 NSaved=   4.
 NSaved= 4 IEnMin= 4 EnMin= -226.385894189176     IErMin= 4 ErrMin= 2.44D-07
 ErrMax= 2.44D-07  0.00D+00 EMaxC= 1.00D-01 BMatC= 2.27D-12 BMatP= 1.23D-11
 IDIUse=1 WtCom= 1.00D+00 WtEn= 0.00D+00
 Coeff-Com:  0.314D-01-0.289D+00-0.747D-01 0.133D+01
 Coeff:      0.314D-01-0.289D+00-0.747D-01 0.133D+01
 Gap=     0.536 Goal=   None    Shift=    0.000
 RMSDP=8.27D-08 MaxDP=5.88D-07 DE=-2.06D-11 OVMax= 1.35D-06

 Cycle   5  Pass 1  IDiag  1:
 E= -226.385894189184     Delta-E=       -0.000000000008 Rises=F Damp=F
 DIIS: error= 1.16D-07 at cycle   5 NSaved=   5.
 NSaved= 5 IEnMin= 5 EnMin= -226.385894189184     IErMin= 5 ErrMin= 1.16D-07
 ErrMax= 1.16D-07  0.00D+00 EMaxC= 1.00D-01 BMatC= 2.20D-13 BMatP= 2.27D-12
 IDIUse=1 WtCom= 1.00D+00 WtEn= 0.00D+00
 Coeff-Com:  0.165D-02 0.370D-01-0.623D-01-0.297D+00 0.132D+01
 Coeff:      0.165D-02 0.370D-01-0.623D-01-0.297D+00 0.132D+01
 Gap=     0.536 Goal=   None    Shift=    0.000
 RMSDP=2.93D-08 MaxDP=2.39D-07 DE=-7.84D-12 OVMax= 6.41D-07

 Cycle   6  Pass 1  IDiag  1:
 E= -226.385894189186     Delta-E=       -0.000000000001 Rises=F Damp=F
 DIIS: error= 5.51D-08 at cycle   6 NSaved=   6.
 NSaved= 6 IEnMin= 6 EnMin= -226.385894189186     IErMin= 6 ErrMin= 5.51D-08
 ErrMax= 5.51D-08  0.00D+00 EMaxC= 1.00D-01 BMatC= 4.61D-14 BMatP= 2.20D-13
 IDIUse=1 WtCom= 1.00D+00 WtEn= 0.00D+00
 Coeff-Com: -0.504D-02 0.557D-01-0.328D-03-0.264D+00 0.146D+00 0.107D+01
 Coeff:     -0.504D-02 0.557D-01-0.328D-03-0.264D+00 0.146D+00 0.107D+01
 Gap=     0.536 Goal=   None    Shift=    0.000
 RMSDP=1.34D-08 MaxDP=1.01D-07 DE=-1.48D-12 OVMax= 3.19D-07

 Cycle   7  Pass 1  IDiag  1:
 E= -226.385894189186     Delta-E=        0.000000000000 Rises=F Damp=F
 DIIS: error= 2.39D-08 at cycle   7 NSaved=   7.
 NSaved= 7 IEnMin= 6 EnMin= -226.385894189186     IErMin= 7 ErrMin= 2.39D-08
 ErrMax= 2.39D-08  0.00D+00 EMaxC= 1.00D-01 BMatC= 7.93D-15 BMatP= 4.61D-14
 IDIUse=1 WtCom= 1.00D+00 WtEn= 0.00D+00
 Coeff-Com:  0.156D-02-0.285D-01 0.787D-02 0.172D+00-0.353D+00-0.366D+00
 Coeff-Com:  0.157D+01
 Coeff:      0.156D-02-0.285D-01 0.787D-02 0.172D+00-0.353D+00-0.366D+00
 Coeff:      0.157D+01
 Gap=     0.536 Goal=   None    Shift=    0.000
 RMSDP=8.05D-09 MaxDP=5.21D-08 DE= 5.68D-14 OVMax= 1.98D-07

 SCF Done:  E(RHF) =  -226.385894189     A.U. after    7 cycles
            NFock=  7  Conv=0.81D-08     -V/T= 2.0034
 KE= 2.256143504912D+02 PE=-7.677377999179D+02 EE= 1.985411668771D+02
 Leave Link  502 at Fri Apr 12 16:36:31 2019, MaxMem=   134217728 cpu:         0.2
 (Enter /cm/shared/c3ddb/gaussian/09.d01/g09/l701.exe)
 Compute integral first derivatives.
 ... and contract with generalized density number  0.
 Leave Link  701 at Fri Apr 12 16:36:31 2019, MaxMem=   134217728 cpu:         0.2
 (Enter /cm/shared/c3ddb/gaussian/09.d01/g09/l702.exe)
 L702 exits ... SP integral derivatives will be done elsewhere.
 Leave Link  702 at Fri Apr 12 16:36:31 2019, MaxMem=   134217728 cpu:         0.1
 (Enter /cm/shared/c3ddb/gaussian/09.d01/g09/l703.exe)
 Compute integral first derivatives, UseDBF=F ICtDFT=           0.
 Integral derivatives from FoFJK, PRISM(SPDF).
 Calling FoFJK, ICntrl=      2127 FMM=F ISym2X=0 I1Cent= 0 IOpClX= 0 NMat=1 NMatS=1 NMatT=0.
 FoFJK:  IHMeth= 1 ICntrl=    2127 DoSepK=F KAlg= 0 I1Cent=   0 FoldK=F
 IRaf=         0 NMat=   1 IRICut=       1 DoRegI=T DoRafI=F ISym2E= 0.
 FoFCou: FMM=F IPFlag=           0 FMFlag=      100000 FMFlg1=         800
         NFxFlg=           0 DoJE=F BraDBF=F KetDBF=F FulRan=T
         wScrn=  0.000000 ICntrl=    2127 IOpCl=  0 I1Cent=           0 NGrid=           0
         NMat0=    1 NMatS0=      1 NMatT0=    0 NMatD0=    1 NMtDS0=    0 NMtDT0=    0
 Symmetry not used in FoFCou.
 Leave Link  703 at Fri Apr 12 16:36:32 2019, MaxMem=   134217728 cpu:         0.2
 (Enter /cm/shared/c3ddb/gaussian/09.d01/g09/l716.exe)
 Dipole        = 1.14025521D+00 4.41279911D-01 4.25759700D-01
 -------------------------------------------------------------------
 Center     Atomic                   Forces (Hartrees/Bohr)
 Number     Number              X              Y              Z
 -------------------------------------------------------------------
      1        6          -0.000155676   -0.003006047    0.000818439
      2        6           0.000028110    0.000045053   -0.000684193
      3        1          -0.000000127   -0.000000146    0.000000091
      4        1          -0.000000032   -0.000000098   -0.000000159
      5        1          -0.000000386    0.000000402   -0.000000397
      6        8          -0.000378301    0.003750152   -0.000288682
      7        8           0.003980536   -0.003221833    0.001374420
      8        1          -0.003474124    0.002432518   -0.001219519
 -------------------------------------------------------------------
 Cartesian Forces:  Max     0.003980536 RMS     0.001733004
 Leave Link  716 at Fri Apr 12 16:36:32 2019, MaxMem=   134217728 cpu:         0.1
 (Enter /cm/shared/c3ddb/gaussian/09.d01/g09/l103.exe)

 GradGradGradGradGradGradGradGradGradGradGradGradGradGradGradGradGradGrad
 Berny optimization.
 Using GEDIIS/GDIIS optimizer.
 FormGI is forming the generalized inverse of G from B-inverse, IUseBI=4.
 Internal  Forces:  Max     0.007920491 RMS     0.001706723
 Search for a local minimum.
 Step number   6 out of a maximum of   32
 All quantities printed in internal units (Hartrees-Bohrs-Radians)
 RMS Force = .54254D-06 SwitMx=.10000D-02 MixMth= 2
 Mixed Optimization -- En-DIIS/RFO-DIIS
 Swapping is turned off.
 Update second derivatives using D2CorX and points    1    2    3    4    5
                                                      6
 DE= -5.27D-10 DEPred=-5.19D-10 R= 1.02D+00
 Trust test= 1.02D+00 RLast= 7.17D-05 DXMaxT set to 3.00D-01
 ITU=  0  0  0  1  0  0
     Eigenvalues ---    0.02659   0.03334   0.05575   0.12916   0.15998
     Eigenvalues ---    0.16080   0.20666   0.23185   0.28389   0.35305
     Eigenvalues ---    0.37083   0.37101   0.37935   0.46330   0.52261
     Eigenvalues ---    0.653001000.000001000.000001000.000001000.00000
     Eigenvalues --- 1000.000001000.00000
 En-DIIS/RFO-DIIS IScMMF=        0 using points:     6    5    4    3    2
 RFO step:  Lambda=-2.02652270D-06.
 NNeg= 0 NP= 5 Switch=  2.50D-03 Rises=F DC=  8.61D-06 SmlDif=  1.00D-05
 RMS Error=  0.5398513272D-04 NUsed= 5 EDIIS=F
 DidBck=F Rises=F RFO-DIIS coefs:    1.01181   -0.00008   -0.00505   -0.00616   -0.00053
 Iteration  1 RMS(Cart)=  0.00000493 RMS(Int)=  0.00000012
 Iteration  2 RMS(Cart)=  0.00000000 RMS(Int)=  0.00000012
 Iteration  1 RMS(Cart)=  0.00000016 RMS(Int)=  0.00000006
 ITry= 1 IFail=0 DXMaxC= 9.07D-06 DCOld= 1.00D+10 DXMaxT= 3.00D-01 DXLimC= 3.00D+00 Rises=F
 Variable       Old X    -DE/DX   Delta X   Delta X   Delta X     New X
                                 (Linear)    (Quad)   (Total)
    R1        2.47110   0.00000   0.00000   0.00000   0.00000   2.47110
    R2        2.02590   0.00000   0.00000   0.00000   0.00000   2.02590
    R3        2.67173   0.00000   0.00000   0.00000   0.00000   2.67174
    R4        2.02416   0.00000   0.00000   0.00000   0.00000   2.02416
    R5        2.02382   0.00000   0.00000   0.00000   0.00000   2.02382
    R6        2.78321   0.00000   0.00000   0.00000   0.00000   2.78320
    R7        1.84319   0.00000   0.00000   0.00000   0.00000   1.84319
    A1        2.16591  -0.00001   0.00000   0.00000   0.00000   2.16591
    A2        2.12319   0.00000   0.00000   0.00000   0.00000   2.12319
    A3        1.99363   0.00000   0.00000   0.00000   0.00000   1.99363
    A4        2.11079   0.00000   0.00000   0.00000   0.00000   2.11080
    A5        2.10663   0.00000   0.00000  -0.00001  -0.00001   2.10662
    A6        2.06575   0.00000   0.00000   0.00000   0.00000   2.06575
    A7        1.90027   0.00000   0.00000   0.00000   0.00000   1.90027
    A8        1.80035   0.00000   0.00000   0.00000   0.00000   1.80035
    D1       -0.00763   0.00023   0.00000  -0.00001  -0.00001  -0.00764
    D2        3.14115   0.00023   0.00000   0.00000   0.00001   3.14116
    D3        3.09978  -0.00023   0.00000   0.00000   0.00000   3.09978
    D4       -0.03463  -0.00023   0.00000   0.00001   0.00001  -0.03461
    D5        1.57080   0.00093   0.00000   0.00000   0.00000   1.57080
    D6       -1.60184   0.00051   0.00000   0.00001   0.00001  -1.60183
    D7        1.04720   0.00792   0.00000   0.00000   0.00000   1.04720
         Item               Value     Threshold  Converged?
 Maximum Force            0.000002     0.000015     YES
 RMS     Force            0.000001     0.000010     YES
 Maximum Displacement     0.000009     0.000060     YES
 RMS     Displacement     0.000005     0.000040     YES
 Predicted change in Energy=-1.830307D-11
 Optimization completed.
    -- Stationary point found.
                           ----------------------------
                           !   Optimized Parameters   !
                           ! (Angstroms and Degrees)  !
 --------------------------                            --------------------------
 ! Name  Definition              Value          Derivative Info.                !
 --------------------------------------------------------------------------------
 ! R1    R(1,2)                  1.3076         -DE/DX =    0.0                 !
 ! R2    R(1,3)                  1.0721         -DE/DX =    0.0                 !
 ! R3    R(1,6)                  1.4138         -DE/DX =    0.0                 !
 ! R4    R(2,4)                  1.0711         -DE/DX =    0.0                 !
 ! R5    R(2,5)                  1.071          -DE/DX =    0.0                 !
 ! R6    R(6,7)                  1.4728         -DE/DX =    0.0                 !
 ! R7    R(7,8)                  0.9754         -DE/DX =    0.0                 !
 ! A1    A(2,1,3)              124.0976         -DE/DX =    0.0                 !
 ! A2    A(2,1,6)              121.6498         -DE/DX =    0.0                 !
 ! A3    A(3,1,6)              114.2268         -DE/DX =    0.0                 !
 ! A4    A(1,2,4)              120.9395         -DE/DX =    0.0                 !
 ! A5    A(1,2,5)              120.7008         -DE/DX =    0.0                 !
 ! A6    A(4,2,5)              118.3585         -DE/DX =    0.0                 !
 ! A7    A(1,6,7)              108.8775         -DE/DX =    0.0                 !
 ! A8    A(6,7,8)              103.1525         -DE/DX =    0.0                 !
 ! D1    D(3,1,2,4)             -0.4372         -DE/DX =    0.0002              !
 ! D2    D(3,1,2,5)            179.9747         -DE/DX =    0.0002              !
 ! D3    D(6,1,2,4)            177.6042         -DE/DX =   -0.0002              !
 ! D4    D(6,1,2,5)             -1.984          -DE/DX =   -0.0002              !
 ! D5    D(2,1,6,7)             90.0            -DE/DX =    0.0009              !
 ! D6    D(3,1,6,7)            -91.7785         -DE/DX =    0.0005              !
 ! D7    D(1,6,7,8)             60.0001         -DE/DX =    0.0079              !
 --------------------------------------------------------------------------------
 Lowest energy point so far.  Saving SCF results.
 GradGradGradGradGradGradGradGradGradGradGradGradGradGradGradGradGradGrad

 Largest change from initial coordinates is atom    8       0.011 Angstoms.
 Leave Link  103 at Fri Apr 12 16:36:32 2019, MaxMem=   134217728 cpu:         0.0
 (Enter /cm/shared/c3ddb/gaussian/09.d01/g09/l202.exe)
                          Input orientation:                          
 ---------------------------------------------------------------------
 Center     Atomic      Atomic             Coordinates (Angstroms)
 Number     Number       Type             X           Y           Z
 ---------------------------------------------------------------------
      1          6           0        0.745085    0.619509    0.042661
      2          6           0        1.386312   -0.519068   -0.006481
      3          1           0        1.224015    1.577246    0.094440
      4          1           0        2.457039   -0.548645   -0.003967
      5          1           0        0.851943   -1.445815   -0.056905
      6          8           0       -0.666504    0.678834   -0.010099
      7          8           0       -1.198046    0.607448    1.361592
      8          1           0       -0.803253    1.387805    1.793491
 ---------------------------------------------------------------------
                    Distance matrix (angstroms):
                    1          2          3          4          5
     1  C    0.000000
     2  C    1.307648   0.000000
     3  H    1.072060   2.105007   0.000000
     4  H    2.073052   1.071138   2.459562   0.000000
     5  H    2.070483   1.070959   3.049629   1.839579   0.000000
     6  O    1.413820   2.376770   2.095741   3.356078   2.611897
     7  O    2.348506   3.133618   2.900441   4.069514   3.229625
     8  H    2.460292   3.416176   2.651882   4.196451   3.767366
                    6          7          8
     6  O    0.000000
     7  O    1.472809   0.000000
     8  H    1.942750   0.975374   0.000000
 Symmetry turned off by external request.
 Stoichiometry    C2H4O2
 Framework group  C1[X(C2H4O2)]
 Deg. of freedom    18
 Full point group                 C1      NOp   1
 Rotational constants (GHZ):     23.2056054      5.1899206      4.8647165
 Leave Link  202 at Fri Apr 12 16:36:32 2019, MaxMem=   134217728 cpu:         0.0
 (Enter /cm/shared/c3ddb/gaussian/09.d01/g09/l601.exe)
 Copying SCF densities to generalized density rwf, IOpCl= 0 IROHF=0.

 **********************************************************************

            Population analysis using the SCF density.

 **********************************************************************

 Alpha  occ. eigenvalues --  -20.52699 -20.51946 -11.24287 -11.18720  -1.46498
 Alpha  occ. eigenvalues --   -1.23047  -1.04078  -0.80781  -0.69601  -0.68934
 Alpha  occ. eigenvalues --   -0.61497  -0.58710  -0.57279  -0.49262  -0.45413
 Alpha  occ. eigenvalues --   -0.39303
 Alpha virt. eigenvalues --    0.14324   0.26628   0.27838   0.30007   0.31808
 Alpha virt. eigenvalues --    0.35949   0.49443   0.55885   0.87840   0.96548
 Alpha virt. eigenvalues --    0.98499   1.06185   1.09434   1.10577   1.25398
 Alpha virt. eigenvalues --    1.31282   1.36152   1.56631   1.59729   1.75752
 Alpha virt. eigenvalues --    1.81573   1.84432   1.99560   2.04668   2.09741
 Alpha virt. eigenvalues --    2.19362   3.09638   3.46783
          Condensed to atoms (all electrons):
               1          2          3          4          5          6
     1  C    4.945406   0.471980   0.378804  -0.039330  -0.048962   0.245936
     2  C    0.471980   5.339859  -0.068045   0.368912   0.386388  -0.060139
     3  H    0.378804  -0.068045   0.494416   0.001454   0.002251  -0.040579
     4  H   -0.039330   0.368912   0.001454   0.452329  -0.014715   0.001472
     5  H   -0.048962   0.386388   0.002251  -0.014715   0.417075  -0.001162
     6  O    0.245936  -0.060139  -0.040579   0.001472  -0.001162   8.141915
     7  O   -0.037738  -0.000204   0.000597  -0.000027   0.000382   0.123750
     8  H   -0.001667   0.000254   0.001459   0.000007   0.000039  -0.025487
               7          8
     1  C   -0.037738  -0.001667
     2  C   -0.000204   0.000254
     3  H    0.000597   0.001459
     4  H   -0.000027   0.000007
     5  H    0.000382   0.000039
     6  O    0.123750  -0.025487
     7  O    8.053030   0.235496
     8  H    0.235496   0.393717
 Mulliken charges:
               1
     1  C    0.085570
     2  C   -0.439006
     3  H    0.229643
     4  H    0.229898
     5  H    0.258704
     6  O   -0.385706
     7  O   -0.375286
     8  H    0.396183
 Sum of Mulliken charges =   0.00000
 Mulliken charges with hydrogens summed into heavy atoms:
               1
     1  C    0.315213
     2  C    0.049596
     6  O   -0.385706
     7  O    0.020897
 Electronic spatial extent (au):  <R**2>=            314.2876
 Charge=              0.0000 electrons
 Dipole moment (field-independent basis, Debye):
    X=              2.8982    Y=              1.1216    Z=              1.0822  Tot=              3.2907
 Quadrupole moment (field-independent basis, Debye-Ang):
   XX=            -24.4668   YY=            -18.9023   ZZ=            -22.7695
   XY=              0.1223   XZ=              0.3178   YZ=              3.8902
 Traceless Quadrupole moment (field-independent basis, Debye-Ang):
   XX=             -2.4206   YY=              3.1439   ZZ=             -0.7233
   XY=              0.1223   XZ=              0.3178   YZ=              3.8902
 Octapole moment (field-independent basis, Debye-Ang**2):
  XXX=             -2.4992  YYY=            -18.4116  ZZZ=            -18.6340  XYY=             -3.5243
  XXY=             -8.9228  XXZ=            -10.2616  XZZ=             -6.5291  YZZ=             -0.5332
  YYZ=             -2.0061  XYZ=             -2.0680
 Hexadecapole moment (field-independent basis, Debye-Ang**3):
 XXXX=           -181.8582 YYYY=            -77.7731 ZZZZ=            -74.0111 XXXY=             25.5562
 XXXZ=             31.7137 YYYX=             24.7681 YYYZ=             -7.6663 ZZZX=             23.7692
 ZZZY=             -3.7473 XXYY=            -44.4732 XXZZ=            -51.7419 YYZZ=            -19.2350
 XXYZ=             -4.9048 YYXZ=              4.7755 ZZXY=              4.0871
 N-N= 1.171963883604D+02 E-N=-7.677378001026D+02  KE= 2.256143504912D+02
 No NMR shielding tensors so no spin-rotation constants.
 Leave Link  601 at Fri Apr 12 16:36:32 2019, MaxMem=   134217728 cpu:         0.2
 (Enter /cm/shared/c3ddb/gaussian/09.d01/g09/l9999.exe)
 1\1\GINC-NODE029\FOpt\RHF\3-21G\C2H4O2\MATTSJ\12-Apr-2019\0\\#p hf 3-2
 1g scf=tight NoSymmetry guess=read opt=(tight,modredundant)\\Geometry 
 optimization at the 2D-PES\\0,1\C,0.7450850858,0.6195094756,0.04266060
 05\C,1.3863118363,-0.5190676831,-0.0064811058\H,1.2240148387,1.5772457
 349,0.0944396525\H,2.4570388153,-0.5486448537,-0.0039670174\H,0.851943
 0665,-1.4458151966,-0.0569047091\O,-0.666503748,0.6788344368,-0.010098
 6363\O,-1.1980455124,0.607448054,1.3615919678\H,-0.8032533821,1.387805
 0321,1.7934912479\\Version=AS64L-G09RevD.01\HF=-226.3858942\RMSD=8.052
 e-09\RMSF=1.733e-03\Dipole=1.1402552,0.4412799,0.4257597\Quadrupole=-1
 .7996388,2.3374193,-0.5377806,0.0909372,0.2362789,2.8922946\PG=C01 [X(
 C2H4O2)]\\@


 THERE IS AN OLD, OLD RECIPE IN MAINE FOR STEWING COOT. PLACE THE
 BIRD IN A KETTLE OF WATER WITH A RED BUILDING BRICK FREE OF MORTAR AND
 BLEMISHES. PARBOIL THE COOT AND BRICK TOGETHER FOR THREE HOURS.
 POUR OFF THE WATER, REFILL THE KETTLE, AND AGAIN PARBOIL FOR THREE HOURS.
 ONCE AGAIN POUR OFF THE WATER, FOR THE LAST TIME ADD FRESH WATER,
 AND LET THE COOT AND BRICK SIMMER TOGETHER OVERNIGHT. IN THE MORNING,
 THROW AWAY THE COOT AND EAT THE BRICK.
 Job cpu time:       0 days  0 hours  0 minutes 14.8 seconds.
 File lengths (MBytes):  RWF=      5 Int=      0 D2E=      0 Chk=      1 Scr=      1
 Normal termination of Gaussian 09 at Fri Apr 12 16:36:32 2019.
