 Entering Gaussian System, Link 0=/cm/shared/c3ddb/gaussian/09.d01/g09/g09
 Initial command:
 /cm/shared/c3ddb/gaussian/09.d01/g09/l1.exe "/scratch/users/mattsj/g09/S02-7952157/Gau-43409.inp" -scrdir="/scratch/users/mattsj/g09/S02-7952157/"
 Entering Link 1 = /cm/shared/c3ddb/gaussian/09.d01/g09/l1.exe PID=     43410.
  
 Copyright (c) 1988,1990,1992,1993,1995,1998,2003,2009,2013,
            Gaussian, Inc.  All Rights Reserved.
  
 This is part of the Gaussian(R) 09 program.  It is based on
 the Gaussian(R) 03 system (copyright 2003, Gaussian, Inc.),
 the Gaussian(R) 98 system (copyright 1998, Gaussian, Inc.),
 the Gaussian(R) 94 system (copyright 1995, Gaussian, Inc.),
 the Gaussian 92(TM) system (copyright 1992, Gaussian, Inc.),
 the Gaussian 90(TM) system (copyright 1990, Gaussian, Inc.),
 the Gaussian 88(TM) system (copyright 1988, Gaussian, Inc.),
 the Gaussian 86(TM) system (copyright 1986, Carnegie Mellon
 University), and the Gaussian 82(TM) system (copyright 1983,
 Carnegie Mellon University). Gaussian is a federally registered
 trademark of Gaussian, Inc.
  
 This software contains proprietary and confidential information,
 including trade secrets, belonging to Gaussian, Inc.
  
 This software is provided under written license and may be
 used, copied, transmitted, or stored only in accord with that
 written license.
  
 The following legend is applicable only to US Government
 contracts under FAR:
  
                    RESTRICTED RIGHTS LEGEND
  
 Use, reproduction and disclosure by the US Government is
 subject to restrictions as set forth in subparagraphs (a)
 and (c) of the Commercial Computer Software - Restricted
 Rights clause in FAR 52.227-19.
  
 Gaussian, Inc.
 340 Quinnipiac St., Bldg. 40, Wallingford CT 06492
  
  
 ---------------------------------------------------------------
 Warning -- This program may not be used in any manner that
 competes with the business of Gaussian, Inc. or will provide
 assistance to any competitor of Gaussian, Inc.  The licensee
 of this program is prohibited from giving any competitor of
 Gaussian, Inc. access to this program.  By using this program,
 the user acknowledges that Gaussian, Inc. is engaged in the
 business of creating and licensing software in the field of
 computational chemistry and represents and warrants to the
 licensee that it is not a competitor of Gaussian, Inc. and that
 it will not use this program in any manner prohibited above.
 ---------------------------------------------------------------
  

 Cite this work as:
 Gaussian 09, Revision D.01,
 M. J. Frisch, G. W. Trucks, H. B. Schlegel, G. E. Scuseria, 
 M. A. Robb, J. R. Cheeseman, G. Scalmani, V. Barone, B. Mennucci, 
 G. A. Petersson, H. Nakatsuji, M. Caricato, X. Li, H. P. Hratchian, 
 A. F. Izmaylov, J. Bloino, G. Zheng, J. L. Sonnenberg, M. Hada, 
 M. Ehara, K. Toyota, R. Fukuda, J. Hasegawa, M. Ishida, T. Nakajima, 
 Y. Honda, O. Kitao, H. Nakai, T. Vreven, J. A. Montgomery, Jr., 
 J. E. Peralta, F. Ogliaro, M. Bearpark, J. J. Heyd, E. Brothers, 
 K. N. Kudin, V. N. Staroverov, T. Keith, R. Kobayashi, J. Normand, 
 K. Raghavachari, A. Rendell, J. C. Burant, S. S. Iyengar, J. Tomasi, 
 M. Cossi, N. Rega, J. M. Millam, M. Klene, J. E. Knox, J. B. Cross, 
 V. Bakken, C. Adamo, J. Jaramillo, R. Gomperts, R. E. Stratmann, 
 O. Yazyev, A. J. Austin, R. Cammi, C. Pomelli, J. W. Ochterski, 
 R. L. Martin, K. Morokuma, V. G. Zakrzewski, G. A. Voth, 
 P. Salvador, J. J. Dannenberg, S. Dapprich, A. D. Daniels, 
 O. Farkas, J. B. Foresman, J. V. Ortiz, J. Cioslowski, 
 and D. J. Fox, Gaussian, Inc., Wallingford CT, 2013.
 
 ******************************************
 Gaussian 09:  AS64L-G09RevD.01 24-Apr-2013
                12-Apr-2019 
 ******************************************
 %nproc=1
 Will use up to    1 processors via shared memory.
 %mem=1GB
 %chk=TMP_CALCS/scangeom_S02_150_130.chk
 --------------------------------------------------------------------
 #p hf 3-21g scf=tight NoSymmetry guess=read opt=(tight,modredundant)
 --------------------------------------------------------------------
 1/7=10,18=120,19=15,38=1/1,3;
 2/9=110,12=2,15=1,17=6,18=5,40=1/2;
 3/5=5,11=9,16=1,25=1,30=1,71=1,116=-2/1,2,3;
 4/5=1/1;
 5/5=2,32=2,38=6/2;
 6/7=2,8=2,9=2,10=2,28=1/1;
 7/30=1/1,2,3,16;
 1/7=10,18=20,19=15/3(2);
 2/9=110,15=1/2;
 99//99;
 2/9=110,15=1/2;
 3/5=5,11=9,16=1,25=1,30=1,71=1/1,2,3;
 4/5=5,16=3,69=1/1;
 5/5=2,32=2,38=5/2;
 7/30=1/1,2,3,16;
 1/7=10,18=20,19=15/3(-5);
 2/9=110,15=1/2;
 6/7=2,8=2,9=2,10=2,19=2,28=1/1;
 99/9=1/99;
 Leave Link    1 at Fri Apr 12 15:58:13 2019, MaxMem=   134217728 cpu:         0.1
 (Enter /cm/shared/c3ddb/gaussian/09.d01/g09/l101.exe)
 -----------------------------------
 Geometry optimization at the 2D-PES
 -----------------------------------
 Symbolic Z-matrix:
 Charge =  0 Multiplicity = 1
 C                     0.73457   0.63669   0.05452 
 C                     1.36975  -0.50617   0.00021 
 H                     1.19984   1.59633   0.11794 
 H                     2.43955  -0.53179  -0.01877 
 H                     0.83886  -1.43526  -0.03603 
 O                    -0.66555   0.67976  -0.01318 
 O                    -1.09342   1.84998   0.75752 
 H                    -1.68924   2.2718    0.11513 
 
 The following ModRedundant input section has been read:
 D       2       1       6       7 F                                           
 D       1       6       7       8 F                                           
 
 NAtoms=      8 NQM=        8 NQMF=       0 NMMI=      0 NMMIF=      0
                NMic=       0 NMicF=      0.
                    Isotopes and Nuclear Properties:
 (Nuclear quadrupole moments (NQMom) in fm**2, nuclear magnetic moments (NMagM)
  in nuclear magnetons)

  Atom         1           2           3           4           5           6           7           8
 IAtWgt=          12          12           1           1           1          16          16           1
 AtmWgt=  12.0000000  12.0000000   1.0078250   1.0078250   1.0078250  15.9949146  15.9949146   1.0078250
 NucSpn=           0           0           1           1           1           0           0           1
 AtZEff=   0.0000000   0.0000000   0.0000000   0.0000000   0.0000000   0.0000000   0.0000000   0.0000000
 NQMom=    0.0000000   0.0000000   0.0000000   0.0000000   0.0000000   0.0000000   0.0000000   0.0000000
 NMagM=    0.0000000   0.0000000   2.7928460   2.7928460   2.7928460   0.0000000   0.0000000   2.7928460
 AtZNuc=   6.0000000   6.0000000   1.0000000   1.0000000   1.0000000   8.0000000   8.0000000   1.0000000
 Leave Link  101 at Fri Apr 12 15:58:13 2019, MaxMem=   134217728 cpu:         0.6
 (Enter /cm/shared/c3ddb/gaussian/09.d01/g09/l103.exe)

 GradGradGradGradGradGradGradGradGradGradGradGradGradGradGradGradGradGrad
 Berny optimization.
 Initialization pass.
                           ----------------------------
                           !    Initial Parameters    !
                           ! (Angstroms and Degrees)  !
 --------------------------                            --------------------------
 ! Name  Definition              Value          Derivative Info.                !
 --------------------------------------------------------------------------------
 ! R1    R(1,2)                  1.3086         estimate D2E/DX2                !
 ! R2    R(1,3)                  1.0684         estimate D2E/DX2                !
 ! R3    R(1,6)                  1.4024         estimate D2E/DX2                !
 ! R4    R(2,4)                  1.0703         estimate D2E/DX2                !
 ! R5    R(2,5)                  1.0707         estimate D2E/DX2                !
 ! R6    R(6,7)                  1.4651         estimate D2E/DX2                !
 ! R7    R(7,8)                  0.9724         estimate D2E/DX2                !
 ! A1    A(2,1,3)              125.1367         estimate D2E/DX2                !
 ! A2    A(2,1,6)              120.624          estimate D2E/DX2                !
 ! A3    A(3,1,6)              114.2084         estimate D2E/DX2                !
 ! A4    A(1,2,4)              120.4512         estimate D2E/DX2                !
 ! A5    A(1,2,5)              121.2354         estimate D2E/DX2                !
 ! A6    A(4,2,5)              118.3108         estimate D2E/DX2                !
 ! A7    A(1,6,7)              106.8998         estimate D2E/DX2                !
 ! A8    A(6,7,8)              100.2476         estimate D2E/DX2                !
 ! D1    D(3,1,2,4)             -2.2683         estimate D2E/DX2                !
 ! D2    D(3,1,2,5)            178.3381         estimate D2E/DX2                !
 ! D3    D(6,1,2,4)            175.589          estimate D2E/DX2                !
 ! D4    D(6,1,2,5)             -3.8046         estimate D2E/DX2                !
 ! D5    D(2,1,6,7)            150.0            Frozen                          !
 ! D6    D(3,1,6,7)            -31.9212         estimate D2E/DX2                !
 ! D7    D(1,6,7,8)            130.0            Frozen                          !
 --------------------------------------------------------------------------------
 Trust Radius=3.00D-01 FncErr=1.00D-07 GrdErr=1.00D-07
 Number of steps in this run=     32 maximum allowed number of steps=    100.
 GradGradGradGradGradGradGradGradGradGradGradGradGradGradGradGradGradGrad

 Leave Link  103 at Fri Apr 12 15:58:14 2019, MaxMem=   134217728 cpu:         0.0
 (Enter /cm/shared/c3ddb/gaussian/09.d01/g09/l202.exe)
                          Input orientation:                          
 ---------------------------------------------------------------------
 Center     Atomic      Atomic             Coordinates (Angstroms)
 Number     Number       Type             X           Y           Z
 ---------------------------------------------------------------------
      1          6           0        0.734570    0.636690    0.054522
      2          6           0        1.369753   -0.506165    0.000205
      3          1           0        1.199836    1.596334    0.117943
      4          1           0        2.439549   -0.531785   -0.018768
      5          1           0        0.838855   -1.435259   -0.036034
      6          8           0       -0.665552    0.679764   -0.013181
      7          8           0       -1.093415    1.849980    0.757522
      8          1           0       -1.689244    2.271798    0.115125
 ---------------------------------------------------------------------
                    Distance matrix (angstroms):
                    1          2          3          4          5
     1  C    0.000000
     2  C    1.308635   0.000000
     3  H    1.068369   2.112637   0.000000
     4  H    2.068250   1.070271   2.466672   0.000000
     5  H    2.076547   1.070692   3.056889   1.838147   0.000000
     6  O    1.402420   2.355647   2.082538   3.333097   2.595590
     7  O    2.303869   3.491725   2.394243   4.330966   3.893096
     8  H    2.924402   4.133733   2.966992   4.992488   4.489589
                    6          7          8
     6  O    0.000000
     7  O    1.465079   0.000000
     8  H    1.897098   0.972428   0.000000
 Symmetry turned off by external request.
 Stoichiometry    C2H4O2
 Framework group  C1[X(C2H4O2)]
 Deg. of freedom    18
 Full point group                 C1      NOp   1
 Rotational constants (GHZ):     39.9183948      4.5794639      4.2618988
 Leave Link  202 at Fri Apr 12 15:58:14 2019, MaxMem=   134217728 cpu:         0.0
 (Enter /cm/shared/c3ddb/gaussian/09.d01/g09/l301.exe)
 Standard basis: 3-21G (6D, 7F)
 Ernie: Thresh=  0.10000D-02 Tol=  0.10000D-05 Strict=F.
    44 basis functions,    72 primitive gaussians,    44 cartesian basis functions
    16 alpha electrons       16 beta electrons
       nuclear repulsion energy       116.6226806182 Hartrees.
 IExCor=    0 DFT=F Ex=HF Corr=None ExCW=0 ScaHFX=  1.000000
 ScaDFX=  1.000000  1.000000  1.000000  1.000000 ScalE2=  1.000000  1.000000
 IRadAn=      0 IRanWt=     -1 IRanGd=            0 ICorTp=0 IEmpDi=  4
 NAtoms=    8 NActive=    8 NUniq=    8 SFac= 1.00D+00 NAtFMM=   60 NAOKFM=F Big=F
 Integral buffers will be    131072 words long.
 Raffenetti 1 integral format.
 Two-electron integral symmetry is turned off.
 Leave Link  301 at Fri Apr 12 15:58:14 2019, MaxMem=   134217728 cpu:         0.2
 (Enter /cm/shared/c3ddb/gaussian/09.d01/g09/l302.exe)
 NPDir=0 NMtPBC=     1 NCelOv=     1 NCel=       1 NClECP=     1 NCelD=      1
         NCelK=      1 NCelE2=     1 NClLst=     1 CellRange=     0.0.
 One-electron integrals computed using PRISM.
 NBasis=    44 RedAO= T EigKep=  1.14D-02  NBF=    44
 NBsUse=    44 1.00D-06 EigRej= -1.00D+00 NBFU=    44
 Leave Link  302 at Fri Apr 12 15:58:14 2019, MaxMem=   134217728 cpu:         0.3
 (Enter /cm/shared/c3ddb/gaussian/09.d01/g09/l303.exe)
 DipDrv:  MaxL=1.
 Leave Link  303 at Fri Apr 12 15:58:15 2019, MaxMem=   134217728 cpu:         0.1
 (Enter /cm/shared/c3ddb/gaussian/09.d01/g09/l401.exe)
 Initial guess from the checkpoint file:  "TMP_CALCS/scangeom_S02_150_130.chk"
 B after Tr=    -0.001681   -0.006984    0.009143
         Rot=    0.999988    0.002085   -0.003062   -0.003179 Ang=   0.56 deg.
 Guess basis will be translated and rotated to current coordinates.
 JPrj=2 DoOrth=T DoCkMO=T.
 Leave Link  401 at Fri Apr 12 15:58:15 2019, MaxMem=   134217728 cpu:         0.6
 (Enter /cm/shared/c3ddb/gaussian/09.d01/g09/l502.exe)
 Closed shell SCF:
 Using DIIS extrapolation, IDIIS=  1040.
 Two-electron integral symmetry not used.
 Keep R1 ints in memory in canonical form, NReq=1327205.
 IVT=       24902 IEndB=       24902 NGot=   134217728 MDV=   133702282
 LenX=   133702282 LenY=   133699905
 Requested convergence on RMS density matrix=1.00D-08 within 128 cycles.
 Requested convergence on MAX density matrix=1.00D-06.
 Requested convergence on             energy=1.00D-06.
 No special actions if energy rises.
 FoFCou: FMM=F IPFlag=           0 FMFlag=           0 FMFlg1=           0
         NFxFlg=           0 DoJE=F BraDBF=F KetDBF=F FulRan=T
         wScrn=  0.000000 ICntrl=     600 IOpCl=  0 I1Cent=           0 NGrid=           0
         NMat0=    1 NMatS0=    990 NMatT0=    0 NMatD0=    1 NMtDS0=    0 NMtDT0=    0
 Symmetry not used in FoFCou.

 Cycle   1  Pass 1  IDiag  1:
 E= -226.392461131200    
 DIIS: error= 6.76D-03 at cycle   1 NSaved=   1.
 NSaved= 1 IEnMin= 1 EnMin= -226.392461131200     IErMin= 1 ErrMin= 6.76D-03
 ErrMax= 6.76D-03  0.00D+00 EMaxC= 1.00D-01 BMatC= 1.82D-03 BMatP= 1.82D-03
 IDIUse=3 WtCom= 9.32D-01 WtEn= 6.76D-02
 Coeff-Com:  0.100D+01
 Coeff-En:   0.100D+01
 Coeff:      0.100D+01
 Gap=     0.544 Goal=   None    Shift=    0.000
 GapD=    0.544 DampG=2.000 DampE=1.000 DampFc=2.0000 IDamp=-1.
 RMSDP=1.12D-03 MaxDP=1.40D-02              OVMax= 1.31D-02

 Cycle   2  Pass 1  IDiag  1:
 E= -226.395312759778     Delta-E=       -0.002851628578 Rises=F Damp=F
 DIIS: error= 3.11D-03 at cycle   2 NSaved=   2.
 NSaved= 2 IEnMin= 2 EnMin= -226.395312759778     IErMin= 2 ErrMin= 3.11D-03
 ErrMax= 3.11D-03  0.00D+00 EMaxC= 1.00D-01 BMatC= 1.78D-04 BMatP= 1.82D-03
 IDIUse=3 WtCom= 9.69D-01 WtEn= 3.11D-02
 Coeff-Com: -0.341D+00 0.134D+01
 Coeff-En:   0.000D+00 0.100D+01
 Coeff:     -0.330D+00 0.133D+01
 Gap=     0.543 Goal=   None    Shift=    0.000
 RMSDP=5.87D-04 MaxDP=5.70D-03 DE=-2.85D-03 OVMax= 9.68D-03

 Cycle   3  Pass 1  IDiag  1:
 E= -226.395788513858     Delta-E=       -0.000475754080 Rises=F Damp=F
 DIIS: error= 9.32D-04 at cycle   3 NSaved=   3.
 NSaved= 3 IEnMin= 3 EnMin= -226.395788513858     IErMin= 3 ErrMin= 9.32D-04
 ErrMax= 9.32D-04  0.00D+00 EMaxC= 1.00D-01 BMatC= 1.56D-05 BMatP= 1.78D-04
 IDIUse=3 WtCom= 9.91D-01 WtEn= 9.32D-03
 Coeff-Com:  0.752D-01-0.439D+00 0.136D+01
 Coeff-En:   0.000D+00 0.000D+00 0.100D+01
 Coeff:      0.745D-01-0.435D+00 0.136D+01
 Gap=     0.543 Goal=   None    Shift=    0.000
 RMSDP=2.31D-04 MaxDP=3.10D-03 DE=-4.76D-04 OVMax= 4.21D-03

 Cycle   4  Pass 1  IDiag  1:
 E= -226.395839350160     Delta-E=       -0.000050836303 Rises=F Damp=F
 DIIS: error= 2.81D-04 at cycle   4 NSaved=   4.
 NSaved= 4 IEnMin= 4 EnMin= -226.395839350160     IErMin= 4 ErrMin= 2.81D-04
 ErrMax= 2.81D-04  0.00D+00 EMaxC= 1.00D-01 BMatC= 3.61D-06 BMatP= 1.56D-05
 IDIUse=3 WtCom= 9.97D-01 WtEn= 2.81D-03
 Coeff-Com:  0.852D-01-0.383D+00 0.457D+00 0.840D+00
 Coeff-En:   0.000D+00 0.000D+00 0.000D+00 0.100D+01
 Coeff:      0.849D-01-0.381D+00 0.456D+00 0.841D+00
 Gap=     0.543 Goal=   None    Shift=    0.000
 RMSDP=8.08D-05 MaxDP=1.02D-03 DE=-5.08D-05 OVMax= 1.46D-03

 Cycle   5  Pass 1  IDiag  1:
 E= -226.395845451802     Delta-E=       -0.000006101641 Rises=F Damp=F
 DIIS: error= 5.50D-05 at cycle   5 NSaved=   5.
 NSaved= 5 IEnMin= 5 EnMin= -226.395845451802     IErMin= 5 ErrMin= 5.50D-05
 ErrMax= 5.50D-05  0.00D+00 EMaxC= 1.00D-01 BMatC= 1.26D-07 BMatP= 3.61D-06
 IDIUse=1 WtCom= 1.00D+00 WtEn= 0.00D+00
 Coeff-Com: -0.507D-02 0.327D-01-0.115D+00 0.309D-01 0.106D+01
 Coeff:     -0.507D-02 0.327D-01-0.115D+00 0.309D-01 0.106D+01
 Gap=     0.543 Goal=   None    Shift=    0.000
 RMSDP=1.69D-05 MaxDP=1.94D-04 DE=-6.10D-06 OVMax= 2.99D-04

 Cycle   6  Pass 1  IDiag  1:
 E= -226.395845717463     Delta-E=       -0.000000265662 Rises=F Damp=F
 DIIS: error= 2.63D-05 at cycle   6 NSaved=   6.
 NSaved= 6 IEnMin= 6 EnMin= -226.395845717463     IErMin= 6 ErrMin= 2.63D-05
 ErrMax= 2.63D-05  0.00D+00 EMaxC= 1.00D-01 BMatC= 1.43D-08 BMatP= 1.26D-07
 IDIUse=1 WtCom= 1.00D+00 WtEn= 0.00D+00
 Coeff-Com: -0.417D-02 0.204D-01-0.369D-01-0.282D-01 0.158D+00 0.891D+00
 Coeff:     -0.417D-02 0.204D-01-0.369D-01-0.282D-01 0.158D+00 0.891D+00
 Gap=     0.543 Goal=   None    Shift=    0.000
 RMSDP=4.10D-06 MaxDP=3.14D-05 DE=-2.66D-07 OVMax= 8.48D-05

 Cycle   7  Pass 1  IDiag  1:
 E= -226.395845753119     Delta-E=       -0.000000035655 Rises=F Damp=F
 DIIS: error= 1.64D-05 at cycle   7 NSaved=   7.
 NSaved= 7 IEnMin= 7 EnMin= -226.395845753119     IErMin= 7 ErrMin= 1.64D-05
 ErrMax= 1.64D-05  0.00D+00 EMaxC= 1.00D-01 BMatC= 4.20D-09 BMatP= 1.43D-08
 IDIUse=1 WtCom= 1.00D+00 WtEn= 0.00D+00
 Coeff-Com:  0.282D-02-0.161D-01 0.458D-01-0.302D-03-0.380D+00-0.203D+00
 Coeff-Com:  0.155D+01
 Coeff:      0.282D-02-0.161D-01 0.458D-01-0.302D-03-0.380D+00-0.203D+00
 Coeff:      0.155D+01
 Gap=     0.543 Goal=   None    Shift=    0.000
 RMSDP=4.82D-06 MaxDP=3.55D-05 DE=-3.57D-08 OVMax= 1.09D-04

 Cycle   8  Pass 1  IDiag  1:
 E= -226.395845773791     Delta-E=       -0.000000020673 Rises=F Damp=F
 DIIS: error= 5.46D-06 at cycle   8 NSaved=   8.
 NSaved= 8 IEnMin= 8 EnMin= -226.395845773791     IErMin= 8 ErrMin= 5.46D-06
 ErrMax= 5.46D-06  0.00D+00 EMaxC= 1.00D-01 BMatC= 3.17D-10 BMatP= 4.20D-09
 IDIUse=1 WtCom= 1.00D+00 WtEn= 0.00D+00
 Coeff-Com:  0.793D-04-0.445D-05-0.218D-02 0.310D-02 0.362D-01-0.761D-01
 Coeff-Com: -0.243D+00 0.128D+01
 Coeff:      0.793D-04-0.445D-05-0.218D-02 0.310D-02 0.362D-01-0.761D-01
 Coeff:     -0.243D+00 0.128D+01
 Gap=     0.543 Goal=   None    Shift=    0.000
 RMSDP=1.54D-06 MaxDP=1.06D-05 DE=-2.07D-08 OVMax= 3.58D-05

 Cycle   9  Pass 1  IDiag  1:
 E= -226.395845775535     Delta-E=       -0.000000001744 Rises=F Damp=F
 DIIS: error= 1.70D-06 at cycle   9 NSaved=   9.
 NSaved= 9 IEnMin= 9 EnMin= -226.395845775535     IErMin= 9 ErrMin= 1.70D-06
 ErrMax= 1.70D-06  0.00D+00 EMaxC= 1.00D-01 BMatC= 3.65D-11 BMatP= 3.17D-10
 IDIUse=1 WtCom= 1.00D+00 WtEn= 0.00D+00
 Coeff-Com: -0.330D-03 0.187D-02-0.509D-02-0.277D-03 0.420D-01 0.264D-01
 Coeff-Com: -0.178D+00-0.342D-01 0.115D+01
 Coeff:     -0.330D-03 0.187D-02-0.509D-02-0.277D-03 0.420D-01 0.264D-01
 Coeff:     -0.178D+00-0.342D-01 0.115D+01
 Gap=     0.543 Goal=   None    Shift=    0.000
 RMSDP=4.59D-07 MaxDP=2.80D-06 DE=-1.74D-09 OVMax= 1.02D-05

 Cycle  10  Pass 1  IDiag  1:
 E= -226.395845775699     Delta-E=       -0.000000000164 Rises=F Damp=F
 DIIS: error= 5.44D-07 at cycle  10 NSaved=  10.
 NSaved=10 IEnMin=10 EnMin= -226.395845775699     IErMin=10 ErrMin= 5.44D-07
 ErrMax= 5.44D-07  0.00D+00 EMaxC= 1.00D-01 BMatC= 5.75D-12 BMatP= 3.65D-11
 IDIUse=1 WtCom= 1.00D+00 WtEn= 0.00D+00
 Coeff-Com:  0.153D-03-0.920D-03 0.281D-02-0.383D-03-0.257D-01 0.193D-02
 Coeff-Com:  0.116D+00-0.174D+00-0.430D+00 0.151D+01
 Coeff:      0.153D-03-0.920D-03 0.281D-02-0.383D-03-0.257D-01 0.193D-02
 Coeff:      0.116D+00-0.174D+00-0.430D+00 0.151D+01
 Gap=     0.543 Goal=   None    Shift=    0.000
 RMSDP=1.74D-07 MaxDP=1.45D-06 DE=-1.64D-10 OVMax= 2.93D-06

 Cycle  11  Pass 1  IDiag  1:
 E= -226.395845775726     Delta-E=       -0.000000000026 Rises=F Damp=F
 DIIS: error= 1.56D-07 at cycle  11 NSaved=  11.
 NSaved=11 IEnMin=11 EnMin= -226.395845775726     IErMin=11 ErrMin= 1.56D-07
 ErrMax= 1.56D-07  0.00D+00 EMaxC= 1.00D-01 BMatC= 5.92D-13 BMatP= 5.75D-12
 IDIUse=1 WtCom= 1.00D+00 WtEn= 0.00D+00
 Coeff-Com:  0.181D-04-0.101D-03 0.252D-03 0.866D-04-0.198D-02-0.299D-02
 Coeff-Com:  0.675D-02 0.268D-01-0.968D-01-0.111D+00 0.118D+01
 Coeff:      0.181D-04-0.101D-03 0.252D-03 0.866D-04-0.198D-02-0.299D-02
 Coeff:      0.675D-02 0.268D-01-0.968D-01-0.111D+00 0.118D+01
 Gap=     0.543 Goal=   None    Shift=    0.000
 RMSDP=4.63D-08 MaxDP=4.34D-07 DE=-2.63D-11 OVMax= 8.32D-07

 Cycle  12  Pass 1  IDiag  1:
 E= -226.395845775728     Delta-E=       -0.000000000003 Rises=F Damp=F
 DIIS: error= 5.15D-08 at cycle  12 NSaved=  12.
 NSaved=12 IEnMin=12 EnMin= -226.395845775728     IErMin=12 ErrMin= 5.15D-08
 ErrMax= 5.15D-08  0.00D+00 EMaxC= 1.00D-01 BMatC= 8.51D-14 BMatP= 5.92D-13
 IDIUse=1 WtCom= 1.00D+00 WtEn= 0.00D+00
 Coeff-Com: -0.219D-04 0.133D-03-0.414D-03 0.731D-04 0.382D-02-0.623D-03
 Coeff-Com: -0.177D-01 0.301D-01 0.580D-01-0.254D+00 0.880D-01 0.109D+01
 Coeff:     -0.219D-04 0.133D-03-0.414D-03 0.731D-04 0.382D-02-0.623D-03
 Coeff:     -0.177D-01 0.301D-01 0.580D-01-0.254D+00 0.880D-01 0.109D+01
 Gap=     0.543 Goal=   None    Shift=    0.000
 RMSDP=1.83D-08 MaxDP=1.53D-07 DE=-2.61D-12 OVMax= 3.08D-07

 Cycle  13  Pass 1  IDiag  1:
 E= -226.395845775728     Delta-E=        0.000000000000 Rises=F Damp=F
 DIIS: error= 2.01D-08 at cycle  13 NSaved=  13.
 NSaved=13 IEnMin=13 EnMin= -226.395845775728     IErMin=13 ErrMin= 2.01D-08
 ErrMax= 2.01D-08  0.00D+00 EMaxC= 1.00D-01 BMatC= 7.07D-15 BMatP= 8.51D-14
 IDIUse=1 WtCom= 1.00D+00 WtEn= 0.00D+00
 Coeff-Com:  0.728D-05-0.448D-04 0.145D-03-0.437D-04-0.133D-02 0.443D-03
 Coeff-Com:  0.638D-02-0.142D-01-0.137D-01 0.107D+00-0.138D+00-0.428D+00
 Coeff-Com:  0.148D+01
 Coeff:      0.728D-05-0.448D-04 0.145D-03-0.437D-04-0.133D-02 0.443D-03
 Coeff:      0.638D-02-0.142D-01-0.137D-01 0.107D+00-0.138D+00-0.428D+00
 Coeff:      0.148D+01
 Gap=     0.543 Goal=   None    Shift=    0.000
 RMSDP=5.86D-09 MaxDP=4.63D-08 DE=-1.71D-13 OVMax= 1.19D-07

 SCF Done:  E(RHF) =  -226.395845776     A.U. after   13 cycles
            NFock= 13  Conv=0.59D-08     -V/T= 2.0035
 KE= 2.256142256316D+02 PE=-7.666039974289D+02 EE= 1.979712454033D+02
 Leave Link  502 at Fri Apr 12 15:58:16 2019, MaxMem=   134217728 cpu:         0.3
 (Enter /cm/shared/c3ddb/gaussian/09.d01/g09/l601.exe)
 Copying SCF densities to generalized density rwf, IOpCl= 0 IROHF=0.

 **********************************************************************

            Population analysis using the SCF density.

 **********************************************************************

 Alpha  occ. eigenvalues --  -20.53505 -20.52631 -11.24219 -11.16665  -1.47645
 Alpha  occ. eigenvalues --   -1.23885  -1.02806  -0.79688  -0.70294  -0.68205
 Alpha  occ. eigenvalues --   -0.65096  -0.56386  -0.55039  -0.52280  -0.47768
 Alpha  occ. eigenvalues --   -0.36252
 Alpha virt. eigenvalues --    0.18076   0.24172   0.27956   0.31981   0.33298
 Alpha virt. eigenvalues --    0.35948   0.49566   0.57527   0.90174   0.97131
 Alpha virt. eigenvalues --    1.00240   1.06625   1.10908   1.12716   1.22217
 Alpha virt. eigenvalues --    1.32534   1.37245   1.57340   1.60021   1.74971
 Alpha virt. eigenvalues --    1.80101   1.92748   1.94818   2.00324   2.06060
 Alpha virt. eigenvalues --    2.27184   3.06816   3.49527
          Condensed to atoms (all electrons):
               1          2          3          4          5          6
     1  C    4.872330   0.519356   0.364647  -0.046223  -0.050775   0.209146
     2  C    0.519356   5.301901  -0.046995   0.384068   0.389201  -0.051466
     3  H    0.364647  -0.046995   0.462099  -0.000317   0.002299  -0.036778
     4  H   -0.046223   0.384068  -0.000317   0.450027  -0.015153   0.001403
     5  H   -0.050775   0.389201   0.002299  -0.015153   0.433011  -0.000524
     6  O    0.209146  -0.051466  -0.036778   0.001403  -0.000524   8.198170
     7  O   -0.030379   0.002313   0.004289  -0.000025  -0.000014   0.116120
     8  H    0.000363  -0.000201   0.000435   0.000002   0.000001  -0.022885
               7          8
     1  C   -0.030379   0.000363
     2  C    0.002313  -0.000201
     3  H    0.004289   0.000435
     4  H   -0.000025   0.000002
     5  H   -0.000014   0.000001
     6  O    0.116120  -0.022885
     7  O    8.049219   0.243628
     8  H    0.243628   0.362167
 Mulliken charges:
               1
     1  C    0.161534
     2  C   -0.498178
     3  H    0.250320
     4  H    0.226217
     5  H    0.241954
     6  O   -0.413186
     7  O   -0.385152
     8  H    0.416490
 Sum of Mulliken charges =   0.00000
 Mulliken charges with hydrogens summed into heavy atoms:
               1
     1  C    0.411854
     2  C   -0.030006
     6  O   -0.413186
     7  O    0.031338
 Electronic spatial extent (au):  <R**2>=            363.0838
 Charge=              0.0000 electrons
 Dipole moment (field-independent basis, Debye):
    X=              0.5224    Y=              1.1690    Z=             -1.1695  Tot=              1.7341
 Quadrupole moment (field-independent basis, Debye-Ang):
   XX=            -19.4749   YY=            -17.8967   ZZ=            -26.9250
   XY=             -2.8269   XZ=              1.3877   YZ=             -2.1948
 Traceless Quadrupole moment (field-independent basis, Debye-Ang):
   XX=              1.9573   YY=              3.5355   ZZ=             -5.4928
   XY=             -2.8269   XZ=              1.3877   YZ=             -2.1948
 Octapole moment (field-independent basis, Debye-Ang**2):
  XXX=            -14.1780  YYY=            -32.2423  ZZZ=            -14.4944  XYY=            -12.7066
  XXY=             -5.5723  XXZ=             -5.8365  XZZ=             -4.6840  YZZ=            -17.2308
  YYZ=             -8.8196  XYZ=              2.7095
 Hexadecapole moment (field-independent basis, Debye-Ang**3):
 XXXX=           -159.4911 YYYY=           -158.6685 ZZZZ=            -41.6317 XXXY=             30.3318
 XXXZ=             14.1202 YYYX=             23.4593 YYYZ=            -30.9623 ZZZX=             14.1919
 ZZZY=            -26.0741 XXYY=            -38.4391 XXZZ=            -43.2738 YYZZ=            -44.7162
 XXYZ=             -9.7854 YYXZ=              8.3126 ZZXY=             19.8127
 N-N= 1.166226806182D+02 E-N=-7.666039975070D+02  KE= 2.256142256316D+02
 No NMR shielding tensors so no spin-rotation constants.
 Leave Link  601 at Fri Apr 12 15:58:16 2019, MaxMem=   134217728 cpu:         0.2
 (Enter /cm/shared/c3ddb/gaussian/09.d01/g09/l701.exe)
 Compute integral first derivatives.
 ... and contract with generalized density number  0.
 Leave Link  701 at Fri Apr 12 15:58:16 2019, MaxMem=   134217728 cpu:         0.2
 (Enter /cm/shared/c3ddb/gaussian/09.d01/g09/l702.exe)
 L702 exits ... SP integral derivatives will be done elsewhere.
 Leave Link  702 at Fri Apr 12 15:58:16 2019, MaxMem=   134217728 cpu:         0.1
 (Enter /cm/shared/c3ddb/gaussian/09.d01/g09/l703.exe)
 Compute integral first derivatives, UseDBF=F ICtDFT=           0.
 Integral derivatives from FoFJK, PRISM(SPDF).
 Calling FoFJK, ICntrl=      2127 FMM=F ISym2X=0 I1Cent= 0 IOpClX= 0 NMat=1 NMatS=1 NMatT=0.
 FoFJK:  IHMeth= 1 ICntrl=    2127 DoSepK=F KAlg= 0 I1Cent=   0 FoldK=F
 IRaf=         0 NMat=   1 IRICut=       1 DoRegI=T DoRafI=F ISym2E= 0.
 FoFCou: FMM=F IPFlag=           0 FMFlag=      100000 FMFlg1=         800
         NFxFlg=           0 DoJE=F BraDBF=F KetDBF=F FulRan=T
         wScrn=  0.000000 ICntrl=    2127 IOpCl=  0 I1Cent=           0 NGrid=           0
         NMat0=    1 NMatS0=      1 NMatT0=    0 NMatD0=    1 NMtDS0=    0 NMtDT0=    0
 Symmetry not used in FoFCou.
 Leave Link  703 at Fri Apr 12 15:58:17 2019, MaxMem=   134217728 cpu:         0.2
 (Enter /cm/shared/c3ddb/gaussian/09.d01/g09/l716.exe)
 Dipole        = 2.05516946D-01 4.59900724D-01-4.60122244D-01
 -------------------------------------------------------------------
 Center     Atomic                   Forces (Hartrees/Bohr)
 Number     Number              X              Y              Z
 -------------------------------------------------------------------
      1        6          -0.000765506    0.000276005    0.001271142
      2        6          -0.000168165   -0.000247263   -0.000039299
      3        1          -0.000326210    0.000084296   -0.000040845
      4        1          -0.000027846    0.000034420   -0.000015023
      5        1           0.000046495   -0.000044831   -0.000029386
      6        8           0.000157958   -0.000183094   -0.001916296
      7        8           0.001613732    0.001536057    0.000559078
      8        1          -0.000530457   -0.001455590    0.000210631
 -------------------------------------------------------------------
 Cartesian Forces:  Max     0.001916296 RMS     0.000762197
 Leave Link  716 at Fri Apr 12 15:58:17 2019, MaxMem=   134217728 cpu:         0.1
 (Enter /cm/shared/c3ddb/gaussian/09.d01/g09/l103.exe)

 GradGradGradGradGradGradGradGradGradGradGradGradGradGradGradGradGradGrad
 Berny optimization.
 FormGI is forming the generalized inverse of G from B-inverse, IUseBI=4.
 Internal  Forces:  Max     0.002255376 RMS     0.000786515
 Search for a local minimum.
 Step number   1 out of a maximum of   32
 All quantities printed in internal units (Hartrees-Bohrs-Radians)
 RMS Force = .65227D-03 SwitMx=.10000D-02 MixMth= 2
 Mixed Optimization -- En-DIIS/RFO-DIIS
 Second derivative matrix not updated -- first step.
 ITU=  0
     Eigenvalues ---    0.02570   0.03297   0.03298   0.15994   0.16000
     Eigenvalues ---    0.16000   0.16000   0.22001   0.25000   0.36336
     Eigenvalues ---    0.37143   0.37196   0.37437   0.45222   0.52884
     Eigenvalues ---    0.648511000.000001000.000001000.000001000.00000
     Eigenvalues --- 1000.000001000.00000
 RFO step:  Lambda=-3.68807014D-05 EMin= 2.56993389D-02
 Linear search not attempted -- first point.
 Iteration  1 RMS(Cart)=  0.00608063 RMS(Int)=  0.00001531
 Iteration  2 RMS(Cart)=  0.00001743 RMS(Int)=  0.00000030
 Iteration  3 RMS(Cart)=  0.00000000 RMS(Int)=  0.00000030
 Iteration  1 RMS(Cart)=  0.00000022 RMS(Int)=  0.00000010
 ITry= 1 IFail=0 DXMaxC= 1.63D-02 DCOld= 1.00D+10 DXMaxT= 3.00D-01 DXLimC= 3.00D+00 Rises=F
 Variable       Old X    -DE/DX   Delta X   Delta X   Delta X     New X
                                 (Linear)    (Quad)   (Total)
    R1        2.47296   0.00016   0.00000   0.00024   0.00024   2.47320
    R2        2.01892  -0.00007   0.00000  -0.00018  -0.00018   2.01874
    R3        2.65019  -0.00119   0.00000  -0.00262  -0.00262   2.64756
    R4        2.02252  -0.00003   0.00000  -0.00008  -0.00008   2.02244
    R5        2.02331   0.00002   0.00000   0.00005   0.00005   2.02336
    R6        2.76860   0.00015   0.00000   0.00042   0.00042   2.76902
    R7        1.83762  -0.00045   0.00000  -0.00084  -0.00084   1.83678
    A1        2.18405   0.00037   0.00000   0.00225   0.00225   2.18630
    A2        2.10529  -0.00008   0.00000  -0.00037  -0.00037   2.10492
    A3        1.99331  -0.00029   0.00000  -0.00191  -0.00191   1.99140
    A4        2.10227  -0.00009   0.00000  -0.00055  -0.00055   2.10172
    A5        2.11596   0.00011   0.00000   0.00067   0.00067   2.11663
    A6        2.06491  -0.00002   0.00000  -0.00013  -0.00013   2.06478
    A7        1.86575  -0.00206   0.00000  -0.00826  -0.00826   1.85750
    A8        1.74965  -0.00153   0.00000  -0.00954  -0.00954   1.74011
    D1       -0.03959   0.00003   0.00000   0.00009   0.00009  -0.03950
    D2        3.11259   0.00006   0.00000   0.00124   0.00124   3.11383
    D3        3.06461  -0.00005   0.00000  -0.00097  -0.00097   3.06363
    D4       -0.06640  -0.00002   0.00000   0.00017   0.00017  -0.06623
    D5        2.61799   0.00009   0.00000   0.00000   0.00000   2.61799
    D6       -0.55713   0.00003   0.00000  -0.00087  -0.00087  -0.55800
    D7        2.26893   0.00226   0.00000   0.00000   0.00000   2.26893
         Item               Value     Threshold  Converged?
 Maximum Force            0.002064     0.000015     NO 
 RMS     Force            0.000652     0.000010     NO 
 Maximum Displacement     0.016350     0.000060     NO 
 RMS     Displacement     0.006085     0.000040     NO 
 Predicted change in Energy=-1.844042D-05
 Lowest energy point so far.  Saving SCF results.
 GradGradGradGradGradGradGradGradGradGradGradGradGradGradGradGradGradGrad

 Leave Link  103 at Fri Apr 12 15:58:17 2019, MaxMem=   134217728 cpu:         0.0
 (Enter /cm/shared/c3ddb/gaussian/09.d01/g09/l202.exe)
                          Input orientation:                          
 ---------------------------------------------------------------------
 Center     Atomic      Atomic             Coordinates (Angstroms)
 Number     Number       Type             X           Y           Z
 ---------------------------------------------------------------------
      1          6           0        0.731253    0.636981    0.054892
      2          6           0        1.368028   -0.505140    0.000708
      3          1           0        1.193018    1.598198    0.118453
      4          1           0        2.437836   -0.528754   -0.017900
      5          1           0        0.838976   -1.435263   -0.036825
      6          8           0       -0.667469    0.677735   -0.014398
      7          8           0       -1.086697    1.849550    0.759039
      8          1           0       -1.680592    2.268051    0.113364
 ---------------------------------------------------------------------
                    Distance matrix (angstroms):
                    1          2          3          4          5
     1  C    0.000000
     2  C    1.308762   0.000000
     3  H    1.068271   2.113888   0.000000
     4  H    2.068009   1.070231   2.468216   0.000000
     5  H    2.077068   1.070716   3.057996   1.838061   0.000000
     6  O    1.401031   2.354288   2.079979   3.331449   2.595119
     7  O    2.295886   3.485012   2.381308   4.322303   3.889938
     8  H    2.912182   4.122785   2.950654   4.980040   4.481664
                    6          7          8
     6  O    0.000000
     7  O    1.465301   0.000000
     8  H    1.889932   0.971982   0.000000
 Symmetry turned off by external request.
 Stoichiometry    C2H4O2
 Framework group  C1[X(C2H4O2)]
 Deg. of freedom    18
 Full point group                 C1      NOp   1
 Rotational constants (GHZ):     39.6956023      4.5984296      4.2761684
 Leave Link  202 at Fri Apr 12 15:58:17 2019, MaxMem=   134217728 cpu:         0.0
 (Enter /cm/shared/c3ddb/gaussian/09.d01/g09/l301.exe)
 Standard basis: 3-21G (6D, 7F)
 Ernie: Thresh=  0.10000D-02 Tol=  0.10000D-05 Strict=F.
    44 basis functions,    72 primitive gaussians,    44 cartesian basis functions
    16 alpha electrons       16 beta electrons
       nuclear repulsion energy       116.7277093701 Hartrees.
 IExCor=    0 DFT=F Ex=HF Corr=None ExCW=0 ScaHFX=  1.000000
 ScaDFX=  1.000000  1.000000  1.000000  1.000000 ScalE2=  1.000000  1.000000
 IRadAn=      0 IRanWt=     -1 IRanGd=            0 ICorTp=0 IEmpDi=  4
 NAtoms=    8 NActive=    8 NUniq=    8 SFac= 1.00D+00 NAtFMM=   60 NAOKFM=F Big=F
 Integral buffers will be    131072 words long.
 Raffenetti 1 integral format.
 Two-electron integral symmetry is turned off.
 Leave Link  301 at Fri Apr 12 15:58:17 2019, MaxMem=   134217728 cpu:         0.1
 (Enter /cm/shared/c3ddb/gaussian/09.d01/g09/l302.exe)
 NPDir=0 NMtPBC=     1 NCelOv=     1 NCel=       1 NClECP=     1 NCelD=      1
         NCelK=      1 NCelE2=     1 NClLst=     1 CellRange=     0.0.
 One-electron integrals computed using PRISM.
 NBasis=    44 RedAO= T EigKep=  1.14D-02  NBF=    44
 NBsUse=    44 1.00D-06 EigRej= -1.00D+00 NBFU=    44
 Leave Link  302 at Fri Apr 12 15:58:18 2019, MaxMem=   134217728 cpu:         0.3
 (Enter /cm/shared/c3ddb/gaussian/09.d01/g09/l303.exe)
 DipDrv:  MaxL=1.
 Leave Link  303 at Fri Apr 12 15:58:18 2019, MaxMem=   134217728 cpu:         0.1
 (Enter /cm/shared/c3ddb/gaussian/09.d01/g09/l401.exe)
 Initial guess from the checkpoint file:  "TMP_CALCS/scangeom_S02_150_130.chk"
 B after Tr=    -0.000582   -0.000771    0.001116
         Rot=    1.000000    0.000240   -0.000524    0.000251 Ang=   0.07 deg.
 Guess basis will be translated and rotated to current coordinates.
 JPrj=2 DoOrth=T DoCkMO=T.
 Leave Link  401 at Fri Apr 12 15:58:19 2019, MaxMem=   134217728 cpu:         0.6
 (Enter /cm/shared/c3ddb/gaussian/09.d01/g09/l502.exe)
 Closed shell SCF:
 Using DIIS extrapolation, IDIIS=  1040.
 Two-electron integral symmetry not used.
 Keep R1 ints in memory in canonical form, NReq=1327205.
 IVT=       24902 IEndB=       24902 NGot=   134217728 MDV=   133702282
 LenX=   133702282 LenY=   133699905
 Requested convergence on RMS density matrix=1.00D-08 within 128 cycles.
 Requested convergence on MAX density matrix=1.00D-06.
 Requested convergence on             energy=1.00D-06.
 No special actions if energy rises.
 FoFCou: FMM=F IPFlag=           0 FMFlag=           0 FMFlg1=           0
         NFxFlg=           0 DoJE=F BraDBF=F KetDBF=F FulRan=T
         wScrn=  0.000000 ICntrl=     600 IOpCl=  0 I1Cent=           0 NGrid=           0
         NMat0=    1 NMatS0=    990 NMatT0=    0 NMatD0=    1 NMtDS0=    0 NMtDT0=    0
 Symmetry not used in FoFCou.

 Cycle   1  Pass 1  IDiag  1:
 E= -226.395832685722    
 DIIS: error= 3.93D-04 at cycle   1 NSaved=   1.
 NSaved= 1 IEnMin= 1 EnMin= -226.395832685722     IErMin= 1 ErrMin= 3.93D-04
 ErrMax= 3.93D-04  0.00D+00 EMaxC= 1.00D-01 BMatC= 1.49D-05 BMatP= 1.49D-05
 IDIUse=3 WtCom= 9.96D-01 WtEn= 3.93D-03
 Coeff-Com:  0.100D+01
 Coeff-En:   0.100D+01
 Coeff:      0.100D+01
 Gap=     0.943 Goal=   None    Shift=    0.000
 RMSDP=9.11D-05 MaxDP=6.92D-04              OVMax= 7.81D-04

 Cycle   2  Pass 1  IDiag  1:
 E= -226.395849111257     Delta-E=       -0.000016425535 Rises=F Damp=F
 DIIS: error= 1.42D-04 at cycle   2 NSaved=   2.
 NSaved= 2 IEnMin= 2 EnMin= -226.395849111257     IErMin= 2 ErrMin= 1.42D-04
 ErrMax= 1.42D-04  0.00D+00 EMaxC= 1.00D-01 BMatC= 9.16D-07 BMatP= 1.49D-05
 IDIUse=3 WtCom= 9.99D-01 WtEn= 1.42D-03
 Coeff-Com: -0.127D+00 0.113D+01
 Coeff-En:   0.000D+00 0.100D+01
 Coeff:     -0.127D+00 0.113D+01
 Gap=     0.543 Goal=   None    Shift=    0.000
 RMSDP=3.66D-05 MaxDP=1.98D-04 DE=-1.64D-05 OVMax= 4.74D-04

 Cycle   3  Pass 1  IDiag  1:
 E= -226.395851725818     Delta-E=       -0.000002614561 Rises=F Damp=F
 DIIS: error= 9.67D-05 at cycle   3 NSaved=   3.
 NSaved= 3 IEnMin= 3 EnMin= -226.395851725818     IErMin= 3 ErrMin= 9.67D-05
 ErrMax= 9.67D-05  0.00D+00 EMaxC= 1.00D-01 BMatC= 1.83D-07 BMatP= 9.16D-07
 IDIUse=1 WtCom= 1.00D+00 WtEn= 0.00D+00
 Coeff-Com: -0.193D-01-0.137D+00 0.116D+01
 Coeff:     -0.193D-01-0.137D+00 0.116D+01
 Gap=     0.543 Goal=   None    Shift=    0.000
 RMSDP=1.86D-05 MaxDP=1.21D-04 DE=-2.61D-06 OVMax= 3.08D-04

 Cycle   4  Pass 1  IDiag  1:
 E= -226.395852333294     Delta-E=       -0.000000607476 Rises=F Damp=F
 DIIS: error= 5.19D-05 at cycle   4 NSaved=   4.
 NSaved= 4 IEnMin= 4 EnMin= -226.395852333294     IErMin= 4 ErrMin= 5.19D-05
 ErrMax= 5.19D-05  0.00D+00 EMaxC= 1.00D-01 BMatC= 5.32D-08 BMatP= 1.83D-07
 IDIUse=1 WtCom= 1.00D+00 WtEn= 0.00D+00
 Coeff-Com:  0.263D-01-0.277D+00 0.173D+00 0.108D+01
 Coeff:      0.263D-01-0.277D+00 0.173D+00 0.108D+01
 Gap=     0.543 Goal=   None    Shift=    0.000
 RMSDP=1.19D-05 MaxDP=7.87D-05 DE=-6.07D-07 OVMax= 2.13D-04

 Cycle   5  Pass 1  IDiag  1:
 E= -226.395852520733     Delta-E=       -0.000000187440 Rises=F Damp=F
 DIIS: error= 2.77D-05 at cycle   5 NSaved=   5.
 NSaved= 5 IEnMin= 5 EnMin= -226.395852520733     IErMin= 5 ErrMin= 2.77D-05
 ErrMax= 2.77D-05  0.00D+00 EMaxC= 1.00D-01 BMatC= 8.49D-09 BMatP= 5.32D-08
 IDIUse=1 WtCom= 1.00D+00 WtEn= 0.00D+00
 Coeff-Com:  0.510D-03 0.535D-01-0.199D+00-0.123D+00 0.127D+01
 Coeff:      0.510D-03 0.535D-01-0.199D+00-0.123D+00 0.127D+01
 Gap=     0.543 Goal=   None    Shift=    0.000
 RMSDP=5.75D-06 MaxDP=4.79D-05 DE=-1.87D-07 OVMax= 1.31D-04

 Cycle   6  Pass 1  IDiag  1:
 E= -226.395852557440     Delta-E=       -0.000000036707 Rises=F Damp=F
 DIIS: error= 1.15D-05 at cycle   6 NSaved=   6.
 NSaved= 6 IEnMin= 6 EnMin= -226.395852557440     IErMin= 6 ErrMin= 1.15D-05
 ErrMax= 1.15D-05  0.00D+00 EMaxC= 1.00D-01 BMatC= 2.07D-09 BMatP= 8.49D-09
 IDIUse=1 WtCom= 1.00D+00 WtEn= 0.00D+00
 Coeff-Com: -0.523D-02 0.722D-01-0.873D-01-0.266D+00 0.337D+00 0.949D+00
 Coeff:     -0.523D-02 0.722D-01-0.873D-01-0.266D+00 0.337D+00 0.949D+00
 Gap=     0.543 Goal=   None    Shift=    0.000
 RMSDP=2.59D-06 MaxDP=1.68D-05 DE=-3.67D-08 OVMax= 5.54D-05

 Cycle   7  Pass 1  IDiag  1:
 E= -226.395852564418     Delta-E=       -0.000000006977 Rises=F Damp=F
 DIIS: error= 4.52D-06 at cycle   7 NSaved=   7.
 NSaved= 7 IEnMin= 7 EnMin= -226.395852564418     IErMin= 7 ErrMin= 4.52D-06
 ErrMax= 4.52D-06  0.00D+00 EMaxC= 1.00D-01 BMatC= 2.55D-10 BMatP= 2.07D-09
 IDIUse=1 WtCom= 1.00D+00 WtEn= 0.00D+00
 Coeff-Com:  0.150D-02-0.330D-01 0.690D-01 0.976D-01-0.351D+00-0.297D+00
 Coeff-Com:  0.151D+01
 Coeff:      0.150D-02-0.330D-01 0.690D-01 0.976D-01-0.351D+00-0.297D+00
 Coeff:      0.151D+01
 Gap=     0.543 Goal=   None    Shift=    0.000
 RMSDP=1.42D-06 MaxDP=9.46D-06 DE=-6.98D-09 OVMax= 3.29D-05

 Cycle   8  Pass 1  IDiag  1:
 E= -226.395852565722     Delta-E=       -0.000000001304 Rises=F Damp=F
 DIIS: error= 7.25D-07 at cycle   8 NSaved=   8.
 NSaved= 8 IEnMin= 8 EnMin= -226.395852565722     IErMin= 8 ErrMin= 7.25D-07
 ErrMax= 7.25D-07  0.00D+00 EMaxC= 1.00D-01 BMatC= 1.47D-11 BMatP= 2.55D-10
 IDIUse=1 WtCom= 1.00D+00 WtEn= 0.00D+00
 Coeff-Com:  0.450D-03-0.700D-02 0.104D-01 0.232D-01-0.434D-01-0.860D-01
 Coeff-Com:  0.106D+00 0.997D+00
 Coeff:      0.450D-03-0.700D-02 0.104D-01 0.232D-01-0.434D-01-0.860D-01
 Coeff:      0.106D+00 0.997D+00
 Gap=     0.543 Goal=   None    Shift=    0.000
 RMSDP=2.10D-07 MaxDP=1.45D-06 DE=-1.30D-09 OVMax= 4.11D-06

 Cycle   9  Pass 1  IDiag  1:
 E= -226.395852565766     Delta-E=       -0.000000000044 Rises=F Damp=F
 DIIS: error= 2.38D-07 at cycle   9 NSaved=   9.
 NSaved= 9 IEnMin= 9 EnMin= -226.395852565766     IErMin= 9 ErrMin= 2.38D-07
 ErrMax= 2.38D-07  0.00D+00 EMaxC= 1.00D-01 BMatC= 2.42D-12 BMatP= 1.47D-11
 IDIUse=1 WtCom= 1.00D+00 WtEn= 0.00D+00
 Coeff-Com: -0.210D-03 0.513D-02-0.110D-01-0.155D-01 0.590D-01 0.421D-01
 Coeff-Com: -0.258D+00 0.105D+00 0.107D+01
 Coeff:     -0.210D-03 0.513D-02-0.110D-01-0.155D-01 0.590D-01 0.421D-01
 Coeff:     -0.258D+00 0.105D+00 0.107D+01
 Gap=     0.543 Goal=   None    Shift=    0.000
 RMSDP=9.03D-08 MaxDP=6.44D-07 DE=-4.39D-11 OVMax= 1.36D-06

 Cycle  10  Pass 1  IDiag  1:
 E= -226.395852565773     Delta-E=       -0.000000000007 Rises=F Damp=F
 DIIS: error= 7.82D-08 at cycle  10 NSaved=  10.
 NSaved=10 IEnMin=10 EnMin= -226.395852565773     IErMin=10 ErrMin= 7.82D-08
 ErrMax= 7.82D-08  0.00D+00 EMaxC= 1.00D-01 BMatC= 1.38D-13 BMatP= 2.42D-12
 IDIUse=1 WtCom= 1.00D+00 WtEn= 0.00D+00
 Coeff-Com:  0.332D-04-0.104D-02 0.259D-02 0.273D-02-0.138D-01-0.613D-02
 Coeff-Com:  0.658D-01-0.945D-01-0.294D+00 0.134D+01
 Coeff:      0.332D-04-0.104D-02 0.259D-02 0.273D-02-0.138D-01-0.613D-02
 Coeff:      0.658D-01-0.945D-01-0.294D+00 0.134D+01
 Gap=     0.543 Goal=   None    Shift=    0.000
 RMSDP=2.23D-08 MaxDP=1.50D-07 DE=-6.65D-12 OVMax= 2.90D-07

 Cycle  11  Pass 1  IDiag  1:
 E= -226.395852565773     Delta-E=        0.000000000000 Rises=F Damp=F
 DIIS: error= 2.70D-08 at cycle  11 NSaved=  11.
 NSaved=11 IEnMin=11 EnMin= -226.395852565773     IErMin=11 ErrMin= 2.70D-08
 ErrMax= 2.70D-08  0.00D+00 EMaxC= 1.00D-01 BMatC= 1.64D-14 BMatP= 1.38D-13
 IDIUse=1 WtCom= 1.00D+00 WtEn= 0.00D+00
 Coeff-Com:  0.208D-04-0.518D-03 0.111D-02 0.160D-02-0.598D-02-0.438D-02
 Coeff-Com:  0.258D-01-0.737D-02-0.108D+00-0.295D-01 0.113D+01
 Coeff:      0.208D-04-0.518D-03 0.111D-02 0.160D-02-0.598D-02-0.438D-02
 Coeff:      0.258D-01-0.737D-02-0.108D+00-0.295D-01 0.113D+01
 Gap=     0.543 Goal=   None    Shift=    0.000
 RMSDP=6.69D-09 MaxDP=5.27D-08 DE=-1.14D-13 OVMax= 9.34D-08

 SCF Done:  E(RHF) =  -226.395852566     A.U. after   11 cycles
            NFock= 11  Conv=0.67D-08     -V/T= 2.0034
 KE= 2.256225029033D+02 PE=-7.668145466065D+02 EE= 1.980684817673D+02
 Leave Link  502 at Fri Apr 12 15:58:19 2019, MaxMem=   134217728 cpu:         0.3
 (Enter /cm/shared/c3ddb/gaussian/09.d01/g09/l701.exe)
 Compute integral first derivatives.
 ... and contract with generalized density number  0.
 Leave Link  701 at Fri Apr 12 15:58:19 2019, MaxMem=   134217728 cpu:         0.3
 (Enter /cm/shared/c3ddb/gaussian/09.d01/g09/l702.exe)
 L702 exits ... SP integral derivatives will be done elsewhere.
 Leave Link  702 at Fri Apr 12 15:58:20 2019, MaxMem=   134217728 cpu:         0.1
 (Enter /cm/shared/c3ddb/gaussian/09.d01/g09/l703.exe)
 Compute integral first derivatives, UseDBF=F ICtDFT=           0.
 Integral derivatives from FoFJK, PRISM(SPDF).
 Calling FoFJK, ICntrl=      2127 FMM=F ISym2X=0 I1Cent= 0 IOpClX= 0 NMat=1 NMatS=1 NMatT=0.
 FoFJK:  IHMeth= 1 ICntrl=    2127 DoSepK=F KAlg= 0 I1Cent=   0 FoldK=F
 IRaf=         0 NMat=   1 IRICut=       1 DoRegI=T DoRafI=F ISym2E= 0.
 FoFCou: FMM=F IPFlag=           0 FMFlag=      100000 FMFlg1=         800
         NFxFlg=           0 DoJE=F BraDBF=F KetDBF=F FulRan=T
         wScrn=  0.000000 ICntrl=    2127 IOpCl=  0 I1Cent=           0 NGrid=           0
         NMat0=    1 NMatS0=      1 NMatT0=    0 NMatD0=    1 NMtDS0=    0 NMtDT0=    0
 Symmetry not used in FoFCou.
 Leave Link  703 at Fri Apr 12 15:58:20 2019, MaxMem=   134217728 cpu:         0.3
 (Enter /cm/shared/c3ddb/gaussian/09.d01/g09/l716.exe)
 Dipole        = 2.04244150D-01 4.59778942D-01-4.61085410D-01
 -------------------------------------------------------------------
 Center     Atomic                   Forces (Hartrees/Bohr)
 Number     Number              X              Y              Z
 -------------------------------------------------------------------
      1        6           0.000240757   -0.001107229    0.000548337
      2        6           0.000194513    0.000070653   -0.000087320
      3        1          -0.000017722   -0.000084573   -0.000009815
      4        1           0.000033122   -0.000040634    0.000045489
      5        1           0.000003091    0.000030147    0.000008785
      6        8           0.000497462    0.000177148   -0.000864949
      7        8           0.000243931    0.001165973   -0.000518963
      8        1          -0.001195154   -0.000211486    0.000878436
 -------------------------------------------------------------------
 Cartesian Forces:  Max     0.001195154 RMS     0.000524742
 Leave Link  716 at Fri Apr 12 15:58:20 2019, MaxMem=   134217728 cpu:         0.1
 (Enter /cm/shared/c3ddb/gaussian/09.d01/g09/l103.exe)

 GradGradGradGradGradGradGradGradGradGradGradGradGradGradGradGradGradGrad
 Berny optimization.
 Using GEDIIS/GDIIS optimizer.
 FormGI is forming the generalized inverse of G from B-inverse, IUseBI=4.
 Internal  Forces:  Max     0.002453854 RMS     0.000710515
 Search for a local minimum.
 Step number   2 out of a maximum of   32
 All quantities printed in internal units (Hartrees-Bohrs-Radians)
 RMS Force = .50411D-03 SwitMx=.10000D-02 MixMth= 2
 Mixed Optimization -- En-DIIS/RFO-DIIS
 Swapping is turned off.
 Update second derivatives using D2CorX and points    1    2
 DE= -6.79D-06 DEPred=-1.84D-05 R= 3.68D-01
 Trust test= 3.68D-01 RLast= 1.34D-02 DXMaxT set to 3.00D-01
 ITU=  0  0
     Eigenvalues ---    0.02573   0.03296   0.03302   0.15733   0.16000
     Eigenvalues ---    0.16000   0.18190   0.21952   0.28740   0.37141
     Eigenvalues ---    0.37193   0.37428   0.40812   0.51063   0.53175
     Eigenvalues ---    0.648121000.000001000.000001000.000001000.00000
     Eigenvalues --- 1000.000001000.00000
 En-DIIS/RFO-DIIS IScMMF=        0 using points:     2    1
 RFO step:  Lambda=-7.75573868D-06.
 NNeg= 0 NP= 2 Switch=  2.50D-03 Rises=F DC=  6.79D-06 SmlDif=  1.00D-05
 RMS Error=  0.7224054190D-03 NUsed= 2 EDIIS=F
 DidBck=T Rises=F RFO-DIIS coefs:    0.61128    0.38872
 Iteration  1 RMS(Cart)=  0.00228321 RMS(Int)=  0.00000192
 Iteration  2 RMS(Cart)=  0.00000206 RMS(Int)=  0.00000012
 Iteration  3 RMS(Cart)=  0.00000000 RMS(Int)=  0.00000012
 Iteration  1 RMS(Cart)=  0.00000004 RMS(Int)=  0.00000002
 ITry= 1 IFail=0 DXMaxC= 5.61D-03 DCOld= 1.00D+10 DXMaxT= 3.00D-01 DXLimC= 3.00D+00 Rises=F
 Variable       Old X    -DE/DX   Delta X   Delta X   Delta X     New X
                                 (Linear)    (Quad)   (Total)
    R1        2.47320   0.00006  -0.00009   0.00017   0.00007   2.47328
    R2        2.01874  -0.00008   0.00007  -0.00022  -0.00015   2.01859
    R3        2.64756   0.00051   0.00102  -0.00050   0.00052   2.64809
    R4        2.02244   0.00003   0.00003   0.00002   0.00005   2.02249
    R5        2.02336  -0.00003  -0.00002  -0.00003  -0.00004   2.02332
    R6        2.76902   0.00123  -0.00016   0.00225   0.00209   2.77111
    R7        1.83678   0.00006   0.00033  -0.00032   0.00001   1.83679
    A1        2.18630  -0.00017  -0.00088   0.00053  -0.00034   2.18596
    A2        2.10492   0.00030   0.00014   0.00066   0.00080   2.10572
    A3        1.99140  -0.00013   0.00074  -0.00119  -0.00045   1.99095
    A4        2.10172   0.00006   0.00021  -0.00002   0.00020   2.10192
    A5        2.11663  -0.00004  -0.00026   0.00014  -0.00012   2.11651
    A6        2.06478  -0.00002   0.00005  -0.00012  -0.00007   2.06471
    A7        1.85750   0.00134   0.00321  -0.00046   0.00275   1.86025
    A8        1.74011   0.00117   0.00371   0.00014   0.00385   1.74396
    D1       -0.03950   0.00004  -0.00004   0.00061   0.00058  -0.03892
    D2        3.11383  -0.00001  -0.00048   0.00024  -0.00024   3.11359
    D3        3.06363   0.00004   0.00038   0.00053   0.00091   3.06454
    D4       -0.06623  -0.00001  -0.00007   0.00016   0.00009  -0.06614
    D5        2.61799   0.00004   0.00000   0.00000   0.00000   2.61799
    D6       -0.55800   0.00004   0.00034  -0.00005   0.00029  -0.55771
    D7        2.26893   0.00245   0.00000   0.00000   0.00000   2.26893
         Item               Value     Threshold  Converged?
 Maximum Force            0.001340     0.000015     NO 
 RMS     Force            0.000504     0.000010     NO 
 Maximum Displacement     0.005614     0.000060     NO 
 RMS     Displacement     0.002283     0.000040     NO 
 Predicted change in Energy=-5.737727D-06
 Lowest energy point so far.  Saving SCF results.
 GradGradGradGradGradGradGradGradGradGradGradGradGradGradGradGradGradGrad

 Leave Link  103 at Fri Apr 12 15:58:20 2019, MaxMem=   134217728 cpu:         0.0
 (Enter /cm/shared/c3ddb/gaussian/09.d01/g09/l202.exe)
                          Input orientation:                          
 ---------------------------------------------------------------------
 Center     Atomic      Atomic             Coordinates (Angstroms)
 Number     Number       Type             X           Y           Z
 ---------------------------------------------------------------------
      1          6           0        0.732131    0.636303    0.054491
      2          6           0        1.368965   -0.505836    0.000444
      3          1           0        1.194156    1.597312    0.117961
      4          1           0        2.438804   -0.529646   -0.017601
      5          1           0        0.839851   -1.435909   -0.036787
      6          8           0       -0.666859    0.678101   -0.014383
      7          8           0       -1.089133    1.850456    0.758673
      8          1           0       -1.683563    2.270575    0.114535
 ---------------------------------------------------------------------
                    Distance matrix (angstroms):
                    1          2          3          4          5
     1  C    0.000000
     2  C    1.308801   0.000000
     3  H    1.068192   2.113670   0.000000
     4  H    2.068180   1.070257   2.468092   0.000000
     5  H    2.077017   1.070693   3.057762   1.838025   0.000000
     6  O    1.401307   2.355102   2.079865   3.332237   2.596096
     7  O    2.299356   3.488447   2.384953   4.325948   3.892805
     8  H    2.917195   4.127881   2.955429   4.985239   4.486484
                    6          7          8
     6  O    0.000000
     7  O    1.466406   0.000000
     8  H    1.893748   0.971988   0.000000
 Symmetry turned off by external request.
 Stoichiometry    C2H4O2
 Framework group  C1[X(C2H4O2)]
 Deg. of freedom    18
 Full point group                 C1      NOp   1
 Rotational constants (GHZ):     39.7630009      4.5893074      4.2689514
 Leave Link  202 at Fri Apr 12 15:58:20 2019, MaxMem=   134217728 cpu:         0.0
 (Enter /cm/shared/c3ddb/gaussian/09.d01/g09/l301.exe)
 Standard basis: 3-21G (6D, 7F)
 Ernie: Thresh=  0.10000D-02 Tol=  0.10000D-05 Strict=F.
    44 basis functions,    72 primitive gaussians,    44 cartesian basis functions
    16 alpha electrons       16 beta electrons
       nuclear repulsion energy       116.6659508258 Hartrees.
 IExCor=    0 DFT=F Ex=HF Corr=None ExCW=0 ScaHFX=  1.000000
 ScaDFX=  1.000000  1.000000  1.000000  1.000000 ScalE2=  1.000000  1.000000
 IRadAn=      0 IRanWt=     -1 IRanGd=            0 ICorTp=0 IEmpDi=  4
 NAtoms=    8 NActive=    8 NUniq=    8 SFac= 1.00D+00 NAtFMM=   60 NAOKFM=F Big=F
 Integral buffers will be    131072 words long.
 Raffenetti 1 integral format.
 Two-electron integral symmetry is turned off.
 Leave Link  301 at Fri Apr 12 15:58:21 2019, MaxMem=   134217728 cpu:         0.3
 (Enter /cm/shared/c3ddb/gaussian/09.d01/g09/l302.exe)
 NPDir=0 NMtPBC=     1 NCelOv=     1 NCel=       1 NClECP=     1 NCelD=      1
         NCelK=      1 NCelE2=     1 NClLst=     1 CellRange=     0.0.
 One-electron integrals computed using PRISM.
 NBasis=    44 RedAO= T EigKep=  1.14D-02  NBF=    44
 NBsUse=    44 1.00D-06 EigRej= -1.00D+00 NBFU=    44
 Leave Link  302 at Fri Apr 12 15:58:21 2019, MaxMem=   134217728 cpu:         0.2
 (Enter /cm/shared/c3ddb/gaussian/09.d01/g09/l303.exe)
 DipDrv:  MaxL=1.
 Leave Link  303 at Fri Apr 12 15:58:21 2019, MaxMem=   134217728 cpu:         0.1
 (Enter /cm/shared/c3ddb/gaussian/09.d01/g09/l401.exe)
 Initial guess from the checkpoint file:  "TMP_CALCS/scangeom_S02_150_130.chk"
 B after Tr=     0.000039    0.000135   -0.000446
         Rot=    1.000000   -0.000030    0.000150   -0.000053 Ang=  -0.02 deg.
 Guess basis will be translated and rotated to current coordinates.
 JPrj=2 DoOrth=T DoCkMO=T.
 Leave Link  401 at Fri Apr 12 15:58:21 2019, MaxMem=   134217728 cpu:         0.2
 (Enter /cm/shared/c3ddb/gaussian/09.d01/g09/l502.exe)
 Closed shell SCF:
 Using DIIS extrapolation, IDIIS=  1040.
 Two-electron integral symmetry not used.
 Keep R1 ints in memory in canonical form, NReq=1327205.
 IVT=       24902 IEndB=       24902 NGot=   134217728 MDV=   133702282
 LenX=   133702282 LenY=   133699905
 Requested convergence on RMS density matrix=1.00D-08 within 128 cycles.
 Requested convergence on MAX density matrix=1.00D-06.
 Requested convergence on             energy=1.00D-06.
 No special actions if energy rises.
 FoFCou: FMM=F IPFlag=           0 FMFlag=           0 FMFlg1=           0
         NFxFlg=           0 DoJE=F BraDBF=F KetDBF=F FulRan=T
         wScrn=  0.000000 ICntrl=     600 IOpCl=  0 I1Cent=           0 NGrid=           0
         NMat0=    1 NMatS0=    990 NMatT0=    0 NMatD0=    1 NMtDS0=    0 NMtDT0=    0
 Symmetry not used in FoFCou.

 Cycle   1  Pass 1  IDiag  1:
 E= -226.395856205628    
 DIIS: error= 1.77D-04 at cycle   1 NSaved=   1.
 NSaved= 1 IEnMin= 1 EnMin= -226.395856205628     IErMin= 1 ErrMin= 1.77D-04
 ErrMax= 1.77D-04  0.00D+00 EMaxC= 1.00D-01 BMatC= 2.09D-06 BMatP= 2.09D-06
 IDIUse=3 WtCom= 9.98D-01 WtEn= 1.77D-03
 Coeff-Com:  0.100D+01
 Coeff-En:   0.100D+01
 Coeff:      0.100D+01
 Gap=     0.943 Goal=   None    Shift=    0.000
 RMSDP=3.34D-05 MaxDP=2.61D-04              OVMax= 2.76D-04

 Cycle   2  Pass 1  IDiag  1:
 E= -226.395857703096     Delta-E=       -0.000001497468 Rises=F Damp=F
 DIIS: error= 4.99D-05 at cycle   2 NSaved=   2.
 NSaved= 2 IEnMin= 2 EnMin= -226.395857703096     IErMin= 2 ErrMin= 4.99D-05
 ErrMax= 4.99D-05  0.00D+00 EMaxC= 1.00D-01 BMatC= 8.59D-08 BMatP= 2.09D-06
 IDIUse=1 WtCom= 1.00D+00 WtEn= 0.00D+00
 Coeff-Com: -0.645D-01 0.106D+01
 Coeff:     -0.645D-01 0.106D+01
 Gap=     0.543 Goal=   None    Shift=    0.000
 RMSDP=1.09D-05 MaxDP=5.74D-05 DE=-1.50D-06 OVMax= 1.60D-04

 Cycle   3  Pass 1  IDiag  1:
 E= -226.395857917340     Delta-E=       -0.000000214244 Rises=F Damp=F
 DIIS: error= 3.65D-05 at cycle   3 NSaved=   3.
 NSaved= 3 IEnMin= 3 EnMin= -226.395857917340     IErMin= 3 ErrMin= 3.65D-05
 ErrMax= 3.65D-05  0.00D+00 EMaxC= 1.00D-01 BMatC= 2.16D-08 BMatP= 8.59D-08
 IDIUse=1 WtCom= 1.00D+00 WtEn= 0.00D+00
 Coeff-Com: -0.294D-01 0.784D-01 0.951D+00
 Coeff:     -0.294D-01 0.784D-01 0.951D+00
 Gap=     0.543 Goal=   None    Shift=    0.000
 RMSDP=5.21D-06 MaxDP=3.82D-05 DE=-2.14D-07 OVMax= 9.57D-05

 Cycle   4  Pass 1  IDiag  1:
 E= -226.395857975425     Delta-E=       -0.000000058085 Rises=F Damp=F
 DIIS: error= 2.25D-05 at cycle   4 NSaved=   4.
 NSaved= 4 IEnMin= 4 EnMin= -226.395857975425     IErMin= 4 ErrMin= 2.25D-05
 ErrMax= 2.25D-05  0.00D+00 EMaxC= 1.00D-01 BMatC= 7.24D-09 BMatP= 2.16D-08
 IDIUse=1 WtCom= 1.00D+00 WtEn= 0.00D+00
 Coeff-Com:  0.195D-01-0.302D+00-0.243D-01 0.131D+01
 Coeff:      0.195D-01-0.302D+00-0.243D-01 0.131D+01
 Gap=     0.543 Goal=   None    Shift=    0.000
 RMSDP=5.27D-06 MaxDP=3.59D-05 DE=-5.81D-08 OVMax= 1.01D-04

 Cycle   5  Pass 1  IDiag  1:
 E= -226.395858006670     Delta-E=       -0.000000031244 Rises=F Damp=F
 DIIS: error= 1.03D-05 at cycle   5 NSaved=   5.
 NSaved= 5 IEnMin= 5 EnMin= -226.395858006670     IErMin= 5 ErrMin= 1.03D-05
 ErrMax= 1.03D-05  0.00D+00 EMaxC= 1.00D-01 BMatC= 1.25D-09 BMatP= 7.24D-09
 IDIUse=1 WtCom= 1.00D+00 WtEn= 0.00D+00
 Coeff-Com:  0.641D-02-0.312D-01-0.152D+00 0.899D-01 0.109D+01
 Coeff:      0.641D-02-0.312D-01-0.152D+00 0.899D-01 0.109D+01
 Gap=     0.543 Goal=   None    Shift=    0.000
 RMSDP=2.05D-06 MaxDP=1.78D-05 DE=-3.12D-08 OVMax= 4.66D-05

 Cycle   6  Pass 1  IDiag  1:
 E= -226.395858011525     Delta-E=       -0.000000004856 Rises=F Damp=F
 DIIS: error= 4.41D-06 at cycle   6 NSaved=   6.
 NSaved= 6 IEnMin= 6 EnMin= -226.395858011525     IErMin= 6 ErrMin= 4.41D-06
 ErrMax= 4.41D-06  0.00D+00 EMaxC= 1.00D-01 BMatC= 2.63D-10 BMatP= 1.25D-09
 IDIUse=1 WtCom= 1.00D+00 WtEn= 0.00D+00
 Coeff-Com: -0.400D-02 0.764D-01-0.173D-01-0.346D+00 0.178D+00 0.111D+01
 Coeff:     -0.400D-02 0.764D-01-0.173D-01-0.346D+00 0.178D+00 0.111D+01
 Gap=     0.543 Goal=   None    Shift=    0.000
 RMSDP=1.17D-06 MaxDP=7.92D-06 DE=-4.86D-09 OVMax= 2.49D-05

 Cycle   7  Pass 1  IDiag  1:
 E= -226.395858012599     Delta-E=       -0.000000001073 Rises=F Damp=F
 DIIS: error= 1.16D-06 at cycle   7 NSaved=   7.
 NSaved= 7 IEnMin= 7 EnMin= -226.395858012599     IErMin= 7 ErrMin= 1.16D-06
 ErrMax= 1.16D-06  0.00D+00 EMaxC= 1.00D-01 BMatC= 2.01D-11 BMatP= 2.63D-10
 IDIUse=1 WtCom= 1.00D+00 WtEn= 0.00D+00
 Coeff-Com:  0.106D-02-0.299D-01 0.264D-01 0.134D+00-0.195D+00-0.469D+00
 Coeff-Com:  0.153D+01
 Coeff:      0.106D-02-0.299D-01 0.264D-01 0.134D+00-0.195D+00-0.469D+00
 Coeff:      0.153D+01
 Gap=     0.543 Goal=   None    Shift=    0.000
 RMSDP=3.89D-07 MaxDP=2.67D-06 DE=-1.07D-09 OVMax= 8.45D-06

 Cycle   8  Pass 1  IDiag  1:
 E= -226.395858012700     Delta-E=       -0.000000000101 Rises=F Damp=F
 DIIS: error= 1.88D-07 at cycle   8 NSaved=   8.
 NSaved= 8 IEnMin= 8 EnMin= -226.395858012700     IErMin= 8 ErrMin= 1.88D-07
 ErrMax= 1.88D-07  0.00D+00 EMaxC= 1.00D-01 BMatC= 1.22D-12 BMatP= 2.01D-11
 IDIUse=1 WtCom= 1.00D+00 WtEn= 0.00D+00
 Coeff-Com:  0.267D-03-0.505D-02 0.855D-03 0.233D-01-0.798D-02-0.860D-01
 Coeff-Com:  0.110D-01 0.106D+01
 Coeff:      0.267D-03-0.505D-02 0.855D-03 0.233D-01-0.798D-02-0.860D-01
 Coeff:      0.110D-01 0.106D+01
 Gap=     0.543 Goal=   None    Shift=    0.000
 RMSDP=6.32D-08 MaxDP=4.47D-07 DE=-1.01D-10 OVMax= 1.15D-06

 Cycle   9  Pass 1  IDiag  1:
 E= -226.395858012703     Delta-E=       -0.000000000003 Rises=F Damp=F
 DIIS: error= 7.30D-08 at cycle   9 NSaved=   9.
 NSaved= 9 IEnMin= 9 EnMin= -226.395858012703     IErMin= 9 ErrMin= 7.30D-08
 ErrMax= 7.30D-08  0.00D+00 EMaxC= 1.00D-01 BMatC= 1.70D-13 BMatP= 1.22D-12
 IDIUse=1 WtCom= 1.00D+00 WtEn= 0.00D+00
 Coeff-Com: -0.139D-03 0.424D-02-0.384D-02-0.193D-01 0.301D-01 0.625D-01
 Coeff-Com: -0.220D+00 0.486D-01 0.110D+01
 Coeff:     -0.139D-03 0.424D-02-0.384D-02-0.193D-01 0.301D-01 0.625D-01
 Coeff:     -0.220D+00 0.486D-01 0.110D+01
 Gap=     0.543 Goal=   None    Shift=    0.000
 RMSDP=2.32D-08 MaxDP=1.71D-07 DE=-3.24D-12 OVMax= 3.48D-07

 Cycle  10  Pass 1  IDiag  1:
 E= -226.395858012704     Delta-E=       -0.000000000001 Rises=F Damp=F
 DIIS: error= 2.21D-08 at cycle  10 NSaved=  10.
 NSaved=10 IEnMin=10 EnMin= -226.395858012704     IErMin=10 ErrMin= 2.21D-08
 ErrMax= 2.21D-08  0.00D+00 EMaxC= 1.00D-01 BMatC= 1.44D-14 BMatP= 1.70D-13
 IDIUse=1 WtCom= 1.00D+00 WtEn= 0.00D+00
 Coeff-Com: -0.296D-04 0.681D-03-0.255D-03-0.328D-02 0.285D-02 0.111D-01
 Coeff-Com: -0.155D-01-0.824D-01 0.855D-01 0.100D+01
 Coeff:     -0.296D-04 0.681D-03-0.255D-03-0.328D-02 0.285D-02 0.111D-01
 Coeff:     -0.155D-01-0.824D-01 0.855D-01 0.100D+01
 Gap=     0.543 Goal=   None    Shift=    0.000
 RMSDP=5.13D-09 MaxDP=3.25D-08 DE=-8.53D-13 OVMax= 6.54D-08

 SCF Done:  E(RHF) =  -226.395858013     A.U. after   10 cycles
            NFock= 10  Conv=0.51D-08     -V/T= 2.0034
 KE= 2.256175375445D+02 PE=-7.666894676385D+02 EE= 1.980101212555D+02
 Leave Link  502 at Fri Apr 12 15:58:22 2019, MaxMem=   134217728 cpu:         0.2
 (Enter /cm/shared/c3ddb/gaussian/09.d01/g09/l701.exe)
 Compute integral first derivatives.
 ... and contract with generalized density number  0.
 Leave Link  701 at Fri Apr 12 15:58:22 2019, MaxMem=   134217728 cpu:         0.1
 (Enter /cm/shared/c3ddb/gaussian/09.d01/g09/l702.exe)
 L702 exits ... SP integral derivatives will be done elsewhere.
 Leave Link  702 at Fri Apr 12 15:58:22 2019, MaxMem=   134217728 cpu:         0.1
 (Enter /cm/shared/c3ddb/gaussian/09.d01/g09/l703.exe)
 Compute integral first derivatives, UseDBF=F ICtDFT=           0.
 Integral derivatives from FoFJK, PRISM(SPDF).
 Calling FoFJK, ICntrl=      2127 FMM=F ISym2X=0 I1Cent= 0 IOpClX= 0 NMat=1 NMatS=1 NMatT=0.
 FoFJK:  IHMeth= 1 ICntrl=    2127 DoSepK=F KAlg= 0 I1Cent=   0 FoldK=F
 IRaf=         0 NMat=   1 IRICut=       1 DoRegI=T DoRafI=F ISym2E= 0.
 FoFCou: FMM=F IPFlag=           0 FMFlag=      100000 FMFlg1=         800
         NFxFlg=           0 DoJE=F BraDBF=F KetDBF=F FulRan=T
         wScrn=  0.000000 ICntrl=    2127 IOpCl=  0 I1Cent=           0 NGrid=           0
         NMat0=    1 NMatS0=      1 NMatT0=    0 NMatD0=    1 NMtDS0=    0 NMtDT0=    0
 Symmetry not used in FoFCou.
 Leave Link  703 at Fri Apr 12 15:58:22 2019, MaxMem=   134217728 cpu:         0.2
 (Enter /cm/shared/c3ddb/gaussian/09.d01/g09/l716.exe)
 Dipole        = 2.04353106D-01 4.60304911D-01-4.60352729D-01
 -------------------------------------------------------------------
 Center     Atomic                   Forces (Hartrees/Bohr)
 Number     Number              X              Y              Z
 -------------------------------------------------------------------
      1        6          -0.000018405   -0.000560762    0.000838315
      2        6          -0.000010167    0.000051011   -0.000033099
      3        1           0.000049654   -0.000009120    0.000000954
      4        1          -0.000000596    0.000005437   -0.000008859
      5        1           0.000001025   -0.000000777    0.000001376
      6        8          -0.000181770    0.000695631   -0.000862600
      7        8           0.001197742    0.000515604   -0.000369198
      8        1          -0.001037483   -0.000697024    0.000433111
 -------------------------------------------------------------------
 Cartesian Forces:  Max     0.001197742 RMS     0.000494621
 Leave Link  716 at Fri Apr 12 15:58:22 2019, MaxMem=   134217728 cpu:         0.1
 (Enter /cm/shared/c3ddb/gaussian/09.d01/g09/l103.exe)

 GradGradGradGradGradGradGradGradGradGradGradGradGradGradGradGradGradGrad
 Berny optimization.
 Using GEDIIS/GDIIS optimizer.
 FormGI is forming the generalized inverse of G from B-inverse, IUseBI=4.
 Internal  Forces:  Max     0.002390881 RMS     0.000512037
 Search for a local minimum.
 Step number   3 out of a maximum of   32
 All quantities printed in internal units (Hartrees-Bohrs-Radians)
 RMS Force = .47847D-04 SwitMx=.10000D-02 MixMth= 2
 Mixed Optimization -- En-DIIS/RFO-DIIS
 Swapping is turned off.
 Update second derivatives using D2CorX and points    1    2    3
 DE= -5.45D-06 DEPred=-5.74D-06 R= 9.49D-01
 TightC=F SS=  1.41D+00  RLast= 5.42D-03 DXNew= 5.0454D-01 1.6263D-02
 Trust test= 9.49D-01 RLast= 5.42D-03 DXMaxT set to 3.00D-01
 ITU=  1  0  0
     Eigenvalues ---    0.02573   0.03297   0.03309   0.15985   0.16000
     Eigenvalues ---    0.16042   0.18381   0.21972   0.28990   0.37143
     Eigenvalues ---    0.37195   0.37429   0.43770   0.51707   0.52904
     Eigenvalues ---    0.650681000.000001000.000001000.000001000.00000
     Eigenvalues --- 1000.000001000.00000
 En-DIIS/RFO-DIIS IScMMF=        0 using points:     3    2    1
 RFO step:  Lambda=-2.56722460D-07.
 NNeg= 0 NP= 3 Switch=  2.50D-03 Rises=F DC=  6.79D-06 SmlDif=  1.00D-05
 RMS Error=  0.7953960125D-04 NUsed= 3 EDIIS=F
 DidBck=F Rises=F RFO-DIIS coefs:    0.81257    0.11533    0.07210
 Iteration  1 RMS(Cart)=  0.00023707 RMS(Int)=  0.00000004
 Iteration  2 RMS(Cart)=  0.00000004 RMS(Int)=  0.00000003
 Iteration  1 RMS(Cart)=  0.00000002 RMS(Int)=  0.00000001
 ITry= 1 IFail=0 DXMaxC= 7.02D-04 DCOld= 1.00D+10 DXMaxT= 3.00D-01 DXLimC= 3.00D+00 Rises=F
 Variable       Old X    -DE/DX   Delta X   Delta X   Delta X     New X
                                 (Linear)    (Quad)   (Total)
    R1        2.47328  -0.00005  -0.00003  -0.00004  -0.00007   2.47321
    R2        2.01859   0.00001   0.00004  -0.00001   0.00003   2.01862
    R3        2.64809   0.00008   0.00009   0.00008   0.00017   2.64826
    R4        2.02249   0.00000   0.00000   0.00000   0.00000   2.02249
    R5        2.02332   0.00000   0.00000  -0.00001   0.00000   2.02332
    R6        2.77111  -0.00016  -0.00042   0.00008  -0.00034   2.77076
    R7        1.83679   0.00005   0.00006   0.00002   0.00008   1.83687
    A1        2.18596  -0.00005  -0.00010  -0.00018  -0.00028   2.18568
    A2        2.10572   0.00000  -0.00012   0.00013   0.00001   2.10573
    A3        1.99095   0.00005   0.00022   0.00004   0.00026   1.99121
    A4        2.10192  -0.00001   0.00000  -0.00004  -0.00003   2.10188
    A5        2.11651   0.00001  -0.00003   0.00004   0.00002   2.11653
    A6        2.06471   0.00000   0.00002  -0.00001   0.00001   2.06472
    A7        1.86025   0.00001   0.00008   0.00005   0.00014   1.86038
    A8        1.74396  -0.00007  -0.00003  -0.00020  -0.00023   1.74373
    D1       -0.03892   0.00001  -0.00011   0.00001  -0.00011  -0.03903
    D2        3.11359   0.00002  -0.00004   0.00008   0.00004   3.11362
    D3        3.06454  -0.00003  -0.00010  -0.00016  -0.00026   3.06428
    D4       -0.06614  -0.00002  -0.00003  -0.00009  -0.00011  -0.06626
    D5        2.61799   0.00006   0.00000   0.00000   0.00000   2.61799
    D6       -0.55771   0.00003   0.00001  -0.00016  -0.00015  -0.55786
    D7        2.26893   0.00239   0.00000   0.00000   0.00000   2.26893
         Item               Value     Threshold  Converged?
 Maximum Force            0.000157     0.000015     NO 
 RMS     Force            0.000048     0.000010     NO 
 Maximum Displacement     0.000702     0.000060     NO 
 RMS     Displacement     0.000237     0.000040     NO 
 Predicted change in Energy=-6.630795D-08
 Lowest energy point so far.  Saving SCF results.
 GradGradGradGradGradGradGradGradGradGradGradGradGradGradGradGradGradGrad

 Leave Link  103 at Fri Apr 12 15:58:23 2019, MaxMem=   134217728 cpu:         0.0
 (Enter /cm/shared/c3ddb/gaussian/09.d01/g09/l202.exe)
                          Input orientation:                          
 ---------------------------------------------------------------------
 Center     Atomic      Atomic             Coordinates (Angstroms)
 Number     Number       Type             X           Y           Z
 ---------------------------------------------------------------------
      1          6           0        0.732168    0.636353    0.054600
      2          6           0        1.368917   -0.505789    0.000474
      3          1           0        1.194527    1.597222    0.118021
      4          1           0        2.438753   -0.529618   -0.017794
      5          1           0        0.839765   -1.435841   -0.036738
      6          8           0       -0.666906    0.678256   -0.014301
      7          8           0       -1.089250    1.850391    0.758705
      8          1           0       -1.683621    2.270383    0.114367
 ---------------------------------------------------------------------
                    Distance matrix (angstroms):
                    1          2          3          4          5
     1  C    0.000000
     2  C    1.308765   0.000000
     3  H    1.068208   2.113501   0.000000
     4  H    2.068129   1.070257   2.467791   0.000000
     5  H    2.076995   1.070693   3.057659   1.838032   0.000000
     6  O    1.401396   2.355155   2.080131   3.332280   2.596144
     7  O    2.299395   3.488422   2.385416   4.325991   3.892705
     8  H    2.917133   4.127723   2.955824   4.985122   4.486247
                    6          7          8
     6  O    0.000000
     7  O    1.466225   0.000000
     8  H    1.893445   0.972030   0.000000
 Symmetry turned off by external request.
 Stoichiometry    C2H4O2
 Framework group  C1[X(C2H4O2)]
 Deg. of freedom    18
 Full point group                 C1      NOp   1
 Rotational constants (GHZ):     39.7671298      4.5892853      4.2689826
 Leave Link  202 at Fri Apr 12 15:58:23 2019, MaxMem=   134217728 cpu:         0.0
 (Enter /cm/shared/c3ddb/gaussian/09.d01/g09/l301.exe)
 Standard basis: 3-21G (6D, 7F)
 Ernie: Thresh=  0.10000D-02 Tol=  0.10000D-05 Strict=F.
    44 basis functions,    72 primitive gaussians,    44 cartesian basis functions
    16 alpha electrons       16 beta electrons
       nuclear repulsion energy       116.6674040183 Hartrees.
 IExCor=    0 DFT=F Ex=HF Corr=None ExCW=0 ScaHFX=  1.000000
 ScaDFX=  1.000000  1.000000  1.000000  1.000000 ScalE2=  1.000000  1.000000
 IRadAn=      0 IRanWt=     -1 IRanGd=            0 ICorTp=0 IEmpDi=  4
 NAtoms=    8 NActive=    8 NUniq=    8 SFac= 1.00D+00 NAtFMM=   60 NAOKFM=F Big=F
 Integral buffers will be    131072 words long.
 Raffenetti 1 integral format.
 Two-electron integral symmetry is turned off.
 Leave Link  301 at Fri Apr 12 15:58:23 2019, MaxMem=   134217728 cpu:         0.1
 (Enter /cm/shared/c3ddb/gaussian/09.d01/g09/l302.exe)
 NPDir=0 NMtPBC=     1 NCelOv=     1 NCel=       1 NClECP=     1 NCelD=      1
         NCelK=      1 NCelE2=     1 NClLst=     1 CellRange=     0.0.
 One-electron integrals computed using PRISM.
 NBasis=    44 RedAO= T EigKep=  1.14D-02  NBF=    44
 NBsUse=    44 1.00D-06 EigRej= -1.00D+00 NBFU=    44
 Leave Link  302 at Fri Apr 12 15:58:23 2019, MaxMem=   134217728 cpu:         0.2
 (Enter /cm/shared/c3ddb/gaussian/09.d01/g09/l303.exe)
 DipDrv:  MaxL=1.
 Leave Link  303 at Fri Apr 12 15:58:23 2019, MaxMem=   134217728 cpu:         0.1
 (Enter /cm/shared/c3ddb/gaussian/09.d01/g09/l401.exe)
 Initial guess from the checkpoint file:  "TMP_CALCS/scangeom_S02_150_130.chk"
 B after Tr=    -0.000052    0.000083    0.000023
         Rot=    1.000000   -0.000023    0.000017   -0.000002 Ang=   0.00 deg.
 Guess basis will be translated and rotated to current coordinates.
 JPrj=2 DoOrth=T DoCkMO=T.
 Leave Link  401 at Fri Apr 12 15:58:23 2019, MaxMem=   134217728 cpu:         0.2
 (Enter /cm/shared/c3ddb/gaussian/09.d01/g09/l502.exe)
 Closed shell SCF:
 Using DIIS extrapolation, IDIIS=  1040.
 Two-electron integral symmetry not used.
 Keep R1 ints in memory in canonical form, NReq=1327205.
 IVT=       24902 IEndB=       24902 NGot=   134217728 MDV=   133702282
 LenX=   133702282 LenY=   133699905
 Requested convergence on RMS density matrix=1.00D-08 within 128 cycles.
 Requested convergence on MAX density matrix=1.00D-06.
 Requested convergence on             energy=1.00D-06.
 No special actions if energy rises.
 FoFCou: FMM=F IPFlag=           0 FMFlag=           0 FMFlg1=           0
         NFxFlg=           0 DoJE=F BraDBF=F KetDBF=F FulRan=T
         wScrn=  0.000000 ICntrl=     600 IOpCl=  0 I1Cent=           0 NGrid=           0
         NMat0=    1 NMatS0=    990 NMatT0=    0 NMatD0=    1 NMtDS0=    0 NMtDT0=    0
 Symmetry not used in FoFCou.

 Cycle   1  Pass 1  IDiag  1:
 E= -226.395858032145    
 DIIS: error= 1.67D-05 at cycle   1 NSaved=   1.
 NSaved= 1 IEnMin= 1 EnMin= -226.395858032145     IErMin= 1 ErrMin= 1.67D-05
 ErrMax= 1.67D-05  0.00D+00 EMaxC= 1.00D-01 BMatC= 3.35D-08 BMatP= 3.35D-08
 IDIUse=1 WtCom= 1.00D+00 WtEn= 0.00D+00
 Coeff-Com:  0.100D+01
 Coeff:      0.100D+01
 Gap=     0.943 Goal=   None    Shift=    0.000
 RMSDP=4.57D-06 MaxDP=2.21D-05              OVMax= 3.12D-05

 Cycle   2  Pass 1  IDiag  1:
 E= -226.395858067082     Delta-E=       -0.000000034937 Rises=F Damp=F
 DIIS: error= 4.87D-06 at cycle   2 NSaved=   2.
 NSaved= 2 IEnMin= 2 EnMin= -226.395858067082     IErMin= 2 ErrMin= 4.87D-06
 ErrMax= 4.87D-06  0.00D+00 EMaxC= 1.00D-01 BMatC= 1.66D-09 BMatP= 3.35D-08
 IDIUse=1 WtCom= 1.00D+00 WtEn= 0.00D+00
 Coeff-Com: -0.167D+00 0.117D+01
 Coeff:     -0.167D+00 0.117D+01
 Gap=     0.543 Goal=   None    Shift=    0.000
 RMSDP=1.49D-06 MaxDP=6.84D-06 DE=-3.49D-08 OVMax= 1.91D-05

 Cycle   3  Pass 1  IDiag  1:
 E= -226.395858070857     Delta-E=       -0.000000003775 Rises=F Damp=F
 DIIS: error= 1.74D-06 at cycle   3 NSaved=   3.
 NSaved= 3 IEnMin= 3 EnMin= -226.395858070857     IErMin= 3 ErrMin= 1.74D-06
 ErrMax= 1.74D-06  0.00D+00 EMaxC= 1.00D-01 BMatC= 1.89D-10 BMatP= 1.66D-09
 IDIUse=1 WtCom= 1.00D+00 WtEn= 0.00D+00
 Coeff-Com: -0.186D-01-0.505D-01 0.107D+01
 Coeff:     -0.186D-01-0.505D-01 0.107D+01
 Gap=     0.543 Goal=   None    Shift=    0.000
 RMSDP=5.13D-07 MaxDP=2.36D-06 DE=-3.77D-09 OVMax= 8.28D-06

 Cycle   4  Pass 1  IDiag  1:
 E= -226.395858071325     Delta-E=       -0.000000000469 Rises=F Damp=F
 DIIS: error= 1.21D-06 at cycle   4 NSaved=   4.
 NSaved= 4 IEnMin= 4 EnMin= -226.395858071325     IErMin= 4 ErrMin= 1.21D-06
 ErrMax= 1.21D-06  0.00D+00 EMaxC= 1.00D-01 BMatC= 4.12D-11 BMatP= 1.89D-10
 IDIUse=1 WtCom= 1.00D+00 WtEn= 0.00D+00
 Coeff-Com:  0.218D-01-0.190D+00 0.187D+00 0.981D+00
 Coeff:      0.218D-01-0.190D+00 0.187D+00 0.981D+00
 Gap=     0.543 Goal=   None    Shift=    0.000
 RMSDP=2.66D-07 MaxDP=1.36D-06 DE=-4.69D-10 OVMax= 4.32D-06

 Cycle   5  Pass 1  IDiag  1:
 E= -226.395858071437     Delta-E=       -0.000000000112 Rises=F Damp=F
 DIIS: error= 4.62D-07 at cycle   5 NSaved=   5.
 NSaved= 5 IEnMin= 5 EnMin= -226.395858071437     IErMin= 5 ErrMin= 4.62D-07
 ErrMax= 4.62D-07  0.00D+00 EMaxC= 1.00D-01 BMatC= 5.27D-12 BMatP= 4.12D-11
 IDIUse=1 WtCom= 1.00D+00 WtEn= 0.00D+00
 Coeff-Com: -0.192D-02 0.469D-01-0.201D+00-0.124D+00 0.128D+01
 Coeff:     -0.192D-02 0.469D-01-0.201D+00-0.124D+00 0.128D+01
 Gap=     0.543 Goal=   None    Shift=    0.000
 RMSDP=1.28D-07 MaxDP=6.21D-07 DE=-1.12D-10 OVMax= 2.12D-06

 Cycle   6  Pass 1  IDiag  1:
 E= -226.395858071454     Delta-E=       -0.000000000017 Rises=F Damp=F
 DIIS: error= 1.95D-07 at cycle   6 NSaved=   6.
 NSaved= 6 IEnMin= 6 EnMin= -226.395858071454     IErMin= 6 ErrMin= 1.95D-07
 ErrMax= 1.95D-07  0.00D+00 EMaxC= 1.00D-01 BMatC= 6.78D-13 BMatP= 5.27D-12
 IDIUse=1 WtCom= 1.00D+00 WtEn= 0.00D+00
 Coeff-Com: -0.246D-02 0.287D-01-0.708D-01-0.110D+00 0.287D+00 0.868D+00
 Coeff:     -0.246D-02 0.287D-01-0.708D-01-0.110D+00 0.287D+00 0.868D+00
 Gap=     0.543 Goal=   None    Shift=    0.000
 RMSDP=3.51D-08 MaxDP=2.05D-07 DE=-1.71D-11 OVMax= 5.23D-07

 Cycle   7  Pass 1  IDiag  1:
 E= -226.395858071456     Delta-E=       -0.000000000002 Rises=F Damp=F
 DIIS: error= 7.75D-08 at cycle   7 NSaved=   7.
 NSaved= 7 IEnMin= 7 EnMin= -226.395858071456     IErMin= 7 ErrMin= 7.75D-08
 ErrMax= 7.75D-08  0.00D+00 EMaxC= 1.00D-01 BMatC= 1.35D-13 BMatP= 6.78D-13
 IDIUse=1 WtCom= 1.00D+00 WtEn= 0.00D+00
 Coeff-Com:  0.700D-03-0.132D-01 0.513D-01 0.472D-01-0.338D+00-0.237D-01
 Coeff-Com:  0.128D+01
 Coeff:      0.700D-03-0.132D-01 0.513D-01 0.472D-01-0.338D+00-0.237D-01
 Coeff:      0.128D+01
 Gap=     0.543 Goal=   None    Shift=    0.000
 RMSDP=2.17D-08 MaxDP=1.15D-07 DE=-1.71D-12 OVMax= 2.84D-07

 Cycle   8  Pass 1  IDiag  1:
 E= -226.395858071456     Delta-E=        0.000000000000 Rises=F Damp=F
 DIIS: error= 2.18D-08 at cycle   8 NSaved=   8.
 NSaved= 8 IEnMin= 8 EnMin= -226.395858071456     IErMin= 8 ErrMin= 2.18D-08
 ErrMax= 2.18D-08  0.00D+00 EMaxC= 1.00D-01 BMatC= 8.73D-15 BMatP= 1.35D-13
 IDIUse=1 WtCom= 1.00D+00 WtEn= 0.00D+00
 Coeff-Com:  0.263D-03-0.315D-02 0.788D-02 0.116D-01-0.339D-01-0.793D-01
 Coeff-Com: -0.101D-01 0.111D+01
 Coeff:      0.263D-03-0.315D-02 0.788D-02 0.116D-01-0.339D-01-0.793D-01
 Coeff:     -0.101D-01 0.111D+01
 Gap=     0.543 Goal=   None    Shift=    0.000
 RMSDP=5.27D-09 MaxDP=3.24D-08 DE=-4.55D-13 OVMax= 8.88D-08

 SCF Done:  E(RHF) =  -226.395858071     A.U. after    8 cycles
            NFock=  8  Conv=0.53D-08     -V/T= 2.0034
 KE= 2.256177378845D+02 PE=-7.666925419176D+02 EE= 1.980115419434D+02
 Leave Link  502 at Fri Apr 12 15:58:24 2019, MaxMem=   134217728 cpu:         0.2
 (Enter /cm/shared/c3ddb/gaussian/09.d01/g09/l701.exe)
 Compute integral first derivatives.
 ... and contract with generalized density number  0.
 Leave Link  701 at Fri Apr 12 15:58:24 2019, MaxMem=   134217728 cpu:         0.2
 (Enter /cm/shared/c3ddb/gaussian/09.d01/g09/l702.exe)
 L702 exits ... SP integral derivatives will be done elsewhere.
 Leave Link  702 at Fri Apr 12 15:58:24 2019, MaxMem=   134217728 cpu:         0.0
 (Enter /cm/shared/c3ddb/gaussian/09.d01/g09/l703.exe)
 Compute integral first derivatives, UseDBF=F ICtDFT=           0.
 Integral derivatives from FoFJK, PRISM(SPDF).
 Calling FoFJK, ICntrl=      2127 FMM=F ISym2X=0 I1Cent= 0 IOpClX= 0 NMat=1 NMatS=1 NMatT=0.
 FoFJK:  IHMeth= 1 ICntrl=    2127 DoSepK=F KAlg= 0 I1Cent=   0 FoldK=F
 IRaf=         0 NMat=   1 IRICut=       1 DoRegI=T DoRafI=F ISym2E= 0.
 FoFCou: FMM=F IPFlag=           0 FMFlag=      100000 FMFlg1=         800
         NFxFlg=           0 DoJE=F BraDBF=F KetDBF=F FulRan=T
         wScrn=  0.000000 ICntrl=    2127 IOpCl=  0 I1Cent=           0 NGrid=           0
         NMat0=    1 NMatS0=      1 NMatT0=    0 NMatD0=    1 NMtDS0=    0 NMtDT0=    0
 Symmetry not used in FoFCou.
 Leave Link  703 at Fri Apr 12 15:58:24 2019, MaxMem=   134217728 cpu:         0.2
 (Enter /cm/shared/c3ddb/gaussian/09.d01/g09/l716.exe)
 Dipole        = 2.04573096D-01 4.60089616D-01-4.60494529D-01
 -------------------------------------------------------------------
 Center     Atomic                   Forces (Hartrees/Bohr)
 Number     Number              X              Y              Z
[...]
 FoFCou: FMM=F IPFlag=           0 FMFlag=           0 FMFlg1=           0
         NFxFlg=           0 DoJE=F BraDBF=F KetDBF=F FulRan=T
         wScrn=  0.000000 ICntrl=     600 IOpCl=  0 I1Cent=           0 NGrid=           0
         NMat0=    1 NMatS0=    990 NMatT0=    0 NMatD0=    1 NMtDS0=    0 NMtDT0=    0
 Symmetry not used in FoFCou.

 Cycle   1  Pass 1  IDiag  1:
 E= -226.395858070573    
 DIIS: error= 2.92D-06 at cycle   1 NSaved=   1.
 NSaved= 1 IEnMin= 1 EnMin= -226.395858070573     IErMin= 1 ErrMin= 2.92D-06
 ErrMax= 2.92D-06  0.00D+00 EMaxC= 1.00D-01 BMatC= 1.01D-09 BMatP= 1.01D-09
 IDIUse=1 WtCom= 1.00D+00 WtEn= 0.00D+00
 Coeff-Com:  0.100D+01
 Coeff:      0.100D+01
 Gap=     0.943 Goal=   None    Shift=    0.000
 RMSDP=7.95D-07 MaxDP=4.98D-06              OVMax= 7.92D-06

 Cycle   2  Pass 1  IDiag  1:
 E= -226.395858072108     Delta-E=       -0.000000001535 Rises=F Damp=F
 DIIS: error= 1.25D-06 at cycle   2 NSaved=   2.
 NSaved= 2 IEnMin= 2 EnMin= -226.395858072108     IErMin= 2 ErrMin= 1.25D-06
 ErrMax= 1.25D-06  0.00D+00 EMaxC= 1.00D-01 BMatC= 8.26D-11 BMatP= 1.01D-09
 IDIUse=1 WtCom= 1.00D+00 WtEn= 0.00D+00
 Coeff-Com: -0.228D+00 0.123D+01
 Coeff:     -0.228D+00 0.123D+01
 Gap=     0.543 Goal=   None    Shift=    0.000
 RMSDP=3.76D-07 MaxDP=2.03D-06 DE=-1.54D-09 OVMax= 5.75D-06

 Cycle   3  Pass 1  IDiag  1:
 E= -226.395858072354     Delta-E=       -0.000000000246 Rises=F Damp=F
 DIIS: error= 5.42D-07 at cycle   3 NSaved=   3.
 NSaved= 3 IEnMin= 3 EnMin= -226.395858072354     IErMin= 3 ErrMin= 5.42D-07
 ErrMax= 5.42D-07  0.00D+00 EMaxC= 1.00D-01 BMatC= 9.74D-12 BMatP= 8.26D-11
 IDIUse=1 WtCom= 1.00D+00 WtEn= 0.00D+00
 Coeff-Com:  0.501D-02-0.265D+00 0.126D+01
 Coeff:      0.501D-02-0.265D+00 0.126D+01
 Gap=     0.543 Goal=   None    Shift=    0.000
 RMSDP=1.65D-07 MaxDP=8.05D-07 DE=-2.46D-10 OVMax= 2.72D-06

 Cycle   4  Pass 1  IDiag  1:
 E= -226.395858072390     Delta-E=       -0.000000000035 Rises=F Damp=F
 DIIS: error= 2.63D-07 at cycle   4 NSaved=   4.
 NSaved= 4 IEnMin= 4 EnMin= -226.395858072390     IErMin= 4 ErrMin= 2.63D-07
 ErrMax= 2.63D-07  0.00D+00 EMaxC= 1.00D-01 BMatC= 2.02D-12 BMatP= 9.74D-12
 IDIUse=1 WtCom= 1.00D+00 WtEn= 0.00D+00
 Coeff-Com:  0.324D-01-0.214D+00 0.228D+00 0.954D+00
 Coeff:      0.324D-01-0.214D+00 0.228D+00 0.954D+00
 Gap=     0.543 Goal=   None    Shift=    0.000
 RMSDP=6.19D-08 MaxDP=3.39D-07 DE=-3.55D-11 OVMax= 1.04D-06

 Cycle   5  Pass 1  IDiag  1:
 E= -226.395858072395     Delta-E=       -0.000000000006 Rises=F Damp=F
 DIIS: error= 1.28D-07 at cycle   5 NSaved=   5.
 NSaved= 5 IEnMin= 5 EnMin= -226.395858072395     IErMin= 5 ErrMin= 1.28D-07
 ErrMax= 1.28D-07  0.00D+00 EMaxC= 1.00D-01 BMatC= 2.79D-13 BMatP= 2.02D-12
 IDIUse=1 WtCom= 1.00D+00 WtEn= 0.00D+00
 Coeff-Com: -0.247D-02 0.537D-01-0.221D+00-0.428D-01 0.121D+01
 Coeff:     -0.247D-02 0.537D-01-0.221D+00-0.428D-01 0.121D+01
 Gap=     0.543 Goal=   None    Shift=    0.000
 RMSDP=3.08D-08 MaxDP=2.13D-07 DE=-5.63D-12 OVMax= 5.10D-07

 Cycle   6  Pass 1  IDiag  1:
 E= -226.395858072396     Delta-E=       -0.000000000001 Rises=F Damp=F
 DIIS: error= 3.64D-08 at cycle   6 NSaved=   6.
 NSaved= 6 IEnMin= 6 EnMin= -226.395858072396     IErMin= 6 ErrMin= 3.64D-08
 ErrMax= 3.64D-08  0.00D+00 EMaxC= 1.00D-01 BMatC= 5.52D-14 BMatP= 2.79D-13
 IDIUse=1 WtCom= 1.00D+00 WtEn= 0.00D+00
 Coeff-Com: -0.445D-02 0.418D-01-0.901D-01-0.134D+00 0.346D+00 0.841D+00
 Coeff:     -0.445D-02 0.418D-01-0.901D-01-0.134D+00 0.346D+00 0.841D+00
 Gap=     0.543 Goal=   None    Shift=    0.000
 RMSDP=8.81D-09 MaxDP=6.32D-08 DE=-6.25D-13 OVMax= 1.50D-07

 SCF Done:  E(RHF) =  -226.395858072     A.U. after    6 cycles
            NFock=  6  Conv=0.88D-08     -V/T= 2.0034
 KE= 2.256177502774D+02 PE=-7.666934145936D+02 EE= 1.980119657923D+02
 Leave Link  502 at Fri Apr 12 15:58:25 2019, MaxMem=   134217728 cpu:         0.2
 (Enter /cm/shared/c3ddb/gaussian/09.d01/g09/l701.exe)
 Compute integral first derivatives.
 ... and contract with generalized density number  0.
 Leave Link  701 at Fri Apr 12 15:58:26 2019, MaxMem=   134217728 cpu:         0.1
 (Enter /cm/shared/c3ddb/gaussian/09.d01/g09/l702.exe)
 L702 exits ... SP integral derivatives will be done elsewhere.
 Leave Link  702 at Fri Apr 12 15:58:26 2019, MaxMem=   134217728 cpu:         0.0
 (Enter /cm/shared/c3ddb/gaussian/09.d01/g09/l703.exe)
 Compute integral first derivatives, UseDBF=F ICtDFT=           0.
 Integral derivatives from FoFJK, PRISM(SPDF).
 Calling FoFJK, ICntrl=      2127 FMM=F ISym2X=0 I1Cent= 0 IOpClX= 0 NMat=1 NMatS=1 NMatT=0.
 FoFJK:  IHMeth= 1 ICntrl=    2127 DoSepK=F KAlg= 0 I1Cent=   0 FoldK=F
 IRaf=         0 NMat=   1 IRICut=       1 DoRegI=T DoRafI=F ISym2E= 0.
 FoFCou: FMM=F IPFlag=           0 FMFlag=      100000 FMFlg1=         800
         NFxFlg=           0 DoJE=F BraDBF=F KetDBF=F FulRan=T
         wScrn=  0.000000 ICntrl=    2127 IOpCl=  0 I1Cent=           0 NGrid=           0
         NMat0=    1 NMatS0=      1 NMatT0=    0 NMatD0=    1 NMtDS0=    0 NMtDT0=    0
 Symmetry not used in FoFCou.
 Leave Link  703 at Fri Apr 12 15:58:26 2019, MaxMem=   134217728 cpu:         0.2
 (Enter /cm/shared/c3ddb/gaussian/09.d01/g09/l716.exe)
 Dipole        = 2.04534329D-01 4.60124965D-01-4.60462025D-01
 -------------------------------------------------------------------
 Center     Atomic                   Forces (Hartrees/Bohr)
 Number     Number              X              Y              Z
 -------------------------------------------------------------------
      1        6          -0.000060053   -0.000529785    0.000830581
      2        6           0.000001443    0.000002092   -0.000041338
      3        1           0.000000106   -0.000000424   -0.000000645
      4        1           0.000000697    0.000000050   -0.000000674
      5        1           0.000001391   -0.000000083   -0.000000488
      6        8          -0.000046172    0.000574610   -0.000915808
      7        8           0.001117864    0.000641726   -0.000360050
      8        1          -0.001015275   -0.000688186    0.000488422
 -------------------------------------------------------------------
 Cartesian Forces:  Max     0.001117864 RMS     0.000486522
 Leave Link  716 at Fri Apr 12 15:58:26 2019, MaxMem=   134217728 cpu:         0.1
 (Enter /cm/shared/c3ddb/gaussian/09.d01/g09/l103.exe)

 GradGradGradGradGradGradGradGradGradGradGradGradGradGradGradGradGradGrad
 Berny optimization.
 Using GEDIIS/GDIIS optimizer.
 FormGI is forming the generalized inverse of G from B-inverse, IUseBI=4.
 Internal  Forces:  Max     0.002388862 RMS     0.000509546
 Search for a local minimum.
 Step number   5 out of a maximum of   32
 All quantities printed in internal units (Hartrees-Bohrs-Radians)
 RMS Force = .11157D-05 SwitMx=.10000D-02 MixMth= 2
 Mixed Optimization -- En-DIIS/RFO-DIIS
 Swapping is turned off.
 Update second derivatives using D2CorX and points    1    2    3    4    5
 DE= -9.40D-10 DEPred=-1.07D-09 R= 8.79D-01
 Trust test= 8.79D-01 RLast= 1.44D-04 DXMaxT set to 3.00D-01
 ITU=  0  0  1  0  0
     Eigenvalues ---    0.02750   0.03276   0.03734   0.14136   0.16017
     Eigenvalues ---    0.16214   0.20271   0.21845   0.30948   0.37143
     Eigenvalues ---    0.37168   0.37907   0.44876   0.51512   0.53024
     Eigenvalues ---    0.654351000.000001000.000001000.000001000.00000
     Eigenvalues --- 1000.000001000.00000
 En-DIIS/RFO-DIIS IScMMF=        0 using points:     5    4    3    2    1
 RFO step:  Lambda=-1.80684289D-07.
 NNeg= 0 NP= 5 Switch=  2.50D-03 Rises=F DC=  6.79D-06 SmlDif=  1.00D-05
 RMS Error=  0.1631457880D-04 NUsed= 5 EDIIS=F
 DidBck=F Rises=F RFO-DIIS coefs:    1.00836    0.01806   -0.01973   -0.00398   -0.00271
 Iteration  1 RMS(Cart)=  0.00001349 RMS(Int)=  0.00000001
 Iteration  2 RMS(Cart)=  0.00000000 RMS(Int)=  0.00000001
 Iteration  1 RMS(Cart)=  0.00000001 RMS(Int)=  0.00000000
 ITry= 1 IFail=0 DXMaxC= 3.08D-05 DCOld= 1.00D+10 DXMaxT= 3.00D-01 DXLimC= 3.00D+00 Rises=F
 Variable       Old X    -DE/DX   Delta X   Delta X   Delta X     New X
                                 (Linear)    (Quad)   (Total)
    R1        2.47321   0.00000   0.00000   0.00000   0.00000   2.47321
    R2        2.01863   0.00000   0.00000   0.00000   0.00000   2.01863
    R3        2.64824   0.00000   0.00000  -0.00001  -0.00001   2.64823
    R4        2.02249   0.00000   0.00000   0.00000   0.00000   2.02249
    R5        2.02332   0.00000   0.00000   0.00000   0.00000   2.02332
    R6        2.77076   0.00000   0.00001   0.00000   0.00000   2.77076
    R7        1.83687   0.00000   0.00000   0.00000   0.00000   1.83687
    A1        2.18567   0.00000   0.00000  -0.00001  -0.00001   2.18566
    A2        2.10573   0.00000   0.00000   0.00001   0.00001   2.10574
    A3        1.99123   0.00000   0.00000   0.00000   0.00000   1.99122
    A4        2.10186   0.00000   0.00000  -0.00001  -0.00001   2.10185
    A5        2.11656   0.00000   0.00000   0.00001   0.00001   2.11657
    A6        2.06471   0.00000   0.00000  -0.00001  -0.00001   2.06471
    A7        1.86034   0.00000   0.00000   0.00000   0.00000   1.86034
    A8        1.74377   0.00000  -0.00001   0.00001   0.00000   1.74377
    D1       -0.03901   0.00001   0.00000   0.00000   0.00000  -0.03901
    D2        3.11359   0.00002   0.00000   0.00002   0.00002   3.11362
    D3        3.06437  -0.00002   0.00000  -0.00002  -0.00002   3.06435
    D4       -0.06622  -0.00001   0.00000   0.00000   0.00000  -0.06622
    D5        2.61799   0.00006   0.00000   0.00000   0.00000   2.61799
    D6       -0.55779   0.00003   0.00000  -0.00001  -0.00002  -0.55781
    D7        2.26893   0.00239   0.00000   0.00000   0.00000   2.26893
         Item               Value     Threshold  Converged?
 Maximum Force            0.000002     0.000015     YES
 RMS     Force            0.000001     0.000010     YES
 Maximum Displacement     0.000031     0.000060     YES
 RMS     Displacement     0.000013     0.000040     YES
 Predicted change in Energy=-7.115554D-11
 Optimization completed.
    -- Stationary point found.
                           ----------------------------
                           !   Optimized Parameters   !
                           ! (Angstroms and Degrees)  !
 --------------------------                            --------------------------
 ! Name  Definition              Value          Derivative Info.                !
 --------------------------------------------------------------------------------
 ! R1    R(1,2)                  1.3088         -DE/DX =    0.0                 !
 ! R2    R(1,3)                  1.0682         -DE/DX =    0.0                 !
 ! R3    R(1,6)                  1.4014         -DE/DX =    0.0                 !
 ! R4    R(2,4)                  1.0703         -DE/DX =    0.0                 !
 ! R5    R(2,5)                  1.0707         -DE/DX =    0.0                 !
 ! R6    R(6,7)                  1.4662         -DE/DX =    0.0                 !
 ! R7    R(7,8)                  0.972          -DE/DX =    0.0                 !
 ! A1    A(2,1,3)              125.2297         -DE/DX =    0.0                 !
 ! A2    A(2,1,6)              120.6492         -DE/DX =    0.0                 !
 ! A3    A(3,1,6)              114.0888         -DE/DX =    0.0                 !
 ! A4    A(1,2,4)              120.4277         -DE/DX =    0.0                 !
 ! A5    A(1,2,5)              121.27           -DE/DX =    0.0                 !
 ! A6    A(4,2,5)              118.2994         -DE/DX =    0.0                 !
 ! A7    A(1,6,7)              106.5897         -DE/DX =    0.0                 !
 ! A8    A(6,7,8)               99.9104         -DE/DX =    0.0                 !
 ! D1    D(3,1,2,4)             -2.2349         -DE/DX =    0.0                 !
 ! D2    D(3,1,2,5)            178.3957         -DE/DX =    0.0                 !
 ! D3    D(6,1,2,4)            175.5754         -DE/DX =    0.0                 !
 ! D4    D(6,1,2,5)             -3.794          -DE/DX =    0.0                 !
 ! D5    D(2,1,6,7)            150.0            -DE/DX =    0.0001              !
 ! D6    D(3,1,6,7)            -31.9592         -DE/DX =    0.0                 !
 ! D7    D(1,6,7,8)            130.0            -DE/DX =    0.0024              !
 --------------------------------------------------------------------------------
 Lowest energy point so far.  Saving SCF results.
 GradGradGradGradGradGradGradGradGradGradGradGradGradGradGradGradGradGrad

 Largest change from initial coordinates is atom    8       0.006 Angstoms.
 Leave Link  103 at Fri Apr 12 15:58:26 2019, MaxMem=   134217728 cpu:         0.0
 (Enter /cm/shared/c3ddb/gaussian/09.d01/g09/l202.exe)
                          Input orientation:                          
 ---------------------------------------------------------------------
 Center     Atomic      Atomic             Coordinates (Angstroms)
 Number     Number       Type             X           Y           Z
 ---------------------------------------------------------------------
      1          6           0        0.732144    0.636346    0.054569
      2          6           0        1.368905   -0.505790    0.000460
      3          1           0        1.194503    1.597220    0.118014
      4          1           0        2.438743   -0.529585   -0.017745
      5          1           0        0.839793   -1.435866   -0.036749
      6          8           0       -0.666922    0.678230   -0.014302
      7          8           0       -1.089207    1.850393    0.758694
      8          1           0       -1.683606    2.270409    0.114393
 ---------------------------------------------------------------------
                    Distance matrix (angstroms):
                    1          2          3          4          5
     1  C    0.000000
     2  C    1.308766   0.000000
     3  H    1.068213   2.113501   0.000000
     4  H    2.068116   1.070257   2.467765   0.000000
     5  H    2.077015   1.070694   3.057676   1.838028   0.000000
     6  O    1.401386   2.355146   2.080133   3.332264   2.596169
     7  O    2.299353   3.488386   2.385351   4.325920   3.892720
     8  H    2.917120   4.127722   2.955793   4.985097   4.486297
                    6          7          8
     6  O    0.000000
     7  O    1.466224   0.000000
     8  H    1.893474   0.972032   0.000000
 Symmetry turned off by external request.
 Stoichiometry    C2H4O2
 Framework group  C1[X(C2H4O2)]
 Deg. of freedom    18
 Full point group                 C1      NOp   1
 Rotational constants (GHZ):     39.7660596      4.5893792      4.2690455
 Leave Link  202 at Fri Apr 12 15:58:26 2019, MaxMem=   134217728 cpu:         0.0
 (Enter /cm/shared/c3ddb/gaussian/09.d01/g09/l601.exe)
 Copying SCF densities to generalized density rwf, IOpCl= 0 IROHF=0.

 **********************************************************************

            Population analysis using the SCF density.

 **********************************************************************

 Alpha  occ. eigenvalues --  -20.53530 -20.52659 -11.24205 -11.16657  -1.47682
 Alpha  occ. eigenvalues --   -1.23934  -1.02791  -0.79710  -0.70278  -0.68235
 Alpha  occ. eigenvalues --   -0.65106  -0.56360  -0.55023  -0.52335  -0.47832
 Alpha  occ. eigenvalues --   -0.36248
 Alpha virt. eigenvalues --    0.18071   0.24186   0.27932   0.31989   0.33274
 Alpha virt. eigenvalues --    0.35949   0.49597   0.57529   0.90216   0.97136
 Alpha virt. eigenvalues --    1.00310   1.06629   1.10913   1.12766   1.22298
 Alpha virt. eigenvalues --    1.32546   1.37268   1.57294   1.60003   1.74988
 Alpha virt. eigenvalues --    1.80129   1.92713   1.94821   2.00319   2.06055
 Alpha virt. eigenvalues --    2.26945   3.06858   3.49713
          Condensed to atoms (all electrons):
               1          2          3          4          5          6
     1  C    4.872617   0.519327   0.364718  -0.046243  -0.050715   0.208793
     2  C    0.519327   5.302005  -0.046782   0.384012   0.389275  -0.051591
     3  H    0.364718  -0.046782   0.461779  -0.000316   0.002288  -0.036981
     4  H   -0.046243   0.384012  -0.000316   0.450265  -0.015180   0.001409
     5  H   -0.050715   0.389275   0.002288  -0.015180   0.433038  -0.000548
     6  O    0.208793  -0.051591  -0.036981   0.001409  -0.000548   8.199124
     7  O   -0.030850   0.002342   0.004364  -0.000025  -0.000014   0.116357
     8  H    0.000357  -0.000205   0.000451   0.000003   0.000001  -0.022956
               7          8
     1  C   -0.030850   0.000357
     2  C    0.002342  -0.000205
     3  H    0.004364   0.000451
     4  H   -0.000025   0.000003
     5  H   -0.000014   0.000001
     6  O    0.116357  -0.022956
     7  O    8.049208   0.243601
     8  H    0.243601   0.362179
 Mulliken charges:
               1
     1  C    0.161996
     2  C   -0.498384
     3  H    0.250478
     4  H    0.226075
     5  H    0.241856
     6  O   -0.413607
     7  O   -0.384984
     8  H    0.416570
 Sum of Mulliken charges =   0.00000
 Mulliken charges with hydrogens summed into heavy atoms:
               1
     1  C    0.412474
     2  C   -0.030453
     6  O   -0.413607
     7  O    0.031585
 Electronic spatial extent (au):  <R**2>=            362.6596
 Charge=              0.0000 electrons
 Dipole moment (field-independent basis, Debye):
    X=              0.5199    Y=              1.1695    Z=             -1.1704  Tot=              1.7343
 Quadrupole moment (field-independent basis, Debye-Ang):
   XX=            -19.5121   YY=            -17.9014   ZZ=            -26.9242
   XY=             -2.8169   XZ=              1.3835   YZ=             -2.1956
 Traceless Quadrupole moment (field-independent basis, Debye-Ang):
   XX=              1.9338   YY=              3.5445   ZZ=             -5.4783
   XY=             -2.8169   XZ=              1.3835   YZ=             -2.1956
 Octapole moment (field-independent basis, Debye-Ang**2):
  XXX=            -14.1234  YYY=            -32.2474  ZZZ=            -14.5017  XYY=            -12.6643
  XXY=             -5.6376  XXZ=             -5.8263  XZZ=             -4.6859  YZZ=            -17.2245
  YYZ=             -8.8278  XYZ=              2.7035
 Hexadecapole moment (field-independent basis, Debye-Ang**3):
 XXXX=           -159.2207 YYYY=           -158.6564 ZZZZ=            -41.6870 XXXY=             30.4153
 XXXZ=             14.0732 YYYX=             23.4753 YYYZ=            -30.9858 ZZZX=             14.1353
 ZZZY=            -26.0959 XXYY=            -38.5562 XXZZ=            -43.1821 YYZZ=            -44.7103
 XXYZ=             -9.7919 YYXZ=              8.2901 ZZXY=             19.7658
 N-N= 1.166678404514D+02 E-N=-7.666934147096D+02  KE= 2.256177502774D+02
 No NMR shielding tensors so no spin-rotation constants.
 Leave Link  601 at Fri Apr 12 15:58:26 2019, MaxMem=   134217728 cpu:         0.1
 (Enter /cm/shared/c3ddb/gaussian/09.d01/g09/l9999.exe)
 1\1\GINC-NODE029\FOpt\RHF\3-21G\C2H4O2\MATTSJ\12-Apr-2019\0\\#p hf 3-2
 1g scf=tight NoSymmetry guess=read opt=(tight,modredundant)\\Geometry 
 optimization at the 2D-PES\\0,1\C,0.7321439562,0.6363462753,0.05456871
 09\C,1.3689051681,-0.505790162,0.0004601225\H,1.1945033707,1.597219834
 5,0.1180139071\H,2.4387427302,-0.5295853819,-0.0177447421\H,0.83979268
 59,-1.4358660365,-0.0367493709\O,-0.6669222875,0.6782299027,-0.0143015
 935\O,-1.0892071723,1.8503933858,0.7586937526\H,-1.6836064512,2.270409
 1821,0.1143932134\\Version=AS64L-G09RevD.01\HF=-226.3958581\RMSD=8.814
 e-09\RMSF=4.865e-04\Dipole=0.2045343,0.460125,-0.460462\Quadrupole=1.4
 377368,2.635246,-4.0729828,-2.094277,1.0285943,-1.6323905\PG=C01 [X(C2
 H4O2)]\\@


 I take a simple view of life: keep your eyes open and get on with it.
 -- Laurence Olivier
 Job cpu time:       0 days  0 hours  0 minutes 12.7 seconds.
 File lengths (MBytes):  RWF=      5 Int=      0 D2E=      0 Chk=      1 Scr=      1
 Normal termination of Gaussian 09 at Fri Apr 12 15:58:26 2019.
