 Entering Gaussian System, Link 0=/cm/shared/c3ddb/gaussian/09.d01/g09/g09
 Initial command:
 /cm/shared/c3ddb/gaussian/09.d01/g09/l1.exe "/scratch/users/mattsj/g09/S02-7952157/Gau-44962.inp" -scrdir="/scratch/users/mattsj/g09/S02-7952157/"
 Entering Link 1 = /cm/shared/c3ddb/gaussian/09.d01/g09/l1.exe PID=     44963.
  
 Copyright (c) 1988,1990,1992,1993,1995,1998,2003,2009,2013,
            Gaussian, Inc.  All Rights Reserved.
  
 This is part of the Gaussian(R) 09 program.  It is based on
 the Gaussian(R) 03 system (copyright 2003, Gaussian, Inc.),
 the Gaussian(R) 98 system (copyright 1998, Gaussian, Inc.),
 the Gaussian(R) 94 system (copyright 1995, Gaussian, Inc.),
 the Gaussian 92(TM) system (copyright 1992, Gaussian, Inc.),
 the Gaussian 90(TM) system (copyright 1990, Gaussian, Inc.),
 the Gaussian 88(TM) system (copyright 1988, Gaussian, Inc.),
 the Gaussian 86(TM) system (copyright 1986, Carnegie Mellon
 University), and the Gaussian 82(TM) system (copyright 1983,
 Carnegie Mellon University). Gaussian is a federally registered
 trademark of Gaussian, Inc.
  
 This software contains proprietary and confidential information,
 including trade secrets, belonging to Gaussian, Inc.
  
 This software is provided under written license and may be
 used, copied, transmitted, or stored only in accord with that
 written license.
  
 The following legend is applicable only to US Government
 contracts under FAR:
  
                    RESTRICTED RIGHTS LEGEND
  
 Use, reproduction and disclosure by the US Government is
 subject to restrictions as set forth in subparagraphs (a)
 and (c) of the Commercial Computer Software - Restricted
 Rights clause in FAR 52.227-19.
  
 Gaussian, Inc.
 340 Quinnipiac St., Bldg. 40, Wallingford CT 06492
  
  
 ---------------------------------------------------------------
 Warning -- This program may not be used in any manner that
 competes with the business of Gaussian, Inc. or will provide
 assistance to any competitor of Gaussian, Inc.  The licensee
 of this program is prohibited from giving any competitor of
 Gaussian, Inc. access to this program.  By using this program,
 the user acknowledges that Gaussian, Inc. is engaged in the
 business of creating and licensing software in the field of
 computational chemistry and represents and warrants to the
 licensee that it is not a competitor of Gaussian, Inc. and that
 it will not use this program in any manner prohibited above.
 ---------------------------------------------------------------
  

 Cite this work as:
 Gaussian 09, Revision D.01,
 M. J. Frisch, G. W. Trucks, H. B. Schlegel, G. E. Scuseria, 
 M. A. Robb, J. R. Cheeseman, G. Scalmani, V. Barone, B. Mennucci, 
 G. A. Petersson, H. Nakatsuji, M. Caricato, X. Li, H. P. Hratchian, 
 A. F. Izmaylov, J. Bloino, G. Zheng, J. L. Sonnenberg, M. Hada, 
 M. Ehara, K. Toyota, R. Fukuda, J. Hasegawa, M. Ishida, T. Nakajima, 
 Y. Honda, O. Kitao, H. Nakai, T. Vreven, J. A. Montgomery, Jr., 
 J. E. Peralta, F. Ogliaro, M. Bearpark, J. J. Heyd, E. Brothers, 
 K. N. Kudin, V. N. Staroverov, T. Keith, R. Kobayashi, J. Normand, 
 K. Raghavachari, A. Rendell, J. C. Burant, S. S. Iyengar, J. Tomasi, 
 M. Cossi, N. Rega, J. M. Millam, M. Klene, J. E. Knox, J. B. Cross, 
 V. Bakken, C. Adamo, J. Jaramillo, R. Gomperts, R. E. Stratmann, 
 O. Yazyev, A. J. Austin, R. Cammi, C. Pomelli, J. W. Ochterski, 
 R. L. Martin, K. Morokuma, V. G. Zakrzewski, G. A. Voth, 
 P. Salvador, J. J. Dannenberg, S. Dapprich, A. D. Daniels, 
 O. Farkas, J. B. Foresman, J. V. Ortiz, J. Cioslowski, 
 and D. J. Fox, Gaussian, Inc., Wallingford CT, 2013.
 
 ******************************************
 Gaussian 09:  AS64L-G09RevD.01 24-Apr-2013
                12-Apr-2019 
 ******************************************
 %nproc=1
 Will use up to    1 processors via shared memory.
 %mem=1GB
 %chk=TMP_CALCS/scangeom_S02_090_140.chk
 --------------------------------------------------------------------
 #p hf 3-21g scf=tight NoSymmetry guess=read opt=(tight,modredundant)
 --------------------------------------------------------------------
 1/7=10,18=120,19=15,38=1/1,3;
 2/9=110,12=2,15=1,17=6,18=5,40=1/2;
 3/5=5,11=9,16=1,25=1,30=1,71=1,116=-2/1,2,3;
 4/5=1/1;
 5/5=2,32=2,38=6/2;
 6/7=2,8=2,9=2,10=2,28=1/1;
 7/30=1/1,2,3,16;
 1/7=10,18=20,19=15/3(2);
 2/9=110,15=1/2;
 99//99;
 2/9=110,15=1/2;
 3/5=5,11=9,16=1,25=1,30=1,71=1/1,2,3;
 4/5=5,16=3,69=1/1;
 5/5=2,32=2,38=5/2;
 7/30=1/1,2,3,16;
 1/7=10,18=20,19=15/3(-5);
 2/9=110,15=1/2;
 6/7=2,8=2,9=2,10=2,19=2,28=1/1;
 99/9=1/99;
 Leave Link    1 at Fri Apr 12 16:38:42 2019, MaxMem=   134217728 cpu:         0.1
 (Enter /cm/shared/c3ddb/gaussian/09.d01/g09/l101.exe)
 -----------------------------------
 Geometry optimization at the 2D-PES
 -----------------------------------
 Symbolic Z-matrix:
 Charge =  0 Multiplicity = 1
 C                     0.72954   0.62306   0.03982 
 C                     1.37351  -0.51389  -0.0029 
 H                     1.20082   1.58055   0.12128 
 H                     2.44405  -0.53922   0.01438 
 H                     0.84442  -1.44301  -0.06195 
 O                    -0.67866   0.67063  -0.02201 
 O                    -1.16328   0.59505   1.36952 
 H                    -1.89243   1.23771   1.32892 
 
 The following ModRedundant input section has been read:
 D       2       1       6       7 F                                           
 D       1       6       7       8 F                                           
 
 NAtoms=      8 NQM=        8 NQMF=       0 NMMI=      0 NMMIF=      0
                NMic=       0 NMicF=      0.
                    Isotopes and Nuclear Properties:
 (Nuclear quadrupole moments (NQMom) in fm**2, nuclear magnetic moments (NMagM)
  in nuclear magnetons)

  Atom         1           2           3           4           5           6           7           8
 IAtWgt=          12          12           1           1           1          16          16           1
 AtmWgt=  12.0000000  12.0000000   1.0078250   1.0078250   1.0078250  15.9949146  15.9949146   1.0078250
 NucSpn=           0           0           1           1           1           0           0           1
 AtZEff=   0.0000000   0.0000000   0.0000000   0.0000000   0.0000000   0.0000000   0.0000000   0.0000000
 NQMom=    0.0000000   0.0000000   0.0000000   0.0000000   0.0000000   0.0000000   0.0000000   0.0000000
 NMagM=    0.0000000   0.0000000   2.7928460   2.7928460   2.7928460   0.0000000   0.0000000   2.7928460
 AtZNuc=   6.0000000   6.0000000   1.0000000   1.0000000   1.0000000   8.0000000   8.0000000   1.0000000
 Leave Link  101 at Fri Apr 12 16:38:43 2019, MaxMem=   134217728 cpu:         0.3
 (Enter /cm/shared/c3ddb/gaussian/09.d01/g09/l103.exe)

 GradGradGradGradGradGradGradGradGradGradGradGradGradGradGradGradGradGrad
 Berny optimization.
 Initialization pass.
                           ----------------------------
                           !    Initial Parameters    !
                           ! (Angstroms and Degrees)  !
 --------------------------                            --------------------------
 ! Name  Definition              Value          Derivative Info.                !
 --------------------------------------------------------------------------------
 ! R1    R(1,2)                  1.3074         estimate D2E/DX2                !
 ! R2    R(1,3)                  1.0703         estimate D2E/DX2                !
 ! R3    R(1,6)                  1.4104         estimate D2E/DX2                !
 ! R4    R(2,4)                  1.071          estimate D2E/DX2                !
 ! R5    R(2,5)                  1.0708         estimate D2E/DX2                !
 ! R6    R(6,7)                  1.4754         estimate D2E/DX2                !
 ! R7    R(7,8)                  0.9728         estimate D2E/DX2                !
 ! A1    A(2,1,3)              124.3042         estimate D2E/DX2                !
 ! A2    A(2,1,6)              121.3134         estimate D2E/DX2                !
 ! A3    A(3,1,6)              114.3824         estimate D2E/DX2                !
 ! A4    A(1,2,4)              120.8251         estimate D2E/DX2                !
 ! A5    A(1,2,5)              120.8636         estimate D2E/DX2                !
 ! A6    A(4,2,5)              118.3103         estimate D2E/DX2                !
 ! A7    A(1,6,7)              106.5519         estimate D2E/DX2                !
 ! A8    A(6,7,8)               99.9615         estimate D2E/DX2                !
 ! D1    D(3,1,2,4)             -1.812          estimate D2E/DX2                !
 ! D2    D(3,1,2,5)            178.557          estimate D2E/DX2                !
 ! D3    D(6,1,2,4)            178.111          estimate D2E/DX2                !
 ! D4    D(6,1,2,5)             -1.5199         estimate D2E/DX2                !
 ! D5    D(2,1,6,7)             90.0            Frozen                          !
 ! D6    D(3,1,6,7)            -90.0697         estimate D2E/DX2                !
 ! D7    D(1,6,7,8)            140.0            Frozen                          !
 --------------------------------------------------------------------------------
 Trust Radius=3.00D-01 FncErr=1.00D-07 GrdErr=1.00D-07
 Number of steps in this run=     32 maximum allowed number of steps=    100.
 GradGradGradGradGradGradGradGradGradGradGradGradGradGradGradGradGradGrad

 Leave Link  103 at Fri Apr 12 16:38:43 2019, MaxMem=   134217728 cpu:         0.0
 (Enter /cm/shared/c3ddb/gaussian/09.d01/g09/l202.exe)
                          Input orientation:                          
 ---------------------------------------------------------------------
 Center     Atomic      Atomic             Coordinates (Angstroms)
 Number     Number       Type             X           Y           Z
 ---------------------------------------------------------------------
      1          6           0        0.729537    0.623060    0.039818
      2          6           0        1.373505   -0.513886   -0.002897
      3          1           0        1.200824    1.580550    0.121279
      4          1           0        2.444046   -0.539222    0.014382
      5          1           0        0.844422   -1.443009   -0.061949
      6          8           0       -0.678660    0.670626   -0.022005
      7          8           0       -1.163275    0.595054    1.369523
      8          1           0       -1.892429    1.237710    1.328916
 ---------------------------------------------------------------------
                    Distance matrix (angstroms):
                    1          2          3          4          5
     1  C    0.000000
     2  C    1.307351   0.000000
     3  H    1.070296   2.105208   0.000000
     4  H    2.071494   1.070980   2.459769   0.000000
     5  H    2.071762   1.070834   3.050001   1.838873   0.000000
     6  O    1.410356   2.369560   2.093072   3.349082   2.605538
     7  O    2.313361   3.090071   2.849259   4.016933   3.199009
     8  H    2.985678   3.938037   3.338284   4.867289   4.075673
                    6          7          8
     6  O    0.000000
     7  O    1.475437   0.000000
     8  H    1.902579   0.972790   0.000000
 Symmetry turned off by external request.
 Stoichiometry    C2H4O2
 Framework group  C1[X(C2H4O2)]
 Deg. of freedom    18
 Full point group                 C1      NOp   1
 Rotational constants (GHZ):     23.9123361      5.2162160      4.8353104
 Leave Link  202 at Fri Apr 12 16:38:43 2019, MaxMem=   134217728 cpu:         0.0
 (Enter /cm/shared/c3ddb/gaussian/09.d01/g09/l301.exe)
 Standard basis: 3-21G (6D, 7F)
 Ernie: Thresh=  0.10000D-02 Tol=  0.10000D-05 Strict=F.
    44 basis functions,    72 primitive gaussians,    44 cartesian basis functions
    16 alpha electrons       16 beta electrons
       nuclear repulsion energy       117.2195452286 Hartrees.
 IExCor=    0 DFT=F Ex=HF Corr=None ExCW=0 ScaHFX=  1.000000
 ScaDFX=  1.000000  1.000000  1.000000  1.000000 ScalE2=  1.000000  1.000000
 IRadAn=      0 IRanWt=     -1 IRanGd=            0 ICorTp=0 IEmpDi=  4
 NAtoms=    8 NActive=    8 NUniq=    8 SFac= 1.00D+00 NAtFMM=   60 NAOKFM=F Big=F
 Integral buffers will be    131072 words long.
 Raffenetti 1 integral format.
 Two-electron integral symmetry is turned off.
 Leave Link  301 at Fri Apr 12 16:38:43 2019, MaxMem=   134217728 cpu:         0.3
 (Enter /cm/shared/c3ddb/gaussian/09.d01/g09/l302.exe)
 NPDir=0 NMtPBC=     1 NCelOv=     1 NCel=       1 NClECP=     1 NCelD=      1
         NCelK=      1 NCelE2=     1 NClLst=     1 CellRange=     0.0.
 One-electron integrals computed using PRISM.
 NBasis=    44 RedAO= T EigKep=  1.17D-02  NBF=    44
 NBsUse=    44 1.00D-06 EigRej= -1.00D+00 NBFU=    44
 Leave Link  302 at Fri Apr 12 16:38:44 2019, MaxMem=   134217728 cpu:         0.2
 (Enter /cm/shared/c3ddb/gaussian/09.d01/g09/l303.exe)
 DipDrv:  MaxL=1.
 Leave Link  303 at Fri Apr 12 16:38:44 2019, MaxMem=   134217728 cpu:         0.1
 (Enter /cm/shared/c3ddb/gaussian/09.d01/g09/l401.exe)
 Initial guess from the checkpoint file:  "TMP_CALCS/scangeom_S02_090_140.chk"
 B after Tr=    -0.000451   -0.005594   -0.003953
         Rot=    0.999995   -0.000799    0.001881   -0.002586 Ang=  -0.38 deg.
 Guess basis will be translated and rotated to current coordinates.
 JPrj=2 DoOrth=T DoCkMO=T.
 Leave Link  401 at Fri Apr 12 16:38:44 2019, MaxMem=   134217728 cpu:         0.2
 (Enter /cm/shared/c3ddb/gaussian/09.d01/g09/l502.exe)
 Closed shell SCF:
 Using DIIS extrapolation, IDIIS=  1040.
 Two-electron integral symmetry not used.
 Keep R1 ints in memory in canonical form, NReq=1327303.
 IVT=       24902 IEndB=       24902 NGot=   134217728 MDV=   133702282
 LenX=   133702282 LenY=   133699905
 Requested convergence on RMS density matrix=1.00D-08 within 128 cycles.
 Requested convergence on MAX density matrix=1.00D-06.
 Requested convergence on             energy=1.00D-06.
 No special actions if energy rises.
 FoFCou: FMM=F IPFlag=           0 FMFlag=           0 FMFlg1=           0
         NFxFlg=           0 DoJE=F BraDBF=F KetDBF=F FulRan=T
         wScrn=  0.000000 ICntrl=     600 IOpCl=  0 I1Cent=           0 NGrid=           0
         NMat0=    1 NMatS0=    990 NMatT0=    0 NMatD0=    1 NMtDS0=    0 NMtDT0=    0
 Symmetry not used in FoFCou.

 Cycle   1  Pass 1  IDiag  1:
 E= -226.388991799880    
 DIIS: error= 6.81D-03 at cycle   1 NSaved=   1.
 NSaved= 1 IEnMin= 1 EnMin= -226.388991799880     IErMin= 1 ErrMin= 6.81D-03
 ErrMax= 6.81D-03  0.00D+00 EMaxC= 1.00D-01 BMatC= 1.91D-03 BMatP= 1.91D-03
 IDIUse=3 WtCom= 9.32D-01 WtEn= 6.81D-02
 Coeff-Com:  0.100D+01
 Coeff-En:   0.100D+01
 Coeff:      0.100D+01
 Gap=     0.540 Goal=   None    Shift=    0.000
 GapD=    0.540 DampG=2.000 DampE=1.000 DampFc=2.0000 IDamp=-1.
 RMSDP=1.12D-03 MaxDP=1.31D-02              OVMax= 1.18D-02

 Cycle   2  Pass 1  IDiag  1:
 E= -226.391984708981     Delta-E=       -0.002992909101 Rises=F Damp=F
 DIIS: error= 3.15D-03 at cycle   2 NSaved=   2.
 NSaved= 2 IEnMin= 2 EnMin= -226.391984708981     IErMin= 2 ErrMin= 3.15D-03
 ErrMax= 3.15D-03  0.00D+00 EMaxC= 1.00D-01 BMatC= 1.88D-04 BMatP= 1.91D-03
 IDIUse=3 WtCom= 9.69D-01 WtEn= 3.15D-02
 Coeff-Com: -0.339D+00 0.134D+01
 Coeff-En:   0.000D+00 0.100D+01
 Coeff:     -0.329D+00 0.133D+01
 Gap=     0.540 Goal=   None    Shift=    0.000
 RMSDP=5.95D-04 MaxDP=6.05D-03 DE=-2.99D-03 OVMax= 9.14D-03

 Cycle   3  Pass 1  IDiag  1:
 E= -226.392489798969     Delta-E=       -0.000505089987 Rises=F Damp=F
 DIIS: error= 9.60D-04 at cycle   3 NSaved=   3.
 NSaved= 3 IEnMin= 3 EnMin= -226.392489798969     IErMin= 3 ErrMin= 9.60D-04
 ErrMax= 9.60D-04  0.00D+00 EMaxC= 1.00D-01 BMatC= 1.69D-05 BMatP= 1.88D-04
 IDIUse=3 WtCom= 9.90D-01 WtEn= 9.60D-03
 Coeff-Com:  0.764D-01-0.448D+00 0.137D+01
 Coeff-En:   0.000D+00 0.000D+00 0.100D+01
 Coeff:      0.756D-01-0.444D+00 0.137D+01
 Gap=     0.540 Goal=   None    Shift=    0.000
 RMSDP=2.42D-04 MaxDP=2.88D-03 DE=-5.05D-04 OVMax= 4.17D-03

 Cycle   4  Pass 1  IDiag  1:
 E= -226.392545655328     Delta-E=       -0.000055856359 Rises=F Damp=F
 DIIS: error= 2.91D-04 at cycle   4 NSaved=   4.
 NSaved= 4 IEnMin= 4 EnMin= -226.392545655328     IErMin= 4 ErrMin= 2.91D-04
 ErrMax= 2.91D-04  0.00D+00 EMaxC= 1.00D-01 BMatC= 3.75D-06 BMatP= 1.69D-05
 IDIUse=3 WtCom= 9.97D-01 WtEn= 2.91D-03
 Coeff-Com:  0.845D-01-0.381D+00 0.448D+00 0.848D+00
 Coeff-En:   0.000D+00 0.000D+00 0.000D+00 0.100D+01
 Coeff:      0.842D-01-0.380D+00 0.447D+00 0.848D+00
 Gap=     0.540 Goal=   None    Shift=    0.000
 RMSDP=8.49D-05 MaxDP=1.10D-03 DE=-5.59D-05 OVMax= 1.47D-03

 Cycle   5  Pass 1  IDiag  1:
 E= -226.392552187952     Delta-E=       -0.000006532624 Rises=F Damp=F
 DIIS: error= 4.60D-05 at cycle   5 NSaved=   5.
 NSaved= 5 IEnMin= 5 EnMin= -226.392552187952     IErMin= 5 ErrMin= 4.60D-05
 ErrMax= 4.60D-05  0.00D+00 EMaxC= 1.00D-01 BMatC= 1.36D-07 BMatP= 3.75D-06
 IDIUse=1 WtCom= 1.00D+00 WtEn= 0.00D+00
 Coeff-Com: -0.407D-02 0.284D-01-0.110D+00 0.446D-01 0.104D+01
 Coeff:     -0.407D-02 0.284D-01-0.110D+00 0.446D-01 0.104D+01
 Gap=     0.540 Goal=   None    Shift=    0.000
 RMSDP=1.71D-05 MaxDP=1.95D-04 DE=-6.53D-06 OVMax= 3.25D-04

 Cycle   6  Pass 1  IDiag  1:
 E= -226.392552471063     Delta-E=       -0.000000283111 Rises=F Damp=F
 DIIS: error= 2.84D-05 at cycle   6 NSaved=   6.
 NSaved= 6 IEnMin= 6 EnMin= -226.392552471063     IErMin= 6 ErrMin= 2.84D-05
 ErrMax= 2.84D-05  0.00D+00 EMaxC= 1.00D-01 BMatC= 1.49D-08 BMatP= 1.36D-07
 IDIUse=1 WtCom= 1.00D+00 WtEn= 0.00D+00
 Coeff-Com: -0.395D-02 0.193D-01-0.339D-01-0.272D-01 0.134D+00 0.911D+00
 Coeff:     -0.395D-02 0.193D-01-0.339D-01-0.272D-01 0.134D+00 0.911D+00
 Gap=     0.540 Goal=   None    Shift=    0.000
 RMSDP=4.29D-06 MaxDP=2.89D-05 DE=-2.83D-07 OVMax= 9.71D-05

 Cycle   7  Pass 1  IDiag  1:
 E= -226.392552511556     Delta-E=       -0.000000040493 Rises=F Damp=F
 DIIS: error= 1.92D-05 at cycle   7 NSaved=   7.
 NSaved= 7 IEnMin= 7 EnMin= -226.392552511556     IErMin= 7 ErrMin= 1.92D-05
 ErrMax= 1.92D-05  0.00D+00 EMaxC= 1.00D-01 BMatC= 4.78D-09 BMatP= 1.49D-08
 IDIUse=1 WtCom= 1.00D+00 WtEn= 0.00D+00
 Coeff-Com:  0.256D-02-0.150D-01 0.442D-01-0.391D-02-0.369D+00-0.237D+00
 Coeff-Com:  0.158D+01
 Coeff:      0.256D-02-0.150D-01 0.442D-01-0.391D-02-0.369D+00-0.237D+00
 Coeff:      0.158D+01
 Gap=     0.540 Goal=   None    Shift=    0.000
 RMSDP=5.30D-06 MaxDP=4.17D-05 DE=-4.05D-08 OVMax= 1.34D-04

 Cycle   8  Pass 1  IDiag  1:
 E= -226.392552537472     Delta-E=       -0.000000025917 Rises=F Damp=F
 DIIS: error= 6.67D-06 at cycle   8 NSaved=   8.
 NSaved= 8 IEnMin= 8 EnMin= -226.392552537472     IErMin= 8 ErrMin= 6.67D-06
 ErrMax= 6.67D-06  0.00D+00 EMaxC= 1.00D-01 BMatC= 5.05D-10 BMatP= 4.78D-09
 IDIUse=1 WtCom= 1.00D+00 WtEn= 0.00D+00
 Coeff-Com:  0.558D-03-0.264D-02 0.477D-02 0.350D-02-0.162D-01-0.133D+00
 Coeff-Com: -0.479D-01 0.119D+01
 Coeff:      0.558D-03-0.264D-02 0.477D-02 0.350D-02-0.162D-01-0.133D+00
 Coeff:     -0.479D-01 0.119D+01
 Gap=     0.540 Goal=   None    Shift=    0.000
 RMSDP=1.95D-06 MaxDP=1.50D-05 DE=-2.59D-08 OVMax= 5.09D-05

 Cycle   9  Pass 1  IDiag  1:
 E= -226.392552540346     Delta-E=       -0.000000002874 Rises=F Damp=F
 DIIS: error= 2.10D-06 at cycle   9 NSaved=   9.
 NSaved= 9 IEnMin= 9 EnMin= -226.392552540346     IErMin= 9 ErrMin= 2.10D-06
 ErrMax= 2.10D-06  0.00D+00 EMaxC= 1.00D-01 BMatC= 6.39D-11 BMatP= 5.05D-10
 IDIUse=1 WtCom= 1.00D+00 WtEn= 0.00D+00
 Coeff-Com: -0.396D-03 0.230D-02-0.645D-02 0.117D-03 0.550D-01 0.367D-01
 Coeff-Com: -0.249D+00 0.676D-02 0.116D+01
 Coeff:     -0.396D-03 0.230D-02-0.645D-02 0.117D-03 0.550D-01 0.367D-01
 Coeff:     -0.249D+00 0.676D-02 0.116D+01
 Gap=     0.540 Goal=   None    Shift=    0.000
 RMSDP=6.86D-07 MaxDP=4.63D-06 DE=-2.87D-09 OVMax= 1.83D-05

 Cycle  10  Pass 1  IDiag  1:
 E= -226.392552540647     Delta-E=       -0.000000000301 Rises=F Damp=F
 DIIS: error= 5.11D-07 at cycle  10 NSaved=  10.
 NSaved=10 IEnMin=10 EnMin= -226.392552540647     IErMin=10 ErrMin= 5.11D-07
 ErrMax= 5.11D-07  0.00D+00 EMaxC= 1.00D-01 BMatC= 7.68D-12 BMatP= 6.39D-11
 IDIUse=1 WtCom= 1.00D+00 WtEn= 0.00D+00
 Coeff-Com:  0.886D-04-0.569D-03 0.191D-02-0.622D-03-0.185D-01 0.519D-02
 Coeff-Com:  0.889D-01-0.131D+00-0.341D+00 0.140D+01
 Coeff:      0.886D-04-0.569D-03 0.191D-02-0.622D-03-0.185D-01 0.519D-02
 Coeff:      0.889D-01-0.131D+00-0.341D+00 0.140D+01
 Gap=     0.540 Goal=   None    Shift=    0.000
 RMSDP=1.78D-07 MaxDP=1.68D-06 DE=-3.01D-10 OVMax= 4.23D-06

 Cycle  11  Pass 1  IDiag  1:
 E= -226.392552540678     Delta-E=       -0.000000000032 Rises=F Damp=F
 DIIS: error= 1.65D-07 at cycle  11 NSaved=  11.
 NSaved=11 IEnMin=11 EnMin= -226.392552540678     IErMin=11 ErrMin= 1.65D-07
 ErrMax= 1.65D-07  0.00D+00 EMaxC= 1.00D-01 BMatC= 1.07D-12 BMatP= 7.68D-12
 IDIUse=1 WtCom= 1.00D+00 WtEn= 0.00D+00
 Coeff-Com:  0.608D-04-0.360D-03 0.103D-02-0.196D-04-0.902D-02-0.568D-02
 Coeff-Com:  0.409D-01-0.600D-03-0.193D+00 0.707D-01 0.110D+01
 Coeff:      0.608D-04-0.360D-03 0.103D-02-0.196D-04-0.902D-02-0.568D-02
 Coeff:      0.409D-01-0.600D-03-0.193D+00 0.707D-01 0.110D+01
 Gap=     0.540 Goal=   None    Shift=    0.000
 RMSDP=5.71D-08 MaxDP=5.70D-07 DE=-3.18D-11 OVMax= 1.10D-06

 Cycle  12  Pass 1  IDiag  1:
 E= -226.392552540682     Delta-E=       -0.000000000003 Rises=F Damp=F
 DIIS: error= 4.97D-08 at cycle  12 NSaved=  12.
 NSaved=12 IEnMin=12 EnMin= -226.392552540682     IErMin=12 ErrMin= 4.97D-08
 ErrMax= 4.97D-08  0.00D+00 EMaxC= 1.00D-01 BMatC= 1.10D-13 BMatP= 1.07D-12
 IDIUse=1 WtCom= 1.00D+00 WtEn= 0.00D+00
 Coeff-Com: -0.238D-04 0.145D-03-0.453D-03 0.119D-03 0.409D-02-0.211D-03
 Coeff-Com: -0.191D-01 0.193D-01 0.777D-01-0.205D+00-0.188D+00 0.131D+01
 Coeff:     -0.238D-04 0.145D-03-0.453D-03 0.119D-03 0.409D-02-0.211D-03
 Coeff:     -0.191D-01 0.193D-01 0.777D-01-0.205D+00-0.188D+00 0.131D+01
 Gap=     0.540 Goal=   None    Shift=    0.000
 RMSDP=2.21D-08 MaxDP=2.28D-07 DE=-3.41D-12 OVMax= 4.34D-07

 Cycle  13  Pass 1  IDiag  1:
 E= -226.392552540682     Delta-E=        0.000000000000 Rises=F Damp=F
 DIIS: error= 1.58D-08 at cycle  13 NSaved=  13.
 NSaved=13 IEnMin=13 EnMin= -226.392552540682     IErMin=13 ErrMin= 1.58D-08
 ErrMax= 1.58D-08  0.00D+00 EMaxC= 1.00D-01 BMatC= 5.97D-15 BMatP= 1.10D-13
 IDIUse=1 WtCom= 1.00D+00 WtEn= 0.00D+00
 Coeff-Com:  0.663D-05-0.410D-04 0.133D-03-0.466D-04-0.120D-02 0.224D-03
 Coeff-Com:  0.588D-02-0.829D-02-0.205D-01 0.778D-01 0.198D-01-0.533D+00
 Coeff-Com:  0.146D+01
 Coeff:      0.663D-05-0.410D-04 0.133D-03-0.466D-04-0.120D-02 0.224D-03
 Coeff:      0.588D-02-0.829D-02-0.205D-01 0.778D-01 0.198D-01-0.533D+00
 Coeff:      0.146D+01
 Gap=     0.540 Goal=   None    Shift=    0.000
 RMSDP=5.01D-09 MaxDP=4.18D-08 DE=-2.27D-13 OVMax= 9.85D-08

 SCF Done:  E(RHF) =  -226.392552541     A.U. after   13 cycles
            NFock= 13  Conv=0.50D-08     -V/T= 2.0034
 KE= 2.256263509409D+02 PE=-7.679958184581D+02 EE= 1.987573697479D+02
 Leave Link  502 at Fri Apr 12 16:38:45 2019, MaxMem=   134217728 cpu:         0.4
 (Enter /cm/shared/c3ddb/gaussian/09.d01/g09/l601.exe)
 Copying SCF densities to generalized density rwf, IOpCl= 0 IROHF=0.

 **********************************************************************

            Population analysis using the SCF density.

 **********************************************************************

 Alpha  occ. eigenvalues --  -20.52178 -20.51474 -11.23542 -11.17640  -1.45972
 Alpha  occ. eigenvalues --   -1.22813  -1.03072  -0.79144  -0.69884  -0.66751
 Alpha  occ. eigenvalues --   -0.64627  -0.57794  -0.55158  -0.50138  -0.44109
 Alpha  occ. eigenvalues --   -0.38441
 Alpha virt. eigenvalues --    0.15554   0.27347   0.29212   0.30904   0.32198
 Alpha virt. eigenvalues --    0.36504   0.49423   0.56829   0.88874   0.97596
 Alpha virt. eigenvalues --    0.98823   1.07182   1.10480   1.12840   1.22926
 Alpha virt. eigenvalues --    1.32146   1.37268   1.57758   1.60309   1.76342
 Alpha virt. eigenvalues --    1.81308   1.87218   1.99895   2.01675   2.11726
 Alpha virt. eigenvalues --    2.22909   3.09975   3.46326
          Condensed to atoms (all electrons):
               1          2          3          4          5          6
     1  C    4.880700   0.483257   0.381887  -0.039553  -0.048682   0.245455
     2  C    0.483257   5.336828  -0.067426   0.369787   0.386775  -0.060976
     3  H    0.381887  -0.067426   0.488978   0.001341   0.002252  -0.039845
     4  H   -0.039553   0.369787   0.001341   0.455793  -0.015204   0.001549
     5  H   -0.048682   0.386775   0.002252  -0.015204   0.425065  -0.001101
     6  O    0.245455  -0.060976  -0.039845   0.001549  -0.001101   8.176252
     7  O   -0.039329  -0.000399   0.001732  -0.000021   0.000241   0.115364
     8  H    0.001962  -0.000021   0.000115   0.000001  -0.000007  -0.021598
               7          8
     1  C   -0.039329   0.001962
     2  C   -0.000399  -0.000021
     3  H    0.001732   0.000115
     4  H   -0.000021   0.000001
     5  H    0.000241  -0.000007
     6  O    0.115364  -0.021598
     7  O    8.071832   0.241274
     8  H    0.241274   0.366893
 Mulliken charges:
               1
     1  C    0.134304
     2  C   -0.447824
     3  H    0.230966
     4  H    0.226307
     5  H    0.250660
     6  O   -0.415101
     7  O   -0.390693
     8  H    0.411380
 Sum of Mulliken charges =   0.00000
 Mulliken charges with hydrogens summed into heavy atoms:
               1
     1  C    0.365270
     2  C    0.029144
     6  O   -0.415101
     7  O    0.020687
 Electronic spatial extent (au):  <R**2>=            312.4644
 Charge=              0.0000 electrons
 Dipole moment (field-independent basis, Debye):
    X=              0.5390    Y=              1.0487    Z=              0.2210  Tot=              1.1997
 Quadrupole moment (field-independent basis, Debye-Ang):
   XX=            -18.0225   YY=            -19.5860   ZZ=            -25.8715
   XY=             -2.6446   XZ=             -2.0797   YZ=              2.2301
 Traceless Quadrupole moment (field-independent basis, Debye-Ang):
   XX=              3.1375   YY=              1.5740   ZZ=             -4.7115
   XY=             -2.6446   XZ=             -2.0797   YZ=              2.2301
 Octapole moment (field-independent basis, Debye-Ang**2):
  XXX=            -15.5614  YYY=            -19.0553  ZZZ=            -25.4918  XYY=             -6.1816
  XXY=             -0.2701  XXZ=             -1.4112  XZZ=             -7.9056  YZZ=             -5.1778
  YYZ=             -4.5883  XYZ=             -4.8070
 Hexadecapole moment (field-independent basis, Debye-Ang**3):
 XXXX=           -156.9920 YYYY=            -78.1167 ZZZZ=            -87.0257 XXXY=              8.8150
 XXXZ=             13.5781 YYYX=             22.4067 YYYZ=            -10.6468 ZZZX=             24.2944
 ZZZY=            -13.3839 XXYY=            -34.9806 XXZZ=            -41.5418 YYZZ=            -25.6605
 XXYZ=              5.8214 YYXZ=              2.3547 ZZXY=              2.7831
 N-N= 1.172195452286D+02 E-N=-7.679958185758D+02  KE= 2.256263509409D+02
 No NMR shielding tensors so no spin-rotation constants.
 Leave Link  601 at Fri Apr 12 16:38:45 2019, MaxMem=   134217728 cpu:         0.2
 (Enter /cm/shared/c3ddb/gaussian/09.d01/g09/l701.exe)
 Compute integral first derivatives.
 ... and contract with generalized density number  0.
 Leave Link  701 at Fri Apr 12 16:38:45 2019, MaxMem=   134217728 cpu:         0.2
 (Enter /cm/shared/c3ddb/gaussian/09.d01/g09/l702.exe)
 L702 exits ... SP integral derivatives will be done elsewhere.
 Leave Link  702 at Fri Apr 12 16:38:45 2019, MaxMem=   134217728 cpu:         0.1
 (Enter /cm/shared/c3ddb/gaussian/09.d01/g09/l703.exe)
 Compute integral first derivatives, UseDBF=F ICtDFT=           0.
 Integral derivatives from FoFJK, PRISM(SPDF).
 Calling FoFJK, ICntrl=      2127 FMM=F ISym2X=0 I1Cent= 0 IOpClX= 0 NMat=1 NMatS=1 NMatT=0.
 FoFJK:  IHMeth= 1 ICntrl=    2127 DoSepK=F KAlg= 0 I1Cent=   0 FoldK=F
 IRaf=         0 NMat=   1 IRICut=       1 DoRegI=T DoRafI=F ISym2E= 0.
 FoFCou: FMM=F IPFlag=           0 FMFlag=      100000 FMFlg1=         800
         NFxFlg=           0 DoJE=F BraDBF=F KetDBF=F FulRan=T
         wScrn=  0.000000 ICntrl=    2127 IOpCl=  0 I1Cent=           0 NGrid=           0
         NMat0=    1 NMatS0=      1 NMatT0=    0 NMatD0=    1 NMtDS0=    0 NMtDT0=    0
 Symmetry not used in FoFCou.
 Leave Link  703 at Fri Apr 12 16:38:46 2019, MaxMem=   134217728 cpu:         0.2
 (Enter /cm/shared/c3ddb/gaussian/09.d01/g09/l716.exe)
 Dipole        = 2.12073400D-01 4.12595910D-01 8.69625944D-02
 -------------------------------------------------------------------
 Center     Atomic                   Forces (Hartrees/Bohr)
 Number     Number              X              Y              Z
 -------------------------------------------------------------------
      1        6          -0.000682478    0.000122737    0.003442188
      2        6          -0.000060493   -0.000040935   -0.001991026
      3        1          -0.000171987   -0.000093315    0.000066451
      4        1          -0.000017977    0.000022067   -0.000050907
      5        1           0.000036286   -0.000034392    0.000054131
      6        8          -0.000016898   -0.001047435   -0.002213166
      7        8           0.001045766    0.001520903    0.001696607
      8        1          -0.000132219   -0.000449629   -0.001004278
 -------------------------------------------------------------------
 Cartesian Forces:  Max     0.003442188 RMS     0.001115414
 Leave Link  716 at Fri Apr 12 16:38:46 2019, MaxMem=   134217728 cpu:         0.1
 (Enter /cm/shared/c3ddb/gaussian/09.d01/g09/l103.exe)

 GradGradGradGradGradGradGradGradGradGradGradGradGradGradGradGradGradGrad
 Berny optimization.
 FormGI is forming the generalized inverse of G from B-inverse, IUseBI=4.
 Internal  Forces:  Max     0.002713542 RMS     0.000921250
 Search for a local minimum.
 Step number   1 out of a maximum of   32
 All quantities printed in internal units (Hartrees-Bohrs-Radians)
 RMS Force = .53779D-03 SwitMx=.10000D-02 MixMth= 2
 Mixed Optimization -- En-DIIS/RFO-DIIS
 Second derivative matrix not updated -- first step.
 ITU=  0
     Eigenvalues ---    0.02520   0.03314   0.03314   0.16000   0.16000
     Eigenvalues ---    0.16000   0.16000   0.22000   0.25000   0.35097
     Eigenvalues ---    0.37107   0.37125   0.37193   0.43947   0.52811
     Eigenvalues ---    0.651921000.000001000.000001000.000001000.00000
     Eigenvalues --- 1000.000001000.00000
 RFO step:  Lambda=-2.78240329D-05 EMin= 2.52022086D-02
 Linear search not attempted -- first point.
 Iteration  1 RMS(Cart)=  0.00472752 RMS(Int)=  0.00001086
 Iteration  2 RMS(Cart)=  0.00001208 RMS(Int)=  0.00000010
 Iteration  3 RMS(Cart)=  0.00000000 RMS(Int)=  0.00000010
 Iteration  1 RMS(Cart)=  0.00000007 RMS(Int)=  0.00000003
 ITry= 1 IFail=0 DXMaxC= 1.25D-02 DCOld= 1.00D+10 DXMaxT= 3.00D-01 DXLimC= 3.00D+00 Rises=F
 Variable       Old X    -DE/DX   Delta X   Delta X   Delta X     New X
                                 (Linear)    (Quad)   (Total)
    R1        2.47053   0.00009   0.00000   0.00014   0.00014   2.47067
    R2        2.02257  -0.00015   0.00000  -0.00041  -0.00041   2.02215
    R3        2.66519  -0.00083   0.00000  -0.00188  -0.00188   2.66330
    R4        2.02386  -0.00002   0.00000  -0.00005  -0.00005   2.02381
    R5        2.02358   0.00001   0.00000   0.00002   0.00002   2.02361
    R6        2.78817   0.00030   0.00000   0.00085   0.00085   2.78902
    R7        1.83831  -0.00016   0.00000  -0.00030  -0.00030   1.83801
    A1        2.16952   0.00020   0.00000   0.00110   0.00110   2.17061
    A2        2.11732  -0.00017   0.00000  -0.00077  -0.00077   2.11655
    A3        1.99635  -0.00003   0.00000  -0.00032  -0.00032   1.99603
    A4        2.10880  -0.00006   0.00000  -0.00037  -0.00037   2.10843
    A5        2.10947   0.00008   0.00000   0.00049   0.00049   2.10996
    A6        2.06490  -0.00002   0.00000  -0.00012  -0.00012   2.06478
    A7        1.85968  -0.00153   0.00000  -0.00610  -0.00610   1.85358
    A8        1.74466  -0.00159   0.00000  -0.00996  -0.00996   1.73470
    D1       -0.03163   0.00062   0.00000  -0.00179  -0.00179  -0.03342
    D2        3.11641   0.00062   0.00000  -0.00188  -0.00188   3.11452
    D3        3.10862  -0.00071   0.00000  -0.00091  -0.00091   3.10772
    D4       -0.02653  -0.00071   0.00000  -0.00100  -0.00100  -0.02752
    D5        1.57080   0.00271   0.00000   0.00000   0.00000   1.57080
    D6       -1.57201   0.00151   0.00000   0.00081   0.00081  -1.57121
    D7        2.44346   0.00122   0.00000   0.00000   0.00000   2.44346
         Item               Value     Threshold  Converged?
 Maximum Force            0.001593     0.000015     NO 
 RMS     Force            0.000538     0.000010     NO 
 Maximum Displacement     0.012501     0.000060     NO 
 RMS     Displacement     0.004734     0.000040     NO 
 Predicted change in Energy=-1.391131D-05
 Lowest energy point so far.  Saving SCF results.
 GradGradGradGradGradGradGradGradGradGradGradGradGradGradGradGradGradGrad

 Leave Link  103 at Fri Apr 12 16:38:46 2019, MaxMem=   134217728 cpu:         0.0
 (Enter /cm/shared/c3ddb/gaussian/09.d01/g09/l202.exe)
                          Input orientation:                          
 ---------------------------------------------------------------------
 Center     Atomic      Atomic             Coordinates (Angstroms)
 Number     Number       Type             X           Y           Z
 ---------------------------------------------------------------------
      1          6           0        0.727496    0.623700    0.040195
      2          6           0        1.371455   -0.513347   -0.002225
      3          1           0        1.197573    1.581376    0.123560
      4          1           0        2.441965   -0.538360    0.015711
      5          1           0        0.842795   -1.442706   -0.061585
      6          8           0       -0.679648    0.670308   -0.023580
      7          8           0       -1.157851    0.593257    1.370559
      8          1           0       -1.885814    1.236655    1.324432
 ---------------------------------------------------------------------
                    Distance matrix (angstroms):
                    1          2          3          4          5
     1  C    0.000000
     2  C    1.307424   0.000000
     3  H    1.070077   2.105687   0.000000
     4  H    2.071325   1.070953   2.460370   0.000000
     5  H    2.072121   1.070847   3.050445   1.838793   0.000000
     6  O    1.409359   2.368231   2.091806   3.347669   2.604631
     7  O    2.307667   3.083261   2.842430   4.009345   3.193551
     8  H    2.975628   3.928399   3.326890   4.857272   4.067594
                    6          7          8
     6  O    0.000000
     7  O    1.475886   0.000000
     8  H    1.895447   0.972634   0.000000
 Symmetry turned off by external request.
 Stoichiometry    C2H4O2
 Framework group  C1[X(C2H4O2)]
 Deg. of freedom    18
 Full point group                 C1      NOp   1
 Rotational constants (GHZ):     23.8189547      5.2366866      4.8513933
 Leave Link  202 at Fri Apr 12 16:38:46 2019, MaxMem=   134217728 cpu:         0.0
 (Enter /cm/shared/c3ddb/gaussian/09.d01/g09/l301.exe)
 Standard basis: 3-21G (6D, 7F)
 Ernie: Thresh=  0.10000D-02 Tol=  0.10000D-05 Strict=F.
    44 basis functions,    72 primitive gaussians,    44 cartesian basis functions
    16 alpha electrons       16 beta electrons
       nuclear repulsion energy       117.3016531183 Hartrees.
 IExCor=    0 DFT=F Ex=HF Corr=None ExCW=0 ScaHFX=  1.000000
 ScaDFX=  1.000000  1.000000  1.000000  1.000000 ScalE2=  1.000000  1.000000
 IRadAn=      0 IRanWt=     -1 IRanGd=            0 ICorTp=0 IEmpDi=  4
 NAtoms=    8 NActive=    8 NUniq=    8 SFac= 1.00D+00 NAtFMM=   60 NAOKFM=F Big=F
 Integral buffers will be    131072 words long.
 Raffenetti 1 integral format.
 Two-electron integral symmetry is turned off.
 Leave Link  301 at Fri Apr 12 16:38:46 2019, MaxMem=   134217728 cpu:         0.3
 (Enter /cm/shared/c3ddb/gaussian/09.d01/g09/l302.exe)
 NPDir=0 NMtPBC=     1 NCelOv=     1 NCel=       1 NClECP=     1 NCelD=      1
         NCelK=      1 NCelE2=     1 NClLst=     1 CellRange=     0.0.
 One-electron integrals computed using PRISM.
 NBasis=    44 RedAO= T EigKep=  1.17D-02  NBF=    44
 NBsUse=    44 1.00D-06 EigRej= -1.00D+00 NBFU=    44
 Leave Link  302 at Fri Apr 12 16:38:47 2019, MaxMem=   134217728 cpu:         0.2
 (Enter /cm/shared/c3ddb/gaussian/09.d01/g09/l303.exe)
 DipDrv:  MaxL=1.
 Leave Link  303 at Fri Apr 12 16:38:47 2019, MaxMem=   134217728 cpu:         0.1
 (Enter /cm/shared/c3ddb/gaussian/09.d01/g09/l401.exe)
 Initial guess from the checkpoint file:  "TMP_CALCS/scangeom_S02_090_140.chk"
 B after Tr=     0.000181   -0.000790    0.000351
         Rot=    1.000000    0.000173   -0.000464   -0.000171 Ang=   0.06 deg.
 Guess basis will be translated and rotated to current coordinates.
 JPrj=2 DoOrth=T DoCkMO=T.
 Leave Link  401 at Fri Apr 12 16:38:47 2019, MaxMem=   134217728 cpu:         0.3
 (Enter /cm/shared/c3ddb/gaussian/09.d01/g09/l502.exe)
 Closed shell SCF:
 Using DIIS extrapolation, IDIIS=  1040.
 Two-electron integral symmetry not used.
 Keep R1 ints in memory in canonical form, NReq=1327303.
 IVT=       24902 IEndB=       24902 NGot=   134217728 MDV=   133702282
 LenX=   133702282 LenY=   133699905
 Requested convergence on RMS density matrix=1.00D-08 within 128 cycles.
 Requested convergence on MAX density matrix=1.00D-06.
 Requested convergence on             energy=1.00D-06.
 No special actions if energy rises.
 FoFCou: FMM=F IPFlag=           0 FMFlag=           0 FMFlg1=           0
         NFxFlg=           0 DoJE=F BraDBF=F KetDBF=F FulRan=T
         wScrn=  0.000000 ICntrl=     600 IOpCl=  0 I1Cent=           0 NGrid=           0
         NMat0=    1 NMatS0=    990 NMatT0=    0 NMatD0=    1 NMtDS0=    0 NMtDT0=    0
 Symmetry not used in FoFCou.

 Cycle   1  Pass 1  IDiag  1:
 E= -226.392547308625    
 DIIS: error= 2.97D-04 at cycle   1 NSaved=   1.
 NSaved= 1 IEnMin= 1 EnMin= -226.392547308625     IErMin= 1 ErrMin= 2.97D-04
 ErrMax= 2.97D-04  0.00D+00 EMaxC= 1.00D-01 BMatC= 8.58D-06 BMatP= 8.58D-06
 IDIUse=3 WtCom= 9.97D-01 WtEn= 2.97D-03
 Coeff-Com:  0.100D+01
 Coeff-En:   0.100D+01
 Coeff:      0.100D+01
 Gap=     0.984 Goal=   None    Shift=    0.000
 RMSDP=6.89D-05 MaxDP=5.92D-04              OVMax= 5.66D-04

 Cycle   2  Pass 1  IDiag  1:
 E= -226.392556752046     Delta-E=       -0.000009443421 Rises=F Damp=F
 DIIS: error= 1.20D-04 at cycle   2 NSaved=   2.
 NSaved= 2 IEnMin= 2 EnMin= -226.392556752046     IErMin= 2 ErrMin= 1.20D-04
 ErrMax= 1.20D-04  0.00D+00 EMaxC= 1.00D-01 BMatC= 4.96D-07 BMatP= 8.58D-06
 IDIUse=3 WtCom= 9.99D-01 WtEn= 1.20D-03
 Coeff-Com: -0.126D+00 0.113D+01
 Coeff-En:   0.000D+00 0.100D+01
 Coeff:     -0.126D+00 0.113D+01
 Gap=     0.540 Goal=   None    Shift=    0.000
 RMSDP=2.70D-05 MaxDP=1.32D-04 DE=-9.44D-06 OVMax= 3.55D-04

 Cycle   3  Pass 1  IDiag  1:
 E= -226.392558179842     Delta-E=       -0.000001427796 Rises=F Damp=F
 DIIS: error= 6.15D-05 at cycle   3 NSaved=   3.
 NSaved= 3 IEnMin= 3 EnMin= -226.392558179842     IErMin= 3 ErrMin= 6.15D-05
 ErrMax= 6.15D-05  0.00D+00 EMaxC= 1.00D-01 BMatC= 1.01D-07 BMatP= 4.96D-07
 IDIUse=1 WtCom= 1.00D+00 WtEn= 0.00D+00
 Coeff-Com: -0.306D-01-0.908D-02 0.104D+01
 Coeff:     -0.306D-01-0.908D-02 0.104D+01
 Gap=     0.540 Goal=   None    Shift=    0.000
 RMSDP=1.25D-05 MaxDP=6.79D-05 DE=-1.43D-06 OVMax= 2.07D-04

 Cycle   4  Pass 1  IDiag  1:
 E= -226.392558464175     Delta-E=       -0.000000284333 Rises=F Damp=F
 DIIS: error= 3.51D-05 at cycle   4 NSaved=   4.
 NSaved= 4 IEnMin= 4 EnMin= -226.392558464175     IErMin= 4 ErrMin= 3.51D-05
 ErrMax= 3.51D-05  0.00D+00 EMaxC= 1.00D-01 BMatC= 3.36D-08 BMatP= 1.01D-07
 IDIUse=1 WtCom= 1.00D+00 WtEn= 0.00D+00
 Coeff-Com:  0.258D-01-0.303D+00 0.254D+00 0.102D+01
 Coeff:      0.258D-01-0.303D+00 0.254D+00 0.102D+01
 Gap=     0.540 Goal=   None    Shift=    0.000
 RMSDP=8.84D-06 MaxDP=5.85D-05 DE=-2.84D-07 OVMax= 1.77D-04

 Cycle   5  Pass 1  IDiag  1:
 E= -226.392558565007     Delta-E=       -0.000000100832 Rises=F Damp=F
 DIIS: error= 1.89D-05 at cycle   5 NSaved=   5.
 NSaved= 5 IEnMin= 5 EnMin= -226.392558565007     IErMin= 5 ErrMin= 1.89D-05
 ErrMax= 1.89D-05  0.00D+00 EMaxC= 1.00D-01 BMatC= 4.03D-09 BMatP= 3.36D-08
 IDIUse=1 WtCom= 1.00D+00 WtEn= 0.00D+00
 Coeff-Com: -0.146D-02 0.665D-01-0.190D+00-0.193D+00 0.132D+01
 Coeff:     -0.146D-02 0.665D-01-0.190D+00-0.193D+00 0.132D+01
 Gap=     0.540 Goal=   None    Shift=    0.000
 RMSDP=4.01D-06 MaxDP=3.27D-05 DE=-1.01D-07 OVMax= 1.07D-04

 Cycle   6  Pass 1  IDiag  1:
 E= -226.392558583458     Delta-E=       -0.000000018451 Rises=F Damp=F
 DIIS: error= 9.01D-06 at cycle   6 NSaved=   6.
 NSaved= 6 IEnMin= 6 EnMin= -226.392558583458     IErMin= 6 ErrMin= 9.01D-06
 ErrMax= 9.01D-06  0.00D+00 EMaxC= 1.00D-01 BMatC= 8.84D-10 BMatP= 4.03D-09
 IDIUse=1 WtCom= 1.00D+00 WtEn= 0.00D+00
 Coeff-Com: -0.472D-02 0.619D-01-0.689D-01-0.206D+00 0.109D+00 0.111D+01
 Coeff:     -0.472D-02 0.619D-01-0.689D-01-0.206D+00 0.109D+00 0.111D+01
 Gap=     0.540 Goal=   None    Shift=    0.000
 RMSDP=2.00D-06 MaxDP=1.59D-05 DE=-1.85D-08 OVMax= 5.61D-05

 Cycle   7  Pass 1  IDiag  1:
 E= -226.392558587653     Delta-E=       -0.000000004196 Rises=F Damp=F
 DIIS: error= 3.64D-06 at cycle   7 NSaved=   7.
 NSaved= 7 IEnMin= 7 EnMin= -226.392558587653     IErMin= 7 ErrMin= 3.64D-06
 ErrMax= 3.64D-06  0.00D+00 EMaxC= 1.00D-01 BMatC= 1.68D-10 BMatP= 8.84D-10
 IDIUse=1 WtCom= 1.00D+00 WtEn= 0.00D+00
 Coeff-Com:  0.164D-02-0.347D-01 0.719D-01 0.106D+00-0.393D+00-0.277D+00
 Coeff-Com:  0.152D+01
 Coeff:      0.164D-02-0.347D-01 0.719D-01 0.106D+00-0.393D+00-0.277D+00
 Coeff:      0.152D+01
 Gap=     0.540 Goal=   None    Shift=    0.000
 RMSDP=1.27D-06 MaxDP=9.08D-06 DE=-4.20D-09 OVMax= 3.51D-05

 Cycle   8  Pass 1  IDiag  1:
 E= -226.392558588607     Delta-E=       -0.000000000954 Rises=F Damp=F
 DIIS: error= 4.30D-07 at cycle   8 NSaved=   8.
 NSaved= 8 IEnMin= 8 EnMin= -226.392558588607     IErMin= 8 ErrMin= 4.30D-07
 ErrMax= 4.30D-07  0.00D+00 EMaxC= 1.00D-01 BMatC= 7.61D-12 BMatP= 1.68D-10
 IDIUse=1 WtCom= 1.00D+00 WtEn= 0.00D+00
 Coeff-Com:  0.378D-03-0.543D-02 0.771D-02 0.158D-01-0.201D-01-0.896D-01
 Coeff-Com:  0.738D-01 0.102D+01
 Coeff:      0.378D-03-0.543D-02 0.771D-02 0.158D-01-0.201D-01-0.896D-01
 Coeff:      0.738D-01 0.102D+01
 Gap=     0.540 Goal=   None    Shift=    0.000
 RMSDP=1.61D-07 MaxDP=1.01D-06 DE=-9.54D-10 OVMax= 4.08D-06

 Cycle   9  Pass 1  IDiag  1:
 E= -226.392558588632     Delta-E=       -0.000000000024 Rises=F Damp=F
 DIIS: error= 1.41D-07 at cycle   9 NSaved=   9.
 NSaved= 9 IEnMin= 9 EnMin= -226.392558588632     IErMin= 9 ErrMin= 1.41D-07
 ErrMax= 1.41D-07  0.00D+00 EMaxC= 1.00D-01 BMatC= 1.21D-12 BMatP= 7.61D-12
 IDIUse=1 WtCom= 1.00D+00 WtEn= 0.00D+00
 Coeff-Com: -0.205D-03 0.487D-02-0.102D-01-0.159D-01 0.616D-01 0.307D-01
 Coeff-Com: -0.229D+00 0.112D+00 0.105D+01
 Coeff:     -0.205D-03 0.487D-02-0.102D-01-0.159D-01 0.616D-01 0.307D-01
 Coeff:     -0.229D+00 0.112D+00 0.105D+01
 Gap=     0.540 Goal=   None    Shift=    0.000
 RMSDP=5.31D-08 MaxDP=3.14D-07 DE=-2.45D-11 OVMax= 1.00D-06

 Cycle  10  Pass 1  IDiag  1:
 E= -226.392558588635     Delta-E=       -0.000000000003 Rises=F Damp=F
 DIIS: error= 6.14D-08 at cycle  10 NSaved=  10.
 NSaved=10 IEnMin=10 EnMin= -226.392558588635     IErMin=10 ErrMin= 6.14D-08
 ErrMax= 6.14D-08  0.00D+00 EMaxC= 1.00D-01 BMatC= 9.02D-14 BMatP= 1.21D-12
 IDIUse=1 WtCom= 1.00D+00 WtEn= 0.00D+00
 Coeff-Com:  0.305D-04-0.981D-03 0.244D-02 0.288D-02-0.155D-01-0.158D-02
 Coeff-Com:  0.591D-01-0.113D+00-0.270D+00 0.134D+01
 Coeff:      0.305D-04-0.981D-03 0.244D-02 0.288D-02-0.155D-01-0.158D-02
 Coeff:      0.591D-01-0.113D+00-0.270D+00 0.134D+01
 Gap=     0.540 Goal=   None    Shift=    0.000
 RMSDP=1.63D-08 MaxDP=1.11D-07 DE=-3.13D-12 OVMax= 3.60D-07

 Cycle  11  Pass 1  IDiag  1:
 E= -226.392558588635     Delta-E=        0.000000000000 Rises=F Damp=F
 DIIS: error= 2.37D-08 at cycle  11 NSaved=  11.
 NSaved=11 IEnMin=11 EnMin= -226.392558588635     IErMin=11 ErrMin= 2.37D-08
 ErrMax= 2.37D-08  0.00D+00 EMaxC= 1.00D-01 BMatC= 9.84D-15 BMatP= 9.02D-14
 IDIUse=1 WtCom= 1.00D+00 WtEn= 0.00D+00
 Coeff-Com:  0.242D-04-0.595D-03 0.129D-02 0.187D-02-0.755D-02-0.387D-02
 Coeff-Com:  0.289D-01-0.166D-01-0.126D+00 0.265D-01 0.110D+01
 Coeff:      0.242D-04-0.595D-03 0.129D-02 0.187D-02-0.755D-02-0.387D-02
 Coeff:      0.289D-01-0.166D-01-0.126D+00 0.265D-01 0.110D+01
 Gap=     0.540 Goal=   None    Shift=    0.000
 RMSDP=5.34D-09 MaxDP=3.27D-08 DE=-2.84D-13 OVMax= 1.27D-07

 SCF Done:  E(RHF) =  -226.392558589     A.U. after   11 cycles
            NFock= 11  Conv=0.53D-08     -V/T= 2.0034
 KE= 2.256321317207D+02 PE=-7.681601044338D+02 EE= 1.988337610062D+02
 Leave Link  502 at Fri Apr 12 16:38:48 2019, MaxMem=   134217728 cpu:         0.3
 (Enter /cm/shared/c3ddb/gaussian/09.d01/g09/l701.exe)
 Compute integral first derivatives.
 ... and contract with generalized density number  0.
 Leave Link  701 at Fri Apr 12 16:38:48 2019, MaxMem=   134217728 cpu:         0.2
 (Enter /cm/shared/c3ddb/gaussian/09.d01/g09/l702.exe)
 L702 exits ... SP integral derivatives will be done elsewhere.
 Leave Link  702 at Fri Apr 12 16:38:48 2019, MaxMem=   134217728 cpu:         0.1
 (Enter /cm/shared/c3ddb/gaussian/09.d01/g09/l703.exe)
 Compute integral first derivatives, UseDBF=F ICtDFT=           0.
 Integral derivatives from FoFJK, PRISM(SPDF).
 Calling FoFJK, ICntrl=      2127 FMM=F ISym2X=0 I1Cent= 0 IOpClX= 0 NMat=1 NMatS=1 NMatT=0.
 FoFJK:  IHMeth= 1 ICntrl=    2127 DoSepK=F KAlg= 0 I1Cent=   0 FoldK=F
 IRaf=         0 NMat=   1 IRICut=       1 DoRegI=T DoRafI=F ISym2E= 0.
 FoFCou: FMM=F IPFlag=           0 FMFlag=      100000 FMFlg1=         800
         NFxFlg=           0 DoJE=F BraDBF=F KetDBF=F FulRan=T
         wScrn=  0.000000 ICntrl=    2127 IOpCl=  0 I1Cent=           0 NGrid=           0
         NMat0=    1 NMatS0=      1 NMatT0=    0 NMatD0=    1 NMtDS0=    0 NMtDT0=    0
 Symmetry not used in FoFCou.
 Leave Link  703 at Fri Apr 12 16:38:48 2019, MaxMem=   134217728 cpu:         0.2
 (Enter /cm/shared/c3ddb/gaussian/09.d01/g09/l716.exe)
 Dipole        = 2.10370954D-01 4.13835904D-01 8.58628118D-02
 -------------------------------------------------------------------
 Center     Atomic                   Forces (Hartrees/Bohr)
 Number     Number              X              Y              Z
 -------------------------------------------------------------------
      1        6           0.000037145   -0.000332271    0.002532757
      2        6           0.000186455    0.000183617   -0.002003241
      3        1           0.000031677   -0.000015797    0.000032104
      4        1           0.000017291   -0.000025787    0.000076233
      5        1           0.000001563    0.000022911   -0.000052817
      6        8           0.000491455   -0.001604400   -0.001471660
      7        8          -0.000117143    0.002372684    0.000509255
      8        1          -0.000648443   -0.000600955    0.000377369
 -------------------------------------------------------------------
 Cartesian Forces:  Max     0.002532757 RMS     0.000966708
 Leave Link  716 at Fri Apr 12 16:38:48 2019, MaxMem=   134217728 cpu:         0.1
 (Enter /cm/shared/c3ddb/gaussian/09.d01/g09/l103.exe)

 GradGradGradGradGradGradGradGradGradGradGradGradGradGradGradGradGradGrad
 Berny optimization.
 Using GEDIIS/GDIIS optimizer.
 FormGI is forming the generalized inverse of G from B-inverse, IUseBI=4.
 Internal  Forces:  Max     0.002765376 RMS     0.000869980
 Search for a local minimum.
 Step number   2 out of a maximum of   32
 All quantities printed in internal units (Hartrees-Bohrs-Radians)
 RMS Force = .38368D-03 SwitMx=.10000D-02 MixMth= 2
 Mixed Optimization -- En-DIIS/RFO-DIIS
 Swapping is turned off.
 Update second derivatives using D2CorX and points    1    2
 DE= -6.05D-06 DEPred=-1.39D-05 R= 4.35D-01
 Trust test= 4.35D-01 RLast= 1.23D-02 DXMaxT set to 3.00D-01
 ITU=  0  0
     Eigenvalues ---    0.02499   0.03314   0.03347   0.15983   0.16000
     Eigenvalues ---    0.16000   0.19487   0.22107   0.26509   0.37095
     Eigenvalues ---    0.37120   0.37135   0.39499   0.47182   0.52921
     Eigenvalues ---    0.651801000.000001000.000001000.000001000.00000
     Eigenvalues --- 1000.000001000.00000
 En-DIIS/RFO-DIIS IScMMF=        0 using points:     2    1
 RFO step:  Lambda=-5.12412738D-06.
 NNeg= 0 NP= 2 Switch=  2.50D-03 Rises=F DC=  6.05D-06 SmlDif=  1.00D-05
 RMS Error=  0.5957244243D-03 NUsed= 2 EDIIS=F
 DidBck=T Rises=F RFO-DIIS coefs:    0.63809    0.36191
 Iteration  1 RMS(Cart)=  0.00178186 RMS(Int)=  0.00000136
 Iteration  2 RMS(Cart)=  0.00000116 RMS(Int)=  0.00000038
 Iteration  3 RMS(Cart)=  0.00000000 RMS(Int)=  0.00000038
 Iteration  1 RMS(Cart)=  0.00000023 RMS(Int)=  0.00000011
 ITry= 1 IFail=0 DXMaxC= 4.26D-03 DCOld= 1.00D+10 DXMaxT= 3.00D-01 DXLimC= 3.00D+00 Rises=F
 Variable       Old X    -DE/DX   Delta X   Delta X   Delta X     New X
                                 (Linear)    (Quad)   (Total)
    R1        2.47067   0.00001  -0.00005   0.00007   0.00002   2.47069
    R2        2.02215   0.00000   0.00015  -0.00018  -0.00003   2.02213
    R3        2.66330   0.00031   0.00068  -0.00038   0.00030   2.66361
    R4        2.02381   0.00002   0.00002   0.00001   0.00003   2.02384
    R5        2.02361  -0.00002  -0.00001  -0.00002  -0.00003   2.02358
    R6        2.78902   0.00099  -0.00031   0.00218   0.00187   2.79089
    R7        1.83801   0.00007   0.00011  -0.00004   0.00006   1.83807
    A1        2.17061  -0.00011  -0.00040   0.00013  -0.00026   2.17035
    A2        2.11655   0.00014   0.00028   0.00006   0.00034   2.11688
    A3        1.99603  -0.00003   0.00012  -0.00019  -0.00008   1.99595
    A4        2.10843   0.00004   0.00013  -0.00002   0.00012   2.10855
    A5        2.10996  -0.00003  -0.00018   0.00010  -0.00007   2.10988
    A6        2.06478  -0.00001   0.00004  -0.00009  -0.00004   2.06474
    A7        1.85358   0.00078   0.00221  -0.00068   0.00152   1.85511
    A8        1.73470   0.00109   0.00360   0.00001   0.00361   1.73831
    D1       -0.03342   0.00071   0.00065  -0.00065   0.00000  -0.03342
    D2        3.11452   0.00069   0.00068  -0.00107  -0.00039   3.11413
    D3        3.10772  -0.00058   0.00033   0.00204   0.00237   3.11009
    D4       -0.02752  -0.00060   0.00036   0.00162   0.00198  -0.02555
    D5        1.57080   0.00277   0.00000   0.00000   0.00000   1.57080
    D6       -1.57121   0.00160  -0.00029   0.00244   0.00215  -1.56906
    D7        2.44346   0.00136   0.00000   0.00000   0.00000   2.44346
         Item               Value     Threshold  Converged?
 Maximum Force            0.001093     0.000015     NO 
 RMS     Force            0.000384     0.000010     NO 
 Maximum Displacement     0.004261     0.000060     NO 
 RMS     Displacement     0.001781     0.000040     NO 
 Predicted change in Energy=-3.898338D-06
 Lowest energy point so far.  Saving SCF results.
 GradGradGradGradGradGradGradGradGradGradGradGradGradGradGradGradGradGrad

 Leave Link  103 at Fri Apr 12 16:38:48 2019, MaxMem=   134217728 cpu:         0.0
 (Enter /cm/shared/c3ddb/gaussian/09.d01/g09/l202.exe)
                          Input orientation:                          
 ---------------------------------------------------------------------
 Center     Atomic      Atomic             Coordinates (Angstroms)
 Number     Number       Type             X           Y           Z
 ---------------------------------------------------------------------
      1          6           0        0.727920    0.623334    0.038971
      2          6           0        1.372155   -0.513595   -0.002701
      3          1           0        1.197943    1.580946    0.123186
      4          1           0        2.442655   -0.538538    0.016790
      5          1           0        0.843685   -1.443008   -0.062628
      6          8           0       -0.679420    0.669993   -0.023980
      7          8           0       -1.159210    0.594411    1.370741
      8          1           0       -1.887758    1.237339    1.326687
 ---------------------------------------------------------------------
                    Distance matrix (angstroms):
                    1          2          3          4          5
     1  C    0.000000
     2  C    1.307434   0.000000
     3  H    1.070063   2.105540   0.000000
     4  H    2.071414   1.070968   2.460251   0.000000
     5  H    2.072075   1.070832   3.050298   1.838771   0.000000
     6  O    1.409519   2.368605   2.091886   3.348068   2.605017
     7  O    2.309914   3.085745   2.843557   4.011257   3.196436
     8  H    2.979427   3.931930   3.329870   4.860252   4.071269
                    6          7          8
     6  O    0.000000
     7  O    1.476875   0.000000
     8  H    1.899017   0.972667   0.000000
 Symmetry turned off by external request.
 Stoichiometry    C2H4O2
 Framework group  C1[X(C2H4O2)]
 Deg. of freedom    18
 Full point group                 C1      NOp   1
 Rotational constants (GHZ):     23.8261077      5.2293720      4.8453775
 Leave Link  202 at Fri Apr 12 16:38:49 2019, MaxMem=   134217728 cpu:         0.0
 (Enter /cm/shared/c3ddb/gaussian/09.d01/g09/l301.exe)
 Standard basis: 3-21G (6D, 7F)
 Ernie: Thresh=  0.10000D-02 Tol=  0.10000D-05 Strict=F.
    44 basis functions,    72 primitive gaussians,    44 cartesian basis functions
    16 alpha electrons       16 beta electrons
       nuclear repulsion energy       117.2557102999 Hartrees.
 IExCor=    0 DFT=F Ex=HF Corr=None ExCW=0 ScaHFX=  1.000000
 ScaDFX=  1.000000  1.000000  1.000000  1.000000 ScalE2=  1.000000  1.000000
 IRadAn=      0 IRanWt=     -1 IRanGd=            0 ICorTp=0 IEmpDi=  4
 NAtoms=    8 NActive=    8 NUniq=    8 SFac= 1.00D+00 NAtFMM=   60 NAOKFM=F Big=F
 Integral buffers will be    131072 words long.
 Raffenetti 1 integral format.
 Two-electron integral symmetry is turned off.
 Leave Link  301 at Fri Apr 12 16:38:49 2019, MaxMem=   134217728 cpu:         0.1
 (Enter /cm/shared/c3ddb/gaussian/09.d01/g09/l302.exe)
 NPDir=0 NMtPBC=     1 NCelOv=     1 NCel=       1 NClECP=     1 NCelD=      1
         NCelK=      1 NCelE2=     1 NClLst=     1 CellRange=     0.0.
 One-electron integrals computed using PRISM.
 NBasis=    44 RedAO= T EigKep=  1.17D-02  NBF=    44
 NBsUse=    44 1.00D-06 EigRej= -1.00D+00 NBFU=    44
 Leave Link  302 at Fri Apr 12 16:38:49 2019, MaxMem=   134217728 cpu:         0.3
 (Enter /cm/shared/c3ddb/gaussian/09.d01/g09/l303.exe)
 DipDrv:  MaxL=1.
 Leave Link  303 at Fri Apr 12 16:38:49 2019, MaxMem=   134217728 cpu:         0.1
 (Enter /cm/shared/c3ddb/gaussian/09.d01/g09/l401.exe)
 Initial guess from the checkpoint file:  "TMP_CALCS/scangeom_S02_090_140.chk"
 B after Tr=    -0.000151   -0.000135   -0.000310
         Rot=    1.000000    0.000205   -0.000006    0.000005 Ang=   0.02 deg.
 Guess basis will be translated and rotated to current coordinates.
 JPrj=2 DoOrth=T DoCkMO=T.
 Leave Link  401 at Fri Apr 12 16:38:50 2019, MaxMem=   134217728 cpu:         0.4
 (Enter /cm/shared/c3ddb/gaussian/09.d01/g09/l502.exe)
 Closed shell SCF:
 Using DIIS extrapolation, IDIIS=  1040.
 Two-electron integral symmetry not used.
 Keep R1 ints in memory in canonical form, NReq=1327303.
 IVT=       24902 IEndB=       24902 NGot=   134217728 MDV=   133702282
 LenX=   133702282 LenY=   133699905
 Requested convergence on RMS density matrix=1.00D-08 within 128 cycles.
 Requested convergence on MAX density matrix=1.00D-06.
 Requested convergence on             energy=1.00D-06.
 No special actions if energy rises.
 FoFCou: FMM=F IPFlag=           0 FMFlag=           0 FMFlg1=           0
         NFxFlg=           0 DoJE=F BraDBF=F KetDBF=F FulRan=T
         wScrn=  0.000000 ICntrl=     600 IOpCl=  0 I1Cent=           0 NGrid=           0
         NMat0=    1 NMatS0=    990 NMatT0=    0 NMatD0=    1 NMtDS0=    0 NMtDT0=    0
 Symmetry not used in FoFCou.

 Cycle   1  Pass 1  IDiag  1:
 E= -226.392560992467    
 DIIS: error= 1.43D-04 at cycle   1 NSaved=   1.
 NSaved= 1 IEnMin= 1 EnMin= -226.392560992467     IErMin= 1 ErrMin= 1.43D-04
 ErrMax= 1.43D-04  0.00D+00 EMaxC= 1.00D-01 BMatC= 1.30D-06 BMatP= 1.30D-06
 IDIUse=3 WtCom= 9.99D-01 WtEn= 1.43D-03
 Coeff-Com:  0.100D+01
 Coeff-En:   0.100D+01
 Coeff:      0.100D+01
 Gap=     0.984 Goal=   None    Shift=    0.000
 RMSDP=2.62D-05 MaxDP=2.31D-04              OVMax= 2.11D-04

 Cycle   2  Pass 1  IDiag  1:
 E= -226.392562057904     Delta-E=       -0.000001065437 Rises=F Damp=F
 DIIS: error= 2.92D-05 at cycle   2 NSaved=   2.
 NSaved= 2 IEnMin= 2 EnMin= -226.392562057904     IErMin= 2 ErrMin= 2.92D-05
 ErrMax= 2.92D-05  0.00D+00 EMaxC= 1.00D-01 BMatC= 5.37D-08 BMatP= 1.30D-06
 IDIUse=1 WtCom= 1.00D+00 WtEn= 0.00D+00
 Coeff-Com: -0.916D-01 0.109D+01
 Coeff:     -0.916D-01 0.109D+01
 Gap=     0.540 Goal=   None    Shift=    0.000
 RMSDP=8.45D-06 MaxDP=6.56D-05 DE=-1.07D-06 OVMax= 1.21D-04

 Cycle   3  Pass 1  IDiag  1:
 E= -226.392562179677     Delta-E=       -0.000000121773 Rises=F Damp=F
 DIIS: error= 1.95D-05 at cycle   3 NSaved=   3.
 NSaved= 3 IEnMin= 3 EnMin= -226.392562179677     IErMin= 3 ErrMin= 1.95D-05
 ErrMax= 1.95D-05  0.00D+00 EMaxC= 1.00D-01 BMatC= 1.13D-08 BMatP= 5.37D-08
 IDIUse=1 WtCom= 1.00D+00 WtEn= 0.00D+00
 Coeff-Com: -0.374D-01 0.151D+00 0.887D+00
 Coeff:     -0.374D-01 0.151D+00 0.887D+00
 Gap=     0.540 Goal=   None    Shift=    0.000
 RMSDP=3.54D-06 MaxDP=2.47D-05 DE=-1.22D-07 OVMax= 6.61D-05

 Cycle   4  Pass 1  IDiag  1:
 E= -226.392562204487     Delta-E=       -0.000000024811 Rises=F Damp=F
 DIIS: error= 1.37D-05 at cycle   4 NSaved=   4.
 NSaved= 4 IEnMin= 4 EnMin= -226.392562204487     IErMin= 4 ErrMin= 1.37D-05
 ErrMax= 1.37D-05  0.00D+00 EMaxC= 1.00D-01 BMatC= 3.27D-09 BMatP= 1.13D-08
 IDIUse=1 WtCom= 1.00D+00 WtEn= 0.00D+00
 Coeff-Com:  0.174D-01-0.240D+00 0.515D-01 0.117D+01
 Coeff:      0.174D-01-0.240D+00 0.515D-01 0.117D+01
 Gap=     0.540 Goal=   None    Shift=    0.000
 RMSDP=3.16D-06 MaxDP=2.70D-05 DE=-2.48D-08 OVMax= 7.28D-05

 Cycle   5  Pass 1  IDiag  1:
 E= -226.392562216765     Delta-E=       -0.000000012277 Rises=F Damp=F
 DIIS: error= 7.15D-06 at cycle   5 NSaved=   5.
 NSaved= 5 IEnMin= 5 EnMin= -226.392562216765     IErMin= 5 ErrMin= 7.15D-06
 ErrMax= 7.15D-06  0.00D+00 EMaxC= 1.00D-01 BMatC= 6.45D-10 BMatP= 3.27D-09
 IDIUse=1 WtCom= 1.00D+00 WtEn= 0.00D+00
 Coeff-Com:  0.609D-02-0.208D-01-0.148D+00 0.151D-01 0.115D+01
 Coeff:      0.609D-02-0.208D-01-0.148D+00 0.151D-01 0.115D+01
 Gap=     0.540 Goal=   None    Shift=    0.000
 RMSDP=1.51D-06 MaxDP=1.41D-05 DE=-1.23D-08 OVMax= 4.03D-05

 Cycle   6  Pass 1  IDiag  1:
 E= -226.392562219463     Delta-E=       -0.000000002698 Rises=F Damp=F
 DIIS: error= 3.53D-06 at cycle   6 NSaved=   6.
 NSaved= 6 IEnMin= 6 EnMin= -226.392562219463     IErMin= 6 ErrMin= 3.53D-06
 ErrMax= 3.53D-06  0.00D+00 EMaxC= 1.00D-01 BMatC= 1.39D-10 BMatP= 6.45D-10
 IDIUse=1 WtCom= 1.00D+00 WtEn= 0.00D+00
 Coeff-Com: -0.422D-02 0.662D-01-0.335D-01-0.333D+00 0.750D-01 0.123D+01
 Coeff:     -0.422D-02 0.662D-01-0.335D-01-0.333D+00 0.750D-01 0.123D+01
 Gap=     0.540 Goal=   None    Shift=    0.000
 RMSDP=9.95D-07 MaxDP=8.96D-06 DE=-2.70D-09 OVMax= 2.75D-05

 Cycle   7  Pass 1  IDiag  1:
 E= -226.392562220180     Delta-E=       -0.000000000717 Rises=F Damp=F
 DIIS: error= 9.24D-07 at cycle   7 NSaved=   7.
 NSaved= 7 IEnMin= 7 EnMin= -226.392562220180     IErMin= 7 ErrMin= 9.24D-07
 ErrMax= 9.24D-07  0.00D+00 EMaxC= 1.00D-01 BMatC= 1.29D-11 BMatP= 1.39D-10
 IDIUse=1 WtCom= 1.00D+00 WtEn= 0.00D+00
 Coeff-Com:  0.127D-02-0.284D-01 0.357D-01 0.153D+00-0.189D+00-0.544D+00
 Coeff-Com:  0.157D+01
 Coeff:      0.127D-02-0.284D-01 0.357D-01 0.153D+00-0.189D+00-0.544D+00
 Coeff:      0.157D+01
 Gap=     0.540 Goal=   None    Shift=    0.000
 RMSDP=3.21D-07 MaxDP=2.15D-06 DE=-7.17D-10 OVMax= 8.36D-06

 Cycle   8  Pass 1  IDiag  1:
 E= -226.392562220250     Delta-E=       -0.000000000071 Rises=F Damp=F
 DIIS: error= 1.74D-07 at cycle   8 NSaved=   8.
 NSaved= 8 IEnMin= 8 EnMin= -226.392562220250     IErMin= 8 ErrMin= 1.74D-07
 ErrMax= 1.74D-07  0.00D+00 EMaxC= 1.00D-01 BMatC= 1.01D-12 BMatP= 1.29D-11
 IDIUse=1 WtCom= 1.00D+00 WtEn= 0.00D+00
 Coeff-Com:  0.637D-04 0.790D-03-0.447D-02-0.738D-02 0.402D-01 0.322D-02
 Coeff-Com: -0.305D+00 0.127D+01
 Coeff:      0.637D-04 0.790D-03-0.447D-02-0.738D-02 0.402D-01 0.322D-02
 Coeff:     -0.305D+00 0.127D+01
 Gap=     0.540 Goal=   None    Shift=    0.000
 RMSDP=6.36D-08 MaxDP=4.40D-07 DE=-7.05D-11 OVMax= 1.33D-06

 Cycle   9  Pass 1  IDiag  1:
 E= -226.392562220255     Delta-E=       -0.000000000004 Rises=F Damp=F
 DIIS: error= 8.23D-08 at cycle   9 NSaved=   9.
 NSaved= 9 IEnMin= 9 EnMin= -226.392562220255     IErMin= 9 ErrMin= 8.23D-08
 ErrMax= 8.23D-08  0.00D+00 EMaxC= 1.00D-01 BMatC= 1.50D-13 BMatP= 1.01D-12
 IDIUse=1 WtCom= 1.00D+00 WtEn= 0.00D+00
 Coeff-Com: -0.214D-03 0.486D-02-0.560D-02-0.273D-01 0.322D-01 0.926D-01
 Coeff-Com: -0.250D+00-0.681D-01 0.122D+01
 Coeff:     -0.214D-03 0.486D-02-0.560D-02-0.273D-01 0.322D-01 0.926D-01
 Coeff:     -0.250D+00-0.681D-01 0.122D+01
 Gap=     0.540 Goal=   None    Shift=    0.000
 RMSDP=2.54D-08 MaxDP=1.81D-07 DE=-4.26D-12 OVMax= 4.39D-07

 Cycle  10  Pass 1  IDiag  1:
 E= -226.392562220255     Delta-E=       -0.000000000001 Rises=F Damp=F
 DIIS: error= 2.82D-08 at cycle  10 NSaved=  10.
 NSaved=10 IEnMin=10 EnMin= -226.392562220255     IErMin=10 ErrMin= 2.82D-08
 ErrMax= 2.82D-08  0.00D+00 EMaxC= 1.00D-01 BMatC= 1.41D-14 BMatP= 1.50D-13
 IDIUse=1 WtCom= 1.00D+00 WtEn= 0.00D+00
 Coeff-Com:  0.553D-04-0.153D-02 0.223D-02 0.858D-02-0.134D-01-0.271D-01
 Coeff-Com:  0.103D+00-0.112D+00-0.351D+00 0.139D+01
 Coeff:      0.553D-04-0.153D-02 0.223D-02 0.858D-02-0.134D-01-0.271D-01
 Coeff:      0.103D+00-0.112D+00-0.351D+00 0.139D+01
 Gap=     0.540 Goal=   None    Shift=    0.000
 RMSDP=7.72D-09 MaxDP=5.38D-08 DE=-7.96D-13 OVMax= 1.65D-07

 SCF Done:  E(RHF) =  -226.392562220     A.U. after   10 cycles
            NFock= 10  Conv=0.77D-08     -V/T= 2.0034
 KE= 2.256283541232D+02 PE=-7.680674149434D+02 EE= 1.987907883001D+02
 Leave Link  502 at Fri Apr 12 16:38:50 2019, MaxMem=   134217728 cpu:         0.3
 (Enter /cm/shared/c3ddb/gaussian/09.d01/g09/l701.exe)
 Compute integral first derivatives.
 ... and contract with generalized density number  0.
 Leave Link  701 at Fri Apr 12 16:38:51 2019, MaxMem=   134217728 cpu:         0.2
 (Enter /cm/shared/c3ddb/gaussian/09.d01/g09/l702.exe)
 L702 exits ... SP integral derivatives will be done elsewhere.
 Leave Link  702 at Fri Apr 12 16:38:51 2019, MaxMem=   134217728 cpu:         0.1
 (Enter /cm/shared/c3ddb/gaussian/09.d01/g09/l703.exe)
 Compute integral first derivatives, UseDBF=F ICtDFT=           0.
 Integral derivatives from FoFJK, PRISM(SPDF).
 Calling FoFJK, ICntrl=      2127 FMM=F ISym2X=0 I1Cent= 0 IOpClX= 0 NMat=1 NMatS=1 NMatT=0.
 FoFJK:  IHMeth= 1 ICntrl=    2127 DoSepK=F KAlg= 0 I1Cent=   0 FoldK=F
 IRaf=         0 NMat=   1 IRICut=       1 DoRegI=T DoRafI=F ISym2E= 0.
 FoFCou: FMM=F IPFlag=           0 FMFlag=      100000 FMFlg1=         800
         NFxFlg=           0 DoJE=F BraDBF=F KetDBF=F FulRan=T
         wScrn=  0.000000 ICntrl=    2127 IOpCl=  0 I1Cent=           0 NGrid=           0
         NMat0=    1 NMatS0=      1 NMatT0=    0 NMatD0=    1 NMtDS0=    0 NMtDT0=    0
 Symmetry not used in FoFCou.
 Leave Link  703 at Fri Apr 12 16:38:51 2019, MaxMem=   134217728 cpu:         0.2
 (Enter /cm/shared/c3ddb/gaussian/09.d01/g09/l716.exe)
 Dipole        = 2.10716959D-01 4.13311707D-01 8.69545367D-02
 -------------------------------------------------------------------
 Center     Atomic                   Forces (Hartrees/Bohr)
 Number     Number              X              Y              Z
 -------------------------------------------------------------------
      1        6          -0.000161401   -0.000257799    0.003105922
      2        6           0.000118754    0.000140645   -0.002021931
      3        1           0.000031834    0.000005450   -0.000019521
      4        1           0.000003247   -0.000001320   -0.000033208
      5        1          -0.000002341    0.000003100    0.000000475
      6        8          -0.000140249   -0.001420740   -0.001026082
      7        8           0.000633780    0.002042008    0.000189144
      8        1          -0.000483625   -0.000511344   -0.000194799
 -------------------------------------------------------------------
 Cartesian Forces:  Max     0.003105922 RMS     0.000959503
 Leave Link  716 at Fri Apr 12 16:38:51 2019, MaxMem=   134217728 cpu:         0.1
 (Enter /cm/shared/c3ddb/gaussian/09.d01/g09/l103.exe)

 GradGradGradGradGradGradGradGradGradGradGradGradGradGradGradGradGradGrad
 Berny optimization.
 Using GEDIIS/GDIIS optimizer.
 FormGI is forming the generalized inverse of G from B-inverse, IUseBI=4.
 Internal  Forces:  Max     0.002806197 RMS     0.000796973
 Search for a local minimum.
 Step number   3 out of a maximum of   32
 All quantities printed in internal units (Hartrees-Bohrs-Radians)
 RMS Force = .36918D-04 SwitMx=.10000D-02 MixMth= 2
 Mixed Optimization -- En-DIIS/RFO-DIIS
 Swapping is turned off.
 Update second derivatives using D2CorX and points    1    2    3
 DE= -3.63D-06 DEPred=-3.90D-06 R= 9.32D-01
 TightC=F SS=  1.41D+00  RLast= 5.78D-03 DXNew= 5.0454D-01 1.7355D-02
 Trust test= 9.32D-01 RLast= 5.78D-03 DXMaxT set to 3.00D-01
 ITU=  1  0  0
     Eigenvalues ---    0.02644   0.03314   0.03434   0.15997   0.16000
     Eigenvalues ---    0.16023   0.19281   0.22026   0.26834   0.37107
     Eigenvalues ---    0.37125   0.37192   0.42020   0.47578   0.52833
     Eigenvalues ---    0.651781000.000001000.000001000.000001000.00000
     Eigenvalues --- 1000.000001000.00000
 En-DIIS/RFO-DIIS IScMMF=        0 using points:     3    2    1
 RFO step:  Lambda=-4.98881228D-07.
 NNeg= 0 NP= 3 Switch=  2.50D-03 Rises=F DC=  6.05D-06 SmlDif=  1.00D-05
 RMS Error=  0.9235366290D-04 NUsed= 3 EDIIS=F
 DidBck=F Rises=F RFO-DIIS coefs:    0.79186    0.13165    0.07649
 Iteration  1 RMS(Cart)=  0.00042009 RMS(Int)=  0.00000040
 Iteration  2 RMS(Cart)=  0.00000017 RMS(Int)=  0.00000036
 Iteration  1 RMS(Cart)=  0.00000034 RMS(Int)=  0.00000016
 ITry= 1 IFail=0 DXMaxC= 1.20D-03 DCOld= 1.00D+10 DXMaxT= 3.00D-01 DXLimC= 3.00D+00 Rises=F
 Variable       Old X    -DE/DX   Delta X   Delta X   Delta X     New X
                                 (Linear)    (Quad)   (Total)
    R1        2.47069   0.00000  -0.00001   0.00001   0.00000   2.47069
    R2        2.02213   0.00002   0.00004   0.00000   0.00004   2.02217
    R3        2.66361   0.00004   0.00008   0.00002   0.00010   2.66370
    R4        2.02384   0.00000   0.00000   0.00001   0.00001   2.02384
    R5        2.02358   0.00000   0.00000  -0.00001   0.00000   2.02357
    R6        2.79089  -0.00013  -0.00045   0.00017  -0.00028   2.79061
    R7        1.83807   0.00003   0.00001   0.00004   0.00005   1.83813
    A1        2.17035  -0.00003  -0.00003  -0.00015  -0.00018   2.17017
    A2        2.11688   0.00002  -0.00001   0.00009   0.00008   2.11696
    A3        1.99595   0.00002   0.00004   0.00006   0.00010   1.99605
    A4        2.10855   0.00001   0.00000   0.00003   0.00004   2.10858
    A5        2.10988  -0.00001  -0.00002  -0.00002  -0.00004   2.10984
    A6        2.06474   0.00000   0.00002  -0.00002   0.00000   2.06474
    A7        1.85511  -0.00003   0.00015  -0.00014   0.00001   1.85511
    A8        1.73831  -0.00001   0.00001   0.00010   0.00011   1.73842
    D1       -0.03342   0.00069   0.00014  -0.00025  -0.00011  -0.03353
    D2        3.11413   0.00072   0.00023   0.00034   0.00057   3.11470
    D3        3.11009  -0.00074  -0.00042  -0.00078  -0.00121   3.10888
    D4       -0.02555  -0.00072  -0.00034  -0.00019  -0.00053  -0.02607
    D5        1.57080   0.00281   0.00000   0.00000   0.00000   1.57080
    D6       -1.56906   0.00151  -0.00051  -0.00048  -0.00099  -1.57005
    D7        2.44346   0.00132   0.00000   0.00000   0.00000   2.44346
         Item               Value     Threshold  Converged?
 Maximum Force            0.000132     0.000015     NO 
 RMS     Force            0.000037     0.000010     NO 
 Maximum Displacement     0.001205     0.000060     NO 
 RMS     Displacement     0.000420     0.000040     NO 
 Predicted change in Energy=-8.668249D-08
 Lowest energy point so far.  Saving SCF results.
 GradGradGradGradGradGradGradGradGradGradGradGradGradGradGradGradGradGrad

 Leave Link  103 at Fri Apr 12 16:38:51 2019, MaxMem=   134217728 cpu:         0.0
 (Enter /cm/shared/c3ddb/gaussian/09.d01/g09/l202.exe)
                          Input orientation:                          
 ---------------------------------------------------------------------
 Center     Atomic      Atomic             Coordinates (Angstroms)
 Number     Number       Type             X           Y           Z
 ---------------------------------------------------------------------
      1          6           0        0.727989    0.623354    0.039384
      2          6           0        1.372191   -0.513586   -0.002476
      3          1           0        1.198257    1.580919    0.123037
      4          1           0        2.442709   -0.538562    0.016153
      5          1           0        0.843650   -1.442962   -0.062324
      6          8           0       -0.679382    0.670194   -0.023886
      7          8           0       -1.159468    0.594250    1.370556
      8          1           0       -1.887976    1.237276    1.326624
 ---------------------------------------------------------------------
                    Distance matrix (angstroms):
                    1          2          3          4          5
     1  C    0.000000
     2  C    1.307433   0.000000
     3  H    1.070085   2.105460   0.000000
     4  H    2.071437   1.070972   2.460139   0.000000
     5  H    2.072048   1.070829   3.050240   1.838773   0.000000
     6  O    1.409571   2.368701   2.092018   3.348156   2.605097
     7  O    2.309840   3.085744   2.844062   4.011652   3.196226
     8  H    2.979457   3.932012   3.330398   4.860635   4.071196
                    6          7          8
     6  O    0.000000
     7  O    1.476725   0.000000
     8  H    1.898989   0.972696   0.000000
 Symmetry turned off by external request.
 Stoichiometry    C2H4O2
 Framework group  C1[X(C2H4O2)]
 Deg. of freedom    18
 Full point group                 C1      NOp   1
 Rotational constants (GHZ):     23.8298643      5.2292831      4.8452270
 Leave Link  202 at Fri Apr 12 16:38:51 2019, MaxMem=   134217728 cpu:         0.0
 (Enter /cm/shared/c3ddb/gaussian/09.d01/g09/l301.exe)
 Standard basis: 3-21G (6D, 7F)
 Ernie: Thresh=  0.10000D-02 Tol=  0.10000D-05 Strict=F.
    44 basis functions,    72 primitive gaussians,    44 cartesian basis functions
    16 alpha electrons       16 beta electrons
       nuclear repulsion energy       117.2566584613 Hartrees.
 IExCor=    0 DFT=F Ex=HF Corr=None ExCW=0 ScaHFX=  1.000000
 ScaDFX=  1.000000  1.000000  1.000000  1.000000 ScalE2=  1.000000  1.000000
 IRadAn=      0 IRanWt=     -1 IRanGd=            0 ICorTp=0 IEmpDi=  4
 NAtoms=    8 NActive=    8 NUniq=    8 SFac= 1.00D+00 NAtFMM=   60 NAOKFM=F Big=F
 Integral buffers will be    131072 words long.
 Raffenetti 1 integral format.
 Two-electron integral symmetry is turned off.
 Leave Link  301 at Fri Apr 12 16:38:52 2019, MaxMem=   134217728 cpu:         0.2
 (Enter /cm/shared/c3ddb/gaussian/09.d01/g09/l302.exe)
 NPDir=0 NMtPBC=     1 NCelOv=     1 NCel=       1 NClECP=     1 NCelD=      1
         NCelK=      1 NCelE2=     1 NClLst=     1 CellRange=     0.0.
 One-electron integrals computed using PRISM.
 NBasis=    44 RedAO= T EigKep=  1.17D-02  NBF=    44
 NBsUse=    44 1.00D-06 EigRej= -1.00D+00 NBFU=    44
 Leave Link  302 at Fri Apr 12 16:38:52 2019, MaxMem=   134217728 cpu:         0.2
 (Enter /cm/shared/c3ddb/gaussian/09.d01/g09/l303.exe)
 DipDrv:  MaxL=1.
 Leave Link  303 at Fri Apr 12 16:38:52 2019, MaxMem=   134217728 cpu:         0.1
 (Enter /cm/shared/c3ddb/gaussian/09.d01/g09/l401.exe)
 Initial guess from the checkpoint file:  "TMP_CALCS/scangeom_S02_090_140.chk"
 B after Tr=     0.000030    0.000148    0.000031
         Rot=    1.000000   -0.000083    0.000082    0.000021 Ang=  -0.01 deg.
 Guess basis will be translated and rotated to current coordinates.
 JPrj=2 DoOrth=T DoCkMO=T.
 Leave Link  401 at Fri Apr 12 16:38:52 2019, MaxMem=   134217728 cpu:         0.3
 (Enter /cm/shared/c3ddb/gaussian/09.d01/g09/l502.exe)
 Closed shell SCF:
 Using DIIS extrapolation, IDIIS=  1040.
 Two-electron integral symmetry not used.
 Keep R1 ints in memory in canonical form, NReq=1327303.
 IVT=       24902 IEndB=       24902 NGot=   134217728 MDV=   133702282
 LenX=   133702282 LenY=   133699905
 Requested convergence on RMS density matrix=1.00D-08 within 128 cycles.
 Requested convergence on MAX density matrix=1.00D-06.
 Requested convergence on             energy=1.00D-06.
 No special actions if energy rises.
 FoFCou: FMM=F IPFlag=           0 FMFlag=           0 FMFlg1=           0
         NFxFlg=           0 DoJE=F BraDBF=F KetDBF=F FulRan=T
         wScrn=  0.000000 ICntrl=     600 IOpCl=  0 I1Cent=           0 NGrid=           0
         NMat0=    1 NMatS0=    990 NMatT0=    0 NMatD0=    1 NMtDS0=    0 NMtDT0=    0
 Symmetry not used in FoFCou.

 Cycle   1  Pass 1  IDiag  1:
 E= -226.392562113285    
 DIIS: error= 3.29D-05 at cycle   1 NSaved=   1.
 NSaved= 1 IEnMin= 1 EnMin= -226.392562113285     IErMin= 1 ErrMin= 3.29D-05
 ErrMax= 3.29D-05  0.00D+00 EMaxC= 1.00D-01 BMatC= 8.17D-08 BMatP= 8.17D-08
 IDIUse=1 WtCom= 1.00D+00 WtEn= 0.00D+00
 Coeff-Com:  0.100D+01
 Coeff:      0.100D+01
 Gap=     0.984 Goal=   None    Shift=    0.000
 RMSDP=6.78D-06 MaxDP=6.13D-05              OVMax= 1.26D-04

 Cycle   2  Pass 1  IDiag  1:
 E= -226.392562257741     Delta-E=       -0.000000144456 Rises=F Damp=F
 DIIS: error= 1.45D-05 at cycle   2 NSaved=   2.
 NSaved= 2 IEnMin= 2 EnMin= -226.392562257741     IErMin= 2 ErrMin= 1.45D-05
 ErrMax= 1.45D-05  0.00D+00 EMaxC= 1.00D-01 BMatC= 7.36D-09 BMatP= 8.17D-08
 IDIUse=1 WtCom= 1.00D+00 WtEn= 0.00D+00
 Coeff-Com: -0.276D+00 0.128D+01
 Coeff:     -0.276D+00 0.128D+01
 Gap=     0.540 Goal=   None    Shift=    0.000
 RMSDP=3.57D-06 MaxDP=3.00D-05 DE=-1.44D-07 OVMax= 8.37D-05

 Cycle   3  Pass 1  IDiag  1:
 E= -226.392562281589     Delta-E=       -0.000000023848 Rises=F Damp=F
 DIIS: error= 5.41D-06 at cycle   3 NSaved=   3.
 NSaved= 3 IEnMin= 3 EnMin= -226.392562281589     IErMin= 3 ErrMin= 5.41D-06
 ErrMax= 5.41D-06  0.00D+00 EMaxC= 1.00D-01 BMatC= 6.12D-10 BMatP= 7.36D-09
 IDIUse=1 WtCom= 1.00D+00 WtEn= 0.00D+00
 Coeff-Com:  0.120D-01-0.264D+00 0.125D+01
 Coeff:      0.120D-01-0.264D+00 0.125D+01
 Gap=     0.540 Goal=   None    Shift=    0.000
 RMSDP=1.33D-06 MaxDP=1.07D-05 DE=-2.38D-08 OVMax= 3.18D-05

 Cycle   4  Pass 1  IDiag  1:
 E= -226.392562283868     Delta-E=       -0.000000002279 Rises=F Damp=F
 DIIS: error= 1.64D-06 at cycle   4 NSaved=   4.
 NSaved= 4 IEnMin= 4 EnMin= -226.392562283868     IErMin= 4 ErrMin= 1.64D-06
 ErrMax= 1.64D-06  0.00D+00 EMaxC= 1.00D-01 BMatC= 9.91D-11 BMatP= 6.12D-10
 IDIUse=1 WtCom= 1.00D+00 WtEn= 0.00D+00
 Coeff-Com:  0.298D-01-0.194D+00 0.324D+00 0.841D+00
 Coeff:      0.298D-01-0.194D+00 0.324D+00 0.841D+00
 Gap=     0.540 Goal=   None    Shift=    0.000
 RMSDP=3.50D-07 MaxDP=2.40D-06 DE=-2.28D-09 OVMax= 8.12D-06

 Cycle   5  Pass 1  IDiag  1:
 E= -226.392562284070     Delta-E=       -0.000000000202 Rises=F Damp=F
 DIIS: error= 5.26D-07 at cycle   5 NSaved=   5.
 NSaved= 5 IEnMin= 5 EnMin= -226.392562284070     IErMin= 5 ErrMin= 5.26D-07
 ErrMax= 5.26D-07  0.00D+00 EMaxC= 1.00D-01 BMatC= 6.58D-12 BMatP= 9.91D-11
 IDIUse=1 WtCom= 1.00D+00 WtEn= 0.00D+00
 Coeff-Com: -0.356D-02 0.427D-01-0.165D+00-0.666D-01 0.119D+01
 Coeff:     -0.356D-02 0.427D-01-0.165D+00-0.666D-01 0.119D+01
 Gap=     0.540 Goal=   None    Shift=    0.000
 RMSDP=1.30D-07 MaxDP=8.10D-07 DE=-2.02D-10 OVMax= 2.91D-06

 Cycle   6  Pass 1  IDiag  1:
 E= -226.392562284090     Delta-E=       -0.000000000020 Rises=F Damp=F
 DIIS: error= 1.08D-07 at cycle   6 NSaved=   6.
 NSaved= 6 IEnMin= 6 EnMin= -226.392562284090     IErMin= 6 ErrMin= 1.08D-07
 ErrMax= 1.08D-07  0.00D+00 EMaxC= 1.00D-01 BMatC= 7.90D-13 BMatP= 6.58D-12
 IDIUse=1 WtCom= 1.00D+00 WtEn= 0.00D+00
 Coeff-Com: -0.259D-02 0.211D-01-0.554D-01-0.672D-01 0.281D+00 0.823D+00
 Coeff:     -0.259D-02 0.211D-01-0.554D-01-0.672D-01 0.281D+00 0.823D+00
 Gap=     0.540 Goal=   None    Shift=    0.000
 RMSDP=2.31D-08 MaxDP=1.31D-07 DE=-2.00D-11 OVMax= 3.50D-07

 Cycle   7  Pass 1  IDiag  1:
 E= -226.392562284091     Delta-E=       -0.000000000002 Rises=F Damp=F
 DIIS: error= 8.10D-08 at cycle   7 NSaved=   7.
 NSaved= 7 IEnMin= 7 EnMin= -226.392562284091     IErMin= 7 ErrMin= 8.10D-08
 ErrMax= 8.10D-08  0.00D+00 EMaxC= 1.00D-01 BMatC= 1.18D-13 BMatP= 7.90D-13
 IDIUse=1 WtCom= 1.00D+00 WtEn= 0.00D+00
 Coeff-Com:  0.678D-03-0.842D-02 0.342D-01 0.889D-02-0.244D+00 0.308D-02
 Coeff-Com:  0.121D+01
 Coeff:      0.678D-03-0.842D-02 0.342D-01 0.889D-02-0.244D+00 0.308D-02
 Coeff:      0.121D+01
 Gap=     0.540 Goal=   None    Shift=    0.000
 RMSDP=1.65D-08 MaxDP=8.79D-08 DE=-1.53D-12 OVMax= 3.46D-07

 Cycle   8  Pass 1  IDiag  1:
 E= -226.392562284092     Delta-E=       -0.000000000001 Rises=F Damp=F
 DIIS: error= 2.01D-08 at cycle   8 NSaved=   8.
 NSaved= 8 IEnMin= 8 EnMin= -226.392562284092     IErMin= 8 ErrMin= 2.01D-08
 ErrMax= 2.01D-08  0.00D+00 EMaxC= 1.00D-01 BMatC= 9.86D-15 BMatP= 1.18D-13
 IDIUse=1 WtCom= 1.00D+00 WtEn= 0.00D+00
 Coeff-Com:  0.121D-03-0.665D-03 0.865D-03 0.258D-02 0.489D-02-0.628D-01
 Coeff-Com: -0.101D+00 0.116D+01
 Coeff:      0.121D-03-0.665D-03 0.865D-03 0.258D-02 0.489D-02-0.628D-01
 Coeff:     -0.101D+00 0.116D+01
 Gap=     0.540 Goal=   None    Shift=    0.000
 RMSDP=4.90D-09 MaxDP=3.04D-08 DE=-5.68D-13 OVMax= 8.17D-08

 SCF Done:  E(RHF) =  -226.392562284     A.U. after    8 cycles
            NFock=  8  Conv=0.49D-08     -V/T= 2.0034
 KE= 2.256284255558D+02 PE=-7.680693035515D+02 EE= 1.987916572504D+02
 Leave Link  502 at Fri Apr 12 16:38:53 2019, MaxMem=   134217728 cpu:         0.3
 (Enter /cm/shared/c3ddb/gaussian/09.d01/g09/l701.exe)
 Compute integral first derivatives.
 ... and contract with generalized density number  0.
 Leave Link  701 at Fri Apr 12 16:38:53 2019, MaxMem=   134217728 cpu:         0.2
 (Enter /cm/shared/c3ddb/gaussian/09.d01/g09/l702.exe)
 L702 exits ... SP integral derivatives will be done elsewhere.
 Leave Link  702 at Fri Apr 12 16:38:53 2019, MaxMem=   134217728 cpu:         0.1
 (Enter /cm/shared/c3ddb/gaussian/09.d01/g09/l703.exe)
 Compute integral first derivatives, UseDBF=F ICtDFT=           0.
 Integral derivatives from FoFJK, PRISM(SPDF).
 Calling FoFJK, ICntrl=      2127 FMM=F ISym2X=0 I1Cent= 0 IOpClX= 0 NMat=1 NMatS=1 NMatT=0.
 FoFJK:  IHMeth= 1 ICntrl=    2127 DoSepK=F KAlg= 0 I1Cent=   0 FoldK=F
 IRaf=         0 NMat=   1 IRICut=       1 DoRegI=T DoRafI=F ISym2E= 0.
 FoFCou: FMM=F IPFlag=           0 FMFlag=      100000 FMFlg1=         800
         NFxFlg=           0 DoJE=F BraDBF=F KetDBF=F FulRan=T
         wScrn=  0.000000 ICntrl=    2127 IOpCl=  0 I1Cent=           0 NGrid=           0
         NMat0=    1 NMatS0=      1 NMatT0=    0 NMatD0=    1 NMtDS0=    0 NMtDT0=    0
 Symmetry not used in FoFCou.
 Leave Link  703 at Fri Apr 12 16:38:54 2019, MaxMem=   134217728 cpu:         0.2
 (Enter /cm/shared/c3ddb/gaussian/09.d01/g09/l716.exe)
 Dipole        = 2.10755530D-01 4.13330627D-01 8.67514942D-02
 -------------------------------------------------------------------
 Center     Atomic                   Forces (Hartrees/Bohr)
 Number     Number              X              Y              Z
[...]
 No special actions if energy rises.
 FoFCou: FMM=F IPFlag=           0 FMFlag=           0 FMFlg1=           0
         NFxFlg=           0 DoJE=F BraDBF=F KetDBF=F FulRan=T
         wScrn=  0.000000 ICntrl=     600 IOpCl=  0 I1Cent=           0 NGrid=           0
         NMat0=    1 NMatS0=    990 NMatT0=    0 NMatD0=    1 NMtDS0=    0 NMtDT0=    0
 Symmetry not used in FoFCou.

 Cycle   1  Pass 1  IDiag  1:
 E= -226.392562281982    
 DIIS: error= 7.37D-06 at cycle   1 NSaved=   1.
 NSaved= 1 IEnMin= 1 EnMin= -226.392562281982     IErMin= 1 ErrMin= 7.37D-06
 ErrMax= 7.37D-06  0.00D+00 EMaxC= 1.00D-01 BMatC= 3.99D-09 BMatP= 3.99D-09
 IDIUse=1 WtCom= 1.00D+00 WtEn= 0.00D+00
 Coeff-Com:  0.100D+01
 Coeff:      0.100D+01
 Gap=     0.984 Goal=   None    Shift=    0.000
 RMSDP=1.49D-06 MaxDP=1.51D-05              OVMax= 2.33D-05

 Cycle   2  Pass 1  IDiag  1:
 E= -226.392562289080     Delta-E=       -0.000000007098 Rises=F Damp=F
 DIIS: error= 2.86D-06 at cycle   2 NSaved=   2.
 NSaved= 2 IEnMin= 2 EnMin= -226.392562289080     IErMin= 2 ErrMin= 2.86D-06
 ErrMax= 2.86D-06  0.00D+00 EMaxC= 1.00D-01 BMatC= 3.42D-10 BMatP= 3.99D-09
 IDIUse=1 WtCom= 1.00D+00 WtEn= 0.00D+00
 Coeff-Com: -0.284D+00 0.128D+01
 Coeff:     -0.284D+00 0.128D+01
 Gap=     0.540 Goal=   None    Shift=    0.000
 RMSDP=7.39D-07 MaxDP=6.14D-06 DE=-7.10D-09 OVMax= 1.58D-05

 Cycle   3  Pass 1  IDiag  1:
 E= -226.392562290117     Delta-E=       -0.000000001037 Rises=F Damp=F
 DIIS: error= 9.60D-07 at cycle   3 NSaved=   3.
 NSaved= 3 IEnMin= 3 EnMin= -226.392562290117     IErMin= 3 ErrMin= 9.60D-07
 ErrMax= 9.60D-07  0.00D+00 EMaxC= 1.00D-01 BMatC= 2.19D-11 BMatP= 3.42D-10
 IDIUse=1 WtCom= 1.00D+00 WtEn= 0.00D+00
 Coeff-Com:  0.264D-01-0.285D+00 0.126D+01
 Coeff:      0.264D-01-0.285D+00 0.126D+01
 Gap=     0.540 Goal=   None    Shift=    0.000
 RMSDP=2.49D-07 MaxDP=2.00D-06 DE=-1.04D-09 OVMax= 5.81D-06

 Cycle   4  Pass 1  IDiag  1:
 E= -226.392562290201     Delta-E=       -0.000000000084 Rises=F Damp=F
 DIIS: error= 2.34D-07 at cycle   4 NSaved=   4.
 NSaved= 4 IEnMin= 4 EnMin= -226.392562290201     IErMin= 4 ErrMin= 2.34D-07
 ErrMax= 2.34D-07  0.00D+00 EMaxC= 1.00D-01 BMatC= 3.42D-12 BMatP= 2.19D-11
 IDIUse=1 WtCom= 1.00D+00 WtEn= 0.00D+00
 Coeff-Com:  0.280D-01-0.168D+00 0.286D+00 0.854D+00
 Coeff:      0.280D-01-0.168D+00 0.286D+00 0.854D+00
 Gap=     0.540 Goal=   None    Shift=    0.000
 RMSDP=6.77D-08 MaxDP=4.19D-07 DE=-8.35D-11 OVMax= 1.43D-06

 Cycle   5  Pass 1  IDiag  1:
 E= -226.392562290207     Delta-E=       -0.000000000007 Rises=F Damp=F
 DIIS: error= 1.14D-07 at cycle   5 NSaved=   5.
 NSaved= 5 IEnMin= 5 EnMin= -226.392562290207     IErMin= 5 ErrMin= 1.14D-07
 ErrMax= 1.14D-07  0.00D+00 EMaxC= 1.00D-01 BMatC= 4.01D-13 BMatP= 3.42D-12
 IDIUse=1 WtCom= 1.00D+00 WtEn= 0.00D+00
 Coeff-Com: -0.313D-02 0.364D-01-0.176D+00 0.411D-01 0.110D+01
 Coeff:     -0.313D-02 0.364D-01-0.176D+00 0.411D-01 0.110D+01
 Gap=     0.540 Goal=   None    Shift=    0.000
 RMSDP=2.82D-08 MaxDP=1.79D-07 DE=-6.65D-12 OVMax= 6.20D-07

 Cycle   6  Pass 1  IDiag  1:
 E= -226.392562290209     Delta-E=       -0.000000000001 Rises=F Damp=F
 DIIS: error= 3.19D-08 at cycle   6 NSaved=   6.
 NSaved= 6 IEnMin= 6 EnMin= -226.392562290209     IErMin= 6 ErrMin= 3.19D-08
 ErrMax= 3.19D-08  0.00D+00 EMaxC= 1.00D-01 BMatC= 4.42D-14 BMatP= 4.01D-13
 IDIUse=1 WtCom= 1.00D+00 WtEn= 0.00D+00
 Coeff-Com: -0.325D-02 0.234D-01-0.673D-01-0.629D-01 0.240D+00 0.870D+00
 Coeff:     -0.325D-02 0.234D-01-0.673D-01-0.629D-01 0.240D+00 0.870D+00
 Gap=     0.540 Goal=   None    Shift=    0.000
 RMSDP=7.66D-09 MaxDP=5.77D-08 DE=-1.42D-12 OVMax= 1.07D-07

 SCF Done:  E(RHF) =  -226.392562290     A.U. after    6 cycles
            NFock=  6  Conv=0.77D-08     -V/T= 2.0034
 KE= 2.256284668026D+02 PE=-7.680702636301D+02 EE= 1.987920933493D+02
 Leave Link  502 at Fri Apr 12 16:38:55 2019, MaxMem=   134217728 cpu:         0.2
 (Enter /cm/shared/c3ddb/gaussian/09.d01/g09/l701.exe)
 Compute integral first derivatives.
 ... and contract with generalized density number  0.
 Leave Link  701 at Fri Apr 12 16:38:56 2019, MaxMem=   134217728 cpu:         0.2
 (Enter /cm/shared/c3ddb/gaussian/09.d01/g09/l702.exe)
 L702 exits ... SP integral derivatives will be done elsewhere.
 Leave Link  702 at Fri Apr 12 16:38:56 2019, MaxMem=   134217728 cpu:         0.1
 (Enter /cm/shared/c3ddb/gaussian/09.d01/g09/l703.exe)
 Compute integral first derivatives, UseDBF=F ICtDFT=           0.
 Integral derivatives from FoFJK, PRISM(SPDF).
 Calling FoFJK, ICntrl=      2127 FMM=F ISym2X=0 I1Cent= 0 IOpClX= 0 NMat=1 NMatS=1 NMatT=0.
 FoFJK:  IHMeth= 1 ICntrl=    2127 DoSepK=F KAlg= 0 I1Cent=   0 FoldK=F
 IRaf=         0 NMat=   1 IRICut=       1 DoRegI=T DoRafI=F ISym2E= 0.
 FoFCou: FMM=F IPFlag=           0 FMFlag=      100000 FMFlg1=         800
         NFxFlg=           0 DoJE=F BraDBF=F KetDBF=F FulRan=T
         wScrn=  0.000000 ICntrl=    2127 IOpCl=  0 I1Cent=           0 NGrid=           0
         NMat0=    1 NMatS0=      1 NMatT0=    0 NMatD0=    1 NMtDS0=    0 NMtDT0=    0
 Symmetry not used in FoFCou.
 Leave Link  703 at Fri Apr 12 16:38:56 2019, MaxMem=   134217728 cpu:         0.3
 (Enter /cm/shared/c3ddb/gaussian/09.d01/g09/l716.exe)
 Dipole        = 2.10758142D-01 4.13326247D-01 8.68231210D-02
 -------------------------------------------------------------------
 Center     Atomic                   Forces (Hartrees/Bohr)
 Number     Number              X              Y              Z
 -------------------------------------------------------------------
      1        6          -0.000147205   -0.000234276    0.003016304
      2        6           0.000094608    0.000129542   -0.002035347
      3        1           0.000000566    0.000000254   -0.000000198
      4        1          -0.000000319    0.000000461   -0.000000727
      5        1           0.000000620   -0.000000864   -0.000001254
      6        8          -0.000042814   -0.001423132   -0.001096012
      7        8           0.000554063    0.002061484    0.000304340
      8        1          -0.000459520   -0.000533470   -0.000187106
 -------------------------------------------------------------------
 Cartesian Forces:  Max     0.003016304 RMS     0.000952004
 Leave Link  716 at Fri Apr 12 16:38:56 2019, MaxMem=   134217728 cpu:         0.1
 (Enter /cm/shared/c3ddb/gaussian/09.d01/g09/l103.exe)

 GradGradGradGradGradGradGradGradGradGradGradGradGradGradGradGradGradGrad
 Berny optimization.
 Using GEDIIS/GDIIS optimizer.
 FormGI is forming the generalized inverse of G from B-inverse, IUseBI=4.
 Internal  Forces:  Max     0.002786633 RMS     0.000791191
 Search for a local minimum.
 Step number   5 out of a maximum of   32
 All quantities printed in internal units (Hartrees-Bohrs-Radians)
 RMS Force = .12061D-05 SwitMx=.10000D-02 MixMth= 2
 Mixed Optimization -- En-DIIS/RFO-DIIS
 Swapping is turned off.
 Update second derivatives using D2CorX and points    1    2    3    4    5
 DE= -6.12D-09 DEPred=-6.94D-09 R= 8.81D-01
 Trust test= 8.81D-01 RLast= 4.65D-04 DXMaxT set to 3.00D-01
 ITU=  0  0  1  0  0
     Eigenvalues ---    0.02752   0.03365   0.05277   0.15773   0.15985
     Eigenvalues ---    0.15998   0.19827   0.21924   0.26821   0.37102
     Eigenvalues ---    0.37113   0.37156   0.42712   0.47277   0.52666
     Eigenvalues ---    0.651721000.000001000.000001000.000001000.00000
     Eigenvalues --- 1000.000001000.00000
 En-DIIS/RFO-DIIS IScMMF=        0 using points:     5    4    3    2    1
 RFO step:  Lambda=-4.35555633D-07.
 NNeg= 0 NP= 5 Switch=  2.50D-03 Rises=F DC=  6.05D-06 SmlDif=  1.00D-05
 RMS Error=  0.2515706452D-04 NUsed= 5 EDIIS=F
 DidBck=F Rises=F RFO-DIIS coefs:    0.87068    0.09315    0.03133    0.00342    0.00142
 Iteration  1 RMS(Cart)=  0.00000935 RMS(Int)=  0.00000035
 Iteration  2 RMS(Cart)=  0.00000000 RMS(Int)=  0.00000035
 Iteration  1 RMS(Cart)=  0.00000040 RMS(Int)=  0.00000018
 ITry= 1 IFail=0 DXMaxC= 2.33D-05 DCOld= 1.00D+10 DXMaxT= 3.00D-01 DXLimC= 3.00D+00 Rises=F
 Variable       Old X    -DE/DX   Delta X   Delta X   Delta X     New X
                                 (Linear)    (Quad)   (Total)
    R1        2.47069   0.00000   0.00000   0.00000   0.00000   2.47069
    R2        2.02217   0.00000   0.00000   0.00000   0.00000   2.02217
    R3        2.66370   0.00000   0.00000  -0.00001  -0.00001   2.66369
    R4        2.02384   0.00000   0.00000   0.00000   0.00000   2.02384
    R5        2.02358   0.00000   0.00000   0.00000   0.00000   2.02358
    R6        2.79057   0.00000   0.00000   0.00000   0.00000   2.79057
    R7        1.83813   0.00000   0.00000   0.00000   0.00000   1.83813
    A1        2.17017   0.00000   0.00001  -0.00001   0.00000   2.17017
    A2        2.11696   0.00000   0.00000   0.00001   0.00000   2.11696
    A3        1.99605   0.00000   0.00000   0.00000   0.00000   1.99605
    A4        2.10857   0.00000   0.00000  -0.00001  -0.00001   2.10857
    A5        2.10985   0.00000   0.00000   0.00001   0.00001   2.10986
    A6        2.06474   0.00000   0.00000   0.00000   0.00000   2.06474
    A7        1.85513   0.00000   0.00000   0.00000   0.00000   1.85514
    A8        1.73836   0.00000   0.00000   0.00000   0.00000   1.73836
    D1       -0.03342   0.00069  -0.00001  -0.00001  -0.00001  -0.03343
    D2        3.11450   0.00069   0.00001   0.00001   0.00002   3.11453
    D3        3.10922  -0.00069  -0.00001   0.00000  -0.00001   3.10921
    D4       -0.02604  -0.00069   0.00001   0.00002   0.00003  -0.02601
    D5        1.57080   0.00279   0.00000   0.00000   0.00000   1.57080
    D6       -1.56985   0.00153   0.00000   0.00001   0.00001  -1.56984
    D7        2.44346   0.00132   0.00000   0.00000   0.00000   2.44346
         Item               Value     Threshold  Converged?
 Maximum Force            0.000004     0.000015     YES
 RMS     Force            0.000001     0.000010     YES
 Maximum Displacement     0.000023     0.000060     YES
 RMS     Displacement     0.000009     0.000040     YES
 Predicted change in Energy=-2.435373D-10
 Optimization completed.
    -- Stationary point found.
                           ----------------------------
                           !   Optimized Parameters   !
                           ! (Angstroms and Degrees)  !
 --------------------------                            --------------------------
 ! Name  Definition              Value          Derivative Info.                !
 --------------------------------------------------------------------------------
 ! R1    R(1,2)                  1.3074         -DE/DX =    0.0                 !
 ! R2    R(1,3)                  1.0701         -DE/DX =    0.0                 !
 ! R3    R(1,6)                  1.4096         -DE/DX =    0.0                 !
 ! R4    R(2,4)                  1.071          -DE/DX =    0.0                 !
 ! R5    R(2,5)                  1.0708         -DE/DX =    0.0                 !
 ! R6    R(6,7)                  1.4767         -DE/DX =    0.0                 !
 ! R7    R(7,8)                  0.9727         -DE/DX =    0.0                 !
 ! A1    A(2,1,3)              124.3415         -DE/DX =    0.0                 !
 ! A2    A(2,1,6)              121.2931         -DE/DX =    0.0                 !
 ! A3    A(3,1,6)              114.3654         -DE/DX =    0.0                 !
 ! A4    A(1,2,4)              120.8124         -DE/DX =    0.0                 !
 ! A5    A(1,2,5)              120.8858         -DE/DX =    0.0                 !
 ! A6    A(4,2,5)              118.3009         -DE/DX =    0.0                 !
 ! A7    A(1,6,7)              106.2914         -DE/DX =    0.0                 !
 ! A8    A(6,7,8)               99.6007         -DE/DX =    0.0                 !
 ! D1    D(3,1,2,4)             -1.9146         -DE/DX =    0.0007              !
 ! D2    D(3,1,2,5)            178.448          -DE/DX =    0.0007              !
 ! D3    D(6,1,2,4)            178.1454         -DE/DX =   -0.0007              !
 ! D4    D(6,1,2,5)             -1.4921         -DE/DX =   -0.0007              !
 ! D5    D(2,1,6,7)             90.0001         -DE/DX =    0.0028              !
 ! D6    D(3,1,6,7)            -89.9456         -DE/DX =    0.0015              !
 ! D7    D(1,6,7,8)            140.0            -DE/DX =    0.0013              !
 --------------------------------------------------------------------------------
 Lowest energy point so far.  Saving SCF results.
 GradGradGradGradGradGradGradGradGradGradGradGradGradGradGradGradGradGrad

 Largest change from initial coordinates is atom    8       0.005 Angstoms.
 Leave Link  103 at Fri Apr 12 16:38:56 2019, MaxMem=   134217728 cpu:         0.0
 (Enter /cm/shared/c3ddb/gaussian/09.d01/g09/l202.exe)
                          Input orientation:                          
 ---------------------------------------------------------------------
 Center     Atomic      Atomic             Coordinates (Angstroms)
 Number     Number       Type             X           Y           Z
 ---------------------------------------------------------------------
      1          6           0        0.727962    0.623347    0.039297
      2          6           0        1.372182   -0.513583   -0.002566
      3          1           0        1.198212    1.580913    0.123076
      4          1           0        2.442695   -0.538543    0.016292
      5          1           0        0.843666   -1.442979   -0.062365
      6          8           0       -0.679411    0.670162   -0.023865
      7          8           0       -1.159413    0.594270    1.370587
      8          1           0       -1.887922    1.237296    1.326611
 ---------------------------------------------------------------------
                    Distance matrix (angstroms):
                    1          2          3          4          5
     1  C    0.000000
     2  C    1.307433   0.000000
     3  H    1.070088   2.105461   0.000000
     4  H    2.071430   1.070970   2.460128   0.000000
     5  H    2.072057   1.070832   3.050248   1.838773   0.000000
     6  O    1.409568   2.368700   2.092016   3.348153   2.605112
     7  O    2.309840   3.085751   2.843966   4.011553   3.196257
     8  H    2.979423   3.931992   3.330284   4.860533   4.071203
                    6          7          8
     6  O    0.000000
     7  O    1.476705   0.000000
     8  H    1.898927   0.972698   0.000000
 Symmetry turned off by external request.
 Stoichiometry    C2H4O2
 Framework group  C1[X(C2H4O2)]
 Deg. of freedom    18
 Full point group                 C1      NOp   1
 Rotational constants (GHZ):     23.8301527      5.2292883      4.8452666
 Leave Link  202 at Fri Apr 12 16:38:56 2019, MaxMem=   134217728 cpu:         0.0
 (Enter /cm/shared/c3ddb/gaussian/09.d01/g09/l601.exe)
 Copying SCF densities to generalized density rwf, IOpCl= 0 IROHF=0.

 **********************************************************************

            Population analysis using the SCF density.

 **********************************************************************

 Alpha  occ. eigenvalues --  -20.52198 -20.51505 -11.23530 -11.17628  -1.45989
 Alpha  occ. eigenvalues --   -1.22851  -1.03060  -0.79148  -0.69917  -0.66710
 Alpha  occ. eigenvalues --   -0.64631  -0.57797  -0.55154  -0.50186  -0.44150
 Alpha  occ. eigenvalues --   -0.38426
 Alpha virt. eigenvalues --    0.15552   0.27370   0.29185   0.30896   0.32186
 Alpha virt. eigenvalues --    0.36474   0.49430   0.56834   0.88893   0.97618
 Alpha virt. eigenvalues --    0.98837   1.07192   1.10482   1.12882   1.22973
 Alpha virt. eigenvalues --    1.32150   1.37287   1.57770   1.60278   1.76368
 Alpha virt. eigenvalues --    1.81388   1.87200   1.99803   2.01680   2.11722
 Alpha virt. eigenvalues --    2.22769   3.09994   3.46474
          Condensed to atoms (all electrons):
               1          2          3          4          5          6
     1  C    4.880743   0.483452   0.381936  -0.039582  -0.048674   0.245256
     2  C    0.483452   5.336575  -0.067303   0.369767   0.386860  -0.061121
     3  H    0.381936  -0.067303   0.488914   0.001342   0.002247  -0.039953
     4  H   -0.039582   0.369767   0.001342   0.456001  -0.015224   0.001554
     5  H   -0.048674   0.386860   0.002247  -0.015224   0.425102  -0.001110
     6  O    0.245256  -0.061121  -0.039953   0.001554  -0.001110   8.177014
     7  O   -0.039670  -0.000441   0.001742  -0.000022   0.000243   0.115568
     8  H    0.001984  -0.000018   0.000117   0.000001  -0.000007  -0.021682
               7          8
     1  C   -0.039670   0.001984
     2  C   -0.000441  -0.000018
     3  H    0.001742   0.000117
     4  H   -0.000022   0.000001
     5  H    0.000243  -0.000007
     6  O    0.115568  -0.021682
     7  O    8.071781   0.241179
     8  H    0.241179   0.366981
 Mulliken charges:
               1
     1  C    0.134555
     2  C   -0.447772
     3  H    0.230957
     4  H    0.226162
     5  H    0.250561
     6  O   -0.415527
     7  O   -0.390382
     8  H    0.411445
 Sum of Mulliken charges =   0.00000
 Mulliken charges with hydrogens summed into heavy atoms:
               1
     1  C    0.365513
     2  C    0.028951
     6  O   -0.415527
     7  O    0.021063
 Electronic spatial extent (au):  <R**2>=            312.0455
 Charge=              0.0000 electrons
 Dipole moment (field-independent basis, Debye):
    X=              0.5357    Y=              1.0506    Z=              0.2207  Tot=              1.1997
 Quadrupole moment (field-independent basis, Debye-Ang):
   XX=            -18.0517   YY=            -19.5866   ZZ=            -25.8786
   XY=             -2.6367   XZ=             -2.0679   YZ=              2.2266
 Traceless Quadrupole moment (field-independent basis, Debye-Ang):
   XX=              3.1206   YY=              1.5857   ZZ=             -4.7063
   XY=             -2.6367   XZ=             -2.0679   YZ=              2.2266
 Octapole moment (field-independent basis, Debye-Ang**2):
  XXX=            -15.5145  YYY=            -19.0457  ZZZ=            -25.4946  XYY=             -6.1723
  XXY=             -0.3060  XXZ=             -1.4310  XZZ=             -7.8839  YZZ=             -5.1861
  YYZ=             -4.5899  XYZ=             -4.7851
 Hexadecapole moment (field-independent basis, Debye-Ang**3):
 XXXX=           -156.7351 YYYY=            -78.0652 ZZZZ=            -87.1127 XXXY=              8.8820
 XXXZ=             13.6225 YYYX=             22.3644 YYYZ=            -10.6188 ZZZX=             24.2261
 ZZZY=            -13.3752 XXYY=            -34.9550 XXZZ=            -41.5369 YYZZ=            -25.6843
 XXYZ=              5.7647 YYXZ=              2.3570 ZZXY=              2.8037
 N-N= 1.172571411880D+02 E-N=-7.680702641118D+02  KE= 2.256284668026D+02
 No NMR shielding tensors so no spin-rotation constants.
 Leave Link  601 at Fri Apr 12 16:38:57 2019, MaxMem=   134217728 cpu:         0.2
 (Enter /cm/shared/c3ddb/gaussian/09.d01/g09/l9999.exe)
 1\1\GINC-NODE029\FOpt\RHF\3-21G\C2H4O2\MATTSJ\12-Apr-2019\0\\#p hf 3-2
 1g scf=tight NoSymmetry guess=read opt=(tight,modredundant)\\Geometry 
 optimization at the 2D-PES\\0,1\C,0.7279621094,0.6233465828,0.03929701
 4\C,1.3721815211,-0.5135832962,-0.0025663444\H,1.1982124337,1.58091277
 37,0.123076435\H,2.4426947632,-0.5385427663,0.0162923921\H,0.843665665
 8,-1.4429785402,-0.0623650588\O,-0.6794113697,0.6701620575,-0.02386495
 71\O,-1.159413039,0.594270307,1.3705868587\H,-1.8879220846,1.237295881
 7,1.3266106605\\Version=AS64L-G09RevD.01\HF=-226.3925623\RMSD=7.657e-0
 9\RMSF=9.520e-04\Dipole=0.2107581,0.4133262,0.0868231\Quadrupole=2.320
 0958,1.1789124,-3.4990082,-1.9603327,-1.5374333,1.6554373\PG=C01 [X(C2
 H4O2)]\\@


 LIFE IS A CONTINUAL STRUGGLE AGAINST THE TENDENCY TO PRODUCE ENTROPY.
 Job cpu time:       0 days  0 hours  0 minutes 13.4 seconds.
 File lengths (MBytes):  RWF=      5 Int=      0 D2E=      0 Chk=      1 Scr=      1
 Normal termination of Gaussian 09 at Fri Apr 12 16:38:57 2019.
