 Entering Gaussian System, Link 0=/cm/shared/c3ddb/gaussian/09.d01/g09/g09
 Initial command:
 /cm/shared/c3ddb/gaussian/09.d01/g09/l1.exe "/scratch/users/mattsj/g09/S02-7952157/Gau-47830.inp" -scrdir="/scratch/users/mattsj/g09/S02-7952157/"
 Entering Link 1 = /cm/shared/c3ddb/gaussian/09.d01/g09/l1.exe PID=     47831.
  
 Copyright (c) 1988,1990,1992,1993,1995,1998,2003,2009,2013,
            Gaussian, Inc.  All Rights Reserved.
  
 This is part of the Gaussian(R) 09 program.  It is based on
 the Gaussian(R) 03 system (copyright 2003, Gaussian, Inc.),
 the Gaussian(R) 98 system (copyright 1998, Gaussian, Inc.),
 the Gaussian(R) 94 system (copyright 1995, Gaussian, Inc.),
 the Gaussian 92(TM) system (copyright 1992, Gaussian, Inc.),
 the Gaussian 90(TM) system (copyright 1990, Gaussian, Inc.),
 the Gaussian 88(TM) system (copyright 1988, Gaussian, Inc.),
 the Gaussian 86(TM) system (copyright 1986, Carnegie Mellon
 University), and the Gaussian 82(TM) system (copyright 1983,
 Carnegie Mellon University). Gaussian is a federally registered
 trademark of Gaussian, Inc.
  
 This software contains proprietary and confidential information,
 including trade secrets, belonging to Gaussian, Inc.
  
 This software is provided under written license and may be
 used, copied, transmitted, or stored only in accord with that
 written license.
  
 The following legend is applicable only to US Government
 contracts under FAR:
  
                    RESTRICTED RIGHTS LEGEND
  
 Use, reproduction and disclosure by the US Government is
 subject to restrictions as set forth in subparagraphs (a)
 and (c) of the Commercial Computer Software - Restricted
 Rights clause in FAR 52.227-19.
  
 Gaussian, Inc.
 340 Quinnipiac St., Bldg. 40, Wallingford CT 06492
  
  
 ---------------------------------------------------------------
 Warning -- This program may not be used in any manner that
 competes with the business of Gaussian, Inc. or will provide
 assistance to any competitor of Gaussian, Inc.  The licensee
 of this program is prohibited from giving any competitor of
 Gaussian, Inc. access to this program.  By using this program,
 the user acknowledges that Gaussian, Inc. is engaged in the
 business of creating and licensing software in the field of
 computational chemistry and represents and warrants to the
 licensee that it is not a competitor of Gaussian, Inc. and that
 it will not use this program in any manner prohibited above.
 ---------------------------------------------------------------
  

 Cite this work as:
 Gaussian 09, Revision D.01,
 M. J. Frisch, G. W. Trucks, H. B. Schlegel, G. E. Scuseria, 
 M. A. Robb, J. R. Cheeseman, G. Scalmani, V. Barone, B. Mennucci, 
 G. A. Petersson, H. Nakatsuji, M. Caricato, X. Li, H. P. Hratchian, 
 A. F. Izmaylov, J. Bloino, G. Zheng, J. L. Sonnenberg, M. Hada, 
 M. Ehara, K. Toyota, R. Fukuda, J. Hasegawa, M. Ishida, T. Nakajima, 
 Y. Honda, O. Kitao, H. Nakai, T. Vreven, J. A. Montgomery, Jr., 
 J. E. Peralta, F. Ogliaro, M. Bearpark, J. J. Heyd, E. Brothers, 
 K. N. Kudin, V. N. Staroverov, T. Keith, R. Kobayashi, J. Normand, 
 K. Raghavachari, A. Rendell, J. C. Burant, S. S. Iyengar, J. Tomasi, 
 M. Cossi, N. Rega, J. M. Millam, M. Klene, J. E. Knox, J. B. Cross, 
 V. Bakken, C. Adamo, J. Jaramillo, R. Gomperts, R. E. Stratmann, 
 O. Yazyev, A. J. Austin, R. Cammi, C. Pomelli, J. W. Ochterski, 
 R. L. Martin, K. Morokuma, V. G. Zakrzewski, G. A. Voth, 
 P. Salvador, J. J. Dannenberg, S. Dapprich, A. D. Daniels, 
 O. Farkas, J. B. Foresman, J. V. Ortiz, J. Cioslowski, 
 and D. J. Fox, Gaussian, Inc., Wallingford CT, 2013.
 
 ******************************************
 Gaussian 09:  AS64L-G09RevD.01 24-Apr-2013
                12-Apr-2019 
 ******************************************
 %nproc=1
 Will use up to    1 processors via shared memory.
 %mem=1GB
 %chk=TMP_CALCS/scangeom_S02_000_180.chk
 --------------------------------------------------------------------
 #p hf 3-21g scf=tight NoSymmetry guess=read opt=(tight,modredundant)
 --------------------------------------------------------------------
 1/7=10,18=120,19=15,38=1/1,3;
 2/9=110,12=2,15=1,17=6,18=5,40=1/2;
 3/5=5,11=9,16=1,25=1,30=1,71=1,116=-2/1,2,3;
 4/5=1/1;
 5/5=2,32=2,38=6/2;
 6/7=2,8=2,9=2,10=2,28=1/1;
 7/30=1/1,2,3,16;
 1/7=10,18=20,19=15/3(2);
 2/9=110,15=1/2;
 99//99;
 2/9=110,15=1/2;
 3/5=5,11=9,16=1,25=1,30=1,71=1/1,2,3;
 4/5=5,16=3,69=1/1;
 5/5=2,32=2,38=5/2;
 7/30=1/1,2,3,16;
 1/7=10,18=20,19=15/3(-5);
 2/9=110,15=1/2;
 6/7=2,8=2,9=2,10=2,19=2,28=1/1;
 99/9=1/99;
 Leave Link    1 at Fri Apr 12 17:59:09 2019, MaxMem=   134217728 cpu:         0.1
 (Enter /cm/shared/c3ddb/gaussian/09.d01/g09/l101.exe)
 -----------------------------------
 Geometry optimization at the 2D-PES
 -----------------------------------
 Symbolic Z-matrix:
 Charge =  0 Multiplicity = 1
 C                     0.73206   0.57296   0.02905 
 C                     1.42046  -0.53636  -0.05575 
 H                     1.16479   1.54955   0.10109 
 H                     2.48997  -0.49589  -0.05771 
 H                     0.94666  -1.49056  -0.12335 
 O                    -0.65232   0.71243   0.04813 
 O                    -1.26852  -0.6115   -0.04375 
 H                    -2.20197  -0.34375  -0.0183 
 
 The following ModRedundant input section has been read:
 D       2       1       6       7 F                                           
 D       1       6       7       8 F                                           
 
 NAtoms=      8 NQM=        8 NQMF=       0 NMMI=      0 NMMIF=      0
                NMic=       0 NMicF=      0.
                    Isotopes and Nuclear Properties:
 (Nuclear quadrupole moments (NQMom) in fm**2, nuclear magnetic moments (NMagM)
  in nuclear magnetons)

  Atom         1           2           3           4           5           6           7           8
 IAtWgt=          12          12           1           1           1          16          16           1
 AtmWgt=  12.0000000  12.0000000   1.0078250   1.0078250   1.0078250  15.9949146  15.9949146   1.0078250
 NucSpn=           0           0           1           1           1           0           0           1
 AtZEff=   0.0000000   0.0000000   0.0000000   0.0000000   0.0000000   0.0000000   0.0000000   0.0000000
 NQMom=    0.0000000   0.0000000   0.0000000   0.0000000   0.0000000   0.0000000   0.0000000   0.0000000
 NMagM=    0.0000000   0.0000000   2.7928460   2.7928460   2.7928460   0.0000000   0.0000000   2.7928460
 AtZNuc=   6.0000000   6.0000000   1.0000000   1.0000000   1.0000000   8.0000000   8.0000000   1.0000000
 Leave Link  101 at Fri Apr 12 17:59:09 2019, MaxMem=   134217728 cpu:         0.3
 (Enter /cm/shared/c3ddb/gaussian/09.d01/g09/l103.exe)

 GradGradGradGradGradGradGradGradGradGradGradGradGradGradGradGradGradGrad
 Berny optimization.
 Initialization pass.
                           ----------------------------
                           !    Initial Parameters    !
                           ! (Angstroms and Degrees)  !
 --------------------------                            --------------------------
 ! Name  Definition              Value          Derivative Info.                !
 --------------------------------------------------------------------------------
 ! R1    R(1,2)                  1.3083         estimate D2E/DX2                !
 ! R2    R(1,3)                  1.0706         estimate D2E/DX2                !
 ! R3    R(1,6)                  1.3915         estimate D2E/DX2                !
 ! R4    R(2,4)                  1.0703         estimate D2E/DX2                !
 ! R5    R(2,5)                  1.0675         estimate D2E/DX2                !
 ! R6    R(6,7)                  1.4632         estimate D2E/DX2                !
 ! R7    R(7,8)                  0.9714         estimate D2E/DX2                !
 ! A1    A(2,1,3)              124.4119         estimate D2E/DX2                !
 ! A2    A(2,1,6)              127.542          estimate D2E/DX2                !
 ! A3    A(3,1,6)              108.0456         estimate D2E/DX2                !
 ! A4    A(1,2,4)              119.5943         estimate D2E/DX2                !
 ! A5    A(1,2,5)              121.903          estimate D2E/DX2                !
 ! A6    A(4,2,5)              118.5027         estimate D2E/DX2                !
 ! A7    A(1,6,7)              109.1128         estimate D2E/DX2                !
 ! A8    A(6,7,8)               98.8376         estimate D2E/DX2                !
 ! D1    D(3,1,2,4)             -0.141          estimate D2E/DX2                !
 ! D2    D(3,1,2,5)            179.8321         estimate D2E/DX2                !
 ! D3    D(6,1,2,4)           -179.8735         estimate D2E/DX2                !
 ! D4    D(6,1,2,5)              0.0996         estimate D2E/DX2                !
 ! D5    D(2,1,6,7)             -0.0005         Frozen                          !
 ! D6    D(3,1,6,7)           -179.7684         estimate D2E/DX2                !
 ! D7    D(1,6,7,8)            180.0            Frozen                          !
 --------------------------------------------------------------------------------
 Trust Radius=3.00D-01 FncErr=1.00D-07 GrdErr=1.00D-07
 Number of steps in this run=     32 maximum allowed number of steps=    100.
 GradGradGradGradGradGradGradGradGradGradGradGradGradGradGradGradGradGrad

 Leave Link  103 at Fri Apr 12 17:59:09 2019, MaxMem=   134217728 cpu:         0.0
 (Enter /cm/shared/c3ddb/gaussian/09.d01/g09/l202.exe)
                          Input orientation:                          
 ---------------------------------------------------------------------
 Center     Atomic      Atomic             Coordinates (Angstroms)
 Number     Number       Type             X           Y           Z
 ---------------------------------------------------------------------
      1          6           0        0.732063    0.572961    0.029046
      2          6           0        1.420455   -0.536356   -0.055753
      3          1           0        1.164791    1.549547    0.101089
      4          1           0        2.489969   -0.495892   -0.057706
      5          1           0        0.946655   -1.490562   -0.123354
      6          8           0       -0.652318    0.712427    0.048133
      7          8           0       -1.268523   -0.611498   -0.043748
      8          1           0       -2.201970   -0.343745   -0.018297
 ---------------------------------------------------------------------
                    Distance matrix (angstroms):
                    1          2          3          4          5
     1  C    0.000000
     2  C    1.308304   0.000000
     3  H    1.070590   2.107357   0.000000
     4  H    2.059176   1.070281   2.442362   0.000000
     5  H    2.080241   1.067504   3.056177   1.837252   0.000000
     6  O    1.391519   2.422115   2.001364   3.368264   2.727505
     7  O    2.326067   2.690054   3.257623   3.760295   2.384555
     8  H    3.074271   3.627735   3.864439   4.694571   3.352621
                    6          7          8
     6  O    0.000000
     7  O    1.463191   0.000000
     8  H    1.876522   0.971423   0.000000
 Symmetry turned off by external request.
 Stoichiometry    C2H4O2
 Framework group  C1[X(C2H4O2)]
 Deg. of freedom    18
 Full point group                 C1      NOp   1
 Rotational constants (GHZ):     18.9874444      6.6056477      4.9007138
 Leave Link  202 at Fri Apr 12 17:59:09 2019, MaxMem=   134217728 cpu:         0.0
 (Enter /cm/shared/c3ddb/gaussian/09.d01/g09/l301.exe)
 Standard basis: 3-21G (6D, 7F)
 Ernie: Thresh=  0.10000D-02 Tol=  0.10000D-05 Strict=F.
    44 basis functions,    72 primitive gaussians,    44 cartesian basis functions
    16 alpha electrons       16 beta electrons
       nuclear repulsion energy       119.0240431210 Hartrees.
 IExCor=    0 DFT=F Ex=HF Corr=None ExCW=0 ScaHFX=  1.000000
 ScaDFX=  1.000000  1.000000  1.000000  1.000000 ScalE2=  1.000000  1.000000
 IRadAn=      0 IRanWt=     -1 IRanGd=            0 ICorTp=0 IEmpDi=  4
 NAtoms=    8 NActive=    8 NUniq=    8 SFac= 1.00D+00 NAtFMM=   60 NAOKFM=F Big=F
 Integral buffers will be    131072 words long.
 Raffenetti 1 integral format.
 Two-electron integral symmetry is turned off.
 Leave Link  301 at Fri Apr 12 17:59:10 2019, MaxMem=   134217728 cpu:         0.2
 (Enter /cm/shared/c3ddb/gaussian/09.d01/g09/l302.exe)
 NPDir=0 NMtPBC=     1 NCelOv=     1 NCel=       1 NClECP=     1 NCelD=      1
         NCelK=      1 NCelE2=     1 NClLst=     1 CellRange=     0.0.
 One-electron integrals computed using PRISM.
 NBasis=    44 RedAO= T EigKep=  1.16D-02  NBF=    44
 NBsUse=    44 1.00D-06 EigRej= -1.00D+00 NBFU=    44
 Leave Link  302 at Fri Apr 12 17:59:10 2019, MaxMem=   134217728 cpu:         0.2
 (Enter /cm/shared/c3ddb/gaussian/09.d01/g09/l303.exe)
 DipDrv:  MaxL=1.
 Leave Link  303 at Fri Apr 12 17:59:10 2019, MaxMem=   134217728 cpu:         0.1
 (Enter /cm/shared/c3ddb/gaussian/09.d01/g09/l401.exe)
 Initial guess from the checkpoint file:  "TMP_CALCS/scangeom_S02_000_180.chk"
 B after Tr=    -0.000525   -0.000267    0.009881
         Rot=    0.999990    0.001768   -0.004073   -0.000153 Ang=   0.51 deg.
 Guess basis will be translated and rotated to current coordinates.
 JPrj=2 DoOrth=T DoCkMO=T.
 Leave Link  401 at Fri Apr 12 17:59:10 2019, MaxMem=   134217728 cpu:         0.3
 (Enter /cm/shared/c3ddb/gaussian/09.d01/g09/l502.exe)
 Closed shell SCF:
 Using DIIS extrapolation, IDIIS=  1040.
 Two-electron integral symmetry not used.
 Keep R1 ints in memory in canonical form, NReq=1327419.
 IVT=       24902 IEndB=       24902 NGot=   134217728 MDV=   133702282
 LenX=   133702282 LenY=   133699905
 Requested convergence on RMS density matrix=1.00D-08 within 128 cycles.
 Requested convergence on MAX density matrix=1.00D-06.
 Requested convergence on             energy=1.00D-06.
 No special actions if energy rises.
 FoFCou: FMM=F IPFlag=           0 FMFlag=           0 FMFlg1=           0
         NFxFlg=           0 DoJE=F BraDBF=F KetDBF=F FulRan=T
         wScrn=  0.000000 ICntrl=     600 IOpCl=  0 I1Cent=           0 NGrid=           0
         NMat0=    1 NMatS0=    990 NMatT0=    0 NMatD0=    1 NMtDS0=    0 NMtDT0=    0
 Symmetry not used in FoFCou.

 Cycle   1  Pass 1  IDiag  1:
 E= -226.394889971500    
 DIIS: error= 7.87D-03 at cycle   1 NSaved=   1.
 NSaved= 1 IEnMin= 1 EnMin= -226.394889971500     IErMin= 1 ErrMin= 7.87D-03
 ErrMax= 7.87D-03  0.00D+00 EMaxC= 1.00D-01 BMatC= 1.88D-03 BMatP= 1.88D-03
 IDIUse=3 WtCom= 9.21D-01 WtEn= 7.87D-02
 Coeff-Com:  0.100D+01
 Coeff-En:   0.100D+01
 Coeff:      0.100D+01
 Gap=     0.558 Goal=   None    Shift=    0.000
 GapD=    0.558 DampG=2.000 DampE=1.000 DampFc=2.0000 IDamp=-1.
 RMSDP=1.10D-03 MaxDP=1.76D-02              OVMax= 1.60D-02

 Cycle   2  Pass 1  IDiag  1:
 E= -226.397821307343     Delta-E=       -0.002931335843 Rises=F Damp=F
 DIIS: error= 3.38D-03 at cycle   2 NSaved=   2.
 NSaved= 2 IEnMin= 2 EnMin= -226.397821307343     IErMin= 2 ErrMin= 3.38D-03
 ErrMax= 3.38D-03  0.00D+00 EMaxC= 1.00D-01 BMatC= 1.84D-04 BMatP= 1.88D-03
 IDIUse=3 WtCom= 9.66D-01 WtEn= 3.38D-02
 Coeff-Com: -0.338D+00 0.134D+01
 Coeff-En:   0.000D+00 0.100D+01
 Coeff:     -0.327D+00 0.133D+01
 Gap=     0.558 Goal=   None    Shift=    0.000
 RMSDP=5.84D-04 MaxDP=6.75D-03 DE=-2.93D-03 OVMax= 1.14D-02

 Cycle   3  Pass 1  IDiag  1:
 E= -226.398311141346     Delta-E=       -0.000489834003 Rises=F Damp=F
 DIIS: error= 1.04D-03 at cycle   3 NSaved=   3.
 NSaved= 3 IEnMin= 3 EnMin= -226.398311141346     IErMin= 3 ErrMin= 1.04D-03
 ErrMax= 1.04D-03  0.00D+00 EMaxC= 1.00D-01 BMatC= 1.61D-05 BMatP= 1.84D-04
 IDIUse=3 WtCom= 9.90D-01 WtEn= 1.04D-02
 Coeff-Com:  0.736D-01-0.439D+00 0.137D+01
 Coeff-En:   0.000D+00 0.000D+00 0.100D+01
 Coeff:      0.729D-01-0.434D+00 0.136D+01
 Gap=     0.558 Goal=   None    Shift=    0.000
 RMSDP=2.35D-04 MaxDP=4.00D-03 DE=-4.90D-04 OVMax= 4.85D-03

 Cycle   4  Pass 1  IDiag  1:
 E= -226.398364425987     Delta-E=       -0.000053284641 Rises=F Damp=F
 DIIS: error= 2.75D-04 at cycle   4 NSaved=   4.
 NSaved= 4 IEnMin= 4 EnMin= -226.398364425987     IErMin= 4 ErrMin= 2.75D-04
 ErrMax= 2.75D-04  0.00D+00 EMaxC= 1.00D-01 BMatC= 3.64D-06 BMatP= 1.61D-05
 IDIUse=3 WtCom= 9.97D-01 WtEn= 2.75D-03
 Coeff-Com:  0.817D-01-0.370D+00 0.443D+00 0.845D+00
 Coeff-En:   0.000D+00 0.000D+00 0.000D+00 0.100D+01
 Coeff:      0.815D-01-0.369D+00 0.442D+00 0.846D+00
 Gap=     0.558 Goal=   None    Shift=    0.000
 RMSDP=8.18D-05 MaxDP=1.37D-03 DE=-5.33D-05 OVMax= 1.63D-03

 Cycle   5  Pass 1  IDiag  1:
 E= -226.398370744516     Delta-E=       -0.000006318528 Rises=F Damp=F
 DIIS: error= 7.60D-05 at cycle   5 NSaved=   5.
 NSaved= 5 IEnMin= 5 EnMin= -226.398370744516     IErMin= 5 ErrMin= 7.60D-05
 ErrMax= 7.60D-05  0.00D+00 EMaxC= 1.00D-01 BMatC= 1.86D-07 BMatP= 3.64D-06
 IDIUse=1 WtCom= 1.00D+00 WtEn= 0.00D+00
 Coeff-Com: -0.119D-03 0.117D-01-0.978D-01 0.871D-01 0.999D+00
 Coeff:     -0.119D-03 0.117D-01-0.978D-01 0.871D-01 0.999D+00
 Gap=     0.558 Goal=   None    Shift=    0.000
 RMSDP=1.92D-05 MaxDP=2.74D-04 DE=-6.32D-06 OVMax= 3.99D-04

 Cycle   6  Pass 1  IDiag  1:
 E= -226.398371138214     Delta-E=       -0.000000393698 Rises=F Damp=F
 DIIS: error= 4.69D-05 at cycle   6 NSaved=   6.
 NSaved= 6 IEnMin= 6 EnMin= -226.398371138214     IErMin= 6 ErrMin= 4.69D-05
 ErrMax= 4.69D-05  0.00D+00 EMaxC= 1.00D-01 BMatC= 2.59D-08 BMatP= 1.86D-07
 IDIUse=1 WtCom= 1.00D+00 WtEn= 0.00D+00
 Coeff-Com: -0.604D-02 0.290D-01-0.462D-01-0.504D-01 0.133D+00 0.940D+00
 Coeff:     -0.604D-02 0.290D-01-0.462D-01-0.504D-01 0.133D+00 0.940D+00
 Gap=     0.558 Goal=   None    Shift=    0.000
 RMSDP=6.20D-06 MaxDP=5.15D-05 DE=-3.94D-07 OVMax= 1.50D-04

 Cycle   7  Pass 1  IDiag  1:
 E= -226.398371212950     Delta-E=       -0.000000074736 Rises=F Damp=F
 DIIS: error= 3.01D-05 at cycle   7 NSaved=   7.
 NSaved= 7 IEnMin= 7 EnMin= -226.398371212950     IErMin= 7 ErrMin= 3.01D-05
 ErrMax= 3.01D-05  0.00D+00 EMaxC= 1.00D-01 BMatC= 7.33D-09 BMatP= 2.59D-08
 IDIUse=1 WtCom= 1.00D+00 WtEn= 0.00D+00
 Coeff-Com:  0.370D-02-0.206D-01 0.544D-01 0.450D-02-0.363D+00-0.521D+00
 Coeff-Com:  0.184D+01
 Coeff:      0.370D-02-0.206D-01 0.544D-01 0.450D-02-0.363D+00-0.521D+00
 Coeff:      0.184D+01
 Gap=     0.558 Goal=   None    Shift=    0.000
 RMSDP=8.06D-06 MaxDP=7.48D-05 DE=-7.47D-08 OVMax= 2.04D-04

 Cycle   8  Pass 1  IDiag  1:
 E= -226.398371258415     Delta-E=       -0.000000045465 Rises=F Damp=F
 DIIS: error= 7.26D-06 at cycle   8 NSaved=   8.
 NSaved= 8 IEnMin= 8 EnMin= -226.398371258415     IErMin= 8 ErrMin= 7.26D-06
 ErrMax= 7.26D-06  0.00D+00 EMaxC= 1.00D-01 BMatC= 4.88D-10 BMatP= 7.33D-09
 IDIUse=1 WtCom= 1.00D+00 WtEn= 0.00D+00
 Coeff-Com:  0.117D-03-0.179D-03-0.200D-02 0.423D-02 0.319D-01-0.392D-01
 Coeff-Com: -0.255D+00 0.126D+01
 Coeff:      0.117D-03-0.179D-03-0.200D-02 0.423D-02 0.319D-01-0.392D-01
 Coeff:     -0.255D+00 0.126D+01
 Gap=     0.558 Goal=   None    Shift=    0.000
 RMSDP=2.18D-06 MaxDP=1.86D-05 DE=-4.55D-08 OVMax= 5.19D-05

 Cycle   9  Pass 1  IDiag  1:
 E= -226.398371261330     Delta-E=       -0.000000002915 Rises=F Damp=F
 DIIS: error= 1.55D-06 at cycle   9 NSaved=   9.
 NSaved= 9 IEnMin= 9 EnMin= -226.398371261330     IErMin= 9 ErrMin= 1.55D-06
 ErrMax= 1.55D-06  0.00D+00 EMaxC= 1.00D-01 BMatC= 5.55D-11 BMatP= 4.88D-10
 IDIUse=1 WtCom= 1.00D+00 WtEn= 0.00D+00
 Coeff-Com: -0.420D-03 0.239D-02-0.638D-02-0.290D-03 0.443D-01 0.589D-01
 Coeff-Com: -0.249D+00 0.139D+00 0.101D+01
 Coeff:     -0.420D-03 0.239D-02-0.638D-02-0.290D-03 0.443D-01 0.589D-01
 Coeff:     -0.249D+00 0.139D+00 0.101D+01
 Gap=     0.558 Goal=   None    Shift=    0.000
 RMSDP=5.44D-07 MaxDP=4.31D-06 DE=-2.92D-09 OVMax= 1.12D-05

 Cycle  10  Pass 1  IDiag  1:
 E= -226.398371261534     Delta-E=       -0.000000000203 Rises=F Damp=F
 DIIS: error= 6.48D-07 at cycle  10 NSaved=  10.
 NSaved=10 IEnMin=10 EnMin= -226.398371261534     IErMin=10 ErrMin= 6.48D-07
 ErrMax= 6.48D-07  0.00D+00 EMaxC= 1.00D-01 BMatC= 7.24D-12 BMatP= 5.55D-11
 IDIUse=1 WtCom= 1.00D+00 WtEn= 0.00D+00
 Coeff-Com:  0.734D-04-0.475D-03 0.160D-02-0.648D-03-0.131D-01-0.551D-02
 Coeff-Com:  0.793D-01-0.172D+00-0.174D+00 0.128D+01
 Coeff:      0.734D-04-0.475D-03 0.160D-02-0.648D-03-0.131D-01-0.551D-02
 Coeff:      0.793D-01-0.172D+00-0.174D+00 0.128D+01
 Gap=     0.558 Goal=   None    Shift=    0.000
 RMSDP=1.54D-07 MaxDP=1.38D-06 DE=-2.03D-10 OVMax= 2.75D-06

 Cycle  11  Pass 1  IDiag  1:
 E= -226.398371261559     Delta-E=       -0.000000000025 Rises=F Damp=F
 DIIS: error= 2.62D-07 at cycle  11 NSaved=  11.
 NSaved=11 IEnMin=11 EnMin= -226.398371261559     IErMin=11 ErrMin= 2.62D-07
 ErrMax= 2.62D-07  0.00D+00 EMaxC= 1.00D-01 BMatC= 1.01D-12 BMatP= 7.24D-12
 IDIUse=1 WtCom= 1.00D+00 WtEn= 0.00D+00
 Coeff-Com:  0.693D-04-0.401D-03 0.110D-02 0.118D-05-0.793D-02-0.989D-02
 Coeff-Com:  0.456D-01-0.332D-01-0.173D+00 0.114D+00 0.106D+01
 Coeff:      0.693D-04-0.401D-03 0.110D-02 0.118D-05-0.793D-02-0.989D-02
 Coeff:      0.456D-01-0.332D-01-0.173D+00 0.114D+00 0.106D+01
 Gap=     0.558 Goal=   None    Shift=    0.000
 RMSDP=5.06D-08 MaxDP=4.46D-07 DE=-2.54D-11 OVMax= 1.15D-06

 Cycle  12  Pass 1  IDiag  1:
 E= -226.398371261562     Delta-E=       -0.000000000003 Rises=F Damp=F
 DIIS: error= 8.06D-08 at cycle  12 NSaved=  12.
 NSaved=12 IEnMin=12 EnMin= -226.398371261562     IErMin=12 ErrMin= 8.06D-08
 ErrMax= 8.06D-08  0.00D+00 EMaxC= 1.00D-01 BMatC= 8.51D-14 BMatP= 1.01D-12
 IDIUse=1 WtCom= 1.00D+00 WtEn= 0.00D+00
 Coeff-Com: -0.258D-04 0.153D-03-0.449D-03 0.910D-04 0.334D-02 0.265D-02
 Coeff-Com: -0.195D-01 0.280D-01 0.567D-01-0.178D+00-0.222D+00 0.133D+01
 Coeff:     -0.258D-04 0.153D-03-0.449D-03 0.910D-04 0.334D-02 0.265D-02
 Coeff:     -0.195D-01 0.280D-01 0.567D-01-0.178D+00-0.222D+00 0.133D+01
 Gap=     0.558 Goal=   None    Shift=    0.000
 RMSDP=1.85D-08 MaxDP=1.69D-07 DE=-3.13D-12 OVMax= 4.09D-07

 Cycle  13  Pass 1  IDiag  1:
 E= -226.398371261563     Delta-E=        0.000000000000 Rises=F Damp=F
 DIIS: error= 1.29D-08 at cycle  13 NSaved=  13.
 NSaved=13 IEnMin=13 EnMin= -226.398371261563     IErMin=13 ErrMin= 1.29D-08
 ErrMax= 1.29D-08  0.00D+00 EMaxC= 1.00D-01 BMatC= 3.23D-15 BMatP= 8.51D-14
 IDIUse=1 WtCom= 1.00D+00 WtEn= 0.00D+00
 Coeff-Com:  0.535D-05-0.324D-04 0.993D-04-0.323D-04-0.756D-03-0.426D-03
 Coeff-Com:  0.442D-02-0.815D-02-0.108D-01 0.552D-01 0.209D-01-0.449D+00
 Coeff-Com:  0.139D+01
 Coeff:      0.535D-05-0.324D-04 0.993D-04-0.323D-04-0.756D-03-0.426D-03
 Coeff:      0.442D-02-0.815D-02-0.108D-01 0.552D-01 0.209D-01-0.449D+00
 Coeff:      0.139D+01
 Gap=     0.558 Goal=   None    Shift=    0.000
 RMSDP=3.89D-09 MaxDP=3.12D-08 DE=-2.84D-13 OVMax= 6.65D-08

 SCF Done:  E(RHF) =  -226.398371262     A.U. after   13 cycles
            NFock= 13  Conv=0.39D-08     -V/T= 2.0035
 KE= 2.256110178697D+02 PE=-7.714450534977D+02 EE= 2.004116212454D+02
 Leave Link  502 at Fri Apr 12 17:59:11 2019, MaxMem=   134217728 cpu:         0.3
 (Enter /cm/shared/c3ddb/gaussian/09.d01/g09/l601.exe)
 Copying SCF densities to generalized density rwf, IOpCl= 0 IROHF=0.

 **********************************************************************

            Population analysis using the SCF density.

 **********************************************************************

 Alpha  occ. eigenvalues --  -20.53870 -20.52670 -11.24163 -11.15552  -1.47855
 Alpha  occ. eigenvalues --   -1.24109  -1.02624  -0.79050  -0.71983  -0.64873
 Alpha  occ. eigenvalues --   -0.63942  -0.61914  -0.53560  -0.50667  -0.48369
 Alpha  occ. eigenvalues --   -0.35340
 Alpha virt. eigenvalues --    0.20493   0.22790   0.28547   0.30617   0.34412
 Alpha virt. eigenvalues --    0.37461   0.50257   0.59339   0.89470   0.97597
 Alpha virt. eigenvalues --    1.00782   1.07733   1.10775   1.12778   1.24275
 Alpha virt. eigenvalues --    1.33816   1.37350   1.57548   1.61011   1.70313
 Alpha virt. eigenvalues --    1.85404   1.89969   1.94352   2.01616   2.08377
 Alpha virt. eigenvalues --    2.36938   3.06741   3.55677
          Condensed to atoms (all electrons):
               1          2          3          4          5          6
     1  C    4.879951   0.487056   0.391258  -0.044895  -0.052888   0.219736
     2  C    0.487056   5.341873  -0.045181   0.381486   0.393308  -0.050375
     3  H    0.391258  -0.045181   0.426425  -0.000487   0.001627  -0.032572
     4  H   -0.044895   0.381486  -0.000487   0.460414  -0.015716   0.001308
     5  H   -0.052888   0.393308   0.001627  -0.015716   0.414220  -0.004986
     6  O    0.219736  -0.050375  -0.032572   0.001308  -0.004986   8.193686
     7  O   -0.042679   0.000671   0.001424   0.000160   0.008961   0.119251
     8  H    0.002588  -0.000057  -0.000129  -0.000008  -0.000241  -0.022836
               7          8
     1  C   -0.042679   0.002588
     2  C    0.000671  -0.000057
     3  H    0.001424  -0.000129
     4  H    0.000160  -0.000008
     5  H    0.008961  -0.000241
     6  O    0.119251  -0.022836
     7  O    8.050374   0.246184
     8  H    0.246184   0.349123
 Mulliken charges:
               1
     1  C    0.159874
     2  C   -0.508780
     3  H    0.257635
     4  H    0.217738
     5  H    0.255714
     6  O   -0.423212
     7  O   -0.384345
     8  H    0.425376
 Sum of Mulliken charges =   0.00000
 Mulliken charges with hydrogens summed into heavy atoms:
               1
     1  C    0.417509
     2  C   -0.035328
     6  O   -0.423212
     7  O    0.041031
 Electronic spatial extent (au):  <R**2>=            264.9087
 Charge=              0.0000 electrons
 Dipole moment (field-independent basis, Debye):
    X=             -0.4568    Y=              0.3566    Z=              0.0321  Tot=              0.5804
 Quadrupole moment (field-independent basis, Debye-Ang):
   XX=            -15.9037   YY=            -22.9119   ZZ=            -25.8367
   XY=              1.6739   XZ=              0.0690   YZ=              0.2072
 Traceless Quadrupole moment (field-independent basis, Debye-Ang):
   XX=              5.6471   YY=             -1.3612   ZZ=             -4.2859
   XY=              1.6739   XZ=              0.0690   YZ=              0.2072
 Octapole moment (field-independent basis, Debye-Ang**2):
  XXX=            -24.9157  YYY=              0.4013  ZZZ=              0.7681  XYY=              0.4629
  XXY=             -1.8831  XXZ=              0.0929  XZZ=             -5.5060  YZZ=              0.3265
  YYZ=              0.1584  XYZ=              0.4445
 Hexadecapole moment (field-independent basis, Debye-Ang**3):
 XXXX=           -150.5469 YYYY=            -77.6896 ZZZZ=            -22.4811 XXXY=              7.3568
 XXXZ=              0.8954 YYYX=              5.0968 YYYZ=             -1.5514 ZZZX=              1.0057
 ZZZY=             -2.5356 XXYY=            -47.8819 XXZZ=            -42.8930 YYZZ=            -18.8689
 XXYZ=             -0.3818 YYXZ=              0.4267 ZZXY=              0.9281
 N-N= 1.190240431210D+02 E-N=-7.714450536165D+02  KE= 2.256110178697D+02
 No NMR shielding tensors so no spin-rotation constants.
 Leave Link  601 at Fri Apr 12 17:59:11 2019, MaxMem=   134217728 cpu:         0.2
 (Enter /cm/shared/c3ddb/gaussian/09.d01/g09/l701.exe)
 Compute integral first derivatives.
 ... and contract with generalized density number  0.
 Leave Link  701 at Fri Apr 12 17:59:12 2019, MaxMem=   134217728 cpu:         0.2
 (Enter /cm/shared/c3ddb/gaussian/09.d01/g09/l702.exe)
 L702 exits ... SP integral derivatives will be done elsewhere.
 Leave Link  702 at Fri Apr 12 17:59:12 2019, MaxMem=   134217728 cpu:         0.1
 (Enter /cm/shared/c3ddb/gaussian/09.d01/g09/l703.exe)
 Compute integral first derivatives, UseDBF=F ICtDFT=           0.
 Integral derivatives from FoFJK, PRISM(SPDF).
 Calling FoFJK, ICntrl=      2127 FMM=F ISym2X=0 I1Cent= 0 IOpClX= 0 NMat=1 NMatS=1 NMatT=0.
 FoFJK:  IHMeth= 1 ICntrl=    2127 DoSepK=F KAlg= 0 I1Cent=   0 FoldK=F
 IRaf=         0 NMat=   1 IRICut=       1 DoRegI=T DoRafI=F ISym2E= 0.
 FoFCou: FMM=F IPFlag=           0 FMFlag=      100000 FMFlg1=         800
         NFxFlg=           0 DoJE=F BraDBF=F KetDBF=F FulRan=T
         wScrn=  0.000000 ICntrl=    2127 IOpCl=  0 I1Cent=           0 NGrid=           0
         NMat0=    1 NMatS0=      1 NMatT0=    0 NMatD0=    1 NMtDS0=    0 NMtDT0=    0
 Symmetry not used in FoFCou.
 Leave Link  703 at Fri Apr 12 17:59:12 2019, MaxMem=   134217728 cpu:         0.2
 (Enter /cm/shared/c3ddb/gaussian/09.d01/g09/l716.exe)
 Dipole        =-1.79727886D-01 1.40294293D-01 1.26172594D-02
 -------------------------------------------------------------------
 Center     Atomic                   Forces (Hartrees/Bohr)
 Number     Number              X              Y              Z
 -------------------------------------------------------------------
      1        6          -0.000148100   -0.000052146    0.000426425
      2        6          -0.000041272    0.000010049   -0.000072088
      3        1          -0.000013048    0.000011909   -0.000176289
      4        1          -0.000000968   -0.000003062   -0.000032664
      5        1          -0.000001753   -0.000024314   -0.000024582
      6        8           0.000071579    0.000166876   -0.000090280
      7        8           0.000086822   -0.000202672   -0.000032335
      8        1           0.000046739    0.000093361    0.000001813
 -------------------------------------------------------------------
 Cartesian Forces:  Max     0.000426425 RMS     0.000120562
 Leave Link  716 at Fri Apr 12 17:59:12 2019, MaxMem=   134217728 cpu:         0.1
 (Enter /cm/shared/c3ddb/gaussian/09.d01/g09/l103.exe)

 GradGradGradGradGradGradGradGradGradGradGradGradGradGradGradGradGradGrad
 Berny optimization.
 FormGI is forming the generalized inverse of G from B-inverse, IUseBI=4.
 Internal  Forces:  Max     0.000276585 RMS     0.000100833
 Search for a local minimum.
 Step number   1 out of a maximum of   32
 All quantities printed in internal units (Hartrees-Bohrs-Radians)
 RMS Force = .10436D-03 SwitMx=.10000D-02 MixMth= 2
 Mixed Optimization -- En-DIIS/RFO-DIIS
 Second derivative matrix not updated -- first step.
 ITU=  0
     Eigenvalues ---    0.02658   0.03302   0.03302   0.16000   0.16000
     Eigenvalues ---    0.16000   0.16000   0.22000   0.25000   0.36568
     Eigenvalues ---    0.37156   0.37195   0.37547   0.47055   0.53087
     Eigenvalues ---    0.649391000.000001000.000001000.000001000.00000
     Eigenvalues --- 1000.000001000.00000
 RFO step:  Lambda=-2.71052245D-06 EMin= 2.65845852D-02
 Linear search not attempted -- first point.
 Iteration  1 RMS(Cart)=  0.00206820 RMS(Int)=  0.00000417
 Iteration  2 RMS(Cart)=  0.00000464 RMS(Int)=  0.00000181
 Iteration  3 RMS(Cart)=  0.00000000 RMS(Int)=  0.00000181
 Iteration  1 RMS(Cart)=  0.00000004 RMS(Int)=  0.00000003
 ITry= 1 IFail=0 DXMaxC= 4.38D-03 DCOld= 1.00D+10 DXMaxT= 3.00D-01 DXLimC= 3.00D+00 Rises=F
 Variable       Old X    -DE/DX   Delta X   Delta X   Delta X     New X
                                 (Linear)    (Quad)   (Total)
    R1        2.47234   0.00000   0.00000   0.00000   0.00000   2.47234
    R2        2.02312  -0.00001   0.00000  -0.00002  -0.00002   2.02311
    R3        2.62959  -0.00020   0.00000  -0.00042  -0.00042   2.62917
    R4        2.02254   0.00000   0.00000   0.00000   0.00000   2.02254
    R5        2.01729   0.00002   0.00000   0.00006   0.00006   2.01735
    R6        2.76503   0.00004   0.00000   0.00012   0.00012   2.76515
    R7        1.83572  -0.00002   0.00000  -0.00004  -0.00004   1.83569
    A1        2.17140   0.00005   0.00000   0.00024   0.00023   2.17163
    A2        2.22603  -0.00007   0.00000  -0.00031  -0.00032   2.22571
    A3        1.88575   0.00002   0.00000   0.00010   0.00009   1.88585
    A4        2.08731   0.00000   0.00000   0.00000   0.00000   2.08732
    A5        2.12761   0.00001   0.00000   0.00006   0.00006   2.12767
    A6        2.06826  -0.00001   0.00000  -0.00007  -0.00007   2.06820
    A7        1.90438  -0.00028   0.00000  -0.00111  -0.00111   1.90327
    A8        1.72504  -0.00019   0.00000  -0.00118  -0.00118   1.72386
    D1       -0.00246   0.00007   0.00000   0.00240   0.00240  -0.00006
    D2        3.13866   0.00012   0.00000   0.00385   0.00385  -3.14067
    D3       -3.13938  -0.00013   0.00000  -0.00412  -0.00412   3.13968
    D4        0.00174  -0.00008   0.00000  -0.00267  -0.00267  -0.00093
    D5       -0.00001   0.00006   0.00000   0.00000   0.00000  -0.00001
    D6       -3.13755  -0.00012   0.00000  -0.00566  -0.00566   3.13998
    D7        3.14159   0.00001   0.00000   0.00000   0.00000   3.14159
         Item               Value     Threshold  Converged?
 Maximum Force            0.000277     0.000015     NO 
 RMS     Force            0.000104     0.000010     NO 
 Maximum Displacement     0.004376     0.000060     NO 
 RMS     Displacement     0.002070     0.000040     NO 
 Predicted change in Energy=-1.355115D-06
 Lowest energy point so far.  Saving SCF results.
 GradGradGradGradGradGradGradGradGradGradGradGradGradGradGradGradGradGrad

 Leave Link  103 at Fri Apr 12 17:59:12 2019, MaxMem=   134217728 cpu:         0.0
 (Enter /cm/shared/c3ddb/gaussian/09.d01/g09/l202.exe)
                          Input orientation:                          
 ---------------------------------------------------------------------
 Center     Atomic      Atomic             Coordinates (Angstroms)
 Number     Number       Type             X           Y           Z
 ---------------------------------------------------------------------
      1          6           0        0.731817    0.573076    0.031362
      2          6           0        1.419784   -0.536391   -0.054908
      3          1           0        1.164664    1.549870    0.099632
      4          1           0        2.489294   -0.496106   -0.059930
      5          1           0        0.945673   -1.490513   -0.122051
      6          8           0       -0.652337    0.712644    0.049764
      7          8           0       -1.267189   -0.611787   -0.044877
      8          1           0       -2.200585   -0.343911   -0.019582
 ---------------------------------------------------------------------
                    Distance matrix (angstroms):
                    1          2          3          4          5
     1  C    0.000000
     2  C    1.308304   0.000000
     3  H    1.070582   2.107476   0.000000
     4  H    2.059177   1.070280   2.442565   0.000000
     5  H    2.080305   1.067538   3.056310   1.837245   0.000000
     6  O    1.391294   2.421721   2.001231   3.367930   2.727097
     7  O    2.325024   2.688049   3.256924   3.758293   2.382199
     8  H    3.072856   3.625654   3.863356   4.692521   3.350244
                    6          7          8
     6  O    0.000000
     7  O    1.463256   0.000000
     8  H    1.875684   0.971404   0.000000
 Symmetry turned off by external request.
 Stoichiometry    C2H4O2
 Framework group  C1[X(C2H4O2)]
 Deg. of freedom    18
 Full point group                 C1      NOp   1
 Rotational constants (GHZ):     18.9737300      6.6136328      4.9041903
 Leave Link  202 at Fri Apr 12 17:59:12 2019, MaxMem=   134217728 cpu:         0.0
 (Enter /cm/shared/c3ddb/gaussian/09.d01/g09/l301.exe)
 Standard basis: 3-21G (6D, 7F)
 Ernie: Thresh=  0.10000D-02 Tol=  0.10000D-05 Strict=F.
    44 basis functions,    72 primitive gaussians,    44 cartesian basis functions
    16 alpha electrons       16 beta electrons
       nuclear repulsion energy       119.0448030878 Hartrees.
 IExCor=    0 DFT=F Ex=HF Corr=None ExCW=0 ScaHFX=  1.000000
 ScaDFX=  1.000000  1.000000  1.000000  1.000000 ScalE2=  1.000000  1.000000
 IRadAn=      0 IRanWt=     -1 IRanGd=            0 ICorTp=0 IEmpDi=  4
 NAtoms=    8 NActive=    8 NUniq=    8 SFac= 1.00D+00 NAtFMM=   60 NAOKFM=F Big=F
 Integral buffers will be    131072 words long.
 Raffenetti 1 integral format.
 Two-electron integral symmetry is turned off.
 Leave Link  301 at Fri Apr 12 17:59:13 2019, MaxMem=   134217728 cpu:         0.4
 (Enter /cm/shared/c3ddb/gaussian/09.d01/g09/l302.exe)
 NPDir=0 NMtPBC=     1 NCelOv=     1 NCel=       1 NClECP=     1 NCelD=      1
         NCelK=      1 NCelE2=     1 NClLst=     1 CellRange=     0.0.
 One-electron integrals computed using PRISM.
 NBasis=    44 RedAO= T EigKep=  1.16D-02  NBF=    44
 NBsUse=    44 1.00D-06 EigRej= -1.00D+00 NBFU=    44
 Leave Link  302 at Fri Apr 12 17:59:13 2019, MaxMem=   134217728 cpu:         0.3
 (Enter /cm/shared/c3ddb/gaussian/09.d01/g09/l303.exe)
 DipDrv:  MaxL=1.
 Leave Link  303 at Fri Apr 12 17:59:13 2019, MaxMem=   134217728 cpu:         0.1
 (Enter /cm/shared/c3ddb/gaussian/09.d01/g09/l401.exe)
 Initial guess from the checkpoint file:  "TMP_CALCS/scangeom_S02_000_180.chk"
 B after Tr=     0.000270   -0.000020    0.001126
         Rot=    1.000000   -0.000532    0.000187   -0.000048 Ang=  -0.06 deg.
 Guess basis will be translated and rotated to current coordinates.
 JPrj=2 DoOrth=T DoCkMO=T.
 Leave Link  401 at Fri Apr 12 17:59:14 2019, MaxMem=   134217728 cpu:         0.5
 (Enter /cm/shared/c3ddb/gaussian/09.d01/g09/l502.exe)
 Closed shell SCF:
 Using DIIS extrapolation, IDIIS=  1040.
 Two-electron integral symmetry not used.
 Keep R1 ints in memory in canonical form, NReq=1327419.
 IVT=       24902 IEndB=       24902 NGot=   134217728 MDV=   133702282
 LenX=   133702282 LenY=   133699905
 Requested convergence on RMS density matrix=1.00D-08 within 128 cycles.
 Requested convergence on MAX density matrix=1.00D-06.
 Requested convergence on             energy=1.00D-06.
 No special actions if energy rises.
 FoFCou: FMM=F IPFlag=           0 FMFlag=           0 FMFlg1=           0
         NFxFlg=           0 DoJE=F BraDBF=F KetDBF=F FulRan=T
         wScrn=  0.000000 ICntrl=     600 IOpCl=  0 I1Cent=           0 NGrid=           0
         NMat0=    1 NMatS0=    990 NMatT0=    0 NMatD0=    1 NMtDS0=    0 NMtDT0=    0
 Symmetry not used in FoFCou.

 Cycle   1  Pass 1  IDiag  1:
 E= -226.398367928189    
 DIIS: error= 1.95D-04 at cycle   1 NSaved=   1.
 NSaved= 1 IEnMin= 1 EnMin= -226.398367928189     IErMin= 1 ErrMin= 1.95D-04
 ErrMax= 1.95D-04  0.00D+00 EMaxC= 1.00D-01 BMatC= 1.83D-06 BMatP= 1.83D-06
 IDIUse=3 WtCom= 9.98D-01 WtEn= 1.95D-03
 Coeff-Com:  0.100D+01
 Coeff-En:   0.100D+01
 Coeff:      0.100D+01
 Gap=     0.974 Goal=   None    Shift=    0.000
 RMSDP=3.33D-05 MaxDP=2.86D-04              OVMax= 6.11D-04

 Cycle   2  Pass 1  IDiag  1:
 E= -226.398371214371     Delta-E=       -0.000003286182 Rises=F Damp=F
 DIIS: error= 8.20D-05 at cycle   2 NSaved=   2.
 NSaved= 2 IEnMin= 2 EnMin= -226.398371214371     IErMin= 2 ErrMin= 8.20D-05
 ErrMax= 8.20D-05  0.00D+00 EMaxC= 1.00D-01 BMatC= 1.71D-07 BMatP= 1.83D-06
 IDIUse=1 WtCom= 1.00D+00 WtEn= 0.00D+00
 Coeff-Com: -0.265D+00 0.127D+01
 Coeff:     -0.265D+00 0.127D+01
 Gap=     0.558 Goal=   None    Shift=    0.000
 RMSDP=1.81D-05 MaxDP=1.42D-04 DE=-3.29D-06 OVMax= 3.71D-04

 Cycle   3  Pass 1  IDiag  1:
 E= -226.398371777386     Delta-E=       -0.000000563014 Rises=F Damp=F
 DIIS: error= 2.90D-05 at cycle   3 NSaved=   3.
 NSaved= 3 IEnMin= 3 EnMin= -226.398371777386     IErMin= 3 ErrMin= 2.90D-05
 ErrMax= 2.90D-05  0.00D+00 EMaxC= 1.00D-01 BMatC= 1.71D-08 BMatP= 1.71D-07
 IDIUse=1 WtCom= 1.00D+00 WtEn= 0.00D+00
 Coeff-Com:  0.163D-01-0.303D+00 0.129D+01
 Coeff:      0.163D-01-0.303D+00 0.129D+01
 Gap=     0.558 Goal=   None    Shift=    0.000
 RMSDP=7.55D-06 MaxDP=4.83D-05 DE=-5.63D-07 OVMax= 1.43D-04

 Cycle   4  Pass 1  IDiag  1:
 E= -226.398371840525     Delta-E=       -0.000000063139 Rises=F Damp=F
 DIIS: error= 7.66D-06 at cycle   4 NSaved=   4.
 NSaved= 4 IEnMin= 4 EnMin= -226.398371840525     IErMin= 4 ErrMin= 7.66D-06
 ErrMax= 7.66D-06  0.00D+00 EMaxC= 1.00D-01 BMatC= 3.65D-09 BMatP= 1.71D-08
 IDIUse=1 WtCom= 1.00D+00 WtEn= 0.00D+00
 Coeff-Com:  0.322D-01-0.223D+00 0.387D+00 0.804D+00
 Coeff:      0.322D-01-0.223D+00 0.387D+00 0.804D+00
 Gap=     0.558 Goal=   None    Shift=    0.000
 RMSDP=2.11D-06 MaxDP=1.22D-05 DE=-6.31D-08 OVMax= 3.33D-05

 Cycle   5  Pass 1  IDiag  1:
 E= -226.398371847097     Delta-E=       -0.000000006572 Rises=F Damp=F
 DIIS: error= 3.77D-06 at cycle   5 NSaved=   5.
 NSaved= 5 IEnMin= 5 EnMin= -226.398371847097     IErMin= 5 ErrMin= 3.77D-06
 ErrMax= 3.77D-06  0.00D+00 EMaxC= 1.00D-01 BMatC= 3.94D-10 BMatP= 3.65D-09
 IDIUse=1 WtCom= 1.00D+00 WtEn= 0.00D+00
 Coeff-Com: -0.288D-02 0.510D-01-0.216D+00-0.541D-03 0.117D+01
 Coeff:     -0.288D-02 0.510D-01-0.216D+00-0.541D-03 0.117D+01
 Gap=     0.558 Goal=   None    Shift=    0.000
 RMSDP=9.82D-07 MaxDP=6.15D-06 DE=-6.57D-09 OVMax= 1.60D-05

 Cycle   6  Pass 1  IDiag  1:
 E= -226.398371848181     Delta-E=       -0.000000001084 Rises=F Damp=F
 DIIS: error= 1.28D-06 at cycle   6 NSaved=   6.
 NSaved= 6 IEnMin= 6 EnMin= -226.398371848181     IErMin= 6 ErrMin= 1.28D-06
 ErrMax= 1.28D-06  0.00D+00 EMaxC= 1.00D-01 BMatC= 4.60D-11 BMatP= 3.94D-10
 IDIUse=1 WtCom= 1.00D+00 WtEn= 0.00D+00
 Coeff-Com: -0.376D-02 0.326D-01-0.812D-01-0.792D-01 0.224D+00 0.908D+00
 Coeff:     -0.376D-02 0.326D-01-0.812D-01-0.792D-01 0.224D+00 0.908D+00
 Gap=     0.558 Goal=   None    Shift=    0.000
 RMSDP=2.55D-07 MaxDP=1.99D-06 DE=-1.08D-09 OVMax= 4.65D-06

 Cycle   7  Pass 1  IDiag  1:
 E= -226.398371848284     Delta-E=       -0.000000000103 Rises=F Damp=F
 DIIS: error= 5.56D-07 at cycle   7 NSaved=   7.
 NSaved= 7 IEnMin= 7 EnMin= -226.398371848284     IErMin= 7 ErrMin= 5.56D-07
 ErrMax= 5.56D-07  0.00D+00 EMaxC= 1.00D-01 BMatC= 6.01D-12 BMatP= 4.60D-11
 IDIUse=1 WtCom= 1.00D+00 WtEn= 0.00D+00
 Coeff-Com:  0.109D-02-0.133D-01 0.479D-01 0.126D-01-0.221D+00-0.168D+00
 Coeff-Com:  0.134D+01
 Coeff:      0.109D-02-0.133D-01 0.479D-01 0.126D-01-0.221D+00-0.168D+00
 Coeff:      0.134D+01
 Gap=     0.558 Goal=   None    Shift=    0.000
 RMSDP=1.55D-07 MaxDP=1.36D-06 DE=-1.03D-10 OVMax= 3.00D-06

 Cycle   8  Pass 1  IDiag  1:
 E= -226.398371848309     Delta-E=       -0.000000000024 Rises=F Damp=F
 DIIS: error= 2.21D-07 at cycle   8 NSaved=   8.
 NSaved= 8 IEnMin= 8 EnMin= -226.398371848309     IErMin= 8 ErrMin= 2.21D-07
 ErrMax= 2.21D-07  0.00D+00 EMaxC= 1.00D-01 BMatC= 6.72D-13 BMatP= 6.01D-12
 IDIUse=1 WtCom= 1.00D+00 WtEn= 0.00D+00
 Coeff-Com:  0.840D-04 0.252D-03-0.399D-02 0.402D-02 0.286D-01-0.392D-01
 Coeff-Com: -0.275D+00 0.129D+01
 Coeff:      0.840D-04 0.252D-03-0.399D-02 0.402D-02 0.286D-01-0.392D-01
 Coeff:     -0.275D+00 0.129D+01
 Gap=     0.558 Goal=   None    Shift=    0.000
 RMSDP=4.70D-08 MaxDP=4.72D-07 DE=-2.43D-11 OVMax= 1.18D-06

 Cycle   9  Pass 1  IDiag  1:
 E= -226.398371848312     Delta-E=       -0.000000000003 Rises=F Damp=F
 DIIS: error= 1.09D-07 at cycle   9 NSaved=   9.
 NSaved= 9 IEnMin= 9 EnMin= -226.398371848312     IErMin= 9 ErrMin= 1.09D-07
 ErrMax= 1.09D-07  0.00D+00 EMaxC= 1.00D-01 BMatC= 1.49D-13 BMatP= 6.72D-13
 IDIUse=1 WtCom= 1.00D+00 WtEn= 0.00D+00
 Coeff-Com: -0.220D-03 0.291D-02-0.109D-01-0.251D-02 0.518D-01 0.334D-01
 Coeff-Com: -0.319D+00 0.134D+00 0.111D+01
 Coeff:     -0.220D-03 0.291D-02-0.109D-01-0.251D-02 0.518D-01 0.334D-01
 Coeff:     -0.319D+00 0.134D+00 0.111D+01
 Gap=     0.558 Goal=   None    Shift=    0.000
 RMSDP=2.41D-08 MaxDP=2.25D-07 DE=-2.96D-12 OVMax= 6.16D-07

 Cycle  10  Pass 1  IDiag  1:
 E= -226.398371848312     Delta-E=        0.000000000000 Rises=F Damp=F
 DIIS: error= 4.72D-08 at cycle  10 NSaved=  10.
 NSaved=10 IEnMin=10 EnMin= -226.398371848312     IErMin=10 ErrMin= 4.72D-08
 ErrMax= 4.72D-08  0.00D+00 EMaxC= 1.00D-01 BMatC= 2.20D-14 BMatP= 1.49D-13
 IDIUse=1 WtCom= 1.00D+00 WtEn= 0.00D+00
 Coeff-Com:  0.601D-04-0.103D-02 0.432D-02 0.179D-03-0.218D-01-0.392D-02
 Coeff-Com:  0.149D+00-0.247D+00-0.371D+00 0.149D+01
 Coeff:      0.601D-04-0.103D-02 0.432D-02 0.179D-03-0.218D-01-0.392D-02
 Coeff:      0.149D+00-0.247D+00-0.371D+00 0.149D+01
 Gap=     0.558 Goal=   None    Shift=    0.000
 RMSDP=1.22D-08 MaxDP=9.90D-08 DE=-3.98D-13 OVMax= 2.82D-07

 Cycle  11  Pass 1  IDiag  1:
 E= -226.398371848313     Delta-E=       -0.000000000001 Rises=F Damp=F
 DIIS: error= 1.55D-08 at cycle  11 NSaved=  11.
 NSaved=11 IEnMin=11 EnMin= -226.398371848313     IErMin=11 ErrMin= 1.55D-08
 ErrMax= 1.55D-08  0.00D+00 EMaxC= 1.00D-01 BMatC= 2.91D-15 BMatP= 2.20D-14
 IDIUse=1 WtCom= 1.00D+00 WtEn= 0.00D+00
 Coeff-Com:  0.323D-04-0.435D-03 0.164D-02 0.388D-03-0.779D-02-0.513D-02
 Coeff-Com:  0.484D-01-0.207D-01-0.175D+00 0.148D-01 0.114D+01
 Coeff:      0.323D-04-0.435D-03 0.164D-02 0.388D-03-0.779D-02-0.513D-02
 Coeff:      0.484D-01-0.207D-01-0.175D+00 0.148D-01 0.114D+01
 Gap=     0.558 Goal=   None    Shift=    0.000
 RMSDP=4.13D-09 MaxDP=3.69D-08 DE=-5.12D-13 OVMax= 8.25D-08

 SCF Done:  E(RHF) =  -226.398371848     A.U. after   11 cycles
            NFock= 11  Conv=0.41D-08     -V/T= 2.0035
 KE= 2.256120667113D+02 PE=-7.714867322773D+02 EE= 2.004314906299D+02
 Leave Link  502 at Fri Apr 12 17:59:15 2019, MaxMem=   134217728 cpu:         0.5
 (Enter /cm/shared/c3ddb/gaussian/09.d01/g09/l701.exe)
 Compute integral first derivatives.
 ... and contract with generalized density number  0.
 Leave Link  701 at Fri Apr 12 17:59:15 2019, MaxMem=   134217728 cpu:         0.3
 (Enter /cm/shared/c3ddb/gaussian/09.d01/g09/l702.exe)
 L702 exits ... SP integral derivatives will be done elsewhere.
 Leave Link  702 at Fri Apr 12 17:59:15 2019, MaxMem=   134217728 cpu:         0.1
 (Enter /cm/shared/c3ddb/gaussian/09.d01/g09/l703.exe)
 Compute integral first derivatives, UseDBF=F ICtDFT=           0.
 Integral derivatives from FoFJK, PRISM(SPDF).
 Calling FoFJK, ICntrl=      2127 FMM=F ISym2X=0 I1Cent= 0 IOpClX= 0 NMat=1 NMatS=1 NMatT=0.
 FoFJK:  IHMeth= 1 ICntrl=    2127 DoSepK=F KAlg= 0 I1Cent=   0 FoldK=F
 IRaf=         0 NMat=   1 IRICut=       1 DoRegI=T DoRafI=F ISym2E= 0.
 FoFCou: FMM=F IPFlag=           0 FMFlag=      100000 FMFlg1=         800
         NFxFlg=           0 DoJE=F BraDBF=F KetDBF=F FulRan=T
         wScrn=  0.000000 ICntrl=    2127 IOpCl=  0 I1Cent=           0 NGrid=           0
         NMat0=    1 NMatS0=      1 NMatT0=    0 NMatD0=    1 NMtDS0=    0 NMtDT0=    0
 Symmetry not used in FoFCou.
 Leave Link  703 at Fri Apr 12 17:59:16 2019, MaxMem=   134217728 cpu:         0.3
 (Enter /cm/shared/c3ddb/gaussian/09.d01/g09/l716.exe)
 Dipole        =-1.80137924D-01 1.40284473D-01 1.07467806D-02
 -------------------------------------------------------------------
 Center     Atomic                   Forces (Hartrees/Bohr)
 Number     Number              X              Y              Z
 -------------------------------------------------------------------
      1        6           0.000028024    0.000087144   -0.000161542
      2        6           0.000026119   -0.000012145   -0.000028927
      3        1           0.000032522   -0.000012467    0.000047976
      4        1           0.000003986   -0.000003748    0.000064220
      5        1           0.000019995    0.000017324    0.000005051
      6        8           0.000087542   -0.000021526    0.000066086
      7        8          -0.000163034    0.000023221    0.000010667
      8        1          -0.000035154   -0.000077803   -0.000003532
 -------------------------------------------------------------------
 Cartesian Forces:  Max     0.000163034 RMS     0.000061767
 Leave Link  716 at Fri Apr 12 17:59:16 2019, MaxMem=   134217728 cpu:         0.1
 (Enter /cm/shared/c3ddb/gaussian/09.d01/g09/l103.exe)

 GradGradGradGradGradGradGradGradGradGradGradGradGradGradGradGradGradGrad
 Berny optimization.
 Using GEDIIS/GDIIS optimizer.
 FormGI is forming the generalized inverse of G from B-inverse, IUseBI=4.
 Internal  Forces:  Max     0.000279613 RMS     0.000084950
 Search for a local minimum.
 Step number   2 out of a maximum of   32
 All quantities printed in internal units (Hartrees-Bohrs-Radians)
 RMS Force = .88788D-04 SwitMx=.10000D-02 MixMth= 2
 Mixed Optimization -- En-DIIS/RFO-DIIS
 Swapping is turned off.
 Update second derivatives using D2CorX and points    1    2
 DE= -5.87D-07 DEPred=-1.36D-06 R= 4.33D-01
 Trust test= 4.33D-01 RLast= 8.93D-03 DXMaxT set to 3.00D-01
 ITU=  0  0
     Eigenvalues ---    0.02766   0.03295   0.03775   0.15961   0.16000
     Eigenvalues ---    0.16000   0.16978   0.22162   0.29762   0.36965
     Eigenvalues ---    0.37166   0.37197   0.37683   0.48199   0.53104
     Eigenvalues ---    0.649581000.000001000.000001000.000001000.00000
     Eigenvalues --- 1000.000001000.00000
 En-DIIS/RFO-DIIS IScMMF=        0 using points:     2    1
 RFO step:  Lambda=-3.02164172D-07.
 NNeg= 0 NP= 2 Switch=  2.50D-03 Rises=F DC=  5.87D-07 SmlDif=  1.00D-05
 RMS Error=  0.1754347627D-03 NUsed= 2 EDIIS=F
 DidBck=T Rises=F RFO-DIIS coefs:    0.63784    0.36216
 Iteration  1 RMS(Cart)=  0.00087449 RMS(Int)=  0.00000072
 Iteration  2 RMS(Cart)=  0.00000050 RMS(Int)=  0.00000055
 Iteration  1 RMS(Cart)=  0.00000001 RMS(Int)=  0.00000001
 ITry= 1 IFail=0 DXMaxC= 1.93D-03 DCOld= 1.00D+10 DXMaxT= 3.00D-01 DXLimC= 3.00D+00 Rises=F
 Variable       Old X    -DE/DX   Delta X   Delta X   Delta X     New X
                                 (Linear)    (Quad)   (Total)
    R1        2.47234   0.00002   0.00000   0.00002   0.00002   2.47236
    R2        2.02311   0.00000   0.00001   0.00000   0.00001   2.02311
    R3        2.62917   0.00010   0.00015  -0.00003   0.00012   2.62929
    R4        2.02254   0.00000   0.00000   0.00000   0.00001   2.02254
    R5        2.01735  -0.00002  -0.00002  -0.00002  -0.00004   2.01732
    R6        2.76515   0.00013  -0.00004   0.00028   0.00024   2.76539
    R7        1.83569   0.00001   0.00001   0.00000   0.00001   1.83570
    A1        2.17163  -0.00007  -0.00008  -0.00014  -0.00022   2.17141
    A2        2.22571   0.00007   0.00012   0.00006   0.00018   2.22589
    A3        1.88585   0.00000  -0.00003   0.00007   0.00004   1.88589
    A4        2.08732  -0.00001   0.00000  -0.00003  -0.00003   2.08729
    A5        2.12767   0.00001  -0.00002   0.00008   0.00006   2.12773
    A6        2.06820  -0.00001   0.00002  -0.00005  -0.00003   2.06817
    A7        1.90327   0.00028   0.00040   0.00026   0.00066   1.90394
    A8        1.72386   0.00016   0.00043   0.00014   0.00057   1.72443
    D1       -0.00006   0.00001  -0.00087   0.00114   0.00028   0.00021
    D2       -3.14067  -0.00005  -0.00139   0.00058  -0.00082  -3.14149
    D3        3.13968   0.00010   0.00149   0.00034   0.00184   3.14151
    D4       -0.00093   0.00004   0.00097  -0.00023   0.00074  -0.00019
    D5       -0.00001  -0.00003   0.00000   0.00000   0.00000  -0.00001
    D6        3.13998   0.00005   0.00205  -0.00070   0.00135   3.14133
    D7        3.14159   0.00000   0.00000   0.00000   0.00000   3.14159
         Item               Value     Threshold  Converged?
 Maximum Force            0.000280     0.000015     NO 
 RMS     Force            0.000089     0.000010     NO 
 Maximum Displacement     0.001930     0.000060     NO 
 RMS     Displacement     0.000874     0.000040     NO 
 Predicted change in Energy=-3.385531D-07
 Lowest energy point so far.  Saving SCF results.
 GradGradGradGradGradGradGradGradGradGradGradGradGradGradGradGradGradGrad

 Leave Link  103 at Fri Apr 12 17:59:16 2019, MaxMem=   134217728 cpu:         0.0
 (Enter /cm/shared/c3ddb/gaussian/09.d01/g09/l202.exe)
                          Input orientation:                          
 ---------------------------------------------------------------------
 Center     Atomic      Atomic             Coordinates (Angstroms)
 Number     Number       Type             X           Y           Z
 ---------------------------------------------------------------------
      1          6           0        0.731939    0.572991    0.030697
      2          6           0        1.420143   -0.536363   -0.055318
      3          1           0        1.164807    1.549718    0.099858
      4          1           0        2.489656   -0.495929   -0.058908
      5          1           0        0.946293   -1.490578   -0.122655
      6          8           0       -0.652280    0.712505    0.049401
      7          8           0       -1.268027   -0.611697   -0.044551
      8          1           0       -2.201410   -0.343764   -0.019113
 ---------------------------------------------------------------------
                    Distance matrix (angstroms):
                    1          2          3          4          5
     1  C    0.000000
     2  C    1.308315   0.000000
     3  H    1.070586   2.107370   0.000000
     4  H    2.059171   1.070283   2.442356   0.000000
     5  H    2.080332   1.067518   3.056249   1.837214   0.000000
     6  O    1.391359   2.421896   2.001319   3.368057   2.727383
     7  O    2.325728   2.689247   3.257491   3.759493   2.383641
     8  H    3.073672   3.626852   3.864045   4.693702   3.351707
                    6          7          8
     6  O    0.000000
     7  O    1.463380   0.000000
     8  H    1.876220   0.971411   0.000000
 Symmetry turned off by external request.
 Stoichiometry    C2H4O2
 Framework group  C1[X(C2H4O2)]
 Deg. of freedom    18
 Full point group                 C1      NOp   1
 Rotational constants (GHZ):     18.9796805      6.6089638      4.9020190
 Leave Link  202 at Fri Apr 12 17:59:16 2019, MaxMem=   134217728 cpu:         0.0
 (Enter /cm/shared/c3ddb/gaussian/09.d01/g09/l301.exe)
 Standard basis: 3-21G (6D, 7F)
 Ernie: Thresh=  0.10000D-02 Tol=  0.10000D-05 Strict=F.
    44 basis functions,    72 primitive gaussians,    44 cartesian basis functions
    16 alpha electrons       16 beta electrons
       nuclear repulsion energy       119.0303781040 Hartrees.
 IExCor=    0 DFT=F Ex=HF Corr=None ExCW=0 ScaHFX=  1.000000
 ScaDFX=  1.000000  1.000000  1.000000  1.000000 ScalE2=  1.000000  1.000000
 IRadAn=      0 IRanWt=     -1 IRanGd=            0 ICorTp=0 IEmpDi=  4
 NAtoms=    8 NActive=    8 NUniq=    8 SFac= 1.00D+00 NAtFMM=   60 NAOKFM=F Big=F
 Integral buffers will be    131072 words long.
 Raffenetti 1 integral format.
 Two-electron integral symmetry is turned off.
 Leave Link  301 at Fri Apr 12 17:59:17 2019, MaxMem=   134217728 cpu:         0.2
 (Enter /cm/shared/c3ddb/gaussian/09.d01/g09/l302.exe)
 NPDir=0 NMtPBC=     1 NCelOv=     1 NCel=       1 NClECP=     1 NCelD=      1
         NCelK=      1 NCelE2=     1 NClLst=     1 CellRange=     0.0.
 One-electron integrals computed using PRISM.
 NBasis=    44 RedAO= T EigKep=  1.16D-02  NBF=    44
 NBsUse=    44 1.00D-06 EigRej= -1.00D+00 NBFU=    44
 Leave Link  302 at Fri Apr 12 17:59:17 2019, MaxMem=   134217728 cpu:         0.3
 (Enter /cm/shared/c3ddb/gaussian/09.d01/g09/l303.exe)
 DipDrv:  MaxL=1.
 Leave Link  303 at Fri Apr 12 17:59:17 2019, MaxMem=   134217728 cpu:         0.1
 (Enter /cm/shared/c3ddb/gaussian/09.d01/g09/l401.exe)
 Initial guess from the checkpoint file:  "TMP_CALCS/scangeom_S02_000_180.chk"
 B after Tr=    -0.000180   -0.000034   -0.000330
         Rot=    1.000000    0.000120   -0.000074    0.000027 Ang=   0.02 deg.
 Guess basis will be translated and rotated to current coordinates.
 JPrj=2 DoOrth=T DoCkMO=T.
 Leave Link  401 at Fri Apr 12 17:59:18 2019, MaxMem=   134217728 cpu:         0.5
 (Enter /cm/shared/c3ddb/gaussian/09.d01/g09/l502.exe)
 Closed shell SCF:
 Using DIIS extrapolation, IDIIS=  1040.
 Two-electron integral symmetry not used.
 Keep R1 ints in memory in canonical form, NReq=1327419.
 IVT=       24902 IEndB=       24902 NGot=   134217728 MDV=   133702282
 LenX=   133702282 LenY=   133699905
 Requested convergence on RMS density matrix=1.00D-08 within 128 cycles.
 Requested convergence on MAX density matrix=1.00D-06.
 Requested convergence on             energy=1.00D-06.
 No special actions if energy rises.
 FoFCou: FMM=F IPFlag=           0 FMFlag=           0 FMFlg1=           0
         NFxFlg=           0 DoJE=F BraDBF=F KetDBF=F FulRan=T
         wScrn=  0.000000 ICntrl=     600 IOpCl=  0 I1Cent=           0 NGrid=           0
         NMat0=    1 NMatS0=    990 NMatT0=    0 NMatD0=    1 NMtDS0=    0 NMtDT0=    0
 Symmetry not used in FoFCou.

 Cycle   1  Pass 1  IDiag  1:
 E= -226.398371669518    
 DIIS: error= 6.45D-05 at cycle   1 NSaved=   1.
 NSaved= 1 IEnMin= 1 EnMin= -226.398371669518     IErMin= 1 ErrMin= 6.45D-05
 ErrMax= 6.45D-05  0.00D+00 EMaxC= 1.00D-01 BMatC= 2.61D-07 BMatP= 2.61D-07
 IDIUse=1 WtCom= 1.00D+00 WtEn= 0.00D+00
 Coeff-Com:  0.100D+01
 Coeff:      0.100D+01
 Gap=     0.974 Goal=   None    Shift=    0.000
 RMSDP=1.24D-05 MaxDP=9.79D-05              OVMax= 2.03D-04

 Cycle   2  Pass 1  IDiag  1:
 E= -226.398372086463     Delta-E=       -0.000000416945 Rises=F Damp=F
 DIIS: error= 2.74D-05 at cycle   2 NSaved=   2.
 NSaved= 2 IEnMin= 2 EnMin= -226.398372086463     IErMin= 2 ErrMin= 2.74D-05
 ErrMax= 2.74D-05  0.00D+00 EMaxC= 1.00D-01 BMatC= 2.16D-08 BMatP= 2.61D-07
 IDIUse=1 WtCom= 1.00D+00 WtEn= 0.00D+00
 Coeff-Com: -0.224D+00 0.122D+01
 Coeff:     -0.224D+00 0.122D+01
 Gap=     0.558 Goal=   None    Shift=    0.000
 RMSDP=6.02D-06 MaxDP=4.03D-05 DE=-4.17D-07 OVMax= 1.19D-04

 Cycle   3  Pass 1  IDiag  1:
 E= -226.398372153025     Delta-E=       -0.000000066562 Rises=F Damp=F
 DIIS: error= 9.15D-06 at cycle   3 NSaved=   3.
 NSaved= 3 IEnMin= 3 EnMin= -226.398372153025     IErMin= 3 ErrMin= 9.15D-06
 ErrMax= 9.15D-06  0.00D+00 EMaxC= 1.00D-01 BMatC= 2.33D-09 BMatP= 2.16D-08
 IDIUse=1 WtCom= 1.00D+00 WtEn= 0.00D+00
 Coeff-Com: -0.596D-02-0.216D+00 0.122D+01
 Coeff:     -0.596D-02-0.216D+00 0.122D+01
 Gap=     0.558 Goal=   None    Shift=    0.000
 RMSDP=2.49D-06 MaxDP=1.60D-05 DE=-6.66D-08 OVMax= 4.76D-05

 Cycle   4  Pass 1  IDiag  1:
 E= -226.398372160963     Delta-E=       -0.000000007938 Rises=F Damp=F
 DIIS: error= 2.70D-06 at cycle   4 NSaved=   4.
 NSaved= 4 IEnMin= 4 EnMin= -226.398372160963     IErMin= 4 ErrMin= 2.70D-06
 ErrMax= 2.70D-06  0.00D+00 EMaxC= 1.00D-01 BMatC= 4.07D-10 BMatP= 2.33D-09
 IDIUse=1 WtCom= 1.00D+00 WtEn= 0.00D+00
 Coeff-Com:  0.244D-01-0.192D+00 0.271D+00 0.897D+00
 Coeff:      0.244D-01-0.192D+00 0.271D+00 0.897D+00
 Gap=     0.558 Goal=   None    Shift=    0.000
 RMSDP=8.37D-07 MaxDP=5.03D-06 DE=-7.94D-09 OVMax= 1.43D-05

 Cycle   5  Pass 1  IDiag  1:
 E= -226.398372161852     Delta-E=       -0.000000000890 Rises=F Damp=F
 DIIS: error= 9.42D-07 at cycle   5 NSaved=   5.
 NSaved= 5 IEnMin= 5 EnMin= -226.398372161852     IErMin= 5 ErrMin= 9.42D-07
 ErrMax= 9.42D-07  0.00D+00 EMaxC= 1.00D-01 BMatC= 4.18D-11 BMatP= 4.07D-10
 IDIUse=1 WtCom= 1.00D+00 WtEn= 0.00D+00
 Coeff-Com:  0.185D-02 0.142D-01-0.119D+00 0.309D-01 0.107D+01
 Coeff:      0.185D-02 0.142D-01-0.119D+00 0.309D-01 0.107D+01
 Gap=     0.558 Goal=   None    Shift=    0.000
 RMSDP=2.97D-07 MaxDP=1.86D-06 DE=-8.90D-10 OVMax= 4.26D-06

 Cycle   6  Pass 1  IDiag  1:
 E= -226.398372161954     Delta-E=       -0.000000000102 Rises=F Damp=F
 DIIS: error= 4.03D-07 at cycle   6 NSaved=   6.
 NSaved= 6 IEnMin= 6 EnMin= -226.398372161954     IErMin= 6 ErrMin= 4.03D-07
 ErrMax= 4.03D-07  0.00D+00 EMaxC= 1.00D-01 BMatC= 8.83D-12 BMatP= 4.18D-11
 IDIUse=1 WtCom= 1.00D+00 WtEn= 0.00D+00
 Coeff-Com: -0.317D-02 0.341D-01-0.774D-01-0.129D+00 0.325D+00 0.851D+00
 Coeff:     -0.317D-02 0.341D-01-0.774D-01-0.129D+00 0.325D+00 0.851D+00
 Gap=     0.558 Goal=   None    Shift=    0.000
 RMSDP=1.03D-07 MaxDP=6.42D-07 DE=-1.02D-10 OVMax= 1.52D-06

 Cycle   7  Pass 1  IDiag  1:
 E= -226.398372161969     Delta-E=       -0.000000000015 Rises=F Damp=F
 DIIS: error= 1.82D-07 at cycle   7 NSaved=   7.
 NSaved= 7 IEnMin= 7 EnMin= -226.398372161969     IErMin= 7 ErrMin= 1.82D-07
 ErrMax= 1.82D-07  0.00D+00 EMaxC= 1.00D-01 BMatC= 6.39D-13 BMatP= 8.83D-12
 IDIUse=1 WtCom= 1.00D+00 WtEn= 0.00D+00
 Coeff-Com:  0.652D-03-0.108D-01 0.347D-01 0.314D-01-0.206D+00-0.253D+00
 Coeff-Com:  0.140D+01
 Coeff:      0.652D-03-0.108D-01 0.347D-01 0.314D-01-0.206D+00-0.253D+00
 Coeff:      0.140D+01
 Gap=     0.558 Goal=   None    Shift=    0.000
 RMSDP=5.07D-08 MaxDP=4.17D-07 DE=-1.51D-11 OVMax= 9.22D-07

 Cycle   8  Pass 1  IDiag  1:
 E= -226.398372161972     Delta-E=       -0.000000000003 Rises=F Damp=F
 DIIS: error= 6.90D-08 at cycle   8 NSaved=   8.
 NSaved= 8 IEnMin= 8 EnMin= -226.398372161972     IErMin= 8 ErrMin= 6.90D-08
 ErrMax= 6.90D-08  0.00D+00 EMaxC= 1.00D-01 BMatC= 7.62D-14 BMatP= 6.39D-13
 IDIUse=1 WtCom= 1.00D+00 WtEn= 0.00D+00
 Coeff-Com:  0.227D-03-0.221D-02 0.436D-02 0.991D-02-0.172D-01-0.608D-01
 Coeff-Com: -0.609D-01 0.113D+01
 Coeff:      0.227D-03-0.221D-02 0.436D-02 0.991D-02-0.172D-01-0.608D-01
 Coeff:     -0.609D-01 0.113D+01
 Gap=     0.558 Goal=   None    Shift=    0.000
 RMSDP=1.41D-08 MaxDP=1.40D-07 DE=-2.84D-12 OVMax= 3.38D-07

 Cycle   9  Pass 1  IDiag  1:
 E= -226.398372161972     Delta-E=        0.000000000000 Rises=F Damp=F
 DIIS: error= 3.70D-08 at cycle   9 NSaved=   9.
 NSaved= 9 IEnMin= 8 EnMin= -226.398372161972     IErMin= 9 ErrMin= 3.70D-08
 ErrMax= 3.70D-08  0.00D+00 EMaxC= 1.00D-01 BMatC= 1.73D-14 BMatP= 7.62D-14
 IDIUse=1 WtCom= 1.00D+00 WtEn= 0.00D+00
 Coeff-Com: -0.149D-03 0.253D-02-0.824D-02-0.755D-02 0.488D-01 0.594D-01
 Coeff-Com: -0.323D+00-0.191D-01 0.125D+01
 Coeff:     -0.149D-03 0.253D-02-0.824D-02-0.755D-02 0.488D-01 0.594D-01
 Coeff:     -0.323D+00-0.191D-01 0.125D+01
 Gap=     0.558 Goal=   None    Shift=    0.000
 RMSDP=8.77D-09 MaxDP=8.61D-08 DE= 1.71D-13 OVMax= 2.24D-07

 SCF Done:  E(RHF) =  -226.398372162     A.U. after    9 cycles
            NFock=  9  Conv=0.88D-08     -V/T= 2.0035
 KE= 2.256112374066D+02 PE=-7.714575973067D+02 EE= 2.004176096341D+02
 Leave Link  502 at Fri Apr 12 17:59:18 2019, MaxMem=   134217728 cpu:         0.3
 (Enter /cm/shared/c3ddb/gaussian/09.d01/g09/l701.exe)
 Compute integral first derivatives.
 ... and contract with generalized density number  0.
 Leave Link  701 at Fri Apr 12 17:59:19 2019, MaxMem=   134217728 cpu:         0.2
 (Enter /cm/shared/c3ddb/gaussian/09.d01/g09/l702.exe)
 L702 exits ... SP integral derivatives will be done elsewhere.
 Leave Link  702 at Fri Apr 12 17:59:19 2019, MaxMem=   134217728 cpu:         0.1
 (Enter /cm/shared/c3ddb/gaussian/09.d01/g09/l703.exe)
 Compute integral first derivatives, UseDBF=F ICtDFT=           0.
 Integral derivatives from FoFJK, PRISM(SPDF).
 Calling FoFJK, ICntrl=      2127 FMM=F ISym2X=0 I1Cent= 0 IOpClX= 0 NMat=1 NMatS=1 NMatT=0.
 FoFJK:  IHMeth= 1 ICntrl=    2127 DoSepK=F KAlg= 0 I1Cent=   0 FoldK=F
 IRaf=         0 NMat=   1 IRICut=       1 DoRegI=T DoRafI=F ISym2E= 0.
 FoFCou: FMM=F IPFlag=           0 FMFlag=      100000 FMFlg1=         800
         NFxFlg=           0 DoJE=F BraDBF=F KetDBF=F FulRan=T
         wScrn=  0.000000 ICntrl=    2127 IOpCl=  0 I1Cent=           0 NGrid=           0
         NMat0=    1 NMatS0=      1 NMatT0=    0 NMatD0=    1 NMtDS0=    0 NMtDT0=    0
 Symmetry not used in FoFCou.
 Leave Link  703 at Fri Apr 12 17:59:19 2019, MaxMem=   134217728 cpu:         0.3
 (Enter /cm/shared/c3ddb/gaussian/09.d01/g09/l716.exe)
 Dipole        =-1.79991044D-01 1.40398897D-01 1.14225555D-02
 -------------------------------------------------------------------
 Center     Atomic                   Forces (Hartrees/Bohr)
 Number     Number              X              Y              Z
 -------------------------------------------------------------------
      1        6          -0.000029931   -0.000020920   -0.000030202
      2        6          -0.000000189    0.000005045    0.000016159
      3        1          -0.000001373    0.000000875    0.000010387
      4        1           0.000001091   -0.000001311   -0.000001694
      5        1          -0.000001417   -0.000002621   -0.000003476
      6        8          -0.000019150   -0.000007746    0.000005508
      7        8           0.000047063    0.000005543    0.000001502
      8        1           0.000003906    0.000021134    0.000001817
 -------------------------------------------------------------------
 Cartesian Forces:  Max     0.000047063 RMS     0.000015599
 Leave Link  716 at Fri Apr 12 17:59:19 2019, MaxMem=   134217728 cpu:         0.1
 (Enter /cm/shared/c3ddb/gaussian/09.d01/g09/l103.exe)

 GradGradGradGradGradGradGradGradGradGradGradGradGradGradGradGradGradGrad
 Berny optimization.
 Using GEDIIS/GDIIS optimizer.
 FormGI is forming the generalized inverse of G from B-inverse, IUseBI=4.
 Internal  Forces:  Max     0.000057197 RMS     0.000019149
 Search for a local minimum.
 Step number   3 out of a maximum of   32
 All quantities printed in internal units (Hartrees-Bohrs-Radians)
 RMS Force = .20064D-04 SwitMx=.10000D-02 MixMth= 2
 Mixed Optimization -- En-DIIS/RFO-DIIS
 Swapping is turned off.
 Update second derivatives using D2CorX and points    1    2    3
 DE= -3.14D-07 DEPred=-3.39D-07 R= 9.26D-01
 Trust test= 9.26D-01 RLast= 2.72D-03 DXMaxT set to 3.00D-01
 ITU=  0  0  0
     Eigenvalues ---    0.02858   0.03252   0.03489   0.15898   0.16000
     Eigenvalues ---    0.16000   0.17375   0.22064   0.31411   0.37156
     Eigenvalues ---    0.37194   0.37528   0.41164   0.51513   0.53109
     Eigenvalues ---    0.649941000.000001000.000001000.000001000.00000
     Eigenvalues --- 1000.000001000.00000
 En-DIIS/RFO-DIIS IScMMF=        0 using points:     3    2    1
 RFO step:  Lambda=-1.37746044D-08.
 NNeg= 0 NP= 3 Switch=  2.50D-03 Rises=F DC=  5.87D-07 SmlDif=  1.00D-05
 RMS Error=  0.3714211313D-04 NUsed= 3 EDIIS=F
 DidBck=T Rises=F RFO-DIIS coefs:    0.67295    0.20483    0.12222
 Iteration  1 RMS(Cart)=  0.00014232 RMS(Int)=  0.00000014
 Iteration  2 RMS(Cart)=  0.00000001 RMS(Int)=  0.00000014
 Iteration  1 RMS(Cart)=  0.00000000 RMS(Int)=  0.00000000
 ITry= 1 IFail=0 DXMaxC= 2.86D-04 DCOld= 1.00D+10 DXMaxT= 3.00D-01 DXLimC= 3.00D+00 Rises=F
 Variable       Old X    -DE/DX   Delta X   Delta X   Delta X     New X
                                 (Linear)    (Quad)   (Total)
    R1        2.47236   0.00000  -0.00001   0.00001   0.00000   2.47236
    R2        2.02311   0.00000   0.00000   0.00000   0.00000   2.02312
    R3        2.62929  -0.00003   0.00001  -0.00005  -0.00004   2.62925
    R4        2.02254   0.00000   0.00000   0.00000   0.00000   2.02254
    R5        2.01732   0.00000   0.00000   0.00000   0.00000   2.01732
    R6        2.76539  -0.00005  -0.00009   0.00001  -0.00008   2.76531
    R7        1.83570   0.00000   0.00000   0.00000   0.00000   1.83570
    A1        2.17141   0.00000   0.00004  -0.00004   0.00000   2.17141
    A2        2.22589   0.00000  -0.00002   0.00003   0.00001   2.22589
    A3        1.88589   0.00000  -0.00003   0.00002  -0.00001   1.88588
    A4        2.08729   0.00000   0.00001   0.00000   0.00001   2.08729
    A5        2.12773   0.00000  -0.00003   0.00002   0.00000   2.12773
    A6        2.06817   0.00000   0.00002  -0.00002   0.00000   2.06816
    A7        1.90394  -0.00006  -0.00008  -0.00005  -0.00013   1.90381
    A8        1.72443  -0.00004  -0.00004  -0.00010  -0.00014   1.72429
    D1        0.00021  -0.00001  -0.00038   0.00021  -0.00017   0.00004
    D2       -3.14149   0.00000  -0.00020   0.00008  -0.00013   3.14157
    D3        3.14151   0.00000  -0.00010   0.00028   0.00018  -3.14149
    D4       -0.00019   0.00001   0.00008   0.00015   0.00023   0.00004
    D5       -0.00001   0.00000   0.00000   0.00000   0.00000  -0.00001
    D6        3.14133   0.00001   0.00025   0.00006   0.00031  -3.14154
    D7        3.14159   0.00000   0.00000   0.00000   0.00000   3.14159
         Item               Value     Threshold  Converged?
 Maximum Force            0.000057     0.000015     NO 
 RMS     Force            0.000020     0.000010     NO 
 Maximum Displacement     0.000286     0.000060     NO 
 RMS     Displacement     0.000142     0.000040     NO 
 Predicted change in Energy=-1.462617D-08
 Lowest energy point so far.  Saving SCF results.
 GradGradGradGradGradGradGradGradGradGradGradGradGradGradGradGradGradGrad

 Leave Link  103 at Fri Apr 12 17:59:20 2019, MaxMem=   134217728 cpu:         0.0
 (Enter /cm/shared/c3ddb/gaussian/09.d01/g09/l202.exe)
                          Input orientation:                          
 ---------------------------------------------------------------------
 Center     Atomic      Atomic             Coordinates (Angstroms)
 Number     Number       Type             X           Y           Z
 ---------------------------------------------------------------------
      1          6           0        0.731891    0.573001    0.030577
      2          6           0        1.420086   -0.536366   -0.055332
      3          1           0        1.164767    1.549712    0.099928
      4          1           0        2.489601   -0.495958   -0.058788
      5          1           0        0.946225   -1.490571   -0.122756
      6          8           0       -0.652307    0.712533    0.049305
      7          8           0       -1.267882   -0.611714   -0.044481
      8          1           0       -2.201259   -0.343753   -0.019044
 ---------------------------------------------------------------------
                    Distance matrix (angstroms):
                    1          2          3          4          5
     1  C    0.000000
     2  C    1.308315   0.000000
     3  H    1.070587   2.107371   0.000000
     4  H    2.059176   1.070284   2.442364   0.000000
     5  H    2.080331   1.067520   3.056250   1.837215   0.000000
     6  O    1.391339   2.421882   2.001297   3.368045   2.727375
     7  O    2.325570   2.689046   3.257360   3.759293   2.383439
     8  H    3.073478   3.626645   3.863870   4.693497   3.351507
                    6          7          8
     6  O    0.000000
     7  O    1.463338   0.000000
     8  H    1.876077   0.971413   0.000000
 Symmetry turned off by external request.
 Stoichiometry    C2H4O2
 Framework group  C1[X(C2H4O2)]
 Deg. of freedom    18
 Full point group                 C1      NOp   1
 Rotational constants (GHZ):     18.9790919      6.6097647      4.9024204
 Leave Link  202 at Fri Apr 12 17:59:20 2019, MaxMem=   134217728 cpu:         0.0
 (Enter /cm/shared/c3ddb/gaussian/09.d01/g09/l301.exe)
 Standard basis: 3-21G (6D, 7F)
 Ernie: Thresh=  0.10000D-02 Tol=  0.10000D-05 Strict=F.
    44 basis functions,    72 primitive gaussians,    44 cartesian basis functions
    16 alpha electrons       16 beta electrons
       nuclear repulsion energy       119.0333992845 Hartrees.
 IExCor=    0 DFT=F Ex=HF Corr=None ExCW=0 ScaHFX=  1.000000
 ScaDFX=  1.000000  1.000000  1.000000  1.000000 ScalE2=  1.000000  1.000000
 IRadAn=      0 IRanWt=     -1 IRanGd=            0 ICorTp=0 IEmpDi=  4
 NAtoms=    8 NActive=    8 NUniq=    8 SFac= 1.00D+00 NAtFMM=   60 NAOKFM=F Big=F
 Integral buffers will be    131072 words long.
 Raffenetti 1 integral format.
 Two-electron integral symmetry is turned off.
 Leave Link  301 at Fri Apr 12 17:59:20 2019, MaxMem=   134217728 cpu:         0.3
 (Enter /cm/shared/c3ddb/gaussian/09.d01/g09/l302.exe)
 NPDir=0 NMtPBC=     1 NCelOv=     1 NCel=       1 NClECP=     1 NCelD=      1
         NCelK=      1 NCelE2=     1 NClLst=     1 CellRange=     0.0.
 One-electron integrals computed using PRISM.
 NBasis=    44 RedAO= T EigKep=  1.16D-02  NBF=    44
 NBsUse=    44 1.00D-06 EigRej= -1.00D+00 NBFU=    44
 Leave Link  302 at Fri Apr 12 17:59:21 2019, MaxMem=   134217728 cpu:         0.2
 (Enter /cm/shared/c3ddb/gaussian/09.d01/g09/l303.exe)
 DipDrv:  MaxL=1.
 Leave Link  303 at Fri Apr 12 17:59:21 2019, MaxMem=   134217728 cpu:         0.1
 (Enter /cm/shared/c3ddb/gaussian/09.d01/g09/l401.exe)
 Initial guess from the checkpoint file:  "TMP_CALCS/scangeom_S02_000_180.chk"
 B after Tr=     0.000018    0.000007   -0.000049
         Rot=    1.000000    0.000035   -0.000008   -0.000007 Ang=   0.00 deg.
 Guess basis will be translated and rotated to current coordinates.
 JPrj=2 DoOrth=T DoCkMO=T.
 Leave Link  401 at Fri Apr 12 17:59:21 2019, MaxMem=   134217728 cpu:         0.4
 (Enter /cm/shared/c3ddb/gaussian/09.d01/g09/l502.exe)
 Closed shell SCF:
 Using DIIS extrapolation, IDIIS=  1040.
 Two-electron integral symmetry not used.
 Keep R1 ints in memory in canonical form, NReq=1327419.
 IVT=       24902 IEndB=       24902 NGot=   134217728 MDV=   133702282
 LenX=   133702282 LenY=   133699905
 Requested convergence on RMS density matrix=1.00D-08 within 128 cycles.
 Requested convergence on MAX density matrix=1.00D-06.
 Requested convergence on             energy=1.00D-06.
 No special actions if energy rises.
 FoFCou: FMM=F IPFlag=           0 FMFlag=           0 FMFlg1=           0
         NFxFlg=           0 DoJE=F BraDBF=F KetDBF=F FulRan=T
         wScrn=  0.000000 ICntrl=     600 IOpCl=  0 I1Cent=           0 NGrid=           0
         NMat0=    1 NMatS0=    990 NMatT0=    0 NMatD0=    1 NMtDS0=    0 NMtDT0=    0
 Symmetry not used in FoFCou.

 Cycle   1  Pass 1  IDiag  1:
 E= -226.398372156892    
 DIIS: error= 1.16D-05 at cycle   1 NSaved=   1.
 NSaved= 1 IEnMin= 1 EnMin= -226.398372156892     IErMin= 1 ErrMin= 1.16D-05
 ErrMax= 1.16D-05  0.00D+00 EMaxC= 1.00D-01 BMatC= 8.77D-09 BMatP= 8.77D-09
 IDIUse=1 WtCom= 1.00D+00 WtEn= 0.00D+00
 Coeff-Com:  0.100D+01
 Coeff:      0.100D+01
 Gap=     0.974 Goal=   None    Shift=    0.000
 RMSDP=2.24D-06 MaxDP=1.52D-05              OVMax= 3.64D-05

 Cycle   2  Pass 1  IDiag  1:
 E= -226.398372169450     Delta-E=       -0.000000012558 Rises=F Damp=F
 DIIS: error= 4.88D-06 at cycle   2 NSaved=   2.
 NSaved= 2 IEnMin= 2 EnMin= -226.398372169450     IErMin= 2 ErrMin= 4.88D-06
 ErrMax= 4.88D-06  0.00D+00 EMaxC= 1.00D-01 BMatC= 6.72D-10 BMatP= 8.77D-09
 IDIUse=1 WtCom= 1.00D+00 WtEn= 0.00D+00
 Coeff-Com: -0.176D+00 0.118D+01
 Coeff:     -0.176D+00 0.118D+01
 Gap=     0.558 Goal=   None    Shift=    0.000
 RMSDP=1.04D-06 MaxDP=7.11D-06 DE=-1.26D-08 OVMax= 2.06D-05

 Cycle   3  Pass 1  IDiag  1:
 E= -226.398372171487     Delta-E=       -0.000000002037 Rises=F Damp=F
 DIIS: error= 1.88D-06 at cycle   3 NSaved=   3.
 NSaved= 3 IEnMin= 3 EnMin= -226.398372171487     IErMin= 3 ErrMin= 1.88D-06
 ErrMax= 1.88D-06  0.00D+00 EMaxC= 1.00D-01 BMatC= 1.07D-10 BMatP= 6.72D-10
 IDIUse=1 WtCom= 1.00D+00 WtEn= 0.00D+00
 Coeff-Com: -0.438D-01-0.209D-01 0.106D+01
 Coeff:     -0.438D-01-0.209D-01 0.106D+01
 Gap=     0.558 Goal=   None    Shift=    0.000
 RMSDP=4.42D-07 MaxDP=2.67D-06 DE=-2.04D-09 OVMax= 8.02D-06

 Cycle   4  Pass 1  IDiag  1:
 E= -226.398372171779     Delta-E=       -0.000000000292 Rises=F Damp=F
 DIIS: error= 7.13D-07 at cycle   4 NSaved=   4.
 NSaved= 4 IEnMin= 4 EnMin= -226.398372171779     IErMin= 4 ErrMin= 7.13D-07
 ErrMax= 7.13D-07  0.00D+00 EMaxC= 1.00D-01 BMatC= 2.74D-11 BMatP= 1.07D-10
 IDIUse=1 WtCom= 1.00D+00 WtEn= 0.00D+00
 Coeff-Com:  0.223D-01-0.238D+00 0.288D+00 0.927D+00
 Coeff:      0.223D-01-0.238D+00 0.288D+00 0.927D+00
 Gap=     0.558 Goal=   None    Shift=    0.000
 RMSDP=2.19D-07 MaxDP=1.36D-06 DE=-2.92D-10 OVMax= 3.82D-06

 Cycle   5  Pass 1  IDiag  1:
 E= -226.398372171838     Delta-E=       -0.000000000059 Rises=F Damp=F
 DIIS: error= 2.55D-07 at cycle   5 NSaved=   5.
 NSaved= 5 IEnMin= 5 EnMin= -226.398372171838     IErMin= 5 ErrMin= 2.55D-07
 ErrMax= 2.55D-07  0.00D+00 EMaxC= 1.00D-01 BMatC= 2.07D-12 BMatP= 2.74D-11
 IDIUse=1 WtCom= 1.00D+00 WtEn= 0.00D+00
 Coeff-Com:  0.572D-02-0.187D-01-0.683D-01 0.775D-01 0.100D+01
 Coeff:      0.572D-02-0.187D-01-0.683D-01 0.775D-01 0.100D+01
 Gap=     0.558 Goal=   None    Shift=    0.000
 RMSDP=5.87D-08 MaxDP=3.32D-07 DE=-5.92D-11 OVMax= 8.95D-07

 Cycle   6  Pass 1  IDiag  1:
 E= -226.398372171843     Delta-E=       -0.000000000005 Rises=F Damp=F
 DIIS: error= 1.13D-07 at cycle   6 NSaved=   6.
 NSaved= 6 IEnMin= 6 EnMin= -226.398372171843     IErMin= 6 ErrMin= 1.13D-07
 ErrMax= 1.13D-07  0.00D+00 EMaxC= 1.00D-01 BMatC= 3.41D-13 BMatP= 2.07D-12
 IDIUse=1 WtCom= 1.00D+00 WtEn= 0.00D+00
 Coeff-Com: -0.312D-02 0.403D-01-0.608D-01-0.158D+00 0.135D+00 0.105D+01
 Coeff:     -0.312D-02 0.403D-01-0.608D-01-0.158D+00 0.135D+00 0.105D+01
 Gap=     0.558 Goal=   None    Shift=    0.000
 RMSDP=2.62D-08 MaxDP=1.96D-07 DE=-4.66D-12 OVMax= 4.74D-07

 Cycle   7  Pass 1  IDiag  1:
 E= -226.398372171844     Delta-E=       -0.000000000001 Rises=F Damp=F
 DIIS: error= 3.89D-08 at cycle   7 NSaved=   7.
 NSaved= 7 IEnMin= 7 EnMin= -226.398372171844     IErMin= 7 ErrMin= 3.89D-08
 ErrMax= 3.89D-08  0.00D+00 EMaxC= 1.00D-01 BMatC= 2.62D-14 BMatP= 3.41D-13
 IDIUse=1 WtCom= 1.00D+00 WtEn= 0.00D+00
 Coeff-Com:  0.831D-03-0.152D-01 0.316D-01 0.594D-01-0.139D+00-0.447D+00
 Coeff-Com:  0.151D+01
 Coeff:      0.831D-03-0.152D-01 0.316D-01 0.594D-01-0.139D+00-0.447D+00
 Coeff:      0.151D+01
 Gap=     0.558 Goal=   None    Shift=    0.000
 RMSDP=1.10D-08 MaxDP=9.85D-08 DE=-1.25D-12 OVMax= 2.17D-07

 Cycle   8  Pass 1  IDiag  1:
 E= -226.398372171844     Delta-E=        0.000000000000 Rises=F Damp=F
 DIIS: error= 1.43D-08 at cycle   8 NSaved=   8.
 NSaved= 8 IEnMin= 7 EnMin= -226.398372171844     IErMin= 8 ErrMin= 1.43D-08
 ErrMax= 1.43D-08  0.00D+00 EMaxC= 1.00D-01 BMatC= 2.62D-15 BMatP= 2.62D-14
 IDIUse=1 WtCom= 1.00D+00 WtEn= 0.00D+00
 Coeff-Com: -0.312D-06 0.135D-02-0.475D-02-0.458D-02 0.305D-01 0.401D-01
 Coeff-Com: -0.412D+00 0.135D+01
 Coeff:     -0.312D-06 0.135D-02-0.475D-02-0.458D-02 0.305D-01 0.401D-01
 Coeff:     -0.412D+00 0.135D+01
 Gap=     0.558 Goal=   None    Shift=    0.000
 RMSDP=3.18D-09 MaxDP=3.22D-08 DE= 3.98D-13 OVMax= 8.02D-08

 SCF Done:  E(RHF) =  -226.398372172     A.U. after    8 cycles
            NFock=  8  Conv=0.32D-08     -V/T= 2.0035
 KE= 2.256114380114D+02 PE=-7.714636647441D+02 EE= 2.004204552764D+02
 Leave Link  502 at Fri Apr 12 17:59:22 2019, MaxMem=   134217728 cpu:         0.3
 (Enter /cm/shared/c3ddb/gaussian/09.d01/g09/l701.exe)
 Compute integral first derivatives.
 ... and contract with generalized density number  0.
 Leave Link  701 at Fri Apr 12 17:59:22 2019, MaxMem=   134217728 cpu:         0.3
 (Enter /cm/shared/c3ddb/gaussian/09.d01/g09/l702.exe)
 L702 exits ... SP integral derivatives will be done elsewhere.
 Leave Link  702 at Fri Apr 12 17:59:22 2019, MaxMem=   134217728 cpu:         0.1
 (Enter /cm/shared/c3ddb/gaussian/09.d01/g09/l703.exe)
 Compute integral first derivatives, UseDBF=F ICtDFT=           0.
 Integral derivatives from FoFJK, PRISM(SPDF).
 Calling FoFJK, ICntrl=      2127 FMM=F ISym2X=0 I1Cent= 0 IOpClX= 0 NMat=1 NMatS=1 NMatT=0.
 FoFJK:  IHMeth= 1 ICntrl=    2127 DoSepK=F KAlg= 0 I1Cent=   0 FoldK=F
 IRaf=         0 NMat=   1 IRICut=       1 DoRegI=T DoRafI=F ISym2E= 0.
 FoFCou: FMM=F IPFlag=           0 FMFlag=      100000 FMFlg1=         800
         NFxFlg=           0 DoJE=F BraDBF=F KetDBF=F FulRan=T
         wScrn=  0.000000 ICntrl=    2127 IOpCl=  0 I1Cent=           0 NGrid=           0
         NMat0=    1 NMatS0=      1 NMatT0=    0 NMatD0=    1 NMtDS0=    0 NMtDT0=    0
 Symmetry not used in FoFCou.
 Leave Link  703 at Fri Apr 12 17:59:23 2019, MaxMem=   134217728 cpu:         0.2
 (Enter /cm/shared/c3ddb/gaussian/09.d01/g09/l716.exe)
 Dipole        =-1.80030584D-01 1.40382993D-01 1.14713786D-02
 -------------------------------------------------------------------
 Center     Atomic                   Forces (Hartrees/Bohr)
 Number     Number              X              Y              Z
 -------------------------------------------------------------------
      1        6          -0.000007536    0.000003599    0.000006135
      2        6           0.000000173    0.000000802    0.000003183
      3        1           0.000003234   -0.000000109   -0.000000968
      4        1          -0.000000059    0.000000403   -0.000004129
      5        1           0.000001116   -0.000000541   -0.000000069
      6        8           0.000012801   -0.000001098   -0.000003645
      7        8          -0.000007164    0.000001897   -0.000000091
      8        1          -0.000002566   -0.000004953   -0.000000417
 -------------------------------------------------------------------
 Cartesian Forces:  Max     0.000012801 RMS     0.000004148
 Leave Link  716 at Fri Apr 12 17:59:23 2019, MaxMem=   134217728 cpu:         0.2
 (Enter /cm/shared/c3ddb/gaussian/09.d01/g09/l103.exe)

[...]
 No special actions if energy rises.
 FoFCou: FMM=F IPFlag=           0 FMFlag=           0 FMFlg1=           0
         NFxFlg=           0 DoJE=F BraDBF=F KetDBF=F FulRan=T
         wScrn=  0.000000 ICntrl=     600 IOpCl=  0 I1Cent=           0 NGrid=           0
         NMat0=    1 NMatS0=    990 NMatT0=    0 NMatD0=    1 NMtDS0=    0 NMtDT0=    0
 Symmetry not used in FoFCou.

 Cycle   1  Pass 1  IDiag  1:
 E= -226.398372171619    
 DIIS: error= 3.14D-06 at cycle   1 NSaved=   1.
 NSaved= 1 IEnMin= 1 EnMin= -226.398372171619     IErMin= 1 ErrMin= 3.14D-06
 ErrMax= 3.14D-06  0.00D+00 EMaxC= 1.00D-01 BMatC= 5.49D-10 BMatP= 5.49D-10
 IDIUse=1 WtCom= 1.00D+00 WtEn= 0.00D+00
 Coeff-Com:  0.100D+01
 Coeff:      0.100D+01
 Gap=     0.974 Goal=   None    Shift=    0.000
 RMSDP=5.71D-07 MaxDP=5.52D-06              OVMax= 9.81D-06

 Cycle   2  Pass 1  IDiag  1:
 E= -226.398372172524     Delta-E=       -0.000000000905 Rises=F Damp=F
 DIIS: error= 1.34D-06 at cycle   2 NSaved=   2.
 NSaved= 2 IEnMin= 2 EnMin= -226.398372172524     IErMin= 2 ErrMin= 1.34D-06
 ErrMax= 1.34D-06  0.00D+00 EMaxC= 1.00D-01 BMatC= 4.48D-11 BMatP= 5.49D-10
 IDIUse=1 WtCom= 1.00D+00 WtEn= 0.00D+00
 Coeff-Com: -0.242D+00 0.124D+01
 Coeff:     -0.242D+00 0.124D+01
 Gap=     0.558 Goal=   None    Shift=    0.000
 RMSDP=2.80D-07 MaxDP=2.17D-06 DE=-9.05D-10 OVMax= 5.84D-06

 Cycle   3  Pass 1  IDiag  1:
 E= -226.398372172664     Delta-E=       -0.000000000140 Rises=F Damp=F
 DIIS: error= 4.29D-07 at cycle   3 NSaved=   3.
 NSaved= 3 IEnMin= 3 EnMin= -226.398372172664     IErMin= 3 ErrMin= 4.29D-07
 ErrMax= 4.29D-07  0.00D+00 EMaxC= 1.00D-01 BMatC= 4.33D-12 BMatP= 4.48D-11
 IDIUse=1 WtCom= 1.00D+00 WtEn= 0.00D+00
 Coeff-Com:  0.201D-02-0.224D+00 0.122D+01
 Coeff:      0.201D-02-0.224D+00 0.122D+01
 Gap=     0.558 Goal=   None    Shift=    0.000
 RMSDP=1.11D-07 MaxDP=7.84D-07 DE=-1.40D-10 OVMax= 2.24D-06

 Cycle   4  Pass 1  IDiag  1:
 E= -226.398372172679     Delta-E=       -0.000000000015 Rises=F Damp=F
 DIIS: error= 1.23D-07 at cycle   4 NSaved=   4.
 NSaved= 4 IEnMin= 4 EnMin= -226.398372172679     IErMin= 4 ErrMin= 1.23D-07
 ErrMax= 1.23D-07  0.00D+00 EMaxC= 1.00D-01 BMatC= 1.05D-12 BMatP= 4.33D-12
 IDIUse=1 WtCom= 1.00D+00 WtEn= 0.00D+00
 Coeff-Com:  0.301D-01-0.221D+00 0.379D+00 0.811D+00
 Coeff:      0.301D-01-0.221D+00 0.379D+00 0.811D+00
 Gap=     0.558 Goal=   None    Shift=    0.000
 RMSDP=3.54D-08 MaxDP=2.30D-07 DE=-1.50D-11 OVMax= 6.45D-07

 Cycle   5  Pass 1  IDiag  1:
 E= -226.398372172680     Delta-E=       -0.000000000001 Rises=F Damp=F
 DIIS: error= 4.32D-08 at cycle   5 NSaved=   5.
 NSaved= 5 IEnMin= 5 EnMin= -226.398372172680     IErMin= 5 ErrMin= 4.32D-08
 ErrMax= 4.32D-08  0.00D+00 EMaxC= 1.00D-01 BMatC= 8.27D-14 BMatP= 1.05D-12
 IDIUse=1 WtCom= 1.00D+00 WtEn= 0.00D+00
 Coeff-Com: -0.172D-02 0.387D-01-0.179D+00-0.376D-01 0.118D+01
 Coeff:     -0.172D-02 0.387D-01-0.179D+00-0.376D-01 0.118D+01
 Gap=     0.558 Goal=   None    Shift=    0.000
 RMSDP=1.63D-08 MaxDP=1.08D-07 DE=-1.48D-12 OVMax= 2.49D-07

 Cycle   6  Pass 1  IDiag  1:
 E= -226.398372172680     Delta-E=        0.000000000000 Rises=F Damp=F
 DIIS: error= 1.38D-08 at cycle   6 NSaved=   6.
 NSaved= 6 IEnMin= 6 EnMin= -226.398372172680     IErMin= 6 ErrMin= 1.38D-08
 ErrMax= 1.38D-08  0.00D+00 EMaxC= 1.00D-01 BMatC= 1.07D-14 BMatP= 8.27D-14
 IDIUse=1 WtCom= 1.00D+00 WtEn= 0.00D+00
 Coeff-Com: -0.301D-02 0.286D-01-0.729D-01-0.903D-01 0.264D+00 0.874D+00
 Coeff:     -0.301D-02 0.286D-01-0.729D-01-0.903D-01 0.264D+00 0.874D+00
 Gap=     0.558 Goal=   None    Shift=    0.000
 RMSDP=3.94D-09 MaxDP=2.83D-08 DE=-1.71D-13 OVMax= 6.00D-08

 SCF Done:  E(RHF) =  -226.398372173     A.U. after    6 cycles
            NFock=  6  Conv=0.39D-08     -V/T= 2.0035
 KE= 2.256114186435D+02 PE=-7.714630110607D+02 EE= 2.004201433160D+02
 Leave Link  502 at Fri Apr 12 17:59:25 2019, MaxMem=   134217728 cpu:         0.3
 (Enter /cm/shared/c3ddb/gaussian/09.d01/g09/l701.exe)
 Compute integral first derivatives.
 ... and contract with generalized density number  0.
 Leave Link  701 at Fri Apr 12 17:59:26 2019, MaxMem=   134217728 cpu:         0.3
 (Enter /cm/shared/c3ddb/gaussian/09.d01/g09/l702.exe)
 L702 exits ... SP integral derivatives will be done elsewhere.
 Leave Link  702 at Fri Apr 12 17:59:26 2019, MaxMem=   134217728 cpu:         0.1
 (Enter /cm/shared/c3ddb/gaussian/09.d01/g09/l703.exe)
 Compute integral first derivatives, UseDBF=F ICtDFT=           0.
 Integral derivatives from FoFJK, PRISM(SPDF).
 Calling FoFJK, ICntrl=      2127 FMM=F ISym2X=0 I1Cent= 0 IOpClX= 0 NMat=1 NMatS=1 NMatT=0.
 FoFJK:  IHMeth= 1 ICntrl=    2127 DoSepK=F KAlg= 0 I1Cent=   0 FoldK=F
 IRaf=         0 NMat=   1 IRICut=       1 DoRegI=T DoRafI=F ISym2E= 0.
 FoFCou: FMM=F IPFlag=           0 FMFlag=      100000 FMFlg1=         800
         NFxFlg=           0 DoJE=F BraDBF=F KetDBF=F FulRan=T
         wScrn=  0.000000 ICntrl=    2127 IOpCl=  0 I1Cent=           0 NGrid=           0
         NMat0=    1 NMatS0=      1 NMatT0=    0 NMatD0=    1 NMtDS0=    0 NMtDT0=    0
 Symmetry not used in FoFCou.
 Leave Link  703 at Fri Apr 12 17:59:26 2019, MaxMem=   134217728 cpu:         0.3
 (Enter /cm/shared/c3ddb/gaussian/09.d01/g09/l716.exe)
 Dipole        =-1.80042010D-01 1.40385641D-01 1.14323823D-02
 -------------------------------------------------------------------
 Center     Atomic                   Forces (Hartrees/Bohr)
 Number     Number              X              Y              Z
 -------------------------------------------------------------------
      1        6          -0.000005158    0.000000468    0.000000963
      2        6           0.000000254    0.000000272   -0.000001721
      3        1           0.000000914   -0.000000097   -0.000000059
      4        1           0.000000044   -0.000000084    0.000000419
      5        1           0.000000402   -0.000000340    0.000000659
      6        8           0.000003457   -0.000000232   -0.000000274
      7        8           0.000000065   -0.000000096   -0.000000009
      8        1           0.000000023    0.000000109    0.000000022
 -------------------------------------------------------------------
 Cartesian Forces:  Max     0.000005158 RMS     0.000001365
 Leave Link  716 at Fri Apr 12 17:59:26 2019, MaxMem=   134217728 cpu:         0.1
 (Enter /cm/shared/c3ddb/gaussian/09.d01/g09/l103.exe)

 GradGradGradGradGradGradGradGradGradGradGradGradGradGradGradGradGradGrad
 Berny optimization.
 Using GEDIIS/GDIIS optimizer.
 FormGI is forming the generalized inverse of G from B-inverse, IUseBI=4.
 Internal  Forces:  Max     0.000003552 RMS     0.000000883
 Search for a local minimum.
 Step number   5 out of a maximum of   32
 All quantities printed in internal units (Hartrees-Bohrs-Radians)
 RMS Force = .92614D-06 SwitMx=.10000D-02 MixMth= 2
 Mixed Optimization -- En-DIIS/RFO-DIIS
 Swapping is turned off.
 Update second derivatives using D2CorX and points    1    2    3    4    5
 DE= -8.37D-10 DEPred=-8.73D-10 R= 9.58D-01
 Trust test= 9.58D-01 RLast= 1.46D-04 DXMaxT set to 3.00D-01
 ITU=  0  0  0  0  0
     Eigenvalues ---    0.02943   0.03275   0.04983   0.15095   0.15999
     Eigenvalues ---    0.16001   0.18081   0.21795   0.31777   0.37099
     Eigenvalues ---    0.37192   0.37545   0.40867   0.52979   0.56276
     Eigenvalues ---    0.649951000.000001000.000001000.000001000.00000
     Eigenvalues --- 1000.000001000.00000
 En-DIIS/RFO-DIIS IScMMF=        0 using points:     5    4    3    2    1
 RFO step:  Lambda= 0.00000000D+00.
 NNeg= 0 NP= 5 Switch=  2.50D-03 Rises=F DC=  5.87D-07 SmlDif=  1.00D-05
 RMS Error=  0.1906469824D-05 NUsed= 5 EDIIS=F
 DidBck=F Rises=F RFO-DIIS coefs:    1.06656   -0.03093   -0.01990   -0.00964   -0.00610
 Iteration  1 RMS(Cart)=  0.00000702 RMS(Int)=  0.00000001
 Iteration  2 RMS(Cart)=  0.00000000 RMS(Int)=  0.00000001
 Iteration  1 RMS(Cart)=  0.00000000 RMS(Int)=  0.00000000
 ITry= 1 IFail=0 DXMaxC= 1.47D-05 DCOld= 1.00D+10 DXMaxT= 3.00D-01 DXLimC= 3.00D+00 Rises=F
 Variable       Old X    -DE/DX   Delta X   Delta X   Delta X     New X
                                 (Linear)    (Quad)   (Total)
    R1        2.47236   0.00000   0.00000   0.00000   0.00000   2.47236
    R2        2.02312   0.00000   0.00000   0.00000   0.00000   2.02312
    R3        2.62924   0.00000   0.00000  -0.00001  -0.00001   2.62923
    R4        2.02254   0.00000   0.00000   0.00000   0.00000   2.02254
    R5        2.01732   0.00000   0.00000   0.00000   0.00000   2.01732
    R6        2.76532   0.00000   0.00000   0.00000   0.00000   2.76532
    R7        1.83571   0.00000   0.00000   0.00000   0.00000   1.83571
    A1        2.17139   0.00000   0.00000  -0.00001  -0.00001   2.17138
    A2        2.22590   0.00000   0.00000   0.00000   0.00000   2.22591
    A3        1.88589   0.00000   0.00000   0.00000   0.00000   1.88589
    A4        2.08729   0.00000   0.00000   0.00000   0.00000   2.08729
    A5        2.12773   0.00000   0.00000   0.00000   0.00000   2.12774
    A6        2.06816   0.00000   0.00000   0.00000   0.00000   2.06816
    A7        1.90383   0.00000   0.00000   0.00000   0.00000   1.90383
    A8        1.72432   0.00000   0.00000   0.00000   0.00000   1.72432
    D1       -0.00001   0.00000   0.00001   0.00000   0.00001   0.00000
    D2       -3.14158   0.00000   0.00001  -0.00002  -0.00001   3.14159
    D3        3.14159   0.00000   0.00000   0.00000   0.00000   3.14159
    D4        0.00002   0.00000   0.00000  -0.00002  -0.00002  -0.00001
    D5       -0.00001   0.00000   0.00000   0.00000   0.00000  -0.00001
    D6        3.14159   0.00000  -0.00001   0.00000  -0.00001   3.14158
    D7        3.14159   0.00000   0.00000   0.00000   0.00000   3.14159
         Item               Value     Threshold  Converged?
 Maximum Force            0.000004     0.000015     YES
 RMS     Force            0.000001     0.000010     YES
 Maximum Displacement     0.000015     0.000060     YES
 RMS     Displacement     0.000007     0.000040     YES
 Predicted change in Energy=-3.974723D-11
 Optimization completed.
    -- Stationary point found.
                           ----------------------------
                           !   Optimized Parameters   !
                           ! (Angstroms and Degrees)  !
 --------------------------                            --------------------------
 ! Name  Definition              Value          Derivative Info.                !
 --------------------------------------------------------------------------------
 ! R1    R(1,2)                  1.3083         -DE/DX =    0.0                 !
 ! R2    R(1,3)                  1.0706         -DE/DX =    0.0                 !
 ! R3    R(1,6)                  1.3913         -DE/DX =    0.0                 !
 ! R4    R(2,4)                  1.0703         -DE/DX =    0.0                 !
 ! R5    R(2,5)                  1.0675         -DE/DX =    0.0                 !
 ! R6    R(6,7)                  1.4633         -DE/DX =    0.0                 !
 ! R7    R(7,8)                  0.9714         -DE/DX =    0.0                 !
 ! A1    A(2,1,3)              124.4117         -DE/DX =    0.0                 !
 ! A2    A(2,1,6)              127.5348         -DE/DX =    0.0                 !
 ! A3    A(3,1,6)              108.0535         -DE/DX =    0.0                 !
 ! A4    A(1,2,4)              119.593          -DE/DX =    0.0                 !
 ! A5    A(1,2,5)              121.9102         -DE/DX =    0.0                 !
 ! A6    A(4,2,5)              118.4969         -DE/DX =    0.0                 !
 ! A7    A(1,6,7)              109.0812         -DE/DX =    0.0                 !
 ! A8    A(6,7,8)               98.7963         -DE/DX =    0.0                 !
 ! D1    D(3,1,2,4)             -0.0006         -DE/DX =    0.0                 !
 ! D2    D(3,1,2,5)            180.0005         -DE/DX =    0.0                 !
 ! D3    D(6,1,2,4)            179.9998         -DE/DX =    0.0                 !
 ! D4    D(6,1,2,5)              0.0009         -DE/DX =    0.0                 !
 ! D5    D(2,1,6,7)             -0.0005         -DE/DX =    0.0                 !
 ! D6    D(3,1,6,7)            179.9999         -DE/DX =    0.0                 !
 ! D7    D(1,6,7,8)            180.0            -DE/DX =    0.0                 !
 --------------------------------------------------------------------------------
 Lowest energy point so far.  Saving SCF results.
 GradGradGradGradGradGradGradGradGradGradGradGradGradGradGradGradGradGrad

 Largest change from initial coordinates is atom    1       0.001 Angstoms.
 Leave Link  103 at Fri Apr 12 17:59:26 2019, MaxMem=   134217728 cpu:         0.0
 (Enter /cm/shared/c3ddb/gaussian/09.d01/g09/l202.exe)
                          Input orientation:                          
 ---------------------------------------------------------------------
 Center     Atomic      Atomic             Coordinates (Angstroms)
 Number     Number       Type             X           Y           Z
 ---------------------------------------------------------------------
      1          6           0        0.731892    0.572996    0.030606
      2          6           0        1.420094   -0.536367   -0.055305
      3          1           0        1.164779    1.549705    0.099923
      4          1           0        2.489608   -0.495943   -0.058846
      5          1           0        0.946245   -1.490579   -0.122724
      6          8           0       -0.652302    0.712530    0.049316
      7          8           0       -1.267907   -0.611706   -0.044493
      8          1           0       -2.201288   -0.343755   -0.019067
 ---------------------------------------------------------------------
                    Distance matrix (angstroms):
                    1          2          3          4          5
     1  C    0.000000
     2  C    1.308315   0.000000
     3  H    1.070588   2.107363   0.000000
     4  H    2.059174   1.070284   2.442347   0.000000
     5  H    2.080336   1.067520   3.056249   1.837213   0.000000
     6  O    1.391335   2.421882   2.001301   3.368042   2.727387
     7  O    2.325587   2.689078   3.257379   3.759325   2.383486
     8  H    3.073507   3.626682   3.863905   4.693533   3.351553
                    6          7          8
     6  O    0.000000
     7  O    1.463342   0.000000
     8  H    1.876106   0.971414   0.000000
 Symmetry turned off by external request.
 Stoichiometry    C2H4O2
 Framework group  C1[X(C2H4O2)]
 Deg. of freedom    18
 Full point group                 C1      NOp   1
 Rotational constants (GHZ):     18.9792820      6.6096450      4.9023672
 Leave Link  202 at Fri Apr 12 17:59:27 2019, MaxMem=   134217728 cpu:         0.0
 (Enter /cm/shared/c3ddb/gaussian/09.d01/g09/l601.exe)
 Copying SCF densities to generalized density rwf, IOpCl= 0 IROHF=0.

 **********************************************************************

            Population analysis using the SCF density.

 **********************************************************************

 Alpha  occ. eigenvalues --  -20.53874 -20.52675 -11.24161 -11.15549  -1.47860
 Alpha  occ. eigenvalues --   -1.24117  -1.02622  -0.79048  -0.71990  -0.64871
 Alpha  occ. eigenvalues --   -0.63945  -0.61909  -0.53561  -0.50673  -0.48374
 Alpha  occ. eigenvalues --   -0.35338
 Alpha virt. eigenvalues --    0.20496   0.22787   0.28541   0.30617   0.34416
 Alpha virt. eigenvalues --    0.37463   0.50264   0.59340   0.89475   0.97598
 Alpha virt. eigenvalues --    1.00792   1.07734   1.10776   1.12783   1.24280
 Alpha virt. eigenvalues --    1.33817   1.37352   1.57547   1.61011   1.70308
 Alpha virt. eigenvalues --    1.85411   1.89966   1.94349   2.01625   2.08388
 Alpha virt. eigenvalues --    2.36906   3.06732   3.55708
          Condensed to atoms (all electrons):
               1          2          3          4          5          6
     1  C    4.879930   0.487143   0.391261  -0.044907  -0.052868   0.219670
     2  C    0.487143   5.341793  -0.045170   0.381489   0.393301  -0.050392
     3  H    0.391261  -0.045170   0.426437  -0.000488   0.001627  -0.032585
     4  H   -0.044907   0.381489  -0.000488   0.460471  -0.015724   0.001309
     5  H   -0.052868   0.393301   0.001627  -0.015724   0.414204  -0.004989
     6  O    0.219670  -0.050392  -0.032585   0.001309  -0.004989   8.193812
     7  O   -0.042718   0.000642   0.001426   0.000161   0.008975   0.119298
     8  H    0.002590  -0.000055  -0.000129  -0.000008  -0.000241  -0.022846
               7          8
     1  C   -0.042718   0.002590
     2  C    0.000642  -0.000055
     3  H    0.001426  -0.000129
     4  H    0.000161  -0.000008
     5  H    0.008975  -0.000241
     6  O    0.119298  -0.022846
     7  O    8.050339   0.246167
     8  H    0.246167   0.349141
 Mulliken charges:
               1
     1  C    0.159899
     2  C   -0.508752
     3  H    0.257623
     4  H    0.217698
     5  H    0.255716
     6  O   -0.423277
     7  O   -0.384288
     8  H    0.425382
 Sum of Mulliken charges =   0.00000
 Mulliken charges with hydrogens summed into heavy atoms:
               1
     1  C    0.417522
     2  C   -0.035338
     6  O   -0.423277
     7  O    0.041093
 Electronic spatial extent (au):  <R**2>=            264.8394
 Charge=              0.0000 electrons
 Dipole moment (field-independent basis, Debye):
    X=             -0.4576    Y=              0.3568    Z=              0.0291  Tot=              0.5810
 Quadrupole moment (field-independent basis, Debye-Ang):
   XX=            -15.9087   YY=            -22.9110   ZZ=            -25.8371
   XY=              1.6749   XZ=              0.0661   YZ=              0.2039
 Traceless Quadrupole moment (field-independent basis, Debye-Ang):
   XX=              5.6435   YY=             -1.3587   ZZ=             -4.2848
   XY=              1.6749   XZ=              0.0661   YZ=              0.2039
 Octapole moment (field-independent basis, Debye-Ang**2):
  XXX=            -24.9057  YYY=              0.4038  ZZZ=              0.7291  XYY=              0.4616
  XXY=             -1.8819  XXZ=              0.0592  XZZ=             -5.5062  YZZ=              0.3265
  YYZ=              0.1408  XYZ=              0.4437
 Hexadecapole moment (field-independent basis, Debye-Ang**3):
 XXXX=           -150.5098 YYYY=            -77.7011 ZZZZ=            -22.4874 XXXY=              7.3554
 XXXZ=              0.8535 YYYX=              5.0988 YYYZ=             -1.5856 ZZZX=              0.9713
 ZZZY=             -2.5641 XXYY=            -47.8669 XXZZ=            -42.8740 YYZZ=            -18.8735
 XXYZ=             -0.3901 YYXZ=              0.4122 ZZXY=              0.9275
 N-N= 1.190330769285D+02 E-N=-7.714630107017D+02  KE= 2.256114186435D+02
 No NMR shielding tensors so no spin-rotation constants.
 Leave Link  601 at Fri Apr 12 17:59:27 2019, MaxMem=   134217728 cpu:         0.2
 (Enter /cm/shared/c3ddb/gaussian/09.d01/g09/l9999.exe)
 1\1\GINC-NODE029\FOpt\RHF\3-21G\C2H4O2\MATTSJ\12-Apr-2019\0\\#p hf 3-2
 1g scf=tight NoSymmetry guess=read opt=(tight,modredundant)\\Geometry 
 optimization at the 2D-PES\\0,1\C,0.7318922747,0.5729955593,0.03060612
 31\C,1.4200939166,-0.5363667887,-0.0553052223\H,1.164779419,1.54970540
 85,0.0999230744\H,2.4896082121,-0.4959431893,-0.0588459324\H,0.9462445
 952,-1.4905787525,-0.1227239864\O,-0.6523015609,0.7125303274,0.0493161
 967\O,-1.2679068582,-0.6117055312,-0.0444928398\H,-2.2012879984,-0.343
 7550335,-0.0190674132\\Version=AS64L-G09RevD.01\HF=-226.3983722\RMSD=3
 .945e-09\RMSF=1.365e-06\Dipole=-0.180042,0.1403856,0.0114324\Quadrupol
 e=4.1958274,-1.0101605,-3.1856669,1.2452818,0.0491337,0.1515852\PG=C01
  [X(C2H4O2)]\\@


 ASKING DUMB QUESTIONS IS EASIER THAN CORECTING DUMB MISTAKES.
 Job cpu time:       0 days  0 hours  0 minutes 16.4 seconds.
 File lengths (MBytes):  RWF=      5 Int=      0 D2E=      0 Chk=      1 Scr=      1
 Normal termination of Gaussian 09 at Fri Apr 12 17:59:27 2019.
