 Entering Gaussian System, Link 0=/cm/shared/c3ddb/gaussian/09.d01/g09/g09
 Initial command:
 /cm/shared/c3ddb/gaussian/09.d01/g09/l1.exe "/scratch/users/mattsj/g09/S02-7952157/Gau-44722.inp" -scrdir="/scratch/users/mattsj/g09/S02-7952157/"
 Entering Link 1 = /cm/shared/c3ddb/gaussian/09.d01/g09/l1.exe PID=     44723.
  
 Copyright (c) 1988,1990,1992,1993,1995,1998,2003,2009,2013,
            Gaussian, Inc.  All Rights Reserved.
  
 This is part of the Gaussian(R) 09 program.  It is based on
 the Gaussian(R) 03 system (copyright 2003, Gaussian, Inc.),
 the Gaussian(R) 98 system (copyright 1998, Gaussian, Inc.),
 the Gaussian(R) 94 system (copyright 1995, Gaussian, Inc.),
 the Gaussian 92(TM) system (copyright 1992, Gaussian, Inc.),
 the Gaussian 90(TM) system (copyright 1990, Gaussian, Inc.),
 the Gaussian 88(TM) system (copyright 1988, Gaussian, Inc.),
 the Gaussian 86(TM) system (copyright 1986, Carnegie Mellon
 University), and the Gaussian 82(TM) system (copyright 1983,
 Carnegie Mellon University). Gaussian is a federally registered
 trademark of Gaussian, Inc.
  
 This software contains proprietary and confidential information,
 including trade secrets, belonging to Gaussian, Inc.
  
 This software is provided under written license and may be
 used, copied, transmitted, or stored only in accord with that
 written license.
  
 The following legend is applicable only to US Government
 contracts under FAR:
  
                    RESTRICTED RIGHTS LEGEND
  
 Use, reproduction and disclosure by the US Government is
 subject to restrictions as set forth in subparagraphs (a)
 and (c) of the Commercial Computer Software - Restricted
 Rights clause in FAR 52.227-19.
  
 Gaussian, Inc.
 340 Quinnipiac St., Bldg. 40, Wallingford CT 06492
  
  
 ---------------------------------------------------------------
 Warning -- This program may not be used in any manner that
 competes with the business of Gaussian, Inc. or will provide
 assistance to any competitor of Gaussian, Inc.  The licensee
 of this program is prohibited from giving any competitor of
 Gaussian, Inc. access to this program.  By using this program,
 the user acknowledges that Gaussian, Inc. is engaged in the
 business of creating and licensing software in the field of
 computational chemistry and represents and warrants to the
 licensee that it is not a competitor of Gaussian, Inc. and that
 it will not use this program in any manner prohibited above.
 ---------------------------------------------------------------
  

 Cite this work as:
 Gaussian 09, Revision D.01,
 M. J. Frisch, G. W. Trucks, H. B. Schlegel, G. E. Scuseria, 
 M. A. Robb, J. R. Cheeseman, G. Scalmani, V. Barone, B. Mennucci, 
 G. A. Petersson, H. Nakatsuji, M. Caricato, X. Li, H. P. Hratchian, 
 A. F. Izmaylov, J. Bloino, G. Zheng, J. L. Sonnenberg, M. Hada, 
 M. Ehara, K. Toyota, R. Fukuda, J. Hasegawa, M. Ishida, T. Nakajima, 
 Y. Honda, O. Kitao, H. Nakai, T. Vreven, J. A. Montgomery, Jr., 
 J. E. Peralta, F. Ogliaro, M. Bearpark, J. J. Heyd, E. Brothers, 
 K. N. Kudin, V. N. Staroverov, T. Keith, R. Kobayashi, J. Normand, 
 K. Raghavachari, A. Rendell, J. C. Burant, S. S. Iyengar, J. Tomasi, 
 M. Cossi, N. Rega, J. M. Millam, M. Klene, J. E. Knox, J. B. Cross, 
 V. Bakken, C. Adamo, J. Jaramillo, R. Gomperts, R. E. Stratmann, 
 O. Yazyev, A. J. Austin, R. Cammi, C. Pomelli, J. W. Ochterski, 
 R. L. Martin, K. Morokuma, V. G. Zakrzewski, G. A. Voth, 
 P. Salvador, J. J. Dannenberg, S. Dapprich, A. D. Daniels, 
 O. Farkas, J. B. Foresman, J. V. Ortiz, J. Cioslowski, 
 and D. J. Fox, Gaussian, Inc., Wallingford CT, 2013.
 
 ******************************************
 Gaussian 09:  AS64L-G09RevD.01 24-Apr-2013
                12-Apr-2019 
 ******************************************
 %nproc=1
 Will use up to    1 processors via shared memory.
 %mem=1GB
 %chk=TMP_CALCS/scangeom_S02_100_080.chk
 --------------------------------------------------------------------
 #p hf 3-21g scf=tight NoSymmetry guess=read opt=(tight,modredundant)
 --------------------------------------------------------------------
 1/7=10,18=120,19=15,38=1/1,3;
 2/9=110,12=2,15=1,17=6,18=5,40=1/2;
 3/5=5,11=9,16=1,25=1,30=1,71=1,116=-2/1,2,3;
 4/5=1/1;
 5/5=2,32=2,38=6/2;
 6/7=2,8=2,9=2,10=2,28=1/1;
 7/30=1/1,2,3,16;
 1/7=10,18=20,19=15/3(2);
 2/9=110,15=1/2;
 99//99;
 2/9=110,15=1/2;
 3/5=5,11=9,16=1,25=1,30=1,71=1/1,2,3;
 4/5=5,16=3,69=1/1;
 5/5=2,32=2,38=5/2;
 7/30=1/1,2,3,16;
 1/7=10,18=20,19=15/3(-5);
 2/9=110,15=1/2;
 6/7=2,8=2,9=2,10=2,19=2,28=1/1;
 99/9=1/99;
 Leave Link    1 at Fri Apr 12 16:32:07 2019, MaxMem=   134217728 cpu:         0.1
 (Enter /cm/shared/c3ddb/gaussian/09.d01/g09/l101.exe)
 -----------------------------------
 Geometry optimization at the 2D-PES
 -----------------------------------
 Symbolic Z-matrix:
 Charge =  0 Multiplicity = 1
 C                     0.73719   0.62549   0.0442 
 C                     1.37856  -0.51269  -0.00121 
 H                     1.21317   1.58293   0.112 
 H                     2.44914  -0.54187   0.00097 
 H                     0.84438  -1.43923  -0.05351 
 O                    -0.67258   0.67163  -0.01783 
 O                    -1.17058   0.83828   1.35637 
 H                    -1.04728   1.79426   1.49821 
 
 The following ModRedundant input section has been read:
 D       2       1       6       7 F                                           
 D       1       6       7       8 F                                           
 
 NAtoms=      8 NQM=        8 NQMF=       0 NMMI=      0 NMMIF=      0
                NMic=       0 NMicF=      0.
                    Isotopes and Nuclear Properties:
 (Nuclear quadrupole moments (NQMom) in fm**2, nuclear magnetic moments (NMagM)
  in nuclear magnetons)

  Atom         1           2           3           4           5           6           7           8
 IAtWgt=          12          12           1           1           1          16          16           1
 AtmWgt=  12.0000000  12.0000000   1.0078250   1.0078250   1.0078250  15.9949146  15.9949146   1.0078250
 NucSpn=           0           0           1           1           1           0           0           1
 AtZEff=   0.0000000   0.0000000   0.0000000   0.0000000   0.0000000   0.0000000   0.0000000   0.0000000
 NQMom=    0.0000000   0.0000000   0.0000000   0.0000000   0.0000000   0.0000000   0.0000000   0.0000000
 NMagM=    0.0000000   0.0000000   2.7928460   2.7928460   2.7928460   0.0000000   0.0000000   2.7928460
 AtZNuc=   6.0000000   6.0000000   1.0000000   1.0000000   1.0000000   8.0000000   8.0000000   1.0000000
 Leave Link  101 at Fri Apr 12 16:32:08 2019, MaxMem=   134217728 cpu:         0.2
 (Enter /cm/shared/c3ddb/gaussian/09.d01/g09/l103.exe)

 GradGradGradGradGradGradGradGradGradGradGradGradGradGradGradGradGradGrad
 Berny optimization.
 Initialization pass.
                           ----------------------------
                           !    Initial Parameters    !
                           ! (Angstroms and Degrees)  !
 --------------------------                            --------------------------
 ! Name  Definition              Value          Derivative Info.                !
 --------------------------------------------------------------------------------
 ! R1    R(1,2)                  1.3072         estimate D2E/DX2                !
 ! R2    R(1,3)                  1.0714         estimate D2E/DX2                !
 ! R3    R(1,6)                  1.4119         estimate D2E/DX2                !
 ! R4    R(2,4)                  1.071          estimate D2E/DX2                !
 ! R5    R(2,5)                  1.0708         estimate D2E/DX2                !
 ! R6    R(6,7)                  1.4711         estimate D2E/DX2                !
 ! R7    R(7,8)                  0.9743         estimate D2E/DX2                !
 ! A1    A(2,1,3)              124.2155         estimate D2E/DX2                !
 ! A2    A(2,1,6)              121.1193         estimate D2E/DX2                !
 ! A3    A(3,1,6)              114.6567         estimate D2E/DX2                !
 ! A4    A(1,2,4)              120.9378         estimate D2E/DX2                !
 ! A5    A(1,2,5)              120.6856         estimate D2E/DX2                !
 ! A6    A(4,2,5)              118.3725         estimate D2E/DX2                !
 ! A7    A(1,6,7)              107.4977         estimate D2E/DX2                !
 ! A8    A(6,7,8)              101.7893         estimate D2E/DX2                !
 ! D1    D(3,1,2,4)             -1.7042         estimate D2E/DX2                !
 ! D2    D(3,1,2,5)            179.0401         estimate D2E/DX2                !
 ! D3    D(6,1,2,4)            177.182          estimate D2E/DX2                !
 ! D4    D(6,1,2,5)             -2.0738         estimate D2E/DX2                !
 ! D5    D(2,1,6,7)             99.9999         Frozen                          !
 ! D6    D(3,1,6,7)            -81.0135         estimate D2E/DX2                !
 ! D7    D(1,6,7,8)             80.0            Frozen                          !
 --------------------------------------------------------------------------------
 Trust Radius=3.00D-01 FncErr=1.00D-07 GrdErr=1.00D-07
 Number of steps in this run=     32 maximum allowed number of steps=    100.
 GradGradGradGradGradGradGradGradGradGradGradGradGradGradGradGradGradGrad

 Leave Link  103 at Fri Apr 12 16:32:08 2019, MaxMem=   134217728 cpu:         0.0
 (Enter /cm/shared/c3ddb/gaussian/09.d01/g09/l202.exe)
                          Input orientation:                          
 ---------------------------------------------------------------------
 Center     Atomic      Atomic             Coordinates (Angstroms)
 Number     Number       Type             X           Y           Z
 ---------------------------------------------------------------------
      1          6           0        0.737190    0.625494    0.044203
      2          6           0        1.378564   -0.512685   -0.001214
      3          1           0        1.213169    1.582933    0.112003
      4          1           0        2.449144   -0.541873    0.000969
      5          1           0        0.844380   -1.439233   -0.053512
      6          8           0       -0.672584    0.671632   -0.017827
      7          8           0       -1.170576    0.838283    1.356366
      8          1           0       -1.047284    1.794259    1.498209
 ---------------------------------------------------------------------
                    Distance matrix (angstroms):
                    1          2          3          4          5
     1  C    0.000000
     2  C    1.307239   0.000000
     3  H    1.071374   2.105181   0.000000
     4  H    2.072535   1.070980   2.460643   0.000000
     5  H    2.069815   1.070784   3.049080   1.839427   0.000000
     6  O    1.411892   2.368563   2.098426   3.349348   2.599655
     7  O    2.325214   3.188456   2.790194   4.104181   3.351848
     8  H    2.581568   3.668106   2.660051   4.463659   4.054837
                    6          7          8
     6  O    0.000000
     7  O    1.471114   0.000000
     8  H    1.923293   0.974274   0.000000
 Symmetry turned off by external request.
 Stoichiometry    C2H4O2
 Framework group  C1[X(C2H4O2)]
 Deg. of freedom    18
 Full point group                 C1      NOp   1
 Rotational constants (GHZ):     25.0695212      5.0105518      4.8370101
 Leave Link  202 at Fri Apr 12 16:32:08 2019, MaxMem=   134217728 cpu:         0.0
 (Enter /cm/shared/c3ddb/gaussian/09.d01/g09/l301.exe)
 Standard basis: 3-21G (6D, 7F)
 Ernie: Thresh=  0.10000D-02 Tol=  0.10000D-05 Strict=F.
    44 basis functions,    72 primitive gaussians,    44 cartesian basis functions
    16 alpha electrons       16 beta electrons
       nuclear repulsion energy       117.1545123796 Hartrees.
 IExCor=    0 DFT=F Ex=HF Corr=None ExCW=0 ScaHFX=  1.000000
 ScaDFX=  1.000000  1.000000  1.000000  1.000000 ScalE2=  1.000000  1.000000
 IRadAn=      0 IRanWt=     -1 IRanGd=            0 ICorTp=0 IEmpDi=  4
 NAtoms=    8 NActive=    8 NUniq=    8 SFac= 1.00D+00 NAtFMM=   60 NAOKFM=F Big=F
 Integral buffers will be    131072 words long.
 Raffenetti 1 integral format.
 Two-electron integral symmetry is turned off.
 Leave Link  301 at Fri Apr 12 16:32:08 2019, MaxMem=   134217728 cpu:         0.1
 (Enter /cm/shared/c3ddb/gaussian/09.d01/g09/l302.exe)
 NPDir=0 NMtPBC=     1 NCelOv=     1 NCel=       1 NClECP=     1 NCelD=      1
         NCelK=      1 NCelE2=     1 NClLst=     1 CellRange=     0.0.
 One-electron integrals computed using PRISM.
 NBasis=    44 RedAO= T EigKep=  1.18D-02  NBF=    44
 NBsUse=    44 1.00D-06 EigRej= -1.00D+00 NBFU=    44
 Leave Link  302 at Fri Apr 12 16:32:08 2019, MaxMem=   134217728 cpu:         0.2
 (Enter /cm/shared/c3ddb/gaussian/09.d01/g09/l303.exe)
 DipDrv:  MaxL=1.
 Leave Link  303 at Fri Apr 12 16:32:08 2019, MaxMem=   134217728 cpu:         0.1
 (Enter /cm/shared/c3ddb/gaussian/09.d01/g09/l401.exe)
 Initial guess from the checkpoint file:  "TMP_CALCS/scangeom_S02_100_080.chk"
 B after Tr=     0.003457    0.002629    0.000095
         Rot=    0.999994   -0.002118   -0.001357    0.002219 Ang=  -0.38 deg.
 Guess basis will be translated and rotated to current coordinates.
 JPrj=2 DoOrth=T DoCkMO=T.
 Leave Link  401 at Fri Apr 12 16:32:09 2019, MaxMem=   134217728 cpu:         0.3
 (Enter /cm/shared/c3ddb/gaussian/09.d01/g09/l502.exe)
 Closed shell SCF:
 Using DIIS extrapolation, IDIIS=  1040.
 Two-electron integral symmetry not used.
 Keep R1 ints in memory in canonical form, NReq=1327346.
 IVT=       24902 IEndB=       24902 NGot=   134217728 MDV=   133702282
 LenX=   133702282 LenY=   133699905
 Requested convergence on RMS density matrix=1.00D-08 within 128 cycles.
 Requested convergence on MAX density matrix=1.00D-06.
 Requested convergence on             energy=1.00D-06.
 No special actions if energy rises.
 FoFCou: FMM=F IPFlag=           0 FMFlag=           0 FMFlg1=           0
         NFxFlg=           0 DoJE=F BraDBF=F KetDBF=F FulRan=T
         wScrn=  0.000000 ICntrl=     600 IOpCl=  0 I1Cent=           0 NGrid=           0
         NMat0=    1 NMatS0=    990 NMatT0=    0 NMatD0=    1 NMtDS0=    0 NMtDT0=    0
 Symmetry not used in FoFCou.

 Cycle   1  Pass 1  IDiag  1:
 E= -226.385454755268    
 DIIS: error= 7.73D-03 at cycle   1 NSaved=   1.
 NSaved= 1 IEnMin= 1 EnMin= -226.385454755268     IErMin= 1 ErrMin= 7.73D-03
 ErrMax= 7.73D-03  0.00D+00 EMaxC= 1.00D-01 BMatC= 1.94D-03 BMatP= 1.94D-03
 IDIUse=3 WtCom= 9.23D-01 WtEn= 7.73D-02
 Coeff-Com:  0.100D+01
 Coeff-En:   0.100D+01
 Coeff:      0.100D+01
 Gap=     0.540 Goal=   None    Shift=    0.000
 GapD=    0.540 DampG=2.000 DampE=1.000 DampFc=2.0000 IDamp=-1.
 RMSDP=1.12D-03 MaxDP=1.67D-02              OVMax= 1.29D-02

 Cycle   2  Pass 1  IDiag  1:
 E= -226.388441688269     Delta-E=       -0.002986933000 Rises=F Damp=F
 DIIS: error= 3.36D-03 at cycle   2 NSaved=   2.
 NSaved= 2 IEnMin= 2 EnMin= -226.388441688269     IErMin= 2 ErrMin= 3.36D-03
 ErrMax= 3.36D-03  0.00D+00 EMaxC= 1.00D-01 BMatC= 1.88D-04 BMatP= 1.94D-03
 IDIUse=3 WtCom= 9.66D-01 WtEn= 3.36D-02
 Coeff-Com: -0.322D+00 0.132D+01
 Coeff-En:   0.000D+00 0.100D+01
 Coeff:     -0.311D+00 0.131D+01
 Gap=     0.540 Goal=   None    Shift=    0.000
 RMSDP=5.80D-04 MaxDP=6.22D-03 DE=-2.99D-03 OVMax= 9.34D-03

 Cycle   3  Pass 1  IDiag  1:
 E= -226.388931042583     Delta-E=       -0.000489354314 Rises=F Damp=F
 DIIS: error= 1.12D-03 at cycle   3 NSaved=   3.
 NSaved= 3 IEnMin= 3 EnMin= -226.388931042583     IErMin= 3 ErrMin= 1.12D-03
 ErrMax= 1.12D-03  0.00D+00 EMaxC= 1.00D-01 BMatC= 1.82D-05 BMatP= 1.88D-04
 IDIUse=3 WtCom= 9.89D-01 WtEn= 1.12D-02
 Coeff-Com:  0.123D-01-0.201D+00 0.119D+01
 Coeff-En:   0.000D+00 0.000D+00 0.100D+01
 Coeff:      0.122D-01-0.199D+00 0.119D+01
 Gap=     0.540 Goal=   None    Shift=    0.000
 RMSDP=2.14D-04 MaxDP=3.42D-03 DE=-4.89D-04 OVMax= 3.64D-03

 Cycle   4  Pass 1  IDiag  1:
 E= -226.388985433821     Delta-E=       -0.000054391237 Rises=F Damp=F
 DIIS: error= 3.28D-04 at cycle   4 NSaved=   4.
 NSaved= 4 IEnMin= 4 EnMin= -226.388985433821     IErMin= 4 ErrMin= 3.28D-04
 ErrMax= 3.28D-04  0.00D+00 EMaxC= 1.00D-01 BMatC= 4.16D-06 BMatP= 1.82D-05
 IDIUse=3 WtCom= 9.97D-01 WtEn= 3.28D-03
 Coeff-Com:  0.753D-01-0.342D+00 0.246D+00 0.102D+01
 Coeff-En:   0.000D+00 0.000D+00 0.000D+00 0.100D+01
 Coeff:      0.751D-01-0.341D+00 0.245D+00 0.102D+01
 Gap=     0.540 Goal=   None    Shift=    0.000
 RMSDP=1.13D-04 MaxDP=1.82D-03 DE=-5.44D-05 OVMax= 1.85D-03

 Cycle   5  Pass 1  IDiag  1:
 E= -226.388995317085     Delta-E=       -0.000009883264 Rises=F Damp=F
 DIIS: error= 5.55D-05 at cycle   5 NSaved=   5.
 NSaved= 5 IEnMin= 5 EnMin= -226.388995317085     IErMin= 5 ErrMin= 5.55D-05
 ErrMax= 5.55D-05  0.00D+00 EMaxC= 1.00D-01 BMatC= 1.87D-07 BMatP= 4.16D-06
 IDIUse=1 WtCom= 1.00D+00 WtEn= 0.00D+00
 Coeff-Com:  0.927D-02-0.317D-01-0.553D-01 0.156D+00 0.921D+00
 Coeff:      0.927D-02-0.317D-01-0.553D-01 0.156D+00 0.921D+00
 Gap=     0.540 Goal=   None    Shift=    0.000
 RMSDP=1.79D-05 MaxDP=2.65D-04 DE=-9.88D-06 OVMax= 2.78D-04

 Cycle   6  Pass 1  IDiag  1:
 E= -226.388995612695     Delta-E=       -0.000000295610 Rises=F Damp=F
 DIIS: error= 1.60D-05 at cycle   6 NSaved=   6.
 NSaved= 6 IEnMin= 6 EnMin= -226.388995612695     IErMin= 6 ErrMin= 1.60D-05
 ErrMax= 1.60D-05  0.00D+00 EMaxC= 1.00D-01 BMatC= 2.33D-08 BMatP= 1.87D-07
 IDIUse=1 WtCom= 1.00D+00 WtEn= 0.00D+00
 Coeff-Com: -0.416D-02 0.220D-01-0.386D-01-0.445D-01 0.251D+00 0.814D+00
 Coeff:     -0.416D-02 0.220D-01-0.386D-01-0.445D-01 0.251D+00 0.814D+00
 Gap=     0.540 Goal=   None    Shift=    0.000
 RMSDP=4.32D-06 MaxDP=3.37D-05 DE=-2.96D-07 OVMax= 6.14D-05

 Cycle   7  Pass 1  IDiag  1:
 E= -226.388995644408     Delta-E=       -0.000000031713 Rises=F Damp=F
 DIIS: error= 1.01D-05 at cycle   7 NSaved=   7.
 NSaved= 7 IEnMin= 7 EnMin= -226.388995644408     IErMin= 7 ErrMin= 1.01D-05
 ErrMax= 1.01D-05  0.00D+00 EMaxC= 1.00D-01 BMatC= 2.22D-09 BMatP= 2.33D-08
 IDIUse=1 WtCom= 1.00D+00 WtEn= 0.00D+00
 Coeff-Com:  0.130D-02-0.831D-02 0.225D-01 0.111D-01-0.199D+00-0.435D+00
 Coeff-Com:  0.161D+01
 Coeff:      0.130D-02-0.831D-02 0.225D-01 0.111D-01-0.199D+00-0.435D+00
 Coeff:      0.161D+01
 Gap=     0.540 Goal=   None    Shift=    0.000
 RMSDP=3.09D-06 MaxDP=2.87D-05 DE=-3.17D-08 OVMax= 6.02D-05

 Cycle   8  Pass 1  IDiag  1:
 E= -226.388995654922     Delta-E=       -0.000000010514 Rises=F Damp=F
 DIIS: error= 4.13D-06 at cycle   8 NSaved=   8.
 NSaved= 8 IEnMin= 8 EnMin= -226.388995654922     IErMin= 8 ErrMin= 4.13D-06
 ErrMax= 4.13D-06  0.00D+00 EMaxC= 1.00D-01 BMatC= 3.29D-10 BMatP= 2.22D-09
 IDIUse=1 WtCom= 1.00D+00 WtEn= 0.00D+00
 Coeff-Com:  0.572D-03-0.305D-02 0.567D-02 0.616D-02-0.387D-01-0.124D+00
 Coeff-Com:  0.351D-01 0.112D+01
 Coeff:      0.572D-03-0.305D-02 0.567D-02 0.616D-02-0.387D-01-0.124D+00
 Coeff:      0.351D-01 0.112D+01
 Gap=     0.540 Goal=   None    Shift=    0.000
 RMSDP=1.17D-06 MaxDP=1.14D-05 DE=-1.05D-08 OVMax= 2.38D-05

 Cycle   9  Pass 1  IDiag  1:
 E= -226.388995656435     Delta-E=       -0.000000001513 Rises=F Damp=F
 DIIS: error= 1.75D-06 at cycle   9 NSaved=   9.
 NSaved= 9 IEnMin= 9 EnMin= -226.388995656435     IErMin= 9 ErrMin= 1.75D-06
 ErrMax= 1.75D-06  0.00D+00 EMaxC= 1.00D-01 BMatC= 6.42D-11 BMatP= 3.29D-10
 IDIUse=1 WtCom= 1.00D+00 WtEn= 0.00D+00
 Coeff-Com: -0.271D-03 0.175D-02-0.458D-02-0.275D-02 0.431D-01 0.920D-01
 Coeff-Com: -0.372D+00 0.477D-01 0.120D+01
 Coeff:     -0.271D-03 0.175D-02-0.458D-02-0.275D-02 0.431D-01 0.920D-01
 Coeff:     -0.372D+00 0.477D-01 0.120D+01
 Gap=     0.540 Goal=   None    Shift=    0.000
 RMSDP=6.30D-07 MaxDP=5.87D-06 DE=-1.51D-09 OVMax= 1.28D-05

 Cycle  10  Pass 1  IDiag  1:
 E= -226.388995656727     Delta-E=       -0.000000000292 Rises=F Damp=F
 DIIS: error= 3.93D-07 at cycle  10 NSaved=  10.
 NSaved=10 IEnMin=10 EnMin= -226.388995656727     IErMin=10 ErrMin= 3.93D-07
 ErrMax= 3.93D-07  0.00D+00 EMaxC= 1.00D-01 BMatC= 5.31D-12 BMatP= 6.42D-11
 IDIUse=1 WtCom= 1.00D+00 WtEn= 0.00D+00
 Coeff-Com: -0.119D-04 0.210D-04 0.280D-03-0.561D-03-0.243D-02-0.125D-02
 Coeff-Com:  0.523D-01-0.123D+00-0.163D+00 0.124D+01
 Coeff:     -0.119D-04 0.210D-04 0.280D-03-0.561D-03-0.243D-02-0.125D-02
 Coeff:      0.523D-01-0.123D+00-0.163D+00 0.124D+01
 Gap=     0.540 Goal=   None    Shift=    0.000
 RMSDP=1.51D-07 MaxDP=9.94D-07 DE=-2.92D-10 OVMax= 2.95D-06

 Cycle  11  Pass 1  IDiag  1:
 E= -226.388995656746     Delta-E=       -0.000000000019 Rises=F Damp=F
 DIIS: error= 8.57D-08 at cycle  11 NSaved=  11.
 NSaved=11 IEnMin=11 EnMin= -226.388995656746     IErMin=11 ErrMin= 8.57D-08
 ErrMax= 8.57D-08  0.00D+00 EMaxC= 1.00D-01 BMatC= 4.98D-13 BMatP= 5.31D-12
 IDIUse=1 WtCom= 1.00D+00 WtEn= 0.00D+00
 Coeff-Com:  0.341D-04-0.222D-03 0.603D-03 0.255D-03-0.527D-02-0.121D-01
 Coeff-Com:  0.483D-01-0.718D-02-0.148D+00 0.441D-01 0.108D+01
 Coeff:      0.341D-04-0.222D-03 0.603D-03 0.255D-03-0.527D-02-0.121D-01
 Coeff:      0.483D-01-0.718D-02-0.148D+00 0.441D-01 0.108D+01
 Gap=     0.540 Goal=   None    Shift=    0.000
 RMSDP=3.31D-08 MaxDP=2.45D-07 DE=-1.87D-11 OVMax= 5.35D-07

 Cycle  12  Pass 1  IDiag  1:
 E= -226.388995656748     Delta-E=       -0.000000000002 Rises=F Damp=F
 DIIS: error= 2.25D-08 at cycle  12 NSaved=  12.
 NSaved=12 IEnMin=12 EnMin= -226.388995656748     IErMin=12 ErrMin= 2.25D-08
 ErrMax= 2.25D-08  0.00D+00 EMaxC= 1.00D-01 BMatC= 3.33D-14 BMatP= 4.98D-13
 IDIUse=1 WtCom= 1.00D+00 WtEn= 0.00D+00
 Coeff-Com: -0.105D-04 0.696D-04-0.203D-03-0.595D-04 0.185D-02 0.356D-02
 Coeff-Com: -0.184D-01 0.108D-01 0.590D-01-0.106D+00-0.325D+00 0.137D+01
 Coeff:     -0.105D-04 0.696D-04-0.203D-03-0.595D-04 0.185D-02 0.356D-02
 Coeff:     -0.184D-01 0.108D-01 0.590D-01-0.106D+00-0.325D+00 0.137D+01
 Gap=     0.540 Goal=   None    Shift=    0.000
 RMSDP=9.74D-09 MaxDP=7.36D-08 DE=-1.65D-12 OVMax= 1.51D-07

 SCF Done:  E(RHF) =  -226.388995657     A.U. after   12 cycles
            NFock= 12  Conv=0.97D-08     -V/T= 2.0034
 KE= 2.256216693281D+02 PE=-7.676870447181D+02 EE= 1.985218673536D+02
 Leave Link  502 at Fri Apr 12 16:32:09 2019, MaxMem=   134217728 cpu:         0.2
 (Enter /cm/shared/c3ddb/gaussian/09.d01/g09/l601.exe)
 Copying SCF densities to generalized density rwf, IOpCl= 0 IROHF=0.

 **********************************************************************

            Population analysis using the SCF density.

 **********************************************************************

 Alpha  occ. eigenvalues --  -20.52797 -20.52026 -11.24126 -11.18256  -1.46763
 Alpha  occ. eigenvalues --   -1.23121  -1.03701  -0.80409  -0.69488  -0.68775
 Alpha  occ. eigenvalues --   -0.63216  -0.58020  -0.56614  -0.48024  -0.46908
 Alpha  occ. eigenvalues --   -0.38839
 Alpha virt. eigenvalues --    0.15135   0.26041   0.27934   0.30691   0.32423
 Alpha virt. eigenvalues --    0.35734   0.49309   0.56265   0.88353   0.96857
 Alpha virt. eigenvalues --    0.98459   1.06233   1.09717   1.11253   1.25557
 Alpha virt. eigenvalues --    1.31609   1.36318   1.56997   1.59568   1.76116
 Alpha virt. eigenvalues --    1.82069   1.85418   1.99157   2.05044   2.08879
 Alpha virt. eigenvalues --    2.17155   3.10881   3.45870
          Condensed to atoms (all electrons):
               1          2          3          4          5          6
     1  C    4.912710   0.488494   0.375589  -0.040329  -0.049226   0.241295
     2  C    0.488494   5.325610  -0.066081   0.370187   0.386543  -0.058622
     3  H    0.375589  -0.066081   0.501345   0.001356   0.002335  -0.040964
     4  H   -0.040329   0.370187   0.001356   0.454000  -0.014851   0.001518
     5  H   -0.049226   0.386543   0.002335  -0.014851   0.420388  -0.000869
     6  O    0.241295  -0.058622  -0.040964   0.001518  -0.000869   8.155156
     7  O   -0.036997   0.000052   0.000697  -0.000033   0.000191   0.120977
     8  H   -0.001717   0.000047   0.001668   0.000007   0.000014  -0.025530
               7          8
     1  C   -0.036997  -0.001717
     2  C    0.000052   0.000047
     3  H    0.000697   0.001668
     4  H   -0.000033   0.000007
     5  H    0.000191   0.000014
     6  O    0.120977  -0.025530
     7  O    8.055456   0.237548
     8  H    0.237548   0.388743
 Mulliken charges:
               1
     1  C    0.110182
     2  C   -0.446229
     3  H    0.224055
     4  H    0.228147
     5  H    0.255474
     6  O   -0.392961
     7  O   -0.377890
     8  H    0.399222
 Sum of Mulliken charges =   0.00000
 Mulliken charges with hydrogens summed into heavy atoms:
               1
     1  C    0.334237
     2  C    0.037392
     6  O   -0.392961
     7  O    0.021332
 Electronic spatial extent (au):  <R**2>=            322.5097
 Charge=              0.0000 electrons
 Dipole moment (field-independent basis, Debye):
    X=              2.3027    Y=              1.5894    Z=              0.5352  Tot=              2.8487
 Quadrupole moment (field-independent basis, Debye-Ang):
   XX=            -23.5080   YY=            -16.7566   ZZ=            -24.8215
   XY=             -0.9867   XZ=             -0.0637   YZ=              3.6853
 Traceless Quadrupole moment (field-independent basis, Debye-Ang):
   XX=             -1.8126   YY=              4.9387   ZZ=             -3.1261
   XY=             -0.9867   XZ=             -0.0637   YZ=              3.6853
 Octapole moment (field-independent basis, Debye-Ang**2):
  XXX=             -3.9473  YYY=            -16.7459  ZZZ=            -23.3655  XYY=             -6.7579
  XXY=             -8.5480  XXZ=             -8.7261  XZZ=             -6.1372  YZZ=             -3.8414
  YYZ=              0.3356  XYZ=             -3.0906
 Hexadecapole moment (field-independent basis, Debye-Ang**3):
 XXXX=           -178.5652 YYYY=            -78.2469 ZZZZ=            -82.7320 XXXY=             28.1579
 XXXZ=             28.8577 YYYX=             21.9573 YYYZ=             -5.4656 ZZZX=             25.1546
 ZZZY=            -14.0075 XXYY=            -42.4595 XXZZ=            -49.7285 YYZZ=            -19.8389
 XXYZ=             -4.3969 YYXZ=              0.5923 ZZXY=              5.1791
 N-N= 1.171545123796D+02 E-N=-7.676870443255D+02  KE= 2.256216693281D+02
 No NMR shielding tensors so no spin-rotation constants.
 Leave Link  601 at Fri Apr 12 16:32:09 2019, MaxMem=   134217728 cpu:         0.2
 (Enter /cm/shared/c3ddb/gaussian/09.d01/g09/l701.exe)
 Compute integral first derivatives.
 ... and contract with generalized density number  0.
 Leave Link  701 at Fri Apr 12 16:32:10 2019, MaxMem=   134217728 cpu:         0.1
 (Enter /cm/shared/c3ddb/gaussian/09.d01/g09/l702.exe)
 L702 exits ... SP integral derivatives will be done elsewhere.
 Leave Link  702 at Fri Apr 12 16:32:10 2019, MaxMem=   134217728 cpu:         0.1
 (Enter /cm/shared/c3ddb/gaussian/09.d01/g09/l703.exe)
 Compute integral first derivatives, UseDBF=F ICtDFT=           0.
 Integral derivatives from FoFJK, PRISM(SPDF).
 Calling FoFJK, ICntrl=      2127 FMM=F ISym2X=0 I1Cent= 0 IOpClX= 0 NMat=1 NMatS=1 NMatT=0.
 FoFJK:  IHMeth= 1 ICntrl=    2127 DoSepK=F KAlg= 0 I1Cent=   0 FoldK=F
 IRaf=         0 NMat=   1 IRICut=       1 DoRegI=T DoRafI=F ISym2E= 0.
 FoFCou: FMM=F IPFlag=           0 FMFlag=      100000 FMFlg1=         800
         NFxFlg=           0 DoJE=F BraDBF=F KetDBF=F FulRan=T
         wScrn=  0.000000 ICntrl=    2127 IOpCl=  0 I1Cent=           0 NGrid=           0
         NMat0=    1 NMatS0=      1 NMatT0=    0 NMatD0=    1 NMtDS0=    0 NMtDT0=    0
 Symmetry not used in FoFCou.
 Leave Link  703 at Fri Apr 12 16:32:10 2019, MaxMem=   134217728 cpu:         0.2
 (Enter /cm/shared/c3ddb/gaussian/09.d01/g09/l716.exe)
 Dipole        = 9.05968850D-01 6.25322782D-01 2.10569930D-01
 -------------------------------------------------------------------
 Center     Atomic                   Forces (Hartrees/Bohr)
 Number     Number              X              Y              Z
 -------------------------------------------------------------------
      1        6          -0.000133094   -0.003372544    0.002276702
      2        6           0.000407490    0.000236357   -0.001700017
      3        1           0.000174845    0.000249283   -0.000218987
      4        1           0.000040670   -0.000050433    0.000064972
      5        1          -0.000040227    0.000047962   -0.000084219
      6        8          -0.000133532    0.001673398   -0.001054803
      7        8           0.003887871    0.000107423    0.001003391
      8        1          -0.004204023    0.001108555   -0.000287039
 -------------------------------------------------------------------
 Cartesian Forces:  Max     0.004204023 RMS     0.001566536
 Leave Link  716 at Fri Apr 12 16:32:10 2019, MaxMem=   134217728 cpu:         0.1
 (Enter /cm/shared/c3ddb/gaussian/09.d01/g09/l103.exe)

 GradGradGradGradGradGradGradGradGradGradGradGradGradGradGradGradGradGrad
 Berny optimization.
 FormGI is forming the generalized inverse of G from B-inverse, IUseBI=4.
 Internal  Forces:  Max     0.007491657 RMS     0.001848657
 Search for a local minimum.
 Step number   1 out of a maximum of   32
 All quantities printed in internal units (Hartrees-Bohrs-Radians)
 RMS Force = .74100D-03 SwitMx=.10000D-02 MixMth= 2
 Mixed Optimization -- En-DIIS/RFO-DIIS
 Second derivative matrix not updated -- first step.
 ITU=  0
     Eigenvalues ---    0.02510   0.03316   0.03316   0.15998   0.16000
     Eigenvalues ---    0.16000   0.16000   0.22000   0.25000   0.35607
     Eigenvalues ---    0.37057   0.37107   0.37131   0.43705   0.52513
     Eigenvalues ---    0.652221000.000001000.000001000.000001000.00000
     Eigenvalues --- 1000.000001000.00000
 RFO step:  Lambda=-5.47295007D-05 EMin= 2.50964663D-02
 Linear search not attempted -- first point.
 Iteration  1 RMS(Cart)=  0.00885964 RMS(Int)=  0.00004690
 Iteration  2 RMS(Cart)=  0.00004538 RMS(Int)=  0.00000160
 Iteration  3 RMS(Cart)=  0.00000000 RMS(Int)=  0.00000160
 Iteration  1 RMS(Cart)=  0.00000029 RMS(Int)=  0.00000012
 ITry= 1 IFail=0 DXMaxC= 2.26D-02 DCOld= 1.00D+10 DXMaxT= 3.00D-01 DXLimC= 3.00D+00 Rises=F
 Variable       Old X    -DE/DX   Delta X   Delta X   Delta X     New X
                                 (Linear)    (Quad)   (Total)
    R1        2.47032   0.00006   0.00000   0.00009   0.00009   2.47041
    R2        2.02460   0.00029   0.00000   0.00077   0.00077   2.02538
    R3        2.66809   0.00056   0.00000   0.00128   0.00128   2.66937
    R4        2.02386   0.00004   0.00000   0.00011   0.00011   2.02397
    R5        2.02349  -0.00002   0.00000  -0.00005  -0.00005   2.02344
    R6        2.78000   0.00091   0.00000   0.00257   0.00257   2.78257
    R7        1.84111   0.00051   0.00000   0.00098   0.00098   1.84209
    A1        2.16797  -0.00026   0.00000  -0.00122  -0.00123   2.16674
    A2        2.11393   0.00040   0.00000   0.00180   0.00179   2.11572
    A3        2.00114  -0.00015   0.00000  -0.00066  -0.00066   2.00047
    A4        2.11076   0.00010   0.00000   0.00063   0.00063   2.11140
    A5        2.10636  -0.00011   0.00000  -0.00069  -0.00069   2.10568
    A6        2.06599   0.00001   0.00000   0.00005   0.00005   2.06604
    A7        1.87619   0.00207   0.00000   0.00827   0.00827   1.88446
    A8        1.77656   0.00221   0.00000   0.01381   0.01381   1.79037
    D1       -0.02974   0.00070   0.00000   0.00461   0.00461  -0.02513
    D2        3.12484   0.00071   0.00000   0.00512   0.00511   3.12995
    D3        3.09241  -0.00058   0.00000  -0.00112  -0.00112   3.09129
    D4       -0.03619  -0.00057   0.00000  -0.00062  -0.00062  -0.03681
    D5        1.74533   0.00229   0.00000   0.00000   0.00000   1.74533
    D6       -1.41395   0.00112   0.00000  -0.00522  -0.00523  -1.41918
    D7        1.39626   0.00749   0.00000   0.00000   0.00000   1.39626
         Item               Value     Threshold  Converged?
 Maximum Force            0.002211     0.000015     NO 
 RMS     Force            0.000741     0.000010     NO 
 Maximum Displacement     0.022600     0.000060     NO 
 RMS     Displacement     0.008865     0.000040     NO 
 Predicted change in Energy=-2.737297D-05
 Lowest energy point so far.  Saving SCF results.
 GradGradGradGradGradGradGradGradGradGradGradGradGradGradGradGradGradGrad

 Leave Link  103 at Fri Apr 12 16:32:10 2019, MaxMem=   134217728 cpu:         0.0
 (Enter /cm/shared/c3ddb/gaussian/09.d01/g09/l202.exe)
                          Input orientation:                          
 ---------------------------------------------------------------------
 Center     Atomic      Atomic             Coordinates (Angstroms)
 Number     Number       Type             X           Y           Z
 ---------------------------------------------------------------------
      1          6           0        0.740568    0.624175    0.043474
      2          6           0        1.381465   -0.514322   -0.002026
      3          1           0        1.218488    1.581515    0.105206
      4          1           0        2.452078   -0.544572   -0.002029
      5          1           0        0.846227   -1.440325   -0.052681
      6          8           0       -0.669849    0.673386   -0.016929
      7          8           0       -1.177731    0.841897    1.354870
      8          1           0       -1.059243    1.797056    1.509313
 ---------------------------------------------------------------------
                    Distance matrix (angstroms):
                    1          2          3          4          5
     1  C    0.000000
     2  C    1.307285   0.000000
     3  H    1.071783   2.104898   0.000000
     4  H    2.072994   1.071040   2.460384   0.000000
     5  H    2.069437   1.070760   3.048774   1.839482   0.000000
     6  O    1.412568   2.370393   2.098913   3.351130   2.601449
     7  O    2.333888   3.198434   2.801885   4.115699   3.359486
     8  H    2.600703   3.685603   2.684406   4.482940   4.068326
                    6          7          8
     6  O    0.000000
     7  O    1.472472   0.000000
     8  H    1.934859   0.974792   0.000000
 Symmetry turned off by external request.
 Stoichiometry    C2H4O2
 Framework group  C1[X(C2H4O2)]
 Deg. of freedom    18
 Full point group                 C1      NOp   1
 Rotational constants (GHZ):     25.1819125      4.9827332      4.8116139
 Leave Link  202 at Fri Apr 12 16:32:10 2019, MaxMem=   134217728 cpu:         0.0
 (Enter /cm/shared/c3ddb/gaussian/09.d01/g09/l301.exe)
 Standard basis: 3-21G (6D, 7F)
 Ernie: Thresh=  0.10000D-02 Tol=  0.10000D-05 Strict=F.
    44 basis functions,    72 primitive gaussians,    44 cartesian basis functions
    16 alpha electrons       16 beta electrons
       nuclear repulsion energy       117.0036575031 Hartrees.
 IExCor=    0 DFT=F Ex=HF Corr=None ExCW=0 ScaHFX=  1.000000
 ScaDFX=  1.000000  1.000000  1.000000  1.000000 ScalE2=  1.000000  1.000000
 IRadAn=      0 IRanWt=     -1 IRanGd=            0 ICorTp=0 IEmpDi=  4
 NAtoms=    8 NActive=    8 NUniq=    8 SFac= 1.00D+00 NAtFMM=   60 NAOKFM=F Big=F
 Integral buffers will be    131072 words long.
 Raffenetti 1 integral format.
 Two-electron integral symmetry is turned off.
 Leave Link  301 at Fri Apr 12 16:32:10 2019, MaxMem=   134217728 cpu:         0.1
 (Enter /cm/shared/c3ddb/gaussian/09.d01/g09/l302.exe)
 NPDir=0 NMtPBC=     1 NCelOv=     1 NCel=       1 NClECP=     1 NCelD=      1
         NCelK=      1 NCelE2=     1 NClLst=     1 CellRange=     0.0.
 One-electron integrals computed using PRISM.
 NBasis=    44 RedAO= T EigKep=  1.18D-02  NBF=    44
 NBsUse=    44 1.00D-06 EigRej= -1.00D+00 NBFU=    44
 Leave Link  302 at Fri Apr 12 16:32:10 2019, MaxMem=   134217728 cpu:         0.2
 (Enter /cm/shared/c3ddb/gaussian/09.d01/g09/l303.exe)
 DipDrv:  MaxL=1.
 Leave Link  303 at Fri Apr 12 16:32:11 2019, MaxMem=   134217728 cpu:         0.1
 (Enter /cm/shared/c3ddb/gaussian/09.d01/g09/l401.exe)
 Initial guess from the checkpoint file:  "TMP_CALCS/scangeom_S02_100_080.chk"
 B after Tr=     0.000493    0.001822   -0.001292
         Rot=    1.000000   -0.000272    0.000815    0.000443 Ang=  -0.11 deg.
 Guess basis will be translated and rotated to current coordinates.
 JPrj=2 DoOrth=T DoCkMO=T.
 Generating alternative initial guess.
 ExpMin= 1.83D-01 ExpMax= 3.22D+02 ExpMxC= 3.22D+02 IAcc=1 IRadAn=         1 AccDes= 0.00D+00
 Harris functional with IExCor=  205 and IRadAn=       1 diagonalized for initial guess.
 HarFok:  IExCor=  205 AccDes= 0.00D+00 IRadAn=         1 IDoV= 1 UseB2=F ITyADJ=14
 ICtDFT=  3500011 ScaDFX=  1.000000  1.000000  1.000000  1.000000
 FoFCou: FMM=F IPFlag=           0 FMFlag=      100000 FMFlg1=           0
         NFxFlg=           0 DoJE=T BraDBF=F KetDBF=T FulRan=T
         wScrn=  0.000000 ICntrl=     500 IOpCl=  0 I1Cent=   200000004 NGrid=           0
         NMat0=    1 NMatS0=      1 NMatT0=    0 NMatD0=    1 NMtDS0=    0 NMtDT0=    0
 Symmetry not used in FoFCou.
 Harris En= -226.613368676700    
 Leave Link  401 at Fri Apr 12 16:32:11 2019, MaxMem=   134217728 cpu:         0.5
 (Enter /cm/shared/c3ddb/gaussian/09.d01/g09/l502.exe)
 Closed shell SCF:
 Using DIIS extrapolation, IDIIS=  1040.
 Two-electron integral symmetry not used.
 Keep R1 ints in memory in canonical form, NReq=1327346.
 IVT=       24902 IEndB=       24902 NGot=   134217728 MDV=   133702282
 LenX=   133702282 LenY=   133699905
 Requested convergence on RMS density matrix=1.00D-08 within 128 cycles.
 Requested convergence on MAX density matrix=1.00D-06.
 Requested convergence on             energy=1.00D-06.
 No special actions if energy rises.
 FoFCou: FMM=F IPFlag=           0 FMFlag=           0 FMFlg1=           0
         NFxFlg=           0 DoJE=F BraDBF=F KetDBF=F FulRan=T
         wScrn=  0.000000 ICntrl=     600 IOpCl=  0 I1Cent=           0 NGrid=           0
         NMat0=    1 NMatS0=    990 NMatT0=    0 NMatD0=    1 NMtDS0=    0 NMtDT0=    0
 Symmetry not used in FoFCou.

 Cycle   1  Pass 1  IDiag  1:
 E= -226.388965775676    
 DIIS: error= 5.46D-04 at cycle   1 NSaved=   1.
 NSaved= 1 IEnMin= 1 EnMin= -226.388965775676     IErMin= 1 ErrMin= 5.46D-04
 ErrMax= 5.46D-04  0.00D+00 EMaxC= 1.00D-01 BMatC= 2.53D-05 BMatP= 2.53D-05
 IDIUse=3 WtCom= 9.95D-01 WtEn= 5.46D-03
 Coeff-Com:  0.100D+01
 Coeff-En:   0.100D+01
 Coeff:      0.100D+01
 Gap=     0.975 Goal=   None    Shift=    0.000
 RMSDP=1.22D-04 MaxDP=8.02D-04              OVMax= 1.28D-03

 Cycle   2  Pass 1  IDiag  1:
 E= -226.388998961071     Delta-E=       -0.000033185395 Rises=F Damp=F
 DIIS: error= 2.61D-04 at cycle   2 NSaved=   2.
 NSaved= 2 IEnMin= 2 EnMin= -226.388998961071     IErMin= 2 ErrMin= 2.61D-04
 ErrMax= 2.61D-04  0.00D+00 EMaxC= 1.00D-01 BMatC= 1.90D-06 BMatP= 2.53D-05
 IDIUse=3 WtCom= 9.97D-01 WtEn= 2.61D-03
 Coeff-Com: -0.172D+00 0.117D+01
 Coeff-En:   0.000D+00 0.100D+01
 Coeff:     -0.171D+00 0.117D+01
 Gap=     0.539 Goal=   None    Shift=    0.000
 RMSDP=5.42D-05 MaxDP=3.53D-04 DE=-3.32D-05 OVMax= 9.38D-04

 Cycle   3  Pass 1  IDiag  1:
 E= -226.389005086177     Delta-E=       -0.000006125106 Rises=F Damp=F
 DIIS: error= 1.25D-04 at cycle   3 NSaved=   3.
 NSaved= 3 IEnMin= 3 EnMin= -226.389005086177     IErMin= 3 ErrMin= 1.25D-04
 ErrMax= 1.25D-04  0.00D+00 EMaxC= 1.00D-01 BMatC= 3.39D-07 BMatP= 1.90D-06
 IDIUse=3 WtCom= 9.99D-01 WtEn= 1.25D-03
 Coeff-Com:  0.122D-01-0.404D+00 0.139D+01
 Coeff-En:   0.000D+00 0.000D+00 0.100D+01
 Coeff:      0.122D-01-0.403D+00 0.139D+01
 Gap=     0.539 Goal=   None    Shift=    0.000
 RMSDP=3.13D-05 MaxDP=2.40D-04 DE=-6.13D-06 OVMax= 6.06D-04

 Cycle   4  Pass 1  IDiag  1:
 E= -226.389006473613     Delta-E=       -0.000001387436 Rises=F Damp=F
 DIIS: error= 6.07D-05 at cycle   4 NSaved=   4.
 NSaved= 4 IEnMin= 4 EnMin= -226.389006473613     IErMin= 4 ErrMin= 6.07D-05
 ErrMax= 6.07D-05  0.00D+00 EMaxC= 1.00D-01 BMatC= 6.96D-08 BMatP= 3.39D-07
 IDIUse=1 WtCom= 1.00D+00 WtEn= 0.00D+00
 Coeff-Com:  0.283D-01-0.249D+00 0.256D+00 0.965D+00
 Coeff:      0.283D-01-0.249D+00 0.256D+00 0.965D+00
 Gap=     0.539 Goal=   None    Shift=    0.000
 RMSDP=1.21D-05 MaxDP=1.03D-04 DE=-1.39D-06 OVMax= 2.68D-04

 Cycle   5  Pass 1  IDiag  1:
 E= -226.389006690937     Delta-E=       -0.000000217324 Rises=F Damp=F
 DIIS: error= 3.12D-05 at cycle   5 NSaved=   5.
 NSaved= 5 IEnMin= 5 EnMin= -226.389006690937     IErMin= 5 ErrMin= 3.12D-05
 ErrMax= 3.12D-05  0.00D+00 EMaxC= 1.00D-01 BMatC= 1.04D-08 BMatP= 6.96D-08
 IDIUse=1 WtCom= 1.00D+00 WtEn= 0.00D+00
 Coeff-Com: -0.710D-02 0.123D+00-0.312D+00-0.222D+00 0.142D+01
 Coeff:     -0.710D-02 0.123D+00-0.312D+00-0.222D+00 0.142D+01
 Gap=     0.539 Goal=   None    Shift=    0.000
 RMSDP=7.23D-06 MaxDP=6.27D-05 DE=-2.17D-07 OVMax= 1.85D-04

 Cycle   6  Pass 1  IDiag  1:
 E= -226.389006740379     Delta-E=       -0.000000049441 Rises=F Damp=F
 DIIS: error= 8.72D-06 at cycle   6 NSaved=   6.
 NSaved= 6 IEnMin= 6 EnMin= -226.389006740379     IErMin= 6 ErrMin= 8.72D-06
 ErrMax= 8.72D-06  0.00D+00 EMaxC= 1.00D-01 BMatC= 1.09D-09 BMatP= 1.04D-08
 IDIUse=1 WtCom= 1.00D+00 WtEn= 0.00D+00
 Coeff-Com: -0.233D-02 0.217D-01-0.178D-01-0.102D+00 0.134D-01 0.109D+01
 Coeff:     -0.233D-02 0.217D-01-0.178D-01-0.102D+00 0.134D-01 0.109D+01
 Gap=     0.539 Goal=   None    Shift=    0.000
 RMSDP=1.86D-06 MaxDP=1.39D-05 DE=-4.94D-08 OVMax= 4.93D-05

 Cycle   7  Pass 1  IDiag  1:
 E= -226.389006744469     Delta-E=       -0.000000004090 Rises=F Damp=F
 DIIS: error= 3.01D-06 at cycle   7 NSaved=   7.
 NSaved= 7 IEnMin= 7 EnMin= -226.389006744469     IErMin= 7 ErrMin= 3.01D-06
 ErrMax= 3.01D-06  0.00D+00 EMaxC= 1.00D-01 BMatC= 2.29D-10 BMatP= 1.09D-09
 IDIUse=1 WtCom= 1.00D+00 WtEn= 0.00D+00
 Coeff-Com:  0.130D-02-0.249D-01 0.693D-01 0.291D-01-0.320D+00 0.209D+00
 Coeff-Com:  0.104D+01
 Coeff:      0.130D-02-0.249D-01 0.693D-01 0.291D-01-0.320D+00 0.209D+00
 Coeff:      0.104D+01
 Gap=     0.539 Goal=   None    Shift=    0.000
 RMSDP=8.95D-07 MaxDP=6.29D-06 DE=-4.09D-09 OVMax= 2.31D-05

 Cycle   8  Pass 1  IDiag  1:
 E= -226.389006745196     Delta-E=       -0.000000000727 Rises=F Damp=F
 DIIS: error= 5.79D-07 at cycle   8 NSaved=   8.
 NSaved= 8 IEnMin= 8 EnMin= -226.389006745196     IErMin= 8 ErrMin= 5.79D-07
 ErrMax= 5.79D-07  0.00D+00 EMaxC= 1.00D-01 BMatC= 1.45D-11 BMatP= 2.29D-10
 IDIUse=1 WtCom= 1.00D+00 WtEn= 0.00D+00
 Coeff-Com:  0.270D-03-0.325D-02 0.601D-02 0.100D-01-0.261D-01-0.635D-01
 Coeff-Com:  0.551D-01 0.102D+01
 Coeff:      0.270D-03-0.325D-02 0.601D-02 0.100D-01-0.261D-01-0.635D-01
 Coeff:      0.551D-01 0.102D+01
 Gap=     0.539 Goal=   None    Shift=    0.000
 RMSDP=1.97D-07 MaxDP=1.38D-06 DE=-7.27D-10 OVMax= 4.66D-06

 Cycle   9  Pass 1  IDiag  1:
 E= -226.389006745242     Delta-E=       -0.000000000046 Rises=F Damp=F
 DIIS: error= 2.66D-07 at cycle   9 NSaved=   9.
 NSaved= 9 IEnMin= 9 EnMin= -226.389006745242     IErMin= 9 ErrMin= 2.66D-07
 ErrMax= 2.66D-07  0.00D+00 EMaxC= 1.00D-01 BMatC= 3.46D-12 BMatP= 1.45D-11
 IDIUse=1 WtCom= 1.00D+00 WtEn= 0.00D+00
 Coeff-Com: -0.211D-03 0.438D-02-0.128D-01-0.385D-02 0.576D-01-0.404D-01
 Coeff-Com: -0.203D+00 0.148D+00 0.105D+01
 Coeff:     -0.211D-03 0.438D-02-0.128D-01-0.385D-02 0.576D-01-0.404D-01
 Coeff:     -0.203D+00 0.148D+00 0.105D+01
 Gap=     0.539 Goal=   None    Shift=    0.000
 RMSDP=8.22D-08 MaxDP=5.26D-07 DE=-4.64D-11 OVMax= 1.42D-06

 Cycle  10  Pass 1  IDiag  1:
 E= -226.389006745250     Delta-E=       -0.000000000008 Rises=F Damp=F
 DIIS: error= 1.41D-07 at cycle  10 NSaved=  10.
 NSaved=10 IEnMin=10 EnMin= -226.389006745250     IErMin=10 ErrMin= 1.41D-07
 ErrMax= 1.41D-07  0.00D+00 EMaxC= 1.00D-01 BMatC= 2.96D-13 BMatP= 3.46D-12
 IDIUse=1 WtCom= 1.00D+00 WtEn= 0.00D+00
 Coeff-Com:  0.205D-05-0.319D-03 0.130D-02-0.272D-03-0.662D-02 0.154D-01
 Coeff-Com:  0.194D-01-0.113D+00-0.158D+00 0.124D+01
 Coeff:      0.205D-05-0.319D-03 0.130D-02-0.272D-03-0.662D-02 0.154D-01
 Coeff:      0.194D-01-0.113D+00-0.158D+00 0.124D+01
 Gap=     0.539 Goal=   None    Shift=    0.000
 RMSDP=3.13D-08 MaxDP=1.96D-07 DE=-8.41D-12 OVMax= 7.31D-07

 Cycle  11  Pass 1  IDiag  1:
 E= -226.389006745252     Delta-E=       -0.000000000001 Rises=F Damp=F
 DIIS: error= 6.66D-08 at cycle  11 NSaved=  11.
 NSaved=11 IEnMin=11 EnMin= -226.389006745252     IErMin=11 ErrMin= 6.66D-08
 ErrMax= 6.66D-08  0.00D+00 EMaxC= 1.00D-01 BMatC= 5.48D-14 BMatP= 2.96D-13
 IDIUse=1 WtCom= 1.00D+00 WtEn= 0.00D+00
 Coeff-Com:  0.332D-04-0.709D-03 0.206D-02 0.745D-03-0.955D-02 0.695D-02
 Coeff-Com:  0.326D-01-0.233D-01-0.179D+00-0.119D-01 0.118D+01
 Coeff:      0.332D-04-0.709D-03 0.206D-02 0.745D-03-0.955D-02 0.695D-02
 Coeff:      0.326D-01-0.233D-01-0.179D+00-0.119D-01 0.118D+01
 Gap=     0.539 Goal=   None    Shift=    0.000
 RMSDP=1.54D-08 MaxDP=1.18D-07 DE=-1.36D-12 OVMax= 4.01D-07

 Cycle  12  Pass 1  IDiag  1:
 E= -226.389006745252     Delta-E=        0.000000000000 Rises=F Damp=F
 DIIS: error= 2.62D-08 at cycle  12 NSaved=  12.
 NSaved=12 IEnMin=11 EnMin= -226.389006745252     IErMin=12 ErrMin= 2.62D-08
 ErrMax= 2.62D-08  0.00D+00 EMaxC= 1.00D-01 BMatC= 7.81D-15 BMatP= 5.48D-14
 IDIUse=1 WtCom= 1.00D+00 WtEn= 0.00D+00
 Coeff-Com: -0.176D-04 0.429D-03-0.130D-02-0.343D-03 0.602D-02-0.592D-02
 Coeff-Com: -0.201D-01 0.292D-01 0.120D+00-0.197D+00-0.602D+00 0.167D+01
 Coeff:     -0.176D-04 0.429D-03-0.130D-02-0.343D-03 0.602D-02-0.592D-02
 Coeff:     -0.201D-01 0.292D-01 0.120D+00-0.197D+00-0.602D+00 0.167D+01
 Gap=     0.539 Goal=   None    Shift=    0.000
 RMSDP=8.02D-09 MaxDP=6.37D-08 DE= 1.14D-13 OVMax= 2.12D-07

 SCF Done:  E(RHF) =  -226.389006745     A.U. after   12 cycles
            NFock= 12  Conv=0.80D-08     -V/T= 2.0034
 KE= 2.256106640688D+02 PE=-7.673855631599D+02 EE= 1.983822348428D+02
 Leave Link  502 at Fri Apr 12 16:32:11 2019, MaxMem=   134217728 cpu:         0.2
 (Enter /cm/shared/c3ddb/gaussian/09.d01/g09/l701.exe)
 Compute integral first derivatives.
 ... and contract with generalized density number  0.
 Leave Link  701 at Fri Apr 12 16:32:12 2019, MaxMem=   134217728 cpu:         0.2
 (Enter /cm/shared/c3ddb/gaussian/09.d01/g09/l702.exe)
 L702 exits ... SP integral derivatives will be done elsewhere.
 Leave Link  702 at Fri Apr 12 16:32:12 2019, MaxMem=   134217728 cpu:         0.1
 (Enter /cm/shared/c3ddb/gaussian/09.d01/g09/l703.exe)
 Compute integral first derivatives, UseDBF=F ICtDFT=           0.
 Integral derivatives from FoFJK, PRISM(SPDF).
 Calling FoFJK, ICntrl=      2127 FMM=F ISym2X=0 I1Cent= 0 IOpClX= 0 NMat=1 NMatS=1 NMatT=0.
 FoFJK:  IHMeth= 1 ICntrl=    2127 DoSepK=F KAlg= 0 I1Cent=   0 FoldK=F
 IRaf=         0 NMat=   1 IRICut=       1 DoRegI=T DoRafI=F ISym2E= 0.
 FoFCou: FMM=F IPFlag=           0 FMFlag=      100000 FMFlg1=         800
         NFxFlg=           0 DoJE=F BraDBF=F KetDBF=F FulRan=T
         wScrn=  0.000000 ICntrl=    2127 IOpCl=  0 I1Cent=           0 NGrid=           0
         NMat0=    1 NMatS0=      1 NMatT0=    0 NMatD0=    1 NMtDS0=    0 NMtDT0=    0
 Symmetry not used in FoFCou.
 Leave Link  703 at Fri Apr 12 16:32:12 2019, MaxMem=   134217728 cpu:         0.2
 (Enter /cm/shared/c3ddb/gaussian/09.d01/g09/l716.exe)
 Dipole        = 9.05626661D-01 6.24626781D-01 2.16235274D-01
 -------------------------------------------------------------------
 Center     Atomic                   Forces (Hartrees/Bohr)
 Number     Number              X              Y              Z
 -------------------------------------------------------------------
      1        6          -0.000471133   -0.002339644    0.002941280
      2        6          -0.000050438    0.000054511   -0.001623807
      3        1          -0.000007520   -0.000020227    0.000005094
      4        1          -0.000037209    0.000041153   -0.000050464
      5        1           0.000001586   -0.000050527    0.000069280
      6        8          -0.000639207    0.002741636   -0.000173715
      7        8           0.004539144   -0.001211774    0.001043192
      8        1          -0.003335223    0.000784873   -0.002210859
 -------------------------------------------------------------------
 Cartesian Forces:  Max     0.004539144 RMS     0.001642485
 Leave Link  716 at Fri Apr 12 16:32:12 2019, MaxMem=   134217728 cpu:         0.0
 (Enter /cm/shared/c3ddb/gaussian/09.d01/g09/l103.exe)

 GradGradGradGradGradGradGradGradGradGradGradGradGradGradGradGradGradGrad
 Berny optimization.
 Using GEDIIS/GDIIS optimizer.
 FormGI is forming the generalized inverse of G from B-inverse, IUseBI=4.
 Internal  Forces:  Max     0.007172860 RMS     0.001707455
 Search for a local minimum.
 Step number   2 out of a maximum of   32
 All quantities printed in internal units (Hartrees-Bohrs-Radians)
 RMS Force = .52833D-03 SwitMx=.10000D-02 MixMth= 2
 Mixed Optimization -- En-DIIS/RFO-DIIS
 Swapping is turned off.
 Update second derivatives using D2CorX and points    1    2
 DE= -1.11D-05 DEPred=-2.74D-05 R= 4.05D-01
 Trust test= 4.05D-01 RLast= 1.87D-02 DXMaxT set to 3.00D-01
 ITU=  0  0
     Eigenvalues ---    0.02449   0.03316   0.03334   0.15993   0.16000
     Eigenvalues ---    0.16000   0.19897   0.22185   0.25341   0.37000
     Eigenvalues ---    0.37105   0.37130   0.42064   0.47405   0.52360
     Eigenvalues ---    0.652261000.000001000.000001000.000001000.00000
     Eigenvalues --- 1000.000001000.00000
 En-DIIS/RFO-DIIS IScMMF=        0 using points:     2    1
 RFO step:  Lambda=-1.06649909D-05.
 NNeg= 0 NP= 2 Switch=  2.50D-03 Rises=F DC=  1.11D-05 SmlDif=  1.00D-05
 RMS Error=  0.8100310078D-03 NUsed= 2 EDIIS=F
 DidBck=T Rises=F RFO-DIIS coefs:    0.62889    0.37111
 Iteration  1 RMS(Cart)=  0.00260386 RMS(Int)=  0.00000417
 Iteration  2 RMS(Cart)=  0.00000358 RMS(Int)=  0.00000048
 Iteration  3 RMS(Cart)=  0.00000000 RMS(Int)=  0.00000048
 Iteration  1 RMS(Cart)=  0.00000019 RMS(Int)=  0.00000008
 ITry= 1 IFail=0 DXMaxC= 7.33D-03 DCOld= 1.00D+10 DXMaxT= 3.00D-01 DXLimC= 3.00D+00 Rises=F
 Variable       Old X    -DE/DX   Delta X   Delta X   Delta X     New X
                                 (Linear)    (Quad)   (Total)
    R1        2.47041  -0.00003  -0.00003   0.00001  -0.00002   2.47039
    R2        2.02538  -0.00002  -0.00029   0.00028   0.00000   2.02537
    R3        2.66937  -0.00043  -0.00047  -0.00008  -0.00056   2.66881
    R4        2.02397  -0.00004  -0.00004  -0.00002  -0.00006   2.02391
    R5        2.02344   0.00004   0.00002   0.00005   0.00007   2.02351
    R6        2.78257  -0.00155  -0.00095  -0.00168  -0.00263   2.77994
    R7        1.84209   0.00001  -0.00036   0.00042   0.00006   1.84215
    A1        2.16674   0.00007   0.00046  -0.00025   0.00021   2.16695
    A2        2.11572  -0.00020  -0.00067   0.00019  -0.00047   2.11525
    A3        2.00047   0.00010   0.00025  -0.00002   0.00023   2.00071
    A4        2.11140  -0.00007  -0.00024  -0.00001  -0.00024   2.11116
    A5        2.10568   0.00006   0.00025  -0.00005   0.00021   2.10588
    A6        2.06604   0.00001  -0.00002   0.00005   0.00004   2.06607
    A7        1.88446  -0.00071  -0.00307   0.00165  -0.00141   1.88304
    A8        1.79037  -0.00155  -0.00513  -0.00037  -0.00550   1.78488
    D1       -0.02513   0.00052  -0.00171   0.00173   0.00002  -0.02511
    D2        3.12995   0.00050  -0.00190   0.00162  -0.00028   3.12967
    D3        3.09129  -0.00061   0.00041  -0.00199  -0.00158   3.08971
    D4       -0.03681  -0.00062   0.00023  -0.00211  -0.00188  -0.03869
    D5        1.74533   0.00214   0.00000   0.00000   0.00000   1.74533
    D6       -1.41918   0.00112   0.00194  -0.00339  -0.00145  -1.42063
    D7        1.39626   0.00717   0.00000   0.00000   0.00000   1.39626
         Item               Value     Threshold  Converged?
 Maximum Force            0.001552     0.000015     NO 
 RMS     Force            0.000528     0.000010     NO 
 Maximum Displacement     0.007327     0.000060     NO 
 RMS     Displacement     0.002604     0.000040     NO 
 Predicted change in Energy=-7.188337D-06
 Lowest energy point so far.  Saving SCF results.
 GradGradGradGradGradGradGradGradGradGradGradGradGradGradGradGradGradGrad

 Leave Link  103 at Fri Apr 12 16:32:12 2019, MaxMem=   134217728 cpu:         0.0
 (Enter /cm/shared/c3ddb/gaussian/09.d01/g09/l202.exe)
                          Input orientation:                          
 ---------------------------------------------------------------------
 Center     Atomic      Atomic             Coordinates (Angstroms)
 Number     Number       Type             X           Y           Z
 ---------------------------------------------------------------------
      1          6           0        0.739886    0.624757    0.044871
      2          6           0        1.380591   -0.513793   -0.001663
      3          1           0        1.217779    1.582107    0.106646
      4          1           0        2.451175   -0.543923   -0.002523
      5          1           0        0.845365   -1.439857   -0.052047
      6          8           0       -0.670215    0.673628   -0.016321
      7          8           0       -1.176549    0.840173    1.354798
      8          1           0       -1.056030    1.795717    1.505436
 ---------------------------------------------------------------------
                    Distance matrix (angstroms):
                    1          2          3          4          5
     1  C    0.000000
     2  C    1.307274   0.000000
     3  H    1.071782   2.105002   0.000000
     4  H    2.072818   1.071008   2.460323   0.000000
     5  H    2.069577   1.070794   3.048957   1.839504   0.000000
     6  O    1.412273   2.369808   2.098803   3.350477   2.600976
     7  O    2.331316   3.195650   2.800206   4.113201   3.356469
     8  H    2.594169   3.679988   2.678143   4.477538   4.063249
                    6          7          8
     6  O    0.000000
     7  O    1.471081   0.000000
     8  H    1.929684   0.974823   0.000000
 Symmetry turned off by external request.
 Stoichiometry    C2H4O2
 Framework group  C1[X(C2H4O2)]
 Deg. of freedom    18
 Full point group                 C1      NOp   1
 Rotational constants (GHZ):     25.1794410      4.9907639      4.8191137
 Leave Link  202 at Fri Apr 12 16:32:12 2019, MaxMem=   134217728 cpu:         0.0
 (Enter /cm/shared/c3ddb/gaussian/09.d01/g09/l301.exe)
 Standard basis: 3-21G (6D, 7F)
 Ernie: Thresh=  0.10000D-02 Tol=  0.10000D-05 Strict=F.
    44 basis functions,    72 primitive gaussians,    44 cartesian basis functions
    16 alpha electrons       16 beta electrons
       nuclear repulsion energy       117.0649871747 Hartrees.
 IExCor=    0 DFT=F Ex=HF Corr=None ExCW=0 ScaHFX=  1.000000
 ScaDFX=  1.000000  1.000000  1.000000  1.000000 ScalE2=  1.000000  1.000000
 IRadAn=      0 IRanWt=     -1 IRanGd=            0 ICorTp=0 IEmpDi=  4
 NAtoms=    8 NActive=    8 NUniq=    8 SFac= 1.00D+00 NAtFMM=   60 NAOKFM=F Big=F
 Integral buffers will be    131072 words long.
 Raffenetti 1 integral format.
 Two-electron integral symmetry is turned off.
 Leave Link  301 at Fri Apr 12 16:32:13 2019, MaxMem=   134217728 cpu:         0.1
 (Enter /cm/shared/c3ddb/gaussian/09.d01/g09/l302.exe)
 NPDir=0 NMtPBC=     1 NCelOv=     1 NCel=       1 NClECP=     1 NCelD=      1
         NCelK=      1 NCelE2=     1 NClLst=     1 CellRange=     0.0.
 One-electron integrals computed using PRISM.
 NBasis=    44 RedAO= T EigKep=  1.18D-02  NBF=    44
 NBsUse=    44 1.00D-06 EigRej= -1.00D+00 NBFU=    44
 Leave Link  302 at Fri Apr 12 16:32:13 2019, MaxMem=   134217728 cpu:         0.2
 (Enter /cm/shared/c3ddb/gaussian/09.d01/g09/l303.exe)
 DipDrv:  MaxL=1.
 Leave Link  303 at Fri Apr 12 16:32:13 2019, MaxMem=   134217728 cpu:         0.1
 (Enter /cm/shared/c3ddb/gaussian/09.d01/g09/l401.exe)
 Initial guess from the checkpoint file:  "TMP_CALCS/scangeom_S02_100_080.chk"
 B after Tr=    -0.000031    0.000065    0.000335
         Rot=    1.000000   -0.000242    0.000001   -0.000054 Ang=  -0.03 deg.
 Guess basis will be translated and rotated to current coordinates.
 JPrj=2 DoOrth=T DoCkMO=T.
 Leave Link  401 at Fri Apr 12 16:32:13 2019, MaxMem=   134217728 cpu:         0.2
 (Enter /cm/shared/c3ddb/gaussian/09.d01/g09/l502.exe)
 Closed shell SCF:
 Using DIIS extrapolation, IDIIS=  1040.
 Two-electron integral symmetry not used.
 Keep R1 ints in memory in canonical form, NReq=1327346.
 IVT=       24902 IEndB=       24902 NGot=   134217728 MDV=   133702282
 LenX=   133702282 LenY=   133699905
 Requested convergence on RMS density matrix=1.00D-08 within 128 cycles.
 Requested convergence on MAX density matrix=1.00D-06.
 Requested convergence on             energy=1.00D-06.
 No special actions if energy rises.
 FoFCou: FMM=F IPFlag=           0 FMFlag=           0 FMFlg1=           0
         NFxFlg=           0 DoJE=F BraDBF=F KetDBF=F FulRan=T
         wScrn=  0.000000 ICntrl=     600 IOpCl=  0 I1Cent=           0 NGrid=           0
         NMat0=    1 NMatS0=    990 NMatT0=    0 NMatD0=    1 NMtDS0=    0 NMtDT0=    0
 Symmetry not used in FoFCou.

 Cycle   1  Pass 1  IDiag  1:
 E= -226.389010806470    
 DIIS: error= 1.93D-04 at cycle   1 NSaved=   1.
 NSaved= 1 IEnMin= 1 EnMin= -226.389010806470     IErMin= 1 ErrMin= 1.93D-04
 ErrMax= 1.93D-04  0.00D+00 EMaxC= 1.00D-01 BMatC= 2.71D-06 BMatP= 2.71D-06
 IDIUse=3 WtCom= 9.98D-01 WtEn= 1.93D-03
 Coeff-Com:  0.100D+01
 Coeff-En:   0.100D+01
 Coeff:      0.100D+01
 Gap=     0.974 Goal=   None    Shift=    0.000
 RMSDP=3.74D-05 MaxDP=3.27D-04              OVMax= 2.91D-04

 Cycle   2  Pass 1  IDiag  1:
 E= -226.389013307201     Delta-E=       -0.000002500731 Rises=F Damp=F
 DIIS: error= 6.77D-05 at cycle   2 NSaved=   2.
 NSaved= 2 IEnMin= 2 EnMin= -226.389013307201     IErMin= 2 ErrMin= 6.77D-05
 ErrMax= 6.77D-05  0.00D+00 EMaxC= 1.00D-01 BMatC= 1.46D-07 BMatP= 2.71D-06
 IDIUse=1 WtCom= 1.00D+00 WtEn= 0.00D+00
 Coeff-Com: -0.120D+00 0.112D+01
 Coeff:     -0.120D+00 0.112D+01
 Gap=     0.540 Goal=   None    Shift=    0.000
 RMSDP=1.38D-05 MaxDP=7.58D-05 DE=-2.50D-06 OVMax= 2.51D-04

 Cycle   3  Pass 1  IDiag  1:
 E= -226.389013678809     Delta-E=       -0.000000371608 Rises=F Damp=F
 DIIS: error= 4.25D-05 at cycle   3 NSaved=   3.
 NSaved= 3 IEnMin= 3 EnMin= -226.389013678809     IErMin= 3 ErrMin= 4.25D-05
 ErrMax= 4.25D-05  0.00D+00 EMaxC= 1.00D-01 BMatC= 3.16D-08 BMatP= 1.46D-07
 IDIUse=1 WtCom= 1.00D+00 WtEn= 0.00D+00
 Coeff-Com: -0.337D-01 0.373D-01 0.996D+00
 Coeff:     -0.337D-01 0.373D-01 0.996D+00
 Gap=     0.540 Goal=   None    Shift=    0.000
 RMSDP=6.69D-06 MaxDP=4.50D-05 DE=-3.72D-07 OVMax= 1.44D-04

 Cycle   4  Pass 1  IDiag  1:
 E= -226.389013767461     Delta-E=       -0.000000088653 Rises=F Damp=F
 DIIS: error= 2.56D-05 at cycle   4 NSaved=   4.
 NSaved= 4 IEnMin= 4 EnMin= -226.389013767461     IErMin= 4 ErrMin= 2.56D-05
 ErrMax= 2.56D-05  0.00D+00 EMaxC= 1.00D-01 BMatC= 1.11D-08 BMatP= 3.16D-08
 IDIUse=1 WtCom= 1.00D+00 WtEn= 0.00D+00
 Coeff-Com:  0.291D-01-0.320D+00 0.127D+00 0.116D+01
 Coeff:      0.291D-01-0.320D+00 0.127D+00 0.116D+01
 Gap=     0.540 Goal=   None    Shift=    0.000
 RMSDP=5.85D-06 MaxDP=4.43D-05 DE=-8.87D-08 OVMax= 1.33D-04

 Cycle   5  Pass 1  IDiag  1:
 E= -226.389013808442     Delta-E=       -0.000000040981 Rises=F Damp=F
 DIIS: error= 1.03D-05 at cycle   5 NSaved=   5.
 NSaved= 5 IEnMin= 5 EnMin= -226.389013808442     IErMin= 5 ErrMin= 1.03D-05
 ErrMax= 1.03D-05  0.00D+00 EMaxC= 1.00D-01 BMatC= 1.54D-09 BMatP= 1.11D-08
 IDIUse=1 WtCom= 1.00D+00 WtEn= 0.00D+00
 Coeff-Com:  0.444D-02 0.189D-01-0.189D+00-0.602D-01 0.123D+01
 Coeff:      0.444D-02 0.189D-01-0.189D+00-0.602D-01 0.123D+01
 Gap=     0.540 Goal=   None    Shift=    0.000
 RMSDP=2.51D-06 MaxDP=1.97D-05 DE=-4.10D-08 OVMax= 6.11D-05

 Cycle   6  Pass 1  IDiag  1:
 E= -226.389013814555     Delta-E=       -0.000000006113 Rises=F Damp=F
 DIIS: error= 3.05D-06 at cycle   6 NSaved=   6.
 NSaved= 6 IEnMin= 6 EnMin= -226.389013814555     IErMin= 6 ErrMin= 3.05D-06
 ErrMax= 3.05D-06  0.00D+00 EMaxC= 1.00D-01 BMatC= 1.81D-10 BMatP= 1.54D-09
 IDIUse=1 WtCom= 1.00D+00 WtEn= 0.00D+00
 Coeff-Com: -0.353D-02 0.538D-01-0.642D-01-0.195D+00 0.229D+00 0.981D+00
 Coeff:     -0.353D-02 0.538D-01-0.642D-01-0.195D+00 0.229D+00 0.981D+00
 Gap=     0.540 Goal=   None    Shift=    0.000
 RMSDP=8.69D-07 MaxDP=6.36D-06 DE=-6.11D-09 OVMax= 2.01D-05

 Cycle   7  Pass 1  IDiag  1:
 E= -226.389013815158     Delta-E=       -0.000000000603 Rises=F Damp=F
 DIIS: error= 4.97D-07 at cycle   7 NSaved=   7.
 NSaved= 7 IEnMin= 7 EnMin= -226.389013815158     IErMin= 7 ErrMin= 4.97D-07
 ErrMax= 4.97D-07  0.00D+00 EMaxC= 1.00D-01 BMatC= 1.07D-11 BMatP= 1.81D-10
 IDIUse=1 WtCom= 1.00D+00 WtEn= 0.00D+00
 Coeff-Com:  0.502D-03-0.130D-01 0.287D-01 0.472D-01-0.159D+00-0.153D+00
 Coeff-Com:  0.125D+01
 Coeff:      0.502D-03-0.130D-01 0.287D-01 0.472D-01-0.159D+00-0.153D+00
 Coeff:      0.125D+01
 Gap=     0.540 Goal=   None    Shift=    0.000
 RMSDP=1.89D-07 MaxDP=9.99D-07 DE=-6.03D-10 OVMax= 3.58D-06

 Cycle   8  Pass 1  IDiag  1:
 E= -226.389013815189     Delta-E=       -0.000000000031 Rises=F Damp=F
 DIIS: error= 9.78D-08 at cycle   8 NSaved=   8.
 NSaved= 8 IEnMin= 8 EnMin= -226.389013815189     IErMin= 8 ErrMin= 9.78D-08
 ErrMax= 9.78D-08  0.00D+00 EMaxC= 1.00D-01 BMatC= 6.29D-13 BMatP= 1.07D-11
 IDIUse=1 WtCom= 1.00D+00 WtEn= 0.00D+00
 Coeff-Com:  0.308D-03-0.543D-02 0.873D-02 0.192D-01-0.396D-01-0.837D-01
 Coeff-Com:  0.191D+00 0.909D+00
 Coeff:      0.308D-03-0.543D-02 0.873D-02 0.192D-01-0.396D-01-0.837D-01
 Coeff:      0.191D+00 0.909D+00
 Gap=     0.540 Goal=   None    Shift=    0.000
 RMSDP=3.13D-08 MaxDP=1.70D-07 DE=-3.11D-11 OVMax= 5.33D-07

 Cycle   9  Pass 1  IDiag  1:
 E= -226.389013815190     Delta-E=       -0.000000000001 Rises=F Damp=F
 DIIS: error= 4.05D-08 at cycle   9 NSaved=   9.
 NSaved= 9 IEnMin= 9 EnMin= -226.389013815190     IErMin= 9 ErrMin= 4.05D-08
 ErrMax= 4.05D-08  0.00D+00 EMaxC= 1.00D-01 BMatC= 8.49D-14 BMatP= 6.29D-13
 IDIUse=1 WtCom= 1.00D+00 WtEn= 0.00D+00
 Coeff-Com: -0.731D-04 0.184D-02-0.351D-02-0.735D-02 0.209D-01 0.226D-01
 Coeff-Com: -0.147D+00-0.493D-01 0.116D+01
 Coeff:     -0.731D-04 0.184D-02-0.351D-02-0.735D-02 0.209D-01 0.226D-01
 Coeff:     -0.147D+00-0.493D-01 0.116D+01
 Gap=     0.540 Goal=   None    Shift=    0.000
 RMSDP=1.41D-08 MaxDP=8.05D-08 DE=-1.02D-12 OVMax= 2.08D-07

 Cycle  10  Pass 1  IDiag  1:
 E= -226.389013815190     Delta-E=        0.000000000000 Rises=F Damp=F
 DIIS: error= 2.34D-08 at cycle  10 NSaved=  10.
 NSaved=10 IEnMin=10 EnMin= -226.389013815190     IErMin=10 ErrMin= 2.34D-08
 ErrMax= 2.34D-08  0.00D+00 EMaxC= 1.00D-01 BMatC= 1.20D-14 BMatP= 8.49D-14
 IDIUse=1 WtCom= 1.00D+00 WtEn= 0.00D+00
 Coeff-Com: -0.372D-04 0.701D-03-0.106D-02-0.280D-02 0.579D-02 0.106D-01
 Coeff-Com: -0.294D-01-0.976D-01 0.627D-01 0.105D+01
 Coeff:     -0.372D-04 0.701D-03-0.106D-02-0.280D-02 0.579D-02 0.106D-01
 Coeff:     -0.294D-01-0.976D-01 0.627D-01 0.105D+01
 Gap=     0.540 Goal=   None    Shift=    0.000
 RMSDP=5.52D-09 MaxDP=3.09D-08 DE=-4.55D-13 OVMax= 1.03D-07

 SCF Done:  E(RHF) =  -226.389013815     A.U. after   10 cycles
            NFock= 10  Conv=0.55D-08     -V/T= 2.0034
 KE= 2.256156529717D+02 PE=-7.675086763491D+02 EE= 1.984390223875D+02
 Leave Link  502 at Fri Apr 12 16:32:14 2019, MaxMem=   134217728 cpu:         0.3
 (Enter /cm/shared/c3ddb/gaussian/09.d01/g09/l701.exe)
 Compute integral first derivatives.
 ... and contract with generalized density number  0.
 Leave Link  701 at Fri Apr 12 16:32:14 2019, MaxMem=   134217728 cpu:         0.2
 (Enter /cm/shared/c3ddb/gaussian/09.d01/g09/l702.exe)
 L702 exits ... SP integral derivatives will be done elsewhere.
 Leave Link  702 at Fri Apr 12 16:32:14 2019, MaxMem=   134217728 cpu:         0.1
 (Enter /cm/shared/c3ddb/gaussian/09.d01/g09/l703.exe)
 Compute integral first derivatives, UseDBF=F ICtDFT=           0.
 Integral derivatives from FoFJK, PRISM(SPDF).
 Calling FoFJK, ICntrl=      2127 FMM=F ISym2X=0 I1Cent= 0 IOpClX= 0 NMat=1 NMatS=1 NMatT=0.
 FoFJK:  IHMeth= 1 ICntrl=    2127 DoSepK=F KAlg= 0 I1Cent=   0 FoldK=F
 IRaf=         0 NMat=   1 IRICut=       1 DoRegI=T DoRafI=F ISym2E= 0.
 FoFCou: FMM=F IPFlag=           0 FMFlag=      100000 FMFlg1=         800
         NFxFlg=           0 DoJE=F BraDBF=F KetDBF=F FulRan=T
         wScrn=  0.000000 ICntrl=    2127 IOpCl=  0 I1Cent=           0 NGrid=           0
         NMat0=    1 NMatS0=      1 NMatT0=    0 NMatD0=    1 NMtDS0=    0 NMtDT0=    0
 Symmetry not used in FoFCou.
 Leave Link  703 at Fri Apr 12 16:32:14 2019, MaxMem=   134217728 cpu:         0.2
 (Enter /cm/shared/c3ddb/gaussian/09.d01/g09/l716.exe)
 Dipole        = 9.05859385D-01 6.24298738D-01 2.14643448D-01
 -------------------------------------------------------------------
 Center     Atomic                   Forces (Hartrees/Bohr)
 Number     Number              X              Y              Z
 -------------------------------------------------------------------
      1        6          -0.000267031   -0.002568395    0.002476749
      2        6           0.000053945    0.000099800   -0.001559674
      3        1          -0.000001693   -0.000012602    0.000031046
      4        1          -0.000003495    0.000004261    0.000024327
      5        1           0.000001750   -0.000003618   -0.000001960
      6        8          -0.000328913    0.002159955   -0.001128523
      7        8           0.004264661   -0.000345771    0.001599190
      8        1          -0.003719224    0.000666371   -0.001441155
 -------------------------------------------------------------------
 Cartesian Forces:  Max     0.004264661 RMS     0.001561443
 Leave Link  716 at Fri Apr 12 16:32:14 2019, MaxMem=   134217728 cpu:         0.0
 (Enter /cm/shared/c3ddb/gaussian/09.d01/g09/l103.exe)

 GradGradGradGradGradGradGradGradGradGradGradGradGradGradGradGradGradGrad
 Berny optimization.
 Using GEDIIS/GDIIS optimizer.
 FormGI is forming the generalized inverse of G from B-inverse, IUseBI=4.
 Internal  Forces:  Max     0.007279244 RMS     0.001650981
 Search for a local minimum.
 Step number   3 out of a maximum of   32
 All quantities printed in internal units (Hartrees-Bohrs-Radians)
 RMS Force = .27263D-04 SwitMx=.10000D-02 MixMth= 2
 Mixed Optimization -- En-DIIS/RFO-DIIS
 Swapping is turned off.
 Update second derivatives using D2CorX and points    1    2    3
 DE= -7.07D-06 DEPred=-7.19D-06 R= 9.84D-01
 TightC=F SS=  1.41D+00  RLast= 6.93D-03 DXNew= 5.0454D-01 2.0802D-02
 Trust test= 9.84D-01 RLast= 6.93D-03 DXMaxT set to 3.00D-01
 ITU=  1  0  0
     Eigenvalues ---    0.02575   0.03313   0.03356   0.15988   0.16000
     Eigenvalues ---    0.16001   0.20283   0.22148   0.25300   0.37021
     Eigenvalues ---    0.37106   0.37130   0.43026   0.45475   0.52416
     Eigenvalues ---    0.652231000.000001000.000001000.000001000.00000
     Eigenvalues --- 1000.000001000.00000
 En-DIIS/RFO-DIIS IScMMF=        0 using points:     3    2    1
 RFO step:  Lambda=-1.93717620D-06.
 NNeg= 0 NP= 3 Switch=  2.50D-03 Rises=F DC=  1.11D-05 SmlDif=  1.00D-05
 RMS Error=  0.1023850598D-03 NUsed= 3 EDIIS=F
 DidBck=F Rises=F RFO-DIIS coefs:    0.85399    0.08788    0.05813
 Iteration  1 RMS(Cart)=  0.00047417 RMS(Int)=  0.00000031
 Iteration  2 RMS(Cart)=  0.00000019 RMS(Int)=  0.00000025
 Iteration  1 RMS(Cart)=  0.00000028 RMS(Int)=  0.00000011
 ITry= 1 IFail=0 DXMaxC= 1.12D-03 DCOld= 1.00D+10 DXMaxT= 3.00D-01 DXLimC= 3.00D+00 Rises=F
 Variable       Old X    -DE/DX   Delta X   Delta X   Delta X     New X
                                 (Linear)    (Quad)   (Total)
    R1        2.47039  -0.00001   0.00000  -0.00001  -0.00001   2.47038
    R2        2.02537  -0.00001  -0.00004   0.00002  -0.00003   2.02535
    R3        2.66881  -0.00009   0.00001  -0.00019  -0.00018   2.66863
    R4        2.02391   0.00000   0.00000  -0.00001  -0.00001   2.02390
    R5        2.02351   0.00000  -0.00001   0.00001   0.00001   2.02351
    R6        2.77994   0.00000   0.00023  -0.00028  -0.00005   2.77989
    R7        1.84215  -0.00003  -0.00007   0.00002  -0.00005   1.84210
    A1        2.16695  -0.00002   0.00004  -0.00001   0.00003   2.16698
    A2        2.11525  -0.00002  -0.00003  -0.00004  -0.00007   2.11517
    A3        2.00071   0.00002   0.00000   0.00007   0.00007   2.00078
    A4        2.11116  -0.00001   0.00000  -0.00005  -0.00005   2.11110
    A5        2.10588   0.00001   0.00001   0.00004   0.00005   2.10593
    A6        2.06607   0.00000  -0.00001   0.00002   0.00001   2.06608
    A7        1.88304  -0.00001  -0.00027   0.00021  -0.00007   1.88297
    A8        1.78488   0.00004   0.00000   0.00010   0.00010   1.78497
    D1       -0.02511   0.00053  -0.00027   0.00010  -0.00017  -0.02528
    D2        3.12967   0.00051  -0.00026  -0.00042  -0.00068   3.12899
    D3        3.08971  -0.00049   0.00030   0.00094   0.00123   3.09094
    D4       -0.03869  -0.00051   0.00031   0.00042   0.00073  -0.03796
    D5        1.74533   0.00212   0.00000   0.00000   0.00000   1.74533
    D6       -1.42063   0.00120   0.00052   0.00076   0.00128  -1.41935
    D7        1.39626   0.00728   0.00000   0.00000   0.00000   1.39626
         Item               Value     Threshold  Converged?
 Maximum Force            0.000088     0.000015     NO 
 RMS     Force            0.000027     0.000010     NO 
 Maximum Displacement     0.001116     0.000060     NO 
 RMS     Displacement     0.000474     0.000040     NO 
 Predicted change in Energy=-8.480073D-08
 Lowest energy point so far.  Saving SCF results.
 GradGradGradGradGradGradGradGradGradGradGradGradGradGradGradGradGradGrad

 Leave Link  103 at Fri Apr 12 16:32:14 2019, MaxMem=   134217728 cpu:         0.0
 (Enter /cm/shared/c3ddb/gaussian/09.d01/g09/l202.exe)
                          Input orientation:                          
 ---------------------------------------------------------------------
 Center     Atomic      Atomic             Coordinates (Angstroms)
 Number     Number       Type             X           Y           Z
 ---------------------------------------------------------------------
      1          6           0        0.739712    0.624723    0.044463
      2          6           0        1.380516   -0.513774   -0.001860
      3          1           0        1.217466    1.582080    0.106966
      4          1           0        2.451099   -0.543787   -0.001932
      5          1           0        0.845420   -1.439909   -0.052389
      6          8           0       -0.670321    0.673318   -0.016279
      7          8           0       -1.176133    0.840287    1.354955
      8          1           0       -1.055756    1.795872    1.505273
 ---------------------------------------------------------------------
                    Distance matrix (angstroms):
                    1          2          3          4          5
     1  C    0.000000
     2  C    1.307269   0.000000
     3  H    1.071769   2.105002   0.000000
     4  H    2.072779   1.071003   2.460288   0.000000
     5  H    2.069603   1.070797   3.048972   1.839507   0.000000
     6  O    1.412177   2.369669   2.098755   3.350345   2.600866
     7  O    2.331162   3.195447   2.799473   4.112617   3.356573
     8  H    2.594082   3.679856   2.677407   4.477020   4.063381
                    6          7          8
     6  O    0.000000
     7  O    1.471057   0.000000
     8  H    1.929717   0.974797   0.000000
 Symmetry turned off by external request.
 Stoichiometry    C2H4O2
 Framework group  C1[X(C2H4O2)]
 Deg. of freedom    18
 Full point group                 C1      NOp   1
 Rotational constants (GHZ):     25.1778315      4.9913392      4.8198126
 Leave Link  202 at Fri Apr 12 16:32:14 2019, MaxMem=   134217728 cpu:         0.0
 (Enter /cm/shared/c3ddb/gaussian/09.d01/g09/l301.exe)
 Standard basis: 3-21G (6D, 7F)
 Ernie: Thresh=  0.10000D-02 Tol=  0.10000D-05 Strict=F.
    44 basis functions,    72 primitive gaussians,    44 cartesian basis functions
    16 alpha electrons       16 beta electrons
       nuclear repulsion energy       117.0694345547 Hartrees.
 IExCor=    0 DFT=F Ex=HF Corr=None ExCW=0 ScaHFX=  1.000000
 ScaDFX=  1.000000  1.000000  1.000000  1.000000 ScalE2=  1.000000  1.000000
 IRadAn=      0 IRanWt=     -1 IRanGd=            0 ICorTp=0 IEmpDi=  4
 NAtoms=    8 NActive=    8 NUniq=    8 SFac= 1.00D+00 NAtFMM=   60 NAOKFM=F Big=F
 Integral buffers will be    131072 words long.
 Raffenetti 1 integral format.
 Two-electron integral symmetry is turned off.
 Leave Link  301 at Fri Apr 12 16:32:15 2019, MaxMem=   134217728 cpu:         0.1
 (Enter /cm/shared/c3ddb/gaussian/09.d01/g09/l302.exe)
 NPDir=0 NMtPBC=     1 NCelOv=     1 NCel=       1 NClECP=     1 NCelD=      1
         NCelK=      1 NCelE2=     1 NClLst=     1 CellRange=     0.0.
 One-electron integrals computed using PRISM.
 NBasis=    44 RedAO= T EigKep=  1.18D-02  NBF=    44
 NBsUse=    44 1.00D-06 EigRej= -1.00D+00 NBFU=    44
 Leave Link  302 at Fri Apr 12 16:32:15 2019, MaxMem=   134217728 cpu:         0.2
 (Enter /cm/shared/c3ddb/gaussian/09.d01/g09/l303.exe)
 DipDrv:  MaxL=1.
 Leave Link  303 at Fri Apr 12 16:32:15 2019, MaxMem=   134217728 cpu:         0.1
 (Enter /cm/shared/c3ddb/gaussian/09.d01/g09/l401.exe)
 Initial guess from the checkpoint file:  "TMP_CALCS/scangeom_S02_100_080.chk"
 B after Tr=    -0.000054   -0.000234    0.000084
         Rot=    1.000000    0.000096   -0.000112   -0.000034 Ang=   0.02 deg.
 Guess basis will be translated and rotated to current coordinates.
 JPrj=2 DoOrth=T DoCkMO=T.
 Leave Link  401 at Fri Apr 12 16:32:15 2019, MaxMem=   134217728 cpu:         0.3
 (Enter /cm/shared/c3ddb/gaussian/09.d01/g09/l502.exe)
 Closed shell SCF:
 Using DIIS extrapolation, IDIIS=  1040.
 Two-electron integral symmetry not used.
 Keep R1 ints in memory in canonical form, NReq=1327346.
 IVT=       24902 IEndB=       24902 NGot=   134217728 MDV=   133702282
 LenX=   133702282 LenY=   133699905
 Requested convergence on RMS density matrix=1.00D-08 within 128 cycles.
 Requested convergence on MAX density matrix=1.00D-06.
 Requested convergence on             energy=1.00D-06.
 No special actions if energy rises.
 FoFCou: FMM=F IPFlag=           0 FMFlag=           0 FMFlg1=           0
         NFxFlg=           0 DoJE=F BraDBF=F KetDBF=F FulRan=T
         wScrn=  0.000000 ICntrl=     600 IOpCl=  0 I1Cent=           0 NGrid=           0
         NMat0=    1 NMatS0=    990 NMatT0=    0 NMatD0=    1 NMtDS0=    0 NMtDT0=    0
 Symmetry not used in FoFCou.

 Cycle   1  Pass 1  IDiag  1:
 E= -226.389013645624    
 DIIS: error= 3.20D-05 at cycle   1 NSaved=   1.
 NSaved= 1 IEnMin= 1 EnMin= -226.389013645624     IErMin= 1 ErrMin= 3.20D-05
 ErrMax= 3.20D-05  0.00D+00 EMaxC= 1.00D-01 BMatC= 1.02D-07 BMatP= 1.02D-07
 IDIUse=1 WtCom= 1.00D+00 WtEn= 0.00D+00
 Coeff-Com:  0.100D+01
 Coeff:      0.100D+01
 Gap=     0.975 Goal=   None    Shift=    0.000
 RMSDP=7.73D-06 MaxDP=6.24D-05              OVMax= 1.40D-04

 Cycle   2  Pass 1  IDiag  1:
 E= -226.389013832876     Delta-E=       -0.000000187252 Rises=F Damp=F
 DIIS: error= 1.57D-05 at cycle   2 NSaved=   2.
 NSaved= 2 IEnMin= 2 EnMin= -226.389013832876     IErMin= 2 ErrMin= 1.57D-05
 ErrMax= 1.57D-05  0.00D+00 EMaxC= 1.00D-01 BMatC= 9.74D-09 BMatP= 1.02D-07
 IDIUse=1 WtCom= 1.00D+00 WtEn= 0.00D+00
 Coeff-Com: -0.286D+00 0.129D+01
 Coeff:     -0.286D+00 0.129D+01
 Gap=     0.540 Goal=   None    Shift=    0.000
 RMSDP=4.26D-06 MaxDP=3.28D-05 DE=-1.87D-07 OVMax= 9.32D-05

 Cycle   3  Pass 1  IDiag  1:
 E= -226.389013865058     Delta-E=       -0.000000032182 Rises=F Damp=F
 DIIS: error= 5.55D-06 at cycle   3 NSaved=   3.
 NSaved= 3 IEnMin= 3 EnMin= -226.389013865058     IErMin= 3 ErrMin= 5.55D-06
 ErrMax= 5.55D-06  0.00D+00 EMaxC= 1.00D-01 BMatC= 7.89D-10 BMatP= 9.74D-09
 IDIUse=1 WtCom= 1.00D+00 WtEn= 0.00D+00
 Coeff-Com:  0.201D-01-0.309D+00 0.129D+01
 Coeff:      0.201D-01-0.309D+00 0.129D+01
 Gap=     0.540 Goal=   None    Shift=    0.000
 RMSDP=1.65D-06 MaxDP=1.24D-05 DE=-3.22D-08 OVMax= 3.56D-05

 Cycle   4  Pass 1  IDiag  1:
 E= -226.389013868231     Delta-E=       -0.000000003173 Rises=F Damp=F
 DIIS: error= 1.47D-06 at cycle   4 NSaved=   4.
 NSaved= 4 IEnMin= 4 EnMin= -226.389013868231     IErMin= 4 ErrMin= 1.47D-06
 ErrMax= 1.47D-06  0.00D+00 EMaxC= 1.00D-01 BMatC= 9.22D-11 BMatP= 7.89D-10
 IDIUse=1 WtCom= 1.00D+00 WtEn= 0.00D+00
 Coeff-Com:  0.271D-01-0.161D+00 0.217D+00 0.917D+00
 Coeff:      0.271D-01-0.161D+00 0.217D+00 0.917D+00
 Gap=     0.540 Goal=   None    Shift=    0.000
 RMSDP=4.28D-07 MaxDP=2.56D-06 DE=-3.17D-09 OVMax= 8.05D-06

 Cycle   5  Pass 1  IDiag  1:
 E= -226.389013868464     Delta-E=       -0.000000000233 Rises=F Damp=F
 DIIS: error= 6.02D-07 at cycle   5 NSaved=   5.
 NSaved= 5 IEnMin= 5 EnMin= -226.389013868464     IErMin= 5 ErrMin= 6.02D-07
 ErrMax= 6.02D-07  0.00D+00 EMaxC= 1.00D-01 BMatC= 9.08D-12 BMatP= 9.22D-11
 IDIUse=1 WtCom= 1.00D+00 WtEn= 0.00D+00
 Coeff-Com: -0.529D-02 0.530D-01-0.179D+00-0.816D-01 0.121D+01
 Coeff:     -0.529D-02 0.530D-01-0.179D+00-0.816D-01 0.121D+01
 Gap=     0.540 Goal=   None    Shift=    0.000
 RMSDP=1.75D-07 MaxDP=9.94D-07 DE=-2.33D-10 OVMax= 3.09D-06

 Cycle   6  Pass 1  IDiag  1:
 E= -226.389013868496     Delta-E=       -0.000000000032 Rises=F Damp=F
 DIIS: error= 2.88D-07 at cycle   6 NSaved=   6.
 NSaved= 6 IEnMin= 6 EnMin= -226.389013868496     IErMin= 6 ErrMin= 2.88D-07
 ErrMax= 2.88D-07  0.00D+00 EMaxC= 1.00D-01 BMatC= 1.12D-12 BMatP= 9.08D-12
 IDIUse=1 WtCom= 1.00D+00 WtEn= 0.00D+00
 Coeff-Com: -0.150D-02 0.827D-02-0.617D-02-0.574D-01-0.459D-01 0.110D+01
 Coeff:     -0.150D-02 0.827D-02-0.617D-02-0.574D-01-0.459D-01 0.110D+01
 Gap=     0.540 Goal=   None    Shift=    0.000
 RMSDP=5.16D-08 MaxDP=3.94D-07 DE=-3.18D-11 OVMax= 1.24D-06

 Cycle   7  Pass 1  IDiag  1:
 E= -226.389013868500     Delta-E=       -0.000000000004 Rises=F Damp=F
 DIIS: error= 1.59D-07 at cycle   7 NSaved=   7.
 NSaved= 7 IEnMin= 7 EnMin= -226.389013868500     IErMin= 7 ErrMin= 1.59D-07
 ErrMax= 1.59D-07  0.00D+00 EMaxC= 1.00D-01 BMatC= 3.14D-13 BMatP= 1.12D-12
 IDIUse=1 WtCom= 1.00D+00 WtEn= 0.00D+00
 Coeff-Com:  0.114D-02-0.126D-01 0.466D-01 0.120D-01-0.326D+00 0.126D+00
 Coeff-Com:  0.115D+01
 Coeff:      0.114D-02-0.126D-01 0.466D-01 0.120D-01-0.326D+00 0.126D+00
 Coeff:      0.115D+01
 Gap=     0.540 Goal=   None    Shift=    0.000
 RMSDP=3.64D-08 MaxDP=2.88D-07 DE=-3.92D-12 OVMax= 9.62D-07

 Cycle   8  Pass 1  IDiag  1:
 E= -226.389013868502     Delta-E=       -0.000000000002 Rises=F Damp=F
 DIIS: error= 5.51D-08 at cycle   8 NSaved=   8.
 NSaved= 8 IEnMin= 8 EnMin= -226.389013868502     IErMin= 8 ErrMin= 5.51D-08
 ErrMax= 5.51D-08  0.00D+00 EMaxC= 1.00D-01 BMatC= 4.58D-14 BMatP= 3.14D-13
 IDIUse=1 WtCom= 1.00D+00 WtEn= 0.00D+00
 Coeff-Com:  0.180D-03-0.317D-03-0.323D-02 0.856D-02 0.355D-01-0.197D+00
 Coeff-Com: -0.649D-01 0.122D+01
 Coeff:      0.180D-03-0.317D-03-0.323D-02 0.856D-02 0.355D-01-0.197D+00
 Coeff:     -0.649D-01 0.122D+01
 Gap=     0.540 Goal=   None    Shift=    0.000
 RMSDP=1.43D-08 MaxDP=1.10D-07 DE=-1.59D-12 OVMax= 3.77D-07

 Cycle   9  Pass 1  IDiag  1:
 E= -226.389013868502     Delta-E=        0.000000000000 Rises=F Damp=F
 DIIS: error= 1.64D-08 at cycle   9 NSaved=   9.
 NSaved= 9 IEnMin= 8 EnMin= -226.389013868502     IErMin= 9 ErrMin= 1.64D-08
 ErrMax= 1.64D-08  0.00D+00 EMaxC= 1.00D-01 BMatC= 6.86D-15 BMatP= 4.58D-14
 IDIUse=1 WtCom= 1.00D+00 WtEn= 0.00D+00
 Coeff-Com: -0.181D-03 0.234D-02-0.958D-02-0.408D-03 0.700D-01-0.701D-01
 Coeff-Com: -0.226D+00 0.252D+00 0.982D+00
 Coeff:     -0.181D-03 0.234D-02-0.958D-02-0.408D-03 0.700D-01-0.701D-01
 Coeff:     -0.226D+00 0.252D+00 0.982D+00
 Gap=     0.540 Goal=   None    Shift=    0.000
 RMSDP=5.16D-09 MaxDP=3.47D-08 DE= 5.68D-14 OVMax= 1.29D-07

 SCF Done:  E(RHF) =  -226.389013869     A.U. after    9 cycles
            NFock=  9  Conv=0.52D-08     -V/T= 2.0034
 KE= 2.256159862663D+02 PE=-7.675176320334D+02 EE= 1.984431973439D+02
 Leave Link  502 at Fri Apr 12 16:32:16 2019, MaxMem=   134217728 cpu:         0.2
 (Enter /cm/shared/c3ddb/gaussian/09.d01/g09/l701.exe)
 Compute integral first derivatives.
 ... and contract with generalized density number  0.
[...]
 E= -226.389013877763     Delta-E=       -0.000000001737 Rises=F Damp=F
 DIIS: error= 1.03D-06 at cycle   3 NSaved=   3.
 NSaved= 3 IEnMin= 3 EnMin= -226.389013877763     IErMin= 3 ErrMin= 1.03D-06
 ErrMax= 1.03D-06  0.00D+00 EMaxC= 1.00D-01 BMatC= 5.56D-11 BMatP= 5.86D-10
 IDIUse=1 WtCom= 1.00D+00 WtEn= 0.00D+00
 Coeff-Com: -0.407D-01 0.735D-02 0.103D+01
 Coeff:     -0.407D-01 0.735D-02 0.103D+01
 Gap=     0.540 Goal=   None    Shift=    0.000
 RMSDP=2.98D-07 MaxDP=2.27D-06 DE=-1.74D-09 OVMax= 6.27D-06

 Cycle   4  Pass 1  IDiag  1:
 E= -226.389013877906     Delta-E=       -0.000000000143 Rises=F Damp=F
 DIIS: error= 5.15D-07 at cycle   4 NSaved=   4.
 NSaved= 4 IEnMin= 4 EnMin= -226.389013877906     IErMin= 4 ErrMin= 5.15D-07
 ErrMax= 5.15D-07  0.00D+00 EMaxC= 1.00D-01 BMatC= 1.44D-11 BMatP= 5.56D-11
 IDIUse=1 WtCom= 1.00D+00 WtEn= 0.00D+00
 Coeff-Com:  0.325D-01-0.209D+00 0.315D+00 0.862D+00
 Coeff:      0.325D-01-0.209D+00 0.315D+00 0.862D+00
 Gap=     0.540 Goal=   None    Shift=    0.000
 RMSDP=1.29D-07 MaxDP=9.33D-07 DE=-1.43D-10 OVMax= 2.76D-06

 Cycle   5  Pass 1  IDiag  1:
 E= -226.389013877933     Delta-E=       -0.000000000028 Rises=F Damp=F
 DIIS: error= 1.36D-07 at cycle   5 NSaved=   5.
 NSaved= 5 IEnMin= 5 EnMin= -226.389013877933     IErMin= 5 ErrMin= 1.36D-07
 ErrMax= 1.36D-07  0.00D+00 EMaxC= 1.00D-01 BMatC= 8.08D-13 BMatP= 1.44D-11
 IDIUse=1 WtCom= 1.00D+00 WtEn= 0.00D+00
 Coeff-Com: -0.124D-02 0.274D-01-0.133D+00-0.131D+00 0.124D+01
 Coeff:     -0.124D-02 0.274D-01-0.133D+00-0.131D+00 0.124D+01
 Gap=     0.540 Goal=   None    Shift=    0.000
 RMSDP=5.01D-08 MaxDP=3.01D-07 DE=-2.76D-11 OVMax= 8.86D-07

 Cycle   6  Pass 1  IDiag  1:
 E= -226.389013877937     Delta-E=       -0.000000000003 Rises=F Damp=F
 DIIS: error= 6.37D-08 at cycle   6 NSaved=   6.
 NSaved= 6 IEnMin= 6 EnMin= -226.389013877937     IErMin= 6 ErrMin= 6.37D-08
 ErrMax= 6.37D-08  0.00D+00 EMaxC= 1.00D-01 BMatC= 1.36D-13 BMatP= 8.08D-13
 IDIUse=1 WtCom= 1.00D+00 WtEn= 0.00D+00
 Coeff-Com: -0.377D-02 0.271D-01-0.520D-01-0.119D+00 0.205D+00 0.943D+00
 Coeff:     -0.377D-02 0.271D-01-0.520D-01-0.119D+00 0.205D+00 0.943D+00
 Gap=     0.540 Goal=   None    Shift=    0.000
 RMSDP=1.54D-08 MaxDP=1.15D-07 DE=-3.30D-12 OVMax= 2.86D-07

 Cycle   7  Pass 1  IDiag  1:
 E= -226.389013877937     Delta-E=        0.000000000000 Rises=F Damp=F
 DIIS: error= 3.76D-08 at cycle   7 NSaved=   7.
 NSaved= 7 IEnMin= 7 EnMin= -226.389013877937     IErMin= 7 ErrMin= 3.76D-08
 ErrMax= 3.76D-08  0.00D+00 EMaxC= 1.00D-01 BMatC= 2.58D-14 BMatP= 1.36D-13
 IDIUse=1 WtCom= 1.00D+00 WtEn= 0.00D+00
 Coeff-Com:  0.158D-02-0.150D-01 0.461D-01 0.610D-01-0.296D+00-0.360D+00
 Coeff-Com:  0.156D+01
 Coeff:      0.158D-02-0.150D-01 0.461D-01 0.610D-01-0.296D+00-0.360D+00
 Coeff:      0.156D+01
 Gap=     0.540 Goal=   None    Shift=    0.000
 RMSDP=1.19D-08 MaxDP=1.09D-07 DE=-3.41D-13 OVMax= 2.38D-07

 Cycle   8  Pass 1  IDiag  1:
 E= -226.389013877937     Delta-E=        0.000000000000 Rises=F Damp=F
 DIIS: error= 1.20D-08 at cycle   8 NSaved=   8.
 NSaved= 8 IEnMin= 8 EnMin= -226.389013877937     IErMin= 8 ErrMin= 1.20D-08
 ErrMax= 1.20D-08  0.00D+00 EMaxC= 1.00D-01 BMatC= 2.80D-15 BMatP= 2.58D-14
 IDIUse=1 WtCom= 1.00D+00 WtEn= 0.00D+00
 Coeff-Com: -0.246D-03 0.361D-02-0.150D-01-0.156D-01 0.119D+00 0.463D-01
 Coeff-Com: -0.753D+00 0.162D+01
 Coeff:     -0.246D-03 0.361D-02-0.150D-01-0.156D-01 0.119D+00 0.463D-01
 Coeff:     -0.753D+00 0.162D+01
 Gap=     0.540 Goal=   None    Shift=    0.000
 RMSDP=4.65D-09 MaxDP=4.41D-08 DE=-2.27D-13 OVMax= 9.63D-08

 SCF Done:  E(RHF) =  -226.389013878     A.U. after    8 cycles
            NFock=  8  Conv=0.47D-08     -V/T= 2.0034
 KE= 2.256160352516D+02 PE=-7.675186716757D+02 EE= 1.984436782471D+02
 Leave Link  502 at Fri Apr 12 16:32:17 2019, MaxMem=   134217728 cpu:         0.2
 (Enter /cm/shared/c3ddb/gaussian/09.d01/g09/l701.exe)
 Compute integral first derivatives.
 ... and contract with generalized density number  0.
 Leave Link  701 at Fri Apr 12 16:32:18 2019, MaxMem=   134217728 cpu:         0.2
 (Enter /cm/shared/c3ddb/gaussian/09.d01/g09/l702.exe)
 L702 exits ... SP integral derivatives will be done elsewhere.
 Leave Link  702 at Fri Apr 12 16:32:18 2019, MaxMem=   134217728 cpu:         0.1
 (Enter /cm/shared/c3ddb/gaussian/09.d01/g09/l703.exe)
 Compute integral first derivatives, UseDBF=F ICtDFT=           0.
 Integral derivatives from FoFJK, PRISM(SPDF).
 Calling FoFJK, ICntrl=      2127 FMM=F ISym2X=0 I1Cent= 0 IOpClX= 0 NMat=1 NMatS=1 NMatT=0.
 FoFJK:  IHMeth= 1 ICntrl=    2127 DoSepK=F KAlg= 0 I1Cent=   0 FoldK=F
 IRaf=         0 NMat=   1 IRICut=       1 DoRegI=T DoRafI=F ISym2E= 0.
 FoFCou: FMM=F IPFlag=           0 FMFlag=      100000 FMFlg1=         800
         NFxFlg=           0 DoJE=F BraDBF=F KetDBF=F FulRan=T
         wScrn=  0.000000 ICntrl=    2127 IOpCl=  0 I1Cent=           0 NGrid=           0
         NMat0=    1 NMatS0=      1 NMatT0=    0 NMatD0=    1 NMtDS0=    0 NMtDT0=    0
 Symmetry not used in FoFCou.
 Leave Link  703 at Fri Apr 12 16:32:18 2019, MaxMem=   134217728 cpu:         0.2
 (Enter /cm/shared/c3ddb/gaussian/09.d01/g09/l716.exe)
 Dipole        = 9.05633124D-01 6.24521860D-01 2.14582319D-01
 -------------------------------------------------------------------
 Center     Atomic                   Forces (Hartrees/Bohr)
 Number     Number              X              Y              Z
 -------------------------------------------------------------------
      1        6          -0.000212823   -0.002604400    0.002576636
      2        6           0.000076415    0.000102779   -0.001571198
      3        1           0.000003000    0.000000384    0.000000057
      4        1           0.000000453   -0.000000481    0.000001986
      5        1           0.000000096    0.000000098    0.000002189
      6        8          -0.000401339    0.002194497   -0.001172198
      7        8           0.004243253   -0.000390457    0.001618248
      8        1          -0.003709055    0.000697579   -0.001455720
 -------------------------------------------------------------------
 Cartesian Forces:  Max     0.004243253 RMS     0.001573776
 Leave Link  716 at Fri Apr 12 16:32:18 2019, MaxMem=   134217728 cpu:         0.1
 (Enter /cm/shared/c3ddb/gaussian/09.d01/g09/l103.exe)

 GradGradGradGradGradGradGradGradGradGradGradGradGradGradGradGradGradGrad
 Berny optimization.
 Using GEDIIS/GDIIS optimizer.
 FormGI is forming the generalized inverse of G from B-inverse, IUseBI=4.
 Internal  Forces:  Max     0.007281075 RMS     0.001653298
 Search for a local minimum.
 Step number   5 out of a maximum of   32
 All quantities printed in internal units (Hartrees-Bohrs-Radians)
 RMS Force = .32417D-05 SwitMx=.10000D-02 MixMth= 2
 Mixed Optimization -- En-DIIS/RFO-DIIS
 Swapping is turned off.
 Update second derivatives using D2CorX and points    1    2    3    4    5
 DE= -9.44D-09 DEPred=-1.03D-08 R= 9.14D-01
 Trust test= 9.14D-01 RLast= 5.95D-04 DXMaxT set to 3.00D-01
 ITU=  0  0  1  0  0
     Eigenvalues ---    0.02818   0.03352   0.05109   0.15349   0.16000
     Eigenvalues ---    0.16014   0.21642   0.21970   0.26479   0.37033
     Eigenvalues ---    0.37105   0.37133   0.40381   0.44924   0.52404
     Eigenvalues ---    0.651191000.000001000.000001000.000001000.00000
     Eigenvalues --- 1000.000001000.00000
 En-DIIS/RFO-DIIS IScMMF=        0 using points:     5    4    3    2    1
 RFO step:  Lambda=-1.90205290D-06.
 NNeg= 0 NP= 5 Switch=  2.50D-03 Rises=F DC=  1.11D-05 SmlDif=  1.00D-05
 RMS Error=  0.5271795477D-04 NUsed= 5 EDIIS=F
 DidBck=F Rises=F RFO-DIIS coefs:    0.85082    0.12036    0.03433   -0.00291   -0.00260
 Iteration  1 RMS(Cart)=  0.00002289 RMS(Int)=  0.00000027
 Iteration  2 RMS(Cart)=  0.00000000 RMS(Int)=  0.00000027
 Iteration  1 RMS(Cart)=  0.00000035 RMS(Int)=  0.00000014
 ITry= 1 IFail=0 DXMaxC= 5.56D-05 DCOld= 1.00D+10 DXMaxT= 3.00D-01 DXLimC= 3.00D+00 Rises=F
 Variable       Old X    -DE/DX   Delta X   Delta X   Delta X     New X
                                 (Linear)    (Quad)   (Total)
    R1        2.47039   0.00000   0.00000   0.00001   0.00001   2.47039
    R2        2.02535   0.00000   0.00000   0.00000   0.00000   2.02535
    R3        2.66859   0.00000   0.00001  -0.00002  -0.00001   2.66858
    R4        2.02391   0.00000   0.00000   0.00000   0.00000   2.02391
    R5        2.02351   0.00000   0.00000   0.00000   0.00000   2.02351
    R6        2.77989   0.00000  -0.00001   0.00001   0.00001   2.77990
    R7        1.84209   0.00000   0.00001   0.00000   0.00000   1.84209
    A1        2.16693  -0.00003   0.00000  -0.00003  -0.00003   2.16691
    A2        2.11519   0.00000   0.00000   0.00002   0.00002   2.11521
    A3        2.00081   0.00001  -0.00001   0.00001   0.00001   2.00081
    A4        2.11111   0.00000   0.00000   0.00000   0.00000   2.11111
    A5        2.10593   0.00000   0.00000   0.00000   0.00000   2.10593
    A6        2.06608   0.00000   0.00000   0.00000   0.00000   2.06608
    A7        1.88293   0.00001   0.00002   0.00001   0.00003   1.88296
    A8        1.78505   0.00000  -0.00001  -0.00001  -0.00002   1.78503
    D1       -0.02544   0.00054   0.00004   0.00000   0.00004  -0.02540
    D2        3.12920   0.00053   0.00000  -0.00003  -0.00003   3.12917
    D3        3.09050  -0.00053   0.00002   0.00000   0.00002   3.09052
    D4       -0.03804  -0.00054  -0.00002  -0.00004  -0.00006  -0.03810
    D5        1.74533   0.00215   0.00000   0.00000   0.00000   1.74533
    D6       -1.41962   0.00117  -0.00002   0.00000  -0.00002  -1.41964
    D7        1.39626   0.00728   0.00000   0.00000   0.00000   1.39626
         Item               Value     Threshold  Converged?
 Maximum Force            0.000009     0.000015     YES
 RMS     Force            0.000003     0.000010     YES
 Maximum Displacement     0.000056     0.000060     YES
 RMS     Displacement     0.000023     0.000040     YES
 Predicted change in Energy=-5.872680D-10
 Optimization completed.
    -- Stationary point found.
                           ----------------------------
                           !   Optimized Parameters   !
                           ! (Angstroms and Degrees)  !
 --------------------------                            --------------------------
 ! Name  Definition              Value          Derivative Info.                !
 --------------------------------------------------------------------------------
 ! R1    R(1,2)                  1.3073         -DE/DX =    0.0                 !
 ! R2    R(1,3)                  1.0718         -DE/DX =    0.0                 !
 ! R3    R(1,6)                  1.4122         -DE/DX =    0.0                 !
 ! R4    R(2,4)                  1.071          -DE/DX =    0.0                 !
 ! R5    R(2,5)                  1.0708         -DE/DX =    0.0                 !
 ! R6    R(6,7)                  1.4711         -DE/DX =    0.0                 !
 ! R7    R(7,8)                  0.9748         -DE/DX =    0.0                 !
 ! A1    A(2,1,3)              124.1561         -DE/DX =    0.0                 !
 ! A2    A(2,1,6)              121.1915         -DE/DX =    0.0                 !
 ! A3    A(3,1,6)              114.6377         -DE/DX =    0.0                 !
 ! A4    A(1,2,4)              120.9574         -DE/DX =    0.0                 !
 ! A5    A(1,2,5)              120.6608         -DE/DX =    0.0                 !
 ! A6    A(4,2,5)              118.3777         -DE/DX =    0.0                 !
 ! A7    A(1,6,7)              107.8841         -DE/DX =    0.0                 !
 ! A8    A(6,7,8)              102.2756         -DE/DX =    0.0                 !
 ! D1    D(3,1,2,4)             -1.4575         -DE/DX =    0.0005              !
 ! D2    D(3,1,2,5)            179.2902         -DE/DX =    0.0005              !
 ! D3    D(6,1,2,4)            177.0726         -DE/DX =   -0.0005              !
 ! D4    D(6,1,2,5)             -2.1798         -DE/DX =   -0.0005              !
 ! D5    D(2,1,6,7)             100.0           -DE/DX =    0.0021              !
 ! D6    D(3,1,6,7)            -81.3382         -DE/DX =    0.0012              !
 ! D7    D(1,6,7,8)             80.0            -DE/DX =    0.0073              !
 --------------------------------------------------------------------------------
 Lowest energy point so far.  Saving SCF results.
 GradGradGradGradGradGradGradGradGradGradGradGradGradGradGradGradGradGrad

 Largest change from initial coordinates is atom    8       0.011 Angstoms.
 Leave Link  103 at Fri Apr 12 16:32:18 2019, MaxMem=   134217728 cpu:         0.0
 (Enter /cm/shared/c3ddb/gaussian/09.d01/g09/l202.exe)
                          Input orientation:                          
 ---------------------------------------------------------------------
 Center     Atomic      Atomic             Coordinates (Angstroms)
 Number     Number       Type             X           Y           Z
 ---------------------------------------------------------------------
      1          6           0        0.739721    0.624729    0.044567
      2          6           0        1.380517   -0.513777   -0.001749
      3          1           0        1.217533    1.582067    0.106918
      4          1           0        2.451101   -0.543787   -0.002112
      5          1           0        0.845410   -1.439901   -0.052313
      6          8           0       -0.670283    0.673369   -0.016326
      7          8           0       -1.176184    0.840275    1.354883
      8          1           0       -1.055812    1.795837    1.505327
 ---------------------------------------------------------------------
                    Distance matrix (angstroms):
                    1          2          3          4          5
     1  C    0.000000
     2  C    1.307273   0.000000
     3  H    1.071769   2.104979   0.000000
     4  H    2.072784   1.071005   2.460251   0.000000
     5  H    2.069602   1.070795   3.048954   1.839507   0.000000
     6  O    1.412156   2.369664   2.098754   3.350330   2.600871
     7  O    2.331111   3.195408   2.799563   4.112695   3.356523
     8  H    2.594080   3.679850   2.677563   4.477126   4.063360
                    6          7          8
     6  O    0.000000
     7  O    1.471057   0.000000
     8  H    1.929766   0.974793   0.000000
 Symmetry turned off by external request.
 Stoichiometry    C2H4O2
 Framework group  C1[X(C2H4O2)]
 Deg. of freedom    18
 Full point group                 C1      NOp   1
 Rotational constants (GHZ):     25.1778675      4.9914359      4.8198652
 Leave Link  202 at Fri Apr 12 16:32:18 2019, MaxMem=   134217728 cpu:         0.0
 (Enter /cm/shared/c3ddb/gaussian/09.d01/g09/l601.exe)
 Copying SCF densities to generalized density rwf, IOpCl= 0 IROHF=0.

 **********************************************************************

            Population analysis using the SCF density.

 **********************************************************************

 Alpha  occ. eigenvalues --  -20.52783 -20.52001 -11.24128 -11.18264  -1.46675
 Alpha  occ. eigenvalues --   -1.23111  -1.03700  -0.80387  -0.69439  -0.68796
 Alpha  occ. eigenvalues --   -0.63184  -0.57980  -0.56617  -0.47978  -0.46882
 Alpha  occ. eigenvalues --   -0.38839
 Alpha virt. eigenvalues --    0.15114   0.26019   0.27942   0.30677   0.32404
 Alpha virt. eigenvalues --    0.35794   0.49324   0.56272   0.88345   0.96833
 Alpha virt. eigenvalues --    0.98442   1.06204   1.09689   1.11219   1.25449
 Alpha virt. eigenvalues --    1.31611   1.36298   1.56981   1.59624   1.76041
 Alpha virt. eigenvalues --    1.82013   1.85449   1.99166   2.05215   2.08795
 Alpha virt. eigenvalues --    2.17330   3.10665   3.45722
          Condensed to atoms (all electrons):
               1          2          3          4          5          6
     1  C    4.911985   0.488016   0.375700  -0.040238  -0.049245   0.241357
     2  C    0.488016   5.326426  -0.066292   0.370219   0.386416  -0.058476
     3  H    0.375700  -0.066292   0.501436   0.001348   0.002342  -0.040915
     4  H   -0.040238   0.370219   0.001348   0.453714  -0.014844   0.001511
     5  H   -0.049245   0.386416   0.002342  -0.014844   0.420519  -0.000855
     6  O    0.241357  -0.058476  -0.040915   0.001511  -0.000855   8.153999
     7  O   -0.036326   0.000073   0.000700  -0.000033   0.000189   0.121247
     8  H   -0.001639   0.000042   0.001615   0.000006   0.000013  -0.025164
               7          8
     1  C   -0.036326  -0.001639
     2  C    0.000073   0.000042
     3  H    0.000700   0.001615
     4  H   -0.000033   0.000006
     5  H    0.000189   0.000013
     6  O    0.121247  -0.025164
     7  O    8.055024   0.237310
     8  H    0.237310   0.388736
 Mulliken charges:
               1
     1  C    0.110389
     2  C   -0.446423
     3  H    0.224064
     4  H    0.228316
     5  H    0.255464
     6  O   -0.392704
     7  O   -0.378185
     8  H    0.399079
 Sum of Mulliken charges =   0.00000
 Mulliken charges with hydrogens summed into heavy atoms:
               1
     1  C    0.334453
     2  C    0.037356
     6  O   -0.392704
     7  O    0.020895
 Electronic spatial extent (au):  <R**2>=            323.2329
 Charge=              0.0000 electrons
 Dipole moment (field-independent basis, Debye):
    X=              2.3019    Y=              1.5874    Z=              0.5454  Tot=              2.8488
 Quadrupole moment (field-independent basis, Debye-Ang):
   XX=            -23.4893   YY=            -16.7540   ZZ=            -24.7766
   XY=             -1.0074   XZ=             -0.0965   YZ=              3.7076
 Traceless Quadrupole moment (field-independent basis, Debye-Ang):
   XX=             -1.8160   YY=              4.9193   ZZ=             -3.1033
   XY=             -1.0074   XZ=             -0.0965   YZ=              3.7076
 Octapole moment (field-independent basis, Debye-Ang**2):
  XXX=             -3.9436  YYY=            -16.7531  ZZZ=            -23.2542  XYY=             -6.8121
  XXY=             -8.5148  XXZ=             -8.7162  XZZ=             -6.2171  YZZ=             -3.7666
  YYZ=              0.3871  XYZ=             -3.1622
 Hexadecapole moment (field-independent basis, Debye-Ang**3):
 XXXX=           -179.2493 YYYY=            -78.4070 ZZZZ=            -82.4689 XXXY=             28.2361
 XXXZ=             28.9359 YYYX=             22.0019 YYYZ=             -5.4133 ZZZX=             25.1695
 ZZZY=            -13.8750 XXYY=            -42.4948 XXZZ=            -49.7510 YYZZ=            -19.7050
 XXYZ=             -4.3188 YYXZ=              0.4960 ZZXY=              5.0841
 N-N= 1.170699442991D+02 E-N=-7.675186716012D+02  KE= 2.256160352516D+02
 No NMR shielding tensors so no spin-rotation constants.
 Leave Link  601 at Fri Apr 12 16:32:19 2019, MaxMem=   134217728 cpu:         0.1
 (Enter /cm/shared/c3ddb/gaussian/09.d01/g09/l9999.exe)
 1\1\GINC-NODE029\FOpt\RHF\3-21G\C2H4O2\MATTSJ\12-Apr-2019\0\\#p hf 3-2
 1g scf=tight NoSymmetry guess=read opt=(tight,modredundant)\\Geometry 
 optimization at the 2D-PES\\0,1\C,0.7397205698,0.6247286719,0.04456735
 5\C,1.3805172054,-0.5137774921,-0.0017486598\H,1.2175326516,1.58206652
 65,0.106918161\H,2.4511012849,-0.5437874314,-0.0021116287\H,0.84541011
 93,-1.439901206,-0.0523134039\O,-0.6702828218,0.6733688612,-0.01632561
 36\O,-1.1761839973,0.8402749871,1.3548833954\H,-1.0558120119,1.7958370
 828,1.5053273947\\Version=AS64L-G09RevD.01\HF=-226.3890139\RMSD=4.652e
 -09\RMSF=1.574e-03\Dipole=0.9056331,0.6245219,0.2145823\Quadrupole=-1.
 350161,3.6573893,-2.3072283,-0.7489672,-0.0717475,2.7564752\PG=C01 [X(
 C2H4O2)]\\@


 SCIENCE AT ITS BEST PROVIDES US WITH BETTER QUESTIONS, 
 NOT ABSOLUTE ANSWERS

                                    -- NORMAN COUSINS, 1976
 Job cpu time:       0 days  0 hours  0 minutes 10.4 seconds.
 File lengths (MBytes):  RWF=      5 Int=      0 D2E=      0 Chk=      1 Scr=      1
 Normal termination of Gaussian 09 at Fri Apr 12 16:32:19 2019.
