 Entering Gaussian System, Link 0=/cm/shared/c3ddb/gaussian/09.d01/g09/g09
 Initial command:
 /cm/shared/c3ddb/gaussian/09.d01/g09/l1.exe "/scratch/users/mattsj/g09/S02-7952157/Gau-42634.inp" -scrdir="/scratch/users/mattsj/g09/S02-7952157/"
 Entering Link 1 = /cm/shared/c3ddb/gaussian/09.d01/g09/l1.exe PID=     42635.
  
 Copyright (c) 1988,1990,1992,1993,1995,1998,2003,2009,2013,
            Gaussian, Inc.  All Rights Reserved.
  
 This is part of the Gaussian(R) 09 program.  It is based on
 the Gaussian(R) 03 system (copyright 2003, Gaussian, Inc.),
 the Gaussian(R) 98 system (copyright 1998, Gaussian, Inc.),
 the Gaussian(R) 94 system (copyright 1995, Gaussian, Inc.),
 the Gaussian 92(TM) system (copyright 1992, Gaussian, Inc.),
 the Gaussian 90(TM) system (copyright 1990, Gaussian, Inc.),
 the Gaussian 88(TM) system (copyright 1988, Gaussian, Inc.),
 the Gaussian 86(TM) system (copyright 1986, Carnegie Mellon
 University), and the Gaussian 82(TM) system (copyright 1983,
 Carnegie Mellon University). Gaussian is a federally registered
 trademark of Gaussian, Inc.
  
 This software contains proprietary and confidential information,
 including trade secrets, belonging to Gaussian, Inc.
  
 This software is provided under written license and may be
 used, copied, transmitted, or stored only in accord with that
 written license.
  
 The following legend is applicable only to US Government
 contracts under FAR:
  
                    RESTRICTED RIGHTS LEGEND
  
 Use, reproduction and disclosure by the US Government is
 subject to restrictions as set forth in subparagraphs (a)
 and (c) of the Commercial Computer Software - Restricted
 Rights clause in FAR 52.227-19.
  
 Gaussian, Inc.
 340 Quinnipiac St., Bldg. 40, Wallingford CT 06492
  
  
 ---------------------------------------------------------------
 Warning -- This program may not be used in any manner that
 competes with the business of Gaussian, Inc. or will provide
 assistance to any competitor of Gaussian, Inc.  The licensee
 of this program is prohibited from giving any competitor of
 Gaussian, Inc. access to this program.  By using this program,
 the user acknowledges that Gaussian, Inc. is engaged in the
 business of creating and licensing software in the field of
 computational chemistry and represents and warrants to the
 licensee that it is not a competitor of Gaussian, Inc. and that
 it will not use this program in any manner prohibited above.
 ---------------------------------------------------------------
  

 Cite this work as:
 Gaussian 09, Revision D.01,
 M. J. Frisch, G. W. Trucks, H. B. Schlegel, G. E. Scuseria, 
 M. A. Robb, J. R. Cheeseman, G. Scalmani, V. Barone, B. Mennucci, 
 G. A. Petersson, H. Nakatsuji, M. Caricato, X. Li, H. P. Hratchian, 
 A. F. Izmaylov, J. Bloino, G. Zheng, J. L. Sonnenberg, M. Hada, 
 M. Ehara, K. Toyota, R. Fukuda, J. Hasegawa, M. Ishida, T. Nakajima, 
 Y. Honda, O. Kitao, H. Nakai, T. Vreven, J. A. Montgomery, Jr., 
 J. E. Peralta, F. Ogliaro, M. Bearpark, J. J. Heyd, E. Brothers, 
 K. N. Kudin, V. N. Staroverov, T. Keith, R. Kobayashi, J. Normand, 
 K. Raghavachari, A. Rendell, J. C. Burant, S. S. Iyengar, J. Tomasi, 
 M. Cossi, N. Rega, J. M. Millam, M. Klene, J. E. Knox, J. B. Cross, 
 V. Bakken, C. Adamo, J. Jaramillo, R. Gomperts, R. E. Stratmann, 
 O. Yazyev, A. J. Austin, R. Cammi, C. Pomelli, J. W. Ochterski, 
 R. L. Martin, K. Morokuma, V. G. Zakrzewski, G. A. Voth, 
 P. Salvador, J. J. Dannenberg, S. Dapprich, A. D. Daniels, 
 O. Farkas, J. B. Foresman, J. V. Ortiz, J. Cioslowski, 
 and D. J. Fox, Gaussian, Inc., Wallingford CT, 2013.
 
 ******************************************
 Gaussian 09:  AS64L-G09RevD.01 24-Apr-2013
                12-Apr-2019 
 ******************************************
 %nproc=1
 Will use up to    1 processors via shared memory.
 %mem=1GB
 %chk=TMP_CALCS/scangeom_S02_190_070.chk
 --------------------------------------------------------------------
 #p hf 3-21g scf=tight NoSymmetry guess=read opt=(tight,modredundant)
 --------------------------------------------------------------------
 1/7=10,18=120,19=15,38=1/1,3;
 2/9=110,12=2,15=1,17=6,18=5,40=1/2;
 3/5=5,11=9,16=1,25=1,30=1,71=1,116=-2/1,2,3;
 4/5=1/1;
 5/5=2,32=2,38=6/2;
 6/7=2,8=2,9=2,10=2,28=1/1;
 7/30=1/1,2,3,16;
 1/7=10,18=20,19=15/3(2);
 2/9=110,15=1/2;
 99//99;
 2/9=110,15=1/2;
 3/5=5,11=9,16=1,25=1,30=1,71=1/1,2,3;
 4/5=5,16=3,69=1/1;
 5/5=2,32=2,38=5/2;
 7/30=1/1,2,3,16;
 1/7=10,18=20,19=15/3(-5);
 2/9=110,15=1/2;
 6/7=2,8=2,9=2,10=2,19=2,28=1/1;
 99/9=1/99;
 Leave Link    1 at Fri Apr 12 15:35:12 2019, MaxMem=   134217728 cpu:         0.1
 (Enter /cm/shared/c3ddb/gaussian/09.d01/g09/l101.exe)
 -----------------------------------
 Geometry optimization at the 2D-PES
 -----------------------------------
 Symbolic Z-matrix:
 Charge =  0 Multiplicity = 1
 C                     0.74542   0.63583   0.02317 
 C                     1.37716  -0.50974  -0.01175 
 H                     1.22121   1.58997   0.11277 
 H                     2.44643  -0.53885   0.02317 
 H                     0.84608  -1.43781  -0.06955 
 O                    -0.65899   0.68307   0.0324 
 O                    -1.09465   2.06411  -0.16718 
 H                    -0.86104   2.23844  -1.09789 
 
 The following ModRedundant input section has been read:
 D       2       1       6       7 F                                           
 D       1       6       7       8 F                                           
 
 NAtoms=      8 NQM=        8 NQMF=       0 NMMI=      0 NMMIF=      0
                NMic=       0 NMicF=      0.
                    Isotopes and Nuclear Properties:
 (Nuclear quadrupole moments (NQMom) in fm**2, nuclear magnetic moments (NMagM)
  in nuclear magnetons)

  Atom         1           2           3           4           5           6           7           8
 IAtWgt=          12          12           1           1           1          16          16           1
 AtmWgt=  12.0000000  12.0000000   1.0078250   1.0078250   1.0078250  15.9949146  15.9949146   1.0078250
 NucSpn=           0           0           1           1           1           0           0           1
 AtZEff=   0.0000000   0.0000000   0.0000000   0.0000000   0.0000000   0.0000000   0.0000000   0.0000000
 NQMom=    0.0000000   0.0000000   0.0000000   0.0000000   0.0000000   0.0000000   0.0000000   0.0000000
 NMagM=    0.0000000   0.0000000   2.7928460   2.7928460   2.7928460   0.0000000   0.0000000   2.7928460
 AtZNuc=   6.0000000   6.0000000   1.0000000   1.0000000   1.0000000   8.0000000   8.0000000   1.0000000
 Leave Link  101 at Fri Apr 12 15:35:13 2019, MaxMem=   134217728 cpu:         0.4
 (Enter /cm/shared/c3ddb/gaussian/09.d01/g09/l103.exe)

 GradGradGradGradGradGradGradGradGradGradGradGradGradGradGradGradGradGrad
 Berny optimization.
 Initialization pass.
                           ----------------------------
                           !    Initial Parameters    !
                           ! (Angstroms and Degrees)  !
 --------------------------                            --------------------------
 ! Name  Definition              Value          Derivative Info.                !
 --------------------------------------------------------------------------------
 ! R1    R(1,2)                  1.3087         estimate D2E/DX2                !
 ! R2    R(1,3)                  1.07           estimate D2E/DX2                !
 ! R3    R(1,6)                  1.4052         estimate D2E/DX2                !
 ! R4    R(2,4)                  1.0702         estimate D2E/DX2                !
 ! R5    R(2,5)                  1.0708         estimate D2E/DX2                !
 ! R6    R(6,7)                  1.4618         estimate D2E/DX2                !
 ! R7    R(7,8)                  0.9753         estimate D2E/DX2                !
 ! A1    A(2,1,3)              124.6236         estimate D2E/DX2                !
 ! A2    A(2,1,6)              120.8009         estimate D2E/DX2                !
 ! A3    A(3,1,6)              114.4497         estimate D2E/DX2                !
 ! A4    A(1,2,4)              120.3474         estimate D2E/DX2                !
 ! A5    A(1,2,5)              121.3779         estimate D2E/DX2                !
 ! A6    A(4,2,5)              118.2737         estimate D2E/DX2                !
 ! A7    A(1,6,7)              109.1912         estimate D2E/DX2                !
 ! A8    A(6,7,8)              103.1654         estimate D2E/DX2                !
 ! D1    D(3,1,2,4)             -1.7184         estimate D2E/DX2                !
 ! D2    D(3,1,2,5)            177.9093         estimate D2E/DX2                !
 ! D3    D(6,1,2,4)           -177.4094         estimate D2E/DX2                !
 ! D4    D(6,1,2,5)              2.2184         estimate D2E/DX2                !
 ! D5    D(2,1,6,7)           -169.9999         Frozen                          !
 ! D6    D(3,1,6,7)             13.8946         estimate D2E/DX2                !
 ! D7    D(1,6,7,8)             69.9999         Frozen                          !
 --------------------------------------------------------------------------------
 Trust Radius=3.00D-01 FncErr=1.00D-07 GrdErr=1.00D-07
 Number of steps in this run=     32 maximum allowed number of steps=    100.
 GradGradGradGradGradGradGradGradGradGradGradGradGradGradGradGradGradGrad

 Leave Link  103 at Fri Apr 12 15:35:13 2019, MaxMem=   134217728 cpu:         0.0
 (Enter /cm/shared/c3ddb/gaussian/09.d01/g09/l202.exe)
                          Input orientation:                          
 ---------------------------------------------------------------------
 Center     Atomic      Atomic             Coordinates (Angstroms)
 Number     Number       Type             X           Y           Z
 ---------------------------------------------------------------------
      1          6           0        0.745416    0.635826    0.023166
      2          6           0        1.377161   -0.509738   -0.011754
      3          1           0        1.221208    1.589970    0.112770
      4          1           0        2.446429   -0.538852    0.023169
      5          1           0        0.846078   -1.437813   -0.069554
      6          8           0       -0.658985    0.683068    0.032395
      7          8           0       -1.094653    2.064109   -0.167179
      8          1           0       -0.861035    2.238438   -1.097894
 ---------------------------------------------------------------------
                    Distance matrix (angstroms):
                    1          2          3          4          5
     1  C    0.000000
     2  C    1.308678   0.000000
     3  H    1.069952   2.109171   0.000000
     4  H    2.067199   1.070234   2.457860   0.000000
     5  H    2.078150   1.070847   3.056376   1.837893   0.000000
     6  O    1.405226   2.360217   2.089033   3.337180   2.602642
     7  O    2.337109   3.571934   2.380418   4.398966   4.004925
     8  H    2.530973   3.706979   2.494384   4.462000   4.181691
                    6          7          8
     6  O    0.000000
     7  O    1.461818   0.000000
     8  H    1.933275   0.975294   0.000000
 Symmetry turned off by external request.
 Stoichiometry    C2H4O2
 Framework group  C1[X(C2H4O2)]
 Deg. of freedom    18
 Full point group                 C1      NOp   1
 Rotational constants (GHZ):     42.2935530      4.5324908      4.1703494
 Leave Link  202 at Fri Apr 12 15:35:13 2019, MaxMem=   134217728 cpu:         0.0
 (Enter /cm/shared/c3ddb/gaussian/09.d01/g09/l301.exe)
 Standard basis: 3-21G (6D, 7F)
 Ernie: Thresh=  0.10000D-02 Tol=  0.10000D-05 Strict=F.
    44 basis functions,    72 primitive gaussians,    44 cartesian basis functions
    16 alpha electrons       16 beta electrons
       nuclear repulsion energy       116.5049646837 Hartrees.
 IExCor=    0 DFT=F Ex=HF Corr=None ExCW=0 ScaHFX=  1.000000
 ScaDFX=  1.000000  1.000000  1.000000  1.000000 ScalE2=  1.000000  1.000000
 IRadAn=      0 IRanWt=     -1 IRanGd=            0 ICorTp=0 IEmpDi=  4
 NAtoms=    8 NActive=    8 NUniq=    8 SFac= 1.00D+00 NAtFMM=   60 NAOKFM=F Big=F
 Integral buffers will be    131072 words long.
 Raffenetti 1 integral format.
 Two-electron integral symmetry is turned off.
 Leave Link  301 at Fri Apr 12 15:35:13 2019, MaxMem=   134217728 cpu:         0.2
 (Enter /cm/shared/c3ddb/gaussian/09.d01/g09/l302.exe)
 NPDir=0 NMtPBC=     1 NCelOv=     1 NCel=       1 NClECP=     1 NCelD=      1
         NCelK=      1 NCelE2=     1 NClLst=     1 CellRange=     0.0.
 One-electron integrals computed using PRISM.
 NBasis=    44 RedAO= T EigKep=  1.14D-02  NBF=    44
 NBsUse=    44 1.00D-06 EigRej= -1.00D+00 NBFU=    44
 Leave Link  302 at Fri Apr 12 15:35:14 2019, MaxMem=   134217728 cpu:         0.3
 (Enter /cm/shared/c3ddb/gaussian/09.d01/g09/l303.exe)
 DipDrv:  MaxL=1.
 Leave Link  303 at Fri Apr 12 15:35:14 2019, MaxMem=   134217728 cpu:         0.1
 (Enter /cm/shared/c3ddb/gaussian/09.d01/g09/l401.exe)
 Initial guess from the checkpoint file:  "TMP_CALCS/scangeom_S02_190_070.chk"
 B after Tr=    -0.002923   -0.001827    0.018372
         Rot=    0.999956    0.006942   -0.006139   -0.001379 Ang=   1.07 deg.
 Guess basis will be translated and rotated to current coordinates.
 JPrj=2 DoOrth=T DoCkMO=T.
 Leave Link  401 at Fri Apr 12 15:35:15 2019, MaxMem=   134217728 cpu:         0.4
 (Enter /cm/shared/c3ddb/gaussian/09.d01/g09/l502.exe)
 Closed shell SCF:
 Using DIIS extrapolation, IDIIS=  1040.
 Two-electron integral symmetry not used.
 Keep R1 ints in memory in canonical form, NReq=1327232.
 IVT=       24902 IEndB=       24902 NGot=   134217728 MDV=   133702282
 LenX=   133702282 LenY=   133699905
 Requested convergence on RMS density matrix=1.00D-08 within 128 cycles.
 Requested convergence on MAX density matrix=1.00D-06.
 Requested convergence on             energy=1.00D-06.
 No special actions if energy rises.
 FoFCou: FMM=F IPFlag=           0 FMFlag=           0 FMFlg1=           0
         NFxFlg=           0 DoJE=F BraDBF=F KetDBF=F FulRan=T
         wScrn=  0.000000 ICntrl=     600 IOpCl=  0 I1Cent=           0 NGrid=           0
         NMat0=    1 NMatS0=    990 NMatT0=    0 NMatD0=    1 NMtDS0=    0 NMtDT0=    0
 Symmetry not used in FoFCou.

 Cycle   1  Pass 1  IDiag  1:
 E= -226.386599757979    
 DIIS: error= 5.98D-03 at cycle   1 NSaved=   1.
 NSaved= 1 IEnMin= 1 EnMin= -226.386599757979     IErMin= 1 ErrMin= 5.98D-03
 ErrMax= 5.98D-03  0.00D+00 EMaxC= 1.00D-01 BMatC= 1.79D-03 BMatP= 1.79D-03
 IDIUse=3 WtCom= 9.40D-01 WtEn= 5.98D-02
 Coeff-Com:  0.100D+01
 Coeff-En:   0.100D+01
 Coeff:      0.100D+01
 Gap=     0.545 Goal=   None    Shift=    0.000
 GapD=    0.545 DampG=2.000 DampE=1.000 DampFc=2.0000 IDamp=-1.
 RMSDP=1.10D-03 MaxDP=1.48D-02              OVMax= 1.38D-02

 Cycle   2  Pass 1  IDiag  1:
 E= -226.389349643994     Delta-E=       -0.002749886015 Rises=F Damp=F
 DIIS: error= 2.68D-03 at cycle   2 NSaved=   2.
 NSaved= 2 IEnMin= 2 EnMin= -226.389349643994     IErMin= 2 ErrMin= 2.68D-03
 ErrMax= 2.68D-03  0.00D+00 EMaxC= 1.00D-01 BMatC= 1.68D-04 BMatP= 1.79D-03
 IDIUse=3 WtCom= 9.73D-01 WtEn= 2.68D-02
 Coeff-Com: -0.326D+00 0.133D+01
 Coeff-En:   0.000D+00 0.100D+01
 Coeff:     -0.317D+00 0.132D+01
 Gap=     0.544 Goal=   None    Shift=    0.000
 RMSDP=5.63D-04 MaxDP=5.60D-03 DE=-2.75D-03 OVMax= 9.48D-03

 Cycle   3  Pass 1  IDiag  1:
 E= -226.389795878082     Delta-E=       -0.000446234088 Rises=F Damp=F
 DIIS: error= 8.54D-04 at cycle   3 NSaved=   3.
 NSaved= 3 IEnMin= 3 EnMin= -226.389795878082     IErMin= 3 ErrMin= 8.54D-04
 ErrMax= 8.54D-04  0.00D+00 EMaxC= 1.00D-01 BMatC= 1.40D-05 BMatP= 1.68D-04
 IDIUse=3 WtCom= 9.91D-01 WtEn= 8.54D-03
 Coeff-Com:  0.846D-01-0.493D+00 0.141D+01
 Coeff-En:   0.000D+00 0.000D+00 0.100D+01
 Coeff:      0.839D-01-0.489D+00 0.141D+01
 Gap=     0.544 Goal=   None    Shift=    0.000
 RMSDP=2.33D-04 MaxDP=3.38D-03 DE=-4.46D-04 OVMax= 4.29D-03

 Cycle   4  Pass 1  IDiag  1:
 E= -226.389844723141     Delta-E=       -0.000048845059 Rises=F Damp=F
 DIIS: error= 1.86D-04 at cycle   4 NSaved=   4.
 NSaved= 4 IEnMin= 4 EnMin= -226.389844723141     IErMin= 4 ErrMin= 1.86D-04
 ErrMax= 1.86D-04  0.00D+00 EMaxC= 1.00D-01 BMatC= 2.15D-06 BMatP= 1.40D-05
 IDIUse=3 WtCom= 9.98D-01 WtEn= 1.86D-03
 Coeff-Com:  0.622D-01-0.291D+00 0.336D+00 0.893D+00
 Coeff-En:   0.000D+00 0.000D+00 0.000D+00 0.100D+01
 Coeff:      0.620D-01-0.290D+00 0.335D+00 0.893D+00
 Gap=     0.544 Goal=   None    Shift=    0.000
 RMSDP=6.99D-05 MaxDP=1.03D-03 DE=-4.88D-05 OVMax= 1.22D-03

 Cycle   5  Pass 1  IDiag  1:
 E= -226.389849071010     Delta-E=       -0.000004347869 Rises=F Damp=F
 DIIS: error= 4.69D-05 at cycle   5 NSaved=   5.
 NSaved= 5 IEnMin= 5 EnMin= -226.389849071010     IErMin= 5 ErrMin= 4.69D-05
 ErrMax= 4.69D-05  0.00D+00 EMaxC= 1.00D-01 BMatC= 1.32D-07 BMatP= 2.15D-06
 IDIUse=1 WtCom= 1.00D+00 WtEn= 0.00D+00
 Coeff-Com: -0.388D-02 0.301D-01-0.132D+00 0.972D-01 0.101D+01
 Coeff:     -0.388D-02 0.301D-01-0.132D+00 0.972D-01 0.101D+01
 Gap=     0.544 Goal=   None    Shift=    0.000
 RMSDP=1.76D-05 MaxDP=2.45D-04 DE=-4.35D-06 OVMax= 3.04D-04

 Cycle   6  Pass 1  IDiag  1:
 E= -226.389849299518     Delta-E=       -0.000000228507 Rises=F Damp=F
 DIIS: error= 1.47D-05 at cycle   6 NSaved=   6.
 NSaved= 6 IEnMin= 6 EnMin= -226.389849299518     IErMin= 6 ErrMin= 1.47D-05
 ErrMax= 1.47D-05  0.00D+00 EMaxC= 1.00D-01 BMatC= 1.00D-08 BMatP= 1.32D-07
 IDIUse=1 WtCom= 1.00D+00 WtEn= 0.00D+00
 Coeff-Com: -0.290D-02 0.171D-01-0.478D-01 0.169D-02 0.283D+00 0.748D+00
 Coeff:     -0.290D-02 0.171D-01-0.478D-01 0.169D-02 0.283D+00 0.748D+00
 Gap=     0.544 Goal=   None    Shift=    0.000
 RMSDP=2.61D-06 MaxDP=1.66D-05 DE=-2.29D-07 OVMax= 3.53D-05

 Cycle   7  Pass 1  IDiag  1:
 E= -226.389849313526     Delta-E=       -0.000000014008 Rises=F Damp=F
 DIIS: error= 8.86D-06 at cycle   7 NSaved=   7.
 NSaved= 7 IEnMin= 7 EnMin= -226.389849313526     IErMin= 7 ErrMin= 8.86D-06
 ErrMax= 8.86D-06  0.00D+00 EMaxC= 1.00D-01 BMatC= 1.52D-09 BMatP= 1.00D-08
 IDIUse=1 WtCom= 1.00D+00 WtEn= 0.00D+00
 Coeff-Com:  0.126D-02-0.892D-02 0.343D-01-0.187D-01-0.258D+00-0.153D+00
 Coeff-Com:  0.140D+01
 Coeff:      0.126D-02-0.892D-02 0.343D-01-0.187D-01-0.258D+00-0.153D+00
 Coeff:      0.140D+01
 Gap=     0.544 Goal=   None    Shift=    0.000
 RMSDP=2.39D-06 MaxDP=1.45D-05 DE=-1.40D-08 OVMax= 3.44D-05

 Cycle   8  Pass 1  IDiag  1:
 E= -226.389849319539     Delta-E=       -0.000000006013 Rises=F Damp=F
 DIIS: error= 4.25D-06 at cycle   8 NSaved=   8.
 NSaved= 8 IEnMin= 8 EnMin= -226.389849319539     IErMin= 8 ErrMin= 4.25D-06
 ErrMax= 4.25D-06  0.00D+00 EMaxC= 1.00D-01 BMatC= 1.68D-10 BMatP= 1.52D-09
 IDIUse=1 WtCom= 1.00D+00 WtEn= 0.00D+00
 Coeff-Com: -0.168D-03 0.146D-02-0.684D-02 0.555D-02 0.592D-01-0.239D-01
 Coeff-Com: -0.463D+00 0.143D+01
 Coeff:     -0.168D-03 0.146D-02-0.684D-02 0.555D-02 0.592D-01-0.239D-01
 Coeff:     -0.463D+00 0.143D+01
 Gap=     0.544 Goal=   None    Shift=    0.000
 RMSDP=9.69D-07 MaxDP=6.79D-06 DE=-6.01D-09 OVMax= 1.72D-05

 Cycle   9  Pass 1  IDiag  1:
 E= -226.389849320402     Delta-E=       -0.000000000863 Rises=F Damp=F
 DIIS: error= 1.62D-06 at cycle   9 NSaved=   9.
 NSaved= 9 IEnMin= 9 EnMin= -226.389849320402     IErMin= 9 ErrMin= 1.62D-06
 ErrMax= 1.62D-06  0.00D+00 EMaxC= 1.00D-01 BMatC= 3.16D-11 BMatP= 1.68D-10
 IDIUse=1 WtCom= 1.00D+00 WtEn= 0.00D+00
 Coeff-Com: -0.200D-03 0.149D-02-0.596D-02 0.360D-02 0.458D-01 0.214D-01
 Coeff-Com: -0.285D+00 0.171D+00 0.105D+01
 Coeff:     -0.200D-03 0.149D-02-0.596D-02 0.360D-02 0.458D-01 0.214D-01
 Coeff:     -0.285D+00 0.171D+00 0.105D+01
 Gap=     0.544 Goal=   None    Shift=    0.000
 RMSDP=3.76D-07 MaxDP=2.61D-06 DE=-8.63D-10 OVMax= 7.48D-06

 Cycle  10  Pass 1  IDiag  1:
 E= -226.389849320531     Delta-E=       -0.000000000129 Rises=F Damp=F
 DIIS: error= 5.99D-07 at cycle  10 NSaved=  10.
 NSaved=10 IEnMin=10 EnMin= -226.389849320531     IErMin=10 ErrMin= 5.99D-07
 ErrMax= 5.99D-07  0.00D+00 EMaxC= 1.00D-01 BMatC= 4.54D-12 BMatP= 3.16D-11
 IDIUse=1 WtCom= 1.00D+00 WtEn= 0.00D+00
 Coeff-Com:  0.795D-04-0.653D-03 0.289D-02-0.203D-02-0.244D-01 0.338D-02
 Coeff-Com:  0.161D+00-0.336D+00-0.220D+00 0.142D+01
 Coeff:      0.795D-04-0.653D-03 0.289D-02-0.203D-02-0.244D-01 0.338D-02
 Coeff:      0.161D+00-0.336D+00-0.220D+00 0.142D+01
 Gap=     0.544 Goal=   None    Shift=    0.000
 RMSDP=1.78D-07 MaxDP=1.12D-06 DE=-1.29D-10 OVMax= 3.77D-06

 Cycle  11  Pass 1  IDiag  1:
 E= -226.389849320551     Delta-E=       -0.000000000020 Rises=F Damp=F
 DIIS: error= 7.41D-08 at cycle  11 NSaved=  11.
 NSaved=11 IEnMin=11 EnMin= -226.389849320551     IErMin=11 ErrMin= 7.41D-08
 ErrMax= 7.41D-08  0.00D+00 EMaxC= 1.00D-01 BMatC= 1.84D-13 BMatP= 4.54D-12
 IDIUse=1 WtCom= 1.00D+00 WtEn= 0.00D+00
 Coeff-Com: -0.179D-04 0.152D-03-0.709D-03 0.553D-03 0.602D-02-0.109D-02
 Coeff-Com: -0.445D-01 0.116D+00 0.276D-01-0.526D+00 0.142D+01
 Coeff:     -0.179D-04 0.152D-03-0.709D-03 0.553D-03 0.602D-02-0.109D-02
 Coeff:     -0.445D-01 0.116D+00 0.276D-01-0.526D+00 0.142D+01
 Gap=     0.544 Goal=   None    Shift=    0.000
 RMSDP=2.82D-08 MaxDP=1.84D-07 DE=-2.01D-11 OVMax= 5.53D-07

 Cycle  12  Pass 1  IDiag  1:
 E= -226.389849320552     Delta-E=       -0.000000000001 Rises=F Damp=F
 DIIS: error= 1.25D-08 at cycle  12 NSaved=  12.
 NSaved=12 IEnMin=12 EnMin= -226.389849320552     IErMin=12 ErrMin= 1.25D-08
 ErrMax= 1.25D-08  0.00D+00 EMaxC= 1.00D-01 BMatC= 9.66D-15 BMatP= 1.84D-13
 IDIUse=1 WtCom= 1.00D+00 WtEn= 0.00D+00
 Coeff-Com: -0.630D-06 0.474D-05-0.150D-04 0.953D-05 0.927D-04 0.149D-03
 Coeff-Com: -0.520D-03-0.257D-02 0.347D-02 0.208D-01-0.255D+00 0.123D+01
 Coeff:     -0.630D-06 0.474D-05-0.150D-04 0.953D-05 0.927D-04 0.149D-03
 Coeff:     -0.520D-03-0.257D-02 0.347D-02 0.208D-01-0.255D+00 0.123D+01
 Gap=     0.544 Goal=   None    Shift=    0.000
 RMSDP=6.26D-09 MaxDP=3.85D-08 DE=-5.68D-13 OVMax= 1.21D-07

 SCF Done:  E(RHF) =  -226.389849321     A.U. after   12 cycles
            NFock= 12  Conv=0.63D-08     -V/T= 2.0035
 KE= 2.255936303951D+02 PE=-7.661646938468D+02 EE= 1.976762494475D+02
 Leave Link  502 at Fri Apr 12 15:35:15 2019, MaxMem=   134217728 cpu:         0.4
 (Enter /cm/shared/c3ddb/gaussian/09.d01/g09/l601.exe)
 Copying SCF densities to generalized density rwf, IOpCl= 0 IROHF=0.

 **********************************************************************

            Population analysis using the SCF density.

 **********************************************************************

 Alpha  occ. eigenvalues --  -20.54072 -20.53328 -11.24952 -11.17235  -1.48253
 Alpha  occ. eigenvalues --   -1.24258  -1.03567  -0.80672  -0.72340  -0.65929
 Alpha  occ. eigenvalues --   -0.65531  -0.58045  -0.54830  -0.52657  -0.48508
 Alpha  occ. eigenvalues --   -0.36751
 Alpha virt. eigenvalues --    0.17683   0.22512   0.26764   0.31474   0.33365
 Alpha virt. eigenvalues --    0.35518   0.49463   0.56966   0.89336   0.96535
 Alpha virt. eigenvalues --    0.99094   1.06070   1.09982   1.10770   1.24914
 Alpha virt. eigenvalues --    1.31827   1.36181   1.56941   1.59284   1.75784
 Alpha virt. eigenvalues --    1.78866   1.90990   1.94829   1.98756   2.05842
 Alpha virt. eigenvalues --    2.28082   3.03662   3.51334
          Condensed to atoms (all electrons):
               1          2          3          4          5          6
     1  C    4.924234   0.508371   0.360505  -0.046462  -0.051548   0.205285
     2  C    0.508371   5.307771  -0.043945   0.386460   0.389996  -0.051683
     3  H    0.360505  -0.043945   0.460511  -0.000719   0.002309  -0.035147
     4  H   -0.046462   0.386460  -0.000719   0.444632  -0.014814   0.001278
     5  H   -0.051548   0.389996   0.002309  -0.014814   0.429897  -0.000532
     6  O    0.205285  -0.051683  -0.035147   0.001278  -0.000532   8.171570
     7  O   -0.025760   0.002798   0.002815  -0.000024  -0.000016   0.124558
     8  H   -0.001684  -0.000135   0.000630   0.000003   0.000011  -0.025429
               7          8
     1  C   -0.025760  -0.001684
     2  C    0.002798  -0.000135
     3  H    0.002815   0.000630
     4  H   -0.000024   0.000003
     5  H   -0.000016   0.000011
     6  O    0.124558  -0.025429
     7  O    8.026734   0.238402
     8  H    0.238402   0.383609
 Mulliken charges:
               1
     1  C    0.127059
     2  C   -0.499632
     3  H    0.253042
     4  H    0.229646
     5  H    0.244697
     6  O   -0.389899
     7  O   -0.369507
     8  H    0.404594
 Sum of Mulliken charges =   0.00000
 Mulliken charges with hydrogens summed into heavy atoms:
               1
     1  C    0.380100
     2  C   -0.025289
     6  O   -0.389899
     7  O    0.035088
 Electronic spatial extent (au):  <R**2>=            370.9620
 Charge=              0.0000 electrons
 Dipole moment (field-independent basis, Debye):
    X=              2.2401    Y=              0.6277    Z=             -1.9283  Tot=              3.0217
 Quadrupole moment (field-independent basis, Debye-Ang):
   XX=            -24.0929   YY=            -20.1395   ZZ=            -23.0863
   XY=              1.8684   XZ=              1.8924   YZ=             -4.3792
 Traceless Quadrupole moment (field-independent basis, Debye-Ang):
   XX=             -1.6533   YY=              2.3001   ZZ=             -0.6467
   XY=              1.8684   XZ=              1.8924   YZ=             -4.3792
 Octapole moment (field-independent basis, Debye-Ang**2):
  XXX=             -6.0401  YYY=            -42.8895  ZZZ=              0.6224  XYY=             -1.1125
  XXY=            -18.2760  XXZ=              0.2514  XZZ=             -9.0478  YZZ=            -10.0999
  YYZ=             -9.3482  XYZ=              4.0718
 Hexadecapole moment (field-independent basis, Debye-Ang**3):
 XXXX=           -172.5864 YYYY=           -204.5142 ZZZZ=            -22.7023 XXXY=             54.3591
 XXXZ=             -2.4555 YYYX=             54.2519 YYYZ=            -16.5233 ZZZX=             -1.6980
 ZZZY=              1.3884 XXYY=            -69.8492 XXZZ=            -36.4943 YYZZ=            -29.6746
 XXYZ=             -0.1893 YYXZ=              7.8179 ZZXY=             12.6685
 N-N= 1.165049646837D+02 E-N=-7.661646942332D+02  KE= 2.255936303951D+02
 No NMR shielding tensors so no spin-rotation constants.
 Leave Link  601 at Fri Apr 12 15:35:16 2019, MaxMem=   134217728 cpu:         0.2
 (Enter /cm/shared/c3ddb/gaussian/09.d01/g09/l701.exe)
 Compute integral first derivatives.
 ... and contract with generalized density number  0.
 Leave Link  701 at Fri Apr 12 15:35:16 2019, MaxMem=   134217728 cpu:         0.2
 (Enter /cm/shared/c3ddb/gaussian/09.d01/g09/l702.exe)
 L702 exits ... SP integral derivatives will be done elsewhere.
 Leave Link  702 at Fri Apr 12 15:35:16 2019, MaxMem=   134217728 cpu:         0.1
 (Enter /cm/shared/c3ddb/gaussian/09.d01/g09/l703.exe)
 Compute integral first derivatives, UseDBF=F ICtDFT=           0.
 Integral derivatives from FoFJK, PRISM(SPDF).
 Calling FoFJK, ICntrl=      2127 FMM=F ISym2X=0 I1Cent= 0 IOpClX= 0 NMat=1 NMatS=1 NMatT=0.
 FoFJK:  IHMeth= 1 ICntrl=    2127 DoSepK=F KAlg= 0 I1Cent=   0 FoldK=F
 IRaf=         0 NMat=   1 IRICut=       1 DoRegI=T DoRafI=F ISym2E= 0.
 FoFCou: FMM=F IPFlag=           0 FMFlag=      100000 FMFlg1=         800
         NFxFlg=           0 DoJE=F BraDBF=F KetDBF=F FulRan=T
         wScrn=  0.000000 ICntrl=    2127 IOpCl=  0 I1Cent=           0 NGrid=           0
         NMat0=    1 NMatS0=      1 NMatT0=    0 NMatD0=    1 NMtDS0=    0 NMtDT0=    0
 Symmetry not used in FoFCou.
 Leave Link  703 at Fri Apr 12 15:35:16 2019, MaxMem=   134217728 cpu:         0.2
 (Enter /cm/shared/c3ddb/gaussian/09.d01/g09/l716.exe)
 Dipole        = 8.81338160D-01 2.46952294D-01-7.58636721D-01
 -------------------------------------------------------------------
 Center     Atomic                   Forces (Hartrees/Bohr)
 Number     Number              X              Y              Z
 -------------------------------------------------------------------
      1        6           0.000520689    0.002090585    0.007166322
      2        6          -0.000391762   -0.000266629   -0.002284350
      3        1          -0.000639431   -0.000015356   -0.000378850
      4        1          -0.000031928    0.000038117    0.000090530
      5        1           0.000073450   -0.000110117   -0.000066702
      6        8          -0.001878500   -0.000435825   -0.005581323
      7        8           0.007235044    0.001899439    0.002714576
      8        1          -0.004887562   -0.003200214   -0.001660204
 -------------------------------------------------------------------
 Cartesian Forces:  Max     0.007235044 RMS     0.002865778
 Leave Link  716 at Fri Apr 12 15:35:16 2019, MaxMem=   134217728 cpu:         0.1
 (Enter /cm/shared/c3ddb/gaussian/09.d01/g09/l103.exe)

 GradGradGradGradGradGradGradGradGradGradGradGradGradGradGradGradGradGrad
 Berny optimization.
 FormGI is forming the generalized inverse of G from B-inverse, IUseBI=4.
 Internal  Forces:  Max     0.010627200 RMS     0.002607931
 Search for a local minimum.
 Step number   1 out of a maximum of   32
 All quantities printed in internal units (Hartrees-Bohrs-Radians)
 RMS Force = .10940D-02 SwitMx=.10000D-02 MixMth= 1
 Mixed Optimization -- RFO/linear search
 Second derivative matrix not updated -- first step.
 ITU=  0
     Eigenvalues ---    0.02554   0.03297   0.03297   0.15977   0.16000
     Eigenvalues ---    0.16000   0.16000   0.22005   0.25000   0.36738
     Eigenvalues ---    0.37123   0.37201   0.37236   0.44765   0.52310
     Eigenvalues ---    0.648401000.000001000.000001000.000001000.00000
     Eigenvalues --- 1000.000001000.00000
 RFO step:  Lambda=-1.09297870D-04 EMin= 2.55367246D-02
 Linear search not attempted -- first point.
 Iteration  1 RMS(Cart)=  0.01343727 RMS(Int)=  0.00008376
 Iteration  2 RMS(Cart)=  0.00008733 RMS(Int)=  0.00000670
 Iteration  3 RMS(Cart)=  0.00000001 RMS(Int)=  0.00000670
 Iteration  1 RMS(Cart)=  0.00000387 RMS(Int)=  0.00000167
 Iteration  2 RMS(Cart)=  0.00000137 RMS(Int)=  0.00000185
 Iteration  3 RMS(Cart)=  0.00000049 RMS(Int)=  0.00000199
 ITry= 1 IFail=0 DXMaxC= 3.74D-02 DCOld= 1.00D+10 DXMaxT= 3.00D-01 DXLimC= 3.00D+00 Rises=F
 Variable       Old X    -DE/DX   Delta X   Delta X   Delta X     New X
                                 (Linear)    (Quad)   (Total)
    R1        2.47304   0.00019   0.00000   0.00029   0.00029   2.47333
    R2        2.02192  -0.00033   0.00000  -0.00089  -0.00089   2.02103
    R3        2.65549  -0.00056   0.00000  -0.00124  -0.00124   2.65425
    R4        2.02245  -0.00003   0.00000  -0.00008  -0.00008   2.02237
    R5        2.02361   0.00006   0.00000   0.00017   0.00017   2.02378
    R6        2.76243  -0.00207   0.00000  -0.00564  -0.00564   2.75680
    R7        1.84304  -0.00016   0.00000  -0.00030  -0.00030   1.84274
    A1        2.17509   0.00078   0.00000   0.00432   0.00431   2.17940
    A2        2.10837  -0.00020   0.00000  -0.00088  -0.00089   2.10748
    A3        1.99752  -0.00048   0.00000  -0.00286  -0.00288   1.99465
    A4        2.10046  -0.00014   0.00000  -0.00085  -0.00085   2.09961
    A5        2.11844   0.00019   0.00000   0.00117   0.00117   2.11962
    A6        2.06427  -0.00005   0.00000  -0.00032  -0.00032   2.06394
    A7        1.90575  -0.00349   0.00000  -0.01394  -0.01394   1.89181
    A8        1.80058  -0.00247   0.00000  -0.01542  -0.01542   1.78516
    D1       -0.02999   0.00090   0.00000   0.00723   0.00724  -0.02276
    D2        3.10510   0.00088   0.00000   0.00653   0.00654   3.11165
    D3       -3.09638  -0.00075   0.00000  -0.00251  -0.00252  -3.09890
    D4        0.03872  -0.00077   0.00000  -0.00320  -0.00321   0.03551
    D5       -2.96706   0.00287   0.00000   0.00000   0.00000  -2.96706
    D6        0.24251   0.00132   0.00000  -0.00909  -0.00907   0.23344
    D7        1.22173   0.01063   0.00000   0.00000   0.00000   1.22173
         Item               Value     Threshold  Converged?
 Maximum Force            0.003486     0.000015     NO 
 RMS     Force            0.001094     0.000010     NO 
 Maximum Displacement     0.037410     0.000060     NO 
 RMS     Displacement     0.013431     0.000040     NO 
 Predicted change in Energy=-5.473832D-05
 Lowest energy point so far.  Saving SCF results.
 GradGradGradGradGradGradGradGradGradGradGradGradGradGradGradGradGradGrad

 Leave Link  103 at Fri Apr 12 15:35:17 2019, MaxMem=   134217728 cpu:         0.0
 (Enter /cm/shared/c3ddb/gaussian/09.d01/g09/l202.exe)
                          Input orientation:                          
 ---------------------------------------------------------------------
 Center     Atomic      Atomic             Coordinates (Angstroms)
 Number     Number       Type             X           Y           Z
 ---------------------------------------------------------------------
      1          6           0        0.739421    0.637632    0.024605
      2          6           0        1.373808   -0.506552   -0.013253
      3          1           0        1.209200    1.594770    0.108214
      4          1           0        2.443185   -0.532339    0.019577
      5          1           0        0.845783   -1.436491   -0.070758
      6          8           0       -0.664466    0.680434    0.033576
      7          8           0       -1.084075    2.063713   -0.163052
      8          1           0       -0.841239    2.223841   -1.093791
 ---------------------------------------------------------------------
                    Distance matrix (angstroms):
                    1          2          3          4          5
     1  C    0.000000
     2  C    1.308831   0.000000
     3  H    1.069484   2.111256   0.000000
     4  H    2.066803   1.070192   2.460725   0.000000
     5  H    2.079037   1.070936   3.058210   1.837755   0.000000
     6  O    1.404568   2.359172   2.086194   3.335943   2.602521
     7  O    2.322511   3.559479   2.356396   4.383424   3.998037
     8  H    2.503069   3.678185   2.458627   4.429849   4.158206
                    6          7          8
     6  O    0.000000
     7  O    1.458833   0.000000
     8  H    1.919456   0.975134   0.000000
 Symmetry turned off by external request.
 Stoichiometry    C2H4O2
 Framework group  C1[X(C2H4O2)]
 Deg. of freedom    18
 Full point group                 C1      NOp   1
 Rotational constants (GHZ):     41.9272649      4.5672259      4.1959350
 Leave Link  202 at Fri Apr 12 15:35:17 2019, MaxMem=   134217728 cpu:         0.0
 (Enter /cm/shared/c3ddb/gaussian/09.d01/g09/l301.exe)
 Standard basis: 3-21G (6D, 7F)
 Ernie: Thresh=  0.10000D-02 Tol=  0.10000D-05 Strict=F.
    44 basis functions,    72 primitive gaussians,    44 cartesian basis functions
    16 alpha electrons       16 beta electrons
       nuclear repulsion energy       116.7245773360 Hartrees.
 IExCor=    0 DFT=F Ex=HF Corr=None ExCW=0 ScaHFX=  1.000000
 ScaDFX=  1.000000  1.000000  1.000000  1.000000 ScalE2=  1.000000  1.000000
 IRadAn=      0 IRanWt=     -1 IRanGd=            0 ICorTp=0 IEmpDi=  4
 NAtoms=    8 NActive=    8 NUniq=    8 SFac= 1.00D+00 NAtFMM=   60 NAOKFM=F Big=F
 Integral buffers will be    131072 words long.
 Raffenetti 1 integral format.
 Two-electron integral symmetry is turned off.
 Leave Link  301 at Fri Apr 12 15:35:17 2019, MaxMem=   134217728 cpu:         0.2
 (Enter /cm/shared/c3ddb/gaussian/09.d01/g09/l302.exe)
 NPDir=0 NMtPBC=     1 NCelOv=     1 NCel=       1 NClECP=     1 NCelD=      1
         NCelK=      1 NCelE2=     1 NClLst=     1 CellRange=     0.0.
 One-electron integrals computed using PRISM.
 NBasis=    44 RedAO= T EigKep=  1.13D-02  NBF=    44
 NBsUse=    44 1.00D-06 EigRej= -1.00D+00 NBFU=    44
 Leave Link  302 at Fri Apr 12 15:35:17 2019, MaxMem=   134217728 cpu:         0.3
 (Enter /cm/shared/c3ddb/gaussian/09.d01/g09/l303.exe)
 DipDrv:  MaxL=1.
 Leave Link  303 at Fri Apr 12 15:35:18 2019, MaxMem=   134217728 cpu:         0.1
 (Enter /cm/shared/c3ddb/gaussian/09.d01/g09/l401.exe)
 Initial guess from the checkpoint file:  "TMP_CALCS/scangeom_S02_190_070.chk"
 B after Tr=    -0.002291    0.000227    0.000320
         Rot=    1.000000   -0.000638    0.000019    0.000562 Ang=  -0.10 deg.
 Guess basis will be translated and rotated to current coordinates.
 JPrj=2 DoOrth=T DoCkMO=T.
 Generating alternative initial guess.
 ExpMin= 1.83D-01 ExpMax= 3.22D+02 ExpMxC= 3.22D+02 IAcc=1 IRadAn=         1 AccDes= 0.00D+00
 Harris functional with IExCor=  205 and IRadAn=       1 diagonalized for initial guess.
 HarFok:  IExCor=  205 AccDes= 0.00D+00 IRadAn=         1 IDoV= 1 UseB2=F ITyADJ=14
 ICtDFT=  3500011 ScaDFX=  1.000000  1.000000  1.000000  1.000000
 FoFCou: FMM=F IPFlag=           0 FMFlag=      100000 FMFlg1=           0
         NFxFlg=           0 DoJE=T BraDBF=F KetDBF=T FulRan=T
         wScrn=  0.000000 ICntrl=     500 IOpCl=  0 I1Cent=   200000004 NGrid=           0
         NMat0=    1 NMatS0=      1 NMatT0=    0 NMatD0=    1 NMtDS0=    0 NMtDT0=    0
 Symmetry not used in FoFCou.
 Harris En= -226.625989088322    
 Leave Link  401 at Fri Apr 12 15:35:18 2019, MaxMem=   134217728 cpu:         0.6
 (Enter /cm/shared/c3ddb/gaussian/09.d01/g09/l502.exe)
 Closed shell SCF:
 Using DIIS extrapolation, IDIIS=  1040.
 Two-electron integral symmetry not used.
 Keep R1 ints in memory in canonical form, NReq=1327247.
 IVT=       24902 IEndB=       24902 NGot=   134217728 MDV=   133702282
 LenX=   133702282 LenY=   133699905
 Requested convergence on RMS density matrix=1.00D-08 within 128 cycles.
 Requested convergence on MAX density matrix=1.00D-06.
 Requested convergence on             energy=1.00D-06.
 No special actions if energy rises.
 FoFCou: FMM=F IPFlag=           0 FMFlag=           0 FMFlg1=           0
         NFxFlg=           0 DoJE=F BraDBF=F KetDBF=F FulRan=T
         wScrn=  0.000000 ICntrl=     600 IOpCl=  0 I1Cent=           0 NGrid=           0
         NMat0=    1 NMatS0=    990 NMatT0=    0 NMatD0=    1 NMtDS0=    0 NMtDT0=    0
 Symmetry not used in FoFCou.

 Cycle   1  Pass 1  IDiag  1:
 E= -226.389771866606    
 DIIS: error= 7.50D-04 at cycle   1 NSaved=   1.
 NSaved= 1 IEnMin= 1 EnMin= -226.389771866606     IErMin= 1 ErrMin= 7.50D-04
 ErrMax= 7.50D-04  0.00D+00 EMaxC= 1.00D-01 BMatC= 6.04D-05 BMatP= 6.04D-05
 IDIUse=3 WtCom= 9.92D-01 WtEn= 7.50D-03
 Coeff-Com:  0.100D+01
 Coeff-En:   0.100D+01
 Coeff:      0.100D+01
 Gap=     0.935 Goal=   None    Shift=    0.000
 RMSDP=1.84D-04 MaxDP=1.11D-03              OVMax= 1.44D-03

 Cycle   2  Pass 1  IDiag  1:
 E= -226.389848134441     Delta-E=       -0.000076267835 Rises=F Damp=F
 DIIS: error= 4.13D-04 at cycle   2 NSaved=   2.
 NSaved= 2 IEnMin= 2 EnMin= -226.389848134441     IErMin= 2 ErrMin= 4.13D-04
 ErrMax= 4.13D-04  0.00D+00 EMaxC= 1.00D-01 BMatC= 4.65D-06 BMatP= 6.04D-05
 IDIUse=3 WtCom= 9.96D-01 WtEn= 4.13D-03
 Coeff-Com: -0.168D+00 0.117D+01
 Coeff-En:   0.000D+00 0.100D+01
 Coeff:     -0.167D+00 0.117D+01
 Gap=     0.544 Goal=   None    Shift=    0.000
 RMSDP=8.42D-05 MaxDP=6.37D-04 DE=-7.63D-05 OVMax= 1.16D-03

 Cycle   3  Pass 1  IDiag  1:
 E= -226.389862083347     Delta-E=       -0.000013948906 Rises=F Damp=F
 DIIS: error= 2.31D-04 at cycle   3 NSaved=   3.
 NSaved= 3 IEnMin= 3 EnMin= -226.389862083347     IErMin= 3 ErrMin= 2.31D-04
 ErrMax= 2.31D-04  0.00D+00 EMaxC= 1.00D-01 BMatC= 9.09D-07 BMatP= 4.65D-06
 IDIUse=3 WtCom= 9.98D-01 WtEn= 2.31D-03
 Coeff-Com: -0.117D-01-0.236D+00 0.125D+01
 Coeff-En:   0.000D+00 0.000D+00 0.100D+01
 Coeff:     -0.116D-01-0.236D+00 0.125D+01
 Gap=     0.544 Goal=   None    Shift=    0.000
 RMSDP=4.59D-05 MaxDP=3.98D-04 DE=-1.39D-05 OVMax= 7.76D-04

 Cycle   4  Pass 1  IDiag  1:
 E= -226.389865302489     Delta-E=       -0.000003219142 Rises=F Damp=F
 DIIS: error= 1.15D-04 at cycle   4 NSaved=   4.
 NSaved= 4 IEnMin= 4 EnMin= -226.389865302489     IErMin= 4 ErrMin= 1.15D-04
 ErrMax= 1.15D-04  0.00D+00 EMaxC= 1.00D-01 BMatC= 2.57D-07 BMatP= 9.09D-07
 IDIUse=3 WtCom= 9.99D-01 WtEn= 1.15D-03
 Coeff-Com:  0.343D-01-0.306D+00 0.288D+00 0.983D+00
 Coeff-En:   0.000D+00 0.000D+00 0.000D+00 0.100D+01
 Coeff:      0.343D-01-0.306D+00 0.288D+00 0.983D+00
 Gap=     0.544 Goal=   None    Shift=    0.000
 RMSDP=2.38D-05 MaxDP=2.26D-04 DE=-3.22D-06 OVMax= 3.76D-04

 Cycle   5  Pass 1  IDiag  1:
 E= -226.389866068495     Delta-E=       -0.000000766006 Rises=F Damp=F
 DIIS: error= 4.79D-05 at cycle   5 NSaved=   5.
 NSaved= 5 IEnMin= 5 EnMin= -226.389866068495     IErMin= 5 ErrMin= 4.79D-05
 ErrMax= 4.79D-05  0.00D+00 EMaxC= 1.00D-01 BMatC= 3.14D-08 BMatP= 2.57D-07
 IDIUse=1 WtCom= 1.00D+00 WtEn= 0.00D+00
 Coeff-Com: -0.133D-02 0.749D-01-0.242D+00-0.134D+00 0.130D+01
 Coeff:     -0.133D-02 0.749D-01-0.242D+00-0.134D+00 0.130D+01
 Gap=     0.544 Goal=   None    Shift=    0.000
 RMSDP=1.19D-05 MaxDP=1.07D-04 DE=-7.66D-07 OVMax= 2.03D-04

 Cycle   6  Pass 1  IDiag  1:
 E= -226.389866196177     Delta-E=       -0.000000127682 Rises=F Damp=F
 DIIS: error= 1.28D-05 at cycle   6 NSaved=   6.
 NSaved= 6 IEnMin= 6 EnMin= -226.389866196177     IErMin= 6 ErrMin= 1.28D-05
 ErrMax= 1.28D-05  0.00D+00 EMaxC= 1.00D-01 BMatC= 4.90D-09 BMatP= 3.14D-08
 IDIUse=1 WtCom= 1.00D+00 WtEn= 0.00D+00
 Coeff-Com: -0.445D-02 0.571D-01-0.963D-01-0.160D+00 0.336D+00 0.868D+00
 Coeff:     -0.445D-02 0.571D-01-0.963D-01-0.160D+00 0.336D+00 0.868D+00
 Gap=     0.544 Goal=   None    Shift=    0.000
 RMSDP=3.15D-06 MaxDP=2.50D-05 DE=-1.28D-07 OVMax= 6.65D-05

 Cycle   7  Pass 1  IDiag  1:
 E= -226.389866208049     Delta-E=       -0.000000011872 Rises=F Damp=F
 DIIS: error= 4.29D-06 at cycle   7 NSaved=   7.
 NSaved= 7 IEnMin= 7 EnMin= -226.389866208049     IErMin= 7 ErrMin= 4.29D-06
 ErrMax= 4.29D-06  0.00D+00 EMaxC= 1.00D-01 BMatC= 5.62D-10 BMatP= 4.90D-09
 IDIUse=1 WtCom= 1.00D+00 WtEn= 0.00D+00
 Coeff-Com:  0.139D-02-0.261D-01 0.615D-01 0.636D-01-0.303D+00-0.179D+00
 Coeff-Com:  0.138D+01
 Coeff:      0.139D-02-0.261D-01 0.615D-01 0.636D-01-0.303D+00-0.179D+00
 Coeff:      0.138D+01
 Gap=     0.544 Goal=   None    Shift=    0.000
 RMSDP=1.61D-06 MaxDP=1.07D-05 DE=-1.19D-08 OVMax= 3.76D-05

 Cycle   8  Pass 1  IDiag  1:
 E= -226.389866210278     Delta-E=       -0.000000002229 Rises=F Damp=F
 DIIS: error= 1.52D-06 at cycle   8 NSaved=   8.
 NSaved= 8 IEnMin= 8 EnMin= -226.389866210278     IErMin= 8 ErrMin= 1.52D-06
 ErrMax= 1.52D-06  0.00D+00 EMaxC= 1.00D-01 BMatC= 4.47D-11 BMatP= 5.62D-10
 IDIUse=1 WtCom= 1.00D+00 WtEn= 0.00D+00
 Coeff-Com:  0.272D-03-0.295D-02 0.357D-02 0.117D-01-0.181D-01-0.454D-01
 Coeff-Com: -0.635D-01 0.111D+01
 Coeff:      0.272D-03-0.295D-02 0.357D-02 0.117D-01-0.181D-01-0.454D-01
 Coeff:     -0.635D-01 0.111D+01
 Gap=     0.544 Goal=   None    Shift=    0.000
 RMSDP=3.66D-07 MaxDP=2.28D-06 DE=-2.23D-09 OVMax= 8.81D-06

 Cycle   9  Pass 1  IDiag  1:
 E= -226.389866210424     Delta-E=       -0.000000000146 Rises=F Damp=F
 DIIS: error= 6.72D-07 at cycle   9 NSaved=   9.
 NSaved= 9 IEnMin= 9 EnMin= -226.389866210424     IErMin= 9 ErrMin= 6.72D-07
 ErrMax= 6.72D-07  0.00D+00 EMaxC= 1.00D-01 BMatC= 9.29D-12 BMatP= 4.47D-11
 IDIUse=1 WtCom= 1.00D+00 WtEn= 0.00D+00
 Coeff-Com: -0.255D-03 0.511D-02-0.129D-01-0.105D-01 0.589D-01 0.373D-01
 Coeff-Com: -0.295D+00 0.134D+00 0.108D+01
 Coeff:     -0.255D-03 0.511D-02-0.129D-01-0.105D-01 0.589D-01 0.373D-01
 Coeff:     -0.295D+00 0.134D+00 0.108D+01
 Gap=     0.544 Goal=   None    Shift=    0.000
 RMSDP=1.78D-07 MaxDP=9.82D-07 DE=-1.46D-10 OVMax= 3.65D-06

 Cycle  10  Pass 1  IDiag  1:
 E= -226.389866210452     Delta-E=       -0.000000000028 Rises=F Damp=F
 DIIS: error= 2.58D-07 at cycle  10 NSaved=  10.
 NSaved=10 IEnMin=10 EnMin= -226.389866210452     IErMin=10 ErrMin= 2.58D-07
 ErrMax= 2.58D-07  0.00D+00 EMaxC= 1.00D-01 BMatC= 8.21D-13 BMatP= 9.29D-12
 IDIUse=1 WtCom= 1.00D+00 WtEn= 0.00D+00
 Coeff-Com:  0.595D-04-0.147D-02 0.399D-02 0.298D-02-0.194D-01-0.743D-02
 Coeff-Com:  0.108D+00-0.158D+00-0.357D+00 0.143D+01
 Coeff:      0.595D-04-0.147D-02 0.399D-02 0.298D-02-0.194D-01-0.743D-02
 Coeff:      0.108D+00-0.158D+00-0.357D+00 0.143D+01
 Gap=     0.544 Goal=   None    Shift=    0.000
 RMSDP=6.38D-08 MaxDP=5.01D-07 DE=-2.80D-11 OVMax= 1.03D-06

 Cycle  11  Pass 1  IDiag  1:
 E= -226.389866210456     Delta-E=       -0.000000000003 Rises=F Damp=F
 DIIS: error= 9.00D-08 at cycle  11 NSaved=  11.
 NSaved=11 IEnMin=11 EnMin= -226.389866210456     IErMin=11 ErrMin= 9.00D-08
 ErrMax= 9.00D-08  0.00D+00 EMaxC= 1.00D-01 BMatC= 1.09D-13 BMatP= 8.21D-13
 IDIUse=1 WtCom= 1.00D+00 WtEn= 0.00D+00
 Coeff-Com:  0.226D-04-0.437D-03 0.106D-02 0.980D-03-0.494D-02-0.379D-02
 Coeff-Com:  0.239D-01 0.592D-03-0.940D-01-0.141D+00 0.122D+01
 Coeff:      0.226D-04-0.437D-03 0.106D-02 0.980D-03-0.494D-02-0.379D-02
 Coeff:      0.239D-01 0.592D-03-0.940D-01-0.141D+00 0.122D+01
 Gap=     0.544 Goal=   None    Shift=    0.000
 RMSDP=2.24D-08 MaxDP=2.05D-07 DE=-3.30D-12 OVMax= 3.89D-07

 Cycle  12  Pass 1  IDiag  1:
 E= -226.389866210456     Delta-E=       -0.000000000001 Rises=F Damp=F
 DIIS: error= 3.11D-08 at cycle  12 NSaved=  12.
 NSaved=12 IEnMin=12 EnMin= -226.389866210456     IErMin=12 ErrMin= 3.11D-08
 ErrMax= 3.11D-08  0.00D+00 EMaxC= 1.00D-01 BMatC= 1.73D-14 BMatP= 1.09D-13
 IDIUse=1 WtCom= 1.00D+00 WtEn= 0.00D+00
 Coeff-Com: -0.172D-04 0.407D-03-0.107D-02-0.891D-03 0.520D-02 0.241D-02
 Coeff-Com: -0.277D-01 0.326D-01 0.946D-01-0.265D+00-0.275D+00 0.143D+01
 Coeff:     -0.172D-04 0.407D-03-0.107D-02-0.891D-03 0.520D-02 0.241D-02
 Coeff:     -0.277D-01 0.326D-01 0.946D-01-0.265D+00-0.275D+00 0.143D+01
 Gap=     0.544 Goal=   None    Shift=    0.000
 RMSDP=1.13D-08 MaxDP=1.07D-07 DE=-5.68D-13 OVMax= 1.97D-07

 Cycle  13  Pass 1  IDiag  1:
 E= -226.389866210456     Delta-E=        0.000000000000 Rises=F Damp=F
 DIIS: error= 3.54D-09 at cycle  13 NSaved=  13.
 NSaved=13 IEnMin=13 EnMin= -226.389866210456     IErMin=13 ErrMin= 3.54D-09
 ErrMax= 3.54D-09  0.00D+00 EMaxC= 1.00D-01 BMatC= 6.87D-16 BMatP= 1.73D-14
 IDIUse=1 WtCom= 1.00D+00 WtEn= 0.00D+00
 Coeff-Com:  0.509D-05-0.122D-03 0.331D-03 0.237D-03-0.156D-02-0.637D-03
 Coeff-Com:  0.857D-02-0.119D-01-0.296D-01 0.107D+00 0.236D-01-0.512D+00
 Coeff-Com:  0.142D+01
 Coeff:      0.509D-05-0.122D-03 0.331D-03 0.237D-03-0.156D-02-0.637D-03
 Coeff:      0.857D-02-0.119D-01-0.296D-01 0.107D+00 0.236D-01-0.512D+00
 Coeff:      0.142D+01
 Gap=     0.544 Goal=   None    Shift=    0.000
 RMSDP=1.90D-09 MaxDP=1.42D-08 DE=-1.14D-13 OVMax= 2.78D-08

 SCF Done:  E(RHF) =  -226.389866210     A.U. after   13 cycles
            NFock= 13  Conv=0.19D-08     -V/T= 2.0035
 KE= 2.256094462398D+02 PE=-7.666028796422D+02 EE= 1.978789898559D+02
 Leave Link  502 at Fri Apr 12 15:35:19 2019, MaxMem=   134217728 cpu:         0.4
 (Enter /cm/shared/c3ddb/gaussian/09.d01/g09/l701.exe)
 Compute integral first derivatives.
 ... and contract with generalized density number  0.
 Leave Link  701 at Fri Apr 12 15:35:19 2019, MaxMem=   134217728 cpu:         0.2
 (Enter /cm/shared/c3ddb/gaussian/09.d01/g09/l702.exe)
 L702 exits ... SP integral derivatives will be done elsewhere.
 Leave Link  702 at Fri Apr 12 15:35:19 2019, MaxMem=   134217728 cpu:         0.1
 (Enter /cm/shared/c3ddb/gaussian/09.d01/g09/l703.exe)
 Compute integral first derivatives, UseDBF=F ICtDFT=           0.
 Integral derivatives from FoFJK, PRISM(SPDF).
 Calling FoFJK, ICntrl=      2127 FMM=F ISym2X=0 I1Cent= 0 IOpClX= 0 NMat=1 NMatS=1 NMatT=0.
 FoFJK:  IHMeth= 1 ICntrl=    2127 DoSepK=F KAlg= 0 I1Cent=   0 FoldK=F
 IRaf=         0 NMat=   1 IRICut=       1 DoRegI=T DoRafI=F ISym2E= 0.
 FoFCou: FMM=F IPFlag=           0 FMFlag=      100000 FMFlg1=         800
         NFxFlg=           0 DoJE=F BraDBF=F KetDBF=F FulRan=T
         wScrn=  0.000000 ICntrl=    2127 IOpCl=  0 I1Cent=           0 NGrid=           0
         NMat0=    1 NMatS0=      1 NMatT0=    0 NMatD0=    1 NMtDS0=    0 NMtDT0=    0
 Symmetry not used in FoFCou.
 Leave Link  703 at Fri Apr 12 15:35:19 2019, MaxMem=   134217728 cpu:         0.3
 (Enter /cm/shared/c3ddb/gaussian/09.d01/g09/l716.exe)
 Dipole        = 8.85705260D-01 2.37833329D-01-7.57154132D-01
 -------------------------------------------------------------------
 Center     Atomic                   Forces (Hartrees/Bohr)
 Number     Number              X              Y              Z
 -------------------------------------------------------------------
      1        6           0.000974607   -0.000633900    0.006740900
      2        6           0.000163645    0.000205827   -0.002008941
      3        1          -0.000119558   -0.000108982    0.000129837
      4        1           0.000054785   -0.000060402   -0.000020454
      5        1           0.000006143    0.000054407    0.000053126
      6        8          -0.000677513   -0.001659365   -0.003886973
      7        8           0.005599589    0.003181301    0.000693401
      8        1          -0.006001698   -0.000978886   -0.001700896
 -------------------------------------------------------------------
 Cartesian Forces:  Max     0.006740900 RMS     0.002509166
 Leave Link  716 at Fri Apr 12 15:35:20 2019, MaxMem=   134217728 cpu:         0.1
 (Enter /cm/shared/c3ddb/gaussian/09.d01/g09/l103.exe)

 GradGradGradGradGradGradGradGradGradGradGradGradGradGradGradGradGradGrad
 Berny optimization.
 Using GEDIIS/GDIIS optimizer.
 FormGI is forming the generalized inverse of G from B-inverse, IUseBI=4.
 Internal  Forces:  Max     0.011208461 RMS     0.002636310
 Search for a local minimum.
 Step number   2 out of a maximum of   32
 All quantities printed in internal units (Hartrees-Bohrs-Radians)
 RMS Force = .87647D-03 SwitMx=.10000D-02 MixMth= 2
 Mixed Optimization -- En-DIIS/RFO-DIIS
 Update second derivatives using D2CorX and points    1    2
 DE= -1.69D-05 DEPred=-5.47D-05 R= 3.09D-01
 Trust test= 3.09D-01 RLast= 2.63D-02 DXMaxT set to 3.00D-01
 ITU=  0  0
 Use linear search instead of GDIIS.
     Eigenvalues ---    0.02555   0.03295   0.03300   0.15648   0.16000
     Eigenvalues ---    0.16000   0.18071   0.22036   0.28549   0.37123
     Eigenvalues ---    0.37157   0.37200   0.42753   0.51960   0.52301
     Eigenvalues ---    0.648301000.000001000.000001000.000001000.00000
     Eigenvalues --- 1000.000001000.00000
 RFO step:  Lambda=-2.90457653D-06 EMin= 2.55463785D-02
 Quartic linear search produced a step of -0.40779.
 Iteration  1 RMS(Cart)=  0.00507143 RMS(Int)=  0.00001242
 Iteration  2 RMS(Cart)=  0.00001267 RMS(Int)=  0.00000271
 Iteration  3 RMS(Cart)=  0.00000000 RMS(Int)=  0.00000271
 Iteration  1 RMS(Cart)=  0.00000151 RMS(Int)=  0.00000065
 Iteration  2 RMS(Cart)=  0.00000054 RMS(Int)=  0.00000072
 ITry= 1 IFail=0 DXMaxC= 1.37D-02 DCOld= 1.00D+10 DXMaxT= 3.00D-01 DXLimC= 3.00D+00 Rises=F
 Variable       Old X    -DE/DX   Delta X   Delta X   Delta X     New X
                                 (Linear)    (Quad)   (Total)
    R1        2.47333  -0.00001  -0.00012   0.00012   0.00000   2.47333
    R2        2.02103  -0.00014   0.00036  -0.00061  -0.00025   2.02078
    R3        2.65425   0.00106   0.00051   0.00087   0.00137   2.65562
    R4        2.02237   0.00006   0.00003   0.00005   0.00009   2.02246
    R5        2.02378  -0.00005  -0.00007  -0.00001  -0.00008   2.02370
    R6        2.75680   0.00234   0.00230   0.00131   0.00361   2.76040
    R7        1.84274  -0.00003   0.00012  -0.00017  -0.00004   1.84269
    A1        2.17940  -0.00006  -0.00176   0.00158  -0.00017   2.17923
    A2        2.10748   0.00040   0.00036   0.00062   0.00099   2.10847
    A3        1.99465  -0.00028   0.00117  -0.00207  -0.00089   1.99376
    A4        2.09961   0.00010   0.00035  -0.00002   0.00032   2.09993
    A5        2.11962  -0.00007  -0.00048   0.00026  -0.00022   2.11940
    A6        2.06394  -0.00003   0.00013  -0.00024  -0.00011   2.06383
    A7        1.89181   0.00216   0.00568  -0.00099   0.00469   1.89650
    A8        1.78516   0.00195   0.00629   0.00042   0.00671   1.79187
    D1       -0.02276   0.00063  -0.00295   0.00213  -0.00083  -0.02358
    D2        3.11165   0.00060  -0.00267   0.00132  -0.00135   3.11030
    D3       -3.09890  -0.00066   0.00103  -0.00051   0.00052  -3.09837
    D4        0.03551  -0.00069   0.00131  -0.00131   0.00000   0.03551
    D5       -2.96706   0.00277   0.00000   0.00000   0.00000  -2.96706
    D6        0.23344   0.00161   0.00370  -0.00249   0.00120   0.23464
    D7        1.22173   0.01121   0.00000   0.00000   0.00000   1.22173
         Item               Value     Threshold  Converged?
 Maximum Force            0.002340     0.000015     NO 
 RMS     Force            0.000876     0.000010     NO 
 Maximum Displacement     0.013658     0.000060     NO 
 RMS     Displacement     0.005076     0.000040     NO 
 Predicted change in Energy=-1.719532D-05
 Lowest energy point so far.  Saving SCF results.
 GradGradGradGradGradGradGradGradGradGradGradGradGradGradGradGradGradGrad

 Leave Link  103 at Fri Apr 12 15:35:20 2019, MaxMem=   134217728 cpu:         0.0
 (Enter /cm/shared/c3ddb/gaussian/09.d01/g09/l202.exe)
                          Input orientation:                          
 ---------------------------------------------------------------------
 Center     Atomic      Atomic             Coordinates (Angstroms)
 Number     Number       Type             X           Y           Z
 ---------------------------------------------------------------------
      1          6           0        0.741546    0.636229    0.024347
      2          6           0        1.375493   -0.508228   -0.012625
      3          1           0        1.211726    1.592963    0.108646
      4          1           0        2.444873   -0.534788    0.020962
      5          1           0        0.846932   -1.437843   -0.069676
      6          8           0       -0.663008    0.681004    0.032977
      7          8           0       -1.087763    2.064602   -0.164534
      8          1           0       -0.848179    2.231069   -1.094979
 ---------------------------------------------------------------------
                    Distance matrix (angstroms):
                    1          2          3          4          5
     1  C    0.000000
     2  C    1.308831   0.000000
     3  H    1.069352   2.111050   0.000000
     4  H    2.067031   1.070237   2.460826   0.000000
     5  H    2.078875   1.070894   3.057884   1.837699   0.000000
     6  O    1.405294   2.360474   2.086150   3.337247   2.603838
     7  O    2.328583   3.565132   2.363201   4.389847   4.002395
     8  H    2.514683   3.690522   2.469635   4.442913   4.169600
                    6          7          8
     6  O    0.000000
     7  O    1.460743   0.000000
     8  H    1.925947   0.975110   0.000000
 Symmetry turned off by external request.
 Stoichiometry    C2H4O2
 Framework group  C1[X(C2H4O2)]
 Deg. of freedom    18
 Full point group                 C1      NOp   1
 Rotational constants (GHZ):     42.0384390      4.5516767      4.1838282
 Leave Link  202 at Fri Apr 12 15:35:20 2019, MaxMem=   134217728 cpu:         0.0
 (Enter /cm/shared/c3ddb/gaussian/09.d01/g09/l301.exe)
 Standard basis: 3-21G (6D, 7F)
 Ernie: Thresh=  0.10000D-02 Tol=  0.10000D-05 Strict=F.
    44 basis functions,    72 primitive gaussians,    44 cartesian basis functions
    16 alpha electrons       16 beta electrons
       nuclear repulsion energy       116.6128250157 Hartrees.
 IExCor=    0 DFT=F Ex=HF Corr=None ExCW=0 ScaHFX=  1.000000
 ScaDFX=  1.000000  1.000000  1.000000  1.000000 ScalE2=  1.000000  1.000000
 IRadAn=      0 IRanWt=     -1 IRanGd=            0 ICorTp=0 IEmpDi=  4
 NAtoms=    8 NActive=    8 NUniq=    8 SFac= 1.00D+00 NAtFMM=   60 NAOKFM=F Big=F
 Integral buffers will be    131072 words long.
 Raffenetti 1 integral format.
 Two-electron integral symmetry is turned off.
 Leave Link  301 at Fri Apr 12 15:35:20 2019, MaxMem=   134217728 cpu:         0.2
 (Enter /cm/shared/c3ddb/gaussian/09.d01/g09/l302.exe)
 NPDir=0 NMtPBC=     1 NCelOv=     1 NCel=       1 NClECP=     1 NCelD=      1
         NCelK=      1 NCelE2=     1 NClLst=     1 CellRange=     0.0.
 One-electron integrals computed using PRISM.
 NBasis=    44 RedAO= T EigKep=  1.13D-02  NBF=    44
 NBsUse=    44 1.00D-06 EigRej= -1.00D+00 NBFU=    44
 Leave Link  302 at Fri Apr 12 15:35:21 2019, MaxMem=   134217728 cpu:         0.3
 (Enter /cm/shared/c3ddb/gaussian/09.d01/g09/l303.exe)
 DipDrv:  MaxL=1.
 Leave Link  303 at Fri Apr 12 15:35:21 2019, MaxMem=   134217728 cpu:         0.2
 (Enter /cm/shared/c3ddb/gaussian/09.d01/g09/l401.exe)
 Initial guess from the checkpoint file:  "TMP_CALCS/scangeom_S02_190_070.chk"
 B after Tr=     0.000615   -0.000310   -0.000311
         Rot=    1.000000    0.000159    0.000075   -0.000148 Ang=   0.03 deg.
 Guess basis will be translated and rotated to current coordinates.
 JPrj=2 DoOrth=T DoCkMO=T.
 Leave Link  401 at Fri Apr 12 15:35:21 2019, MaxMem=   134217728 cpu:         0.4
 (Enter /cm/shared/c3ddb/gaussian/09.d01/g09/l502.exe)
 Closed shell SCF:
 Using DIIS extrapolation, IDIIS=  1040.
 Two-electron integral symmetry not used.
 Keep R1 ints in memory in canonical form, NReq=1327247.
 IVT=       24902 IEndB=       24902 NGot=   134217728 MDV=   133702282
 LenX=   133702282 LenY=   133699905
 Requested convergence on RMS density matrix=1.00D-08 within 128 cycles.
 Requested convergence on MAX density matrix=1.00D-06.
 Requested convergence on             energy=1.00D-06.
 No special actions if energy rises.
 FoFCou: FMM=F IPFlag=           0 FMFlag=           0 FMFlg1=           0
         NFxFlg=           0 DoJE=F BraDBF=F KetDBF=F FulRan=T
         wScrn=  0.000000 ICntrl=     600 IOpCl=  0 I1Cent=           0 NGrid=           0
         NMat0=    1 NMatS0=    990 NMatT0=    0 NMatD0=    1 NMtDS0=    0 NMtDT0=    0
 Symmetry not used in FoFCou.

 Cycle   1  Pass 1  IDiag  1:
 E= -226.389871984844    
 DIIS: error= 3.01D-04 at cycle   1 NSaved=   1.
 NSaved= 1 IEnMin= 1 EnMin= -226.389871984844     IErMin= 1 ErrMin= 3.01D-04
 ErrMax= 3.01D-04  0.00D+00 EMaxC= 1.00D-01 BMatC= 8.86D-06 BMatP= 8.86D-06
 IDIUse=3 WtCom= 9.97D-01 WtEn= 3.01D-03
 Coeff-Com:  0.100D+01
 Coeff-En:   0.100D+01
 Coeff:      0.100D+01
 Gap=     0.934 Goal=   None    Shift=    0.000
 RMSDP=6.82D-05 MaxDP=4.48D-04              OVMax= 4.84D-04

 Cycle   2  Pass 1  IDiag  1:
 E= -226.389881082485     Delta-E=       -0.000009097641 Rises=F Damp=F
 DIIS: error= 1.54D-04 at cycle   2 NSaved=   2.
 NSaved= 2 IEnMin= 2 EnMin= -226.389881082485     IErMin= 2 ErrMin= 1.54D-04
 ErrMax= 1.54D-04  0.00D+00 EMaxC= 1.00D-01 BMatC= 5.55D-07 BMatP= 8.86D-06
 IDIUse=3 WtCom= 9.98D-01 WtEn= 1.54D-03
 Coeff-Com: -0.130D+00 0.113D+01
 Coeff-En:   0.000D+00 0.100D+01
 Coeff:     -0.130D+00 0.113D+01
 Gap=     0.545 Goal=   None    Shift=    0.000
 RMSDP=2.79D-05 MaxDP=2.17D-04 DE=-9.10D-06 OVMax= 4.57D-04

 Cycle   3  Pass 1  IDiag  1:
 E= -226.389882646034     Delta-E=       -0.000001563549 Rises=F Damp=F
 DIIS: error= 8.77D-05 at cycle   3 NSaved=   3.
 NSaved= 3 IEnMin= 3 EnMin= -226.389882646034     IErMin= 3 ErrMin= 8.77D-05
 ErrMax= 8.77D-05  0.00D+00 EMaxC= 1.00D-01 BMatC= 1.14D-07 BMatP= 5.55D-07
 IDIUse=1 WtCom= 1.00D+00 WtEn= 0.00D+00
 Coeff-Com: -0.196D-01-0.172D+00 0.119D+01
 Coeff:     -0.196D-01-0.172D+00 0.119D+01
 Gap=     0.544 Goal=   None    Shift=    0.000
 RMSDP=1.56D-05 MaxDP=1.34D-04 DE=-1.56D-06 OVMax= 2.71D-04

 Cycle   4  Pass 1  IDiag  1:
 E= -226.389883035753     Delta-E=       -0.000000389719 Rises=F Damp=F
 DIIS: error= 4.58D-05 at cycle   4 NSaved=   4.
 NSaved= 4 IEnMin= 4 EnMin= -226.389883035753     IErMin= 4 ErrMin= 4.58D-05
 ErrMax= 4.58D-05  0.00D+00 EMaxC= 1.00D-01 BMatC= 3.07D-08 BMatP= 1.14D-07
 IDIUse=1 WtCom= 1.00D+00 WtEn= 0.00D+00
 Coeff-Com:  0.277D-01-0.283D+00 0.151D+00 0.110D+01
 Coeff:      0.277D-01-0.283D+00 0.151D+00 0.110D+01
 Gap=     0.544 Goal=   None    Shift=    0.000
 RMSDP=9.65D-06 MaxDP=8.82D-05 DE=-3.90D-07 OVMax= 1.83D-04

 Cycle   5  Pass 1  IDiag  1:
 E= -226.389883145814     Delta-E=       -0.000000110061 Rises=F Damp=F
 DIIS: error= 1.70D-05 at cycle   5 NSaved=   5.
 NSaved= 5 IEnMin= 5 EnMin= -226.389883145814     IErMin= 5 ErrMin= 1.70D-05
 ErrMax= 1.70D-05  0.00D+00 EMaxC= 1.00D-01 BMatC= 3.94D-09 BMatP= 3.07D-08
 IDIUse=1 WtCom= 1.00D+00 WtEn= 0.00D+00
 Coeff-Com:  0.170D-03 0.604D-01-0.198D+00-0.124D+00 0.126D+01
 Coeff:      0.170D-03 0.604D-01-0.198D+00-0.124D+00 0.126D+01
 Gap=     0.544 Goal=   None    Shift=    0.000
 RMSDP=3.91D-06 MaxDP=3.53D-05 DE=-1.10D-07 OVMax= 7.12D-05

 Cycle   6  Pass 1  IDiag  1:
 E= -226.389883160783     Delta-E=       -0.000000014969 Rises=F Damp=F
 DIIS: error= 4.87D-06 at cycle   6 NSaved=   6.
 NSaved= 6 IEnMin= 6 EnMin= -226.389883160783     IErMin= 6 ErrMin= 4.87D-06
 ErrMax= 4.87D-06  0.00D+00 EMaxC= 1.00D-01 BMatC= 7.40D-10 BMatP= 3.94D-09
 IDIUse=1 WtCom= 1.00D+00 WtEn= 0.00D+00
 Coeff-Com: -0.377D-02 0.584D-01-0.823D-01-0.201D+00 0.392D+00 0.836D+00
 Coeff:     -0.377D-02 0.584D-01-0.823D-01-0.201D+00 0.392D+00 0.836D+00
 Gap=     0.544 Goal=   None    Shift=    0.000
 RMSDP=1.18D-06 MaxDP=9.12D-06 DE=-1.50D-08 OVMax= 2.02D-05

 Cycle   7  Pass 1  IDiag  1:
 E= -226.389883162389     Delta-E=       -0.000000001606 Rises=F Damp=F
 DIIS: error= 1.40D-06 at cycle   7 NSaved=   7.
 NSaved= 7 IEnMin= 7 EnMin= -226.389883162389     IErMin= 7 ErrMin= 1.40D-06
 ErrMax= 1.40D-06  0.00D+00 EMaxC= 1.00D-01 BMatC= 5.98D-11 BMatP= 7.40D-10
 IDIUse=1 WtCom= 1.00D+00 WtEn= 0.00D+00
 Coeff-Com:  0.854D-03-0.204D-01 0.454D-01 0.541D-01-0.249D+00-0.189D+00
 Coeff-Com:  0.136D+01
 Coeff:      0.854D-03-0.204D-01 0.454D-01 0.541D-01-0.249D+00-0.189D+00
 Coeff:      0.136D+01
 Gap=     0.544 Goal=   None    Shift=    0.000
 RMSDP=5.10D-07 MaxDP=3.27D-06 DE=-1.61D-09 OVMax= 1.19D-05

 Cycle   8  Pass 1  IDiag  1:
 E= -226.389883162625     Delta-E=       -0.000000000236 Rises=F Damp=F
 DIIS: error= 4.77D-07 at cycle   8 NSaved=   8.
 NSaved= 8 IEnMin= 8 EnMin= -226.389883162625     IErMin= 8 ErrMin= 4.77D-07
 ErrMax= 4.77D-07  0.00D+00 EMaxC= 1.00D-01 BMatC= 6.24D-12 BMatP= 5.98D-11
 IDIUse=1 WtCom= 1.00D+00 WtEn= 0.00D+00
 Coeff-Com:  0.379D-03-0.621D-02 0.974D-02 0.206D-01-0.472D-01-0.992D-01
 Coeff-Com:  0.121D+00 0.100D+01
 Coeff:      0.379D-03-0.621D-02 0.974D-02 0.206D-01-0.472D-01-0.992D-01
 Coeff:      0.121D+00 0.100D+01
 Gap=     0.544 Goal=   None    Shift=    0.000
 RMSDP=1.18D-07 MaxDP=6.78D-07 DE=-2.36D-10 OVMax= 2.70D-06

 Cycle   9  Pass 1  IDiag  1:
 E= -226.389883162642     Delta-E=       -0.000000000017 Rises=F Damp=F
 DIIS: error= 2.43D-07 at cycle   9 NSaved=   9.
 NSaved= 9 IEnMin= 9 EnMin= -226.389883162642     IErMin= 9 ErrMin= 2.43D-07
 ErrMax= 2.43D-07  0.00D+00 EMaxC= 1.00D-01 BMatC= 9.95D-13 BMatP= 6.24D-12
 IDIUse=1 WtCom= 1.00D+00 WtEn= 0.00D+00
 Coeff-Com: -0.175D-03 0.414D-02-0.900D-02-0.114D-01 0.504D-01 0.297D-01
 Coeff-Com: -0.228D+00-0.887D-01 0.125D+01
 Coeff:     -0.175D-03 0.414D-02-0.900D-02-0.114D-01 0.504D-01 0.297D-01
 Coeff:     -0.228D+00-0.887D-01 0.125D+01
 Gap=     0.544 Goal=   None    Shift=    0.000
 RMSDP=6.50D-08 MaxDP=3.63D-07 DE=-1.68D-11 OVMax= 1.37D-06

 Cycle  10  Pass 1  IDiag  1:
 E= -226.389883162645     Delta-E=       -0.000000000004 Rises=F Damp=F
 DIIS: error= 9.24D-08 at cycle  10 NSaved=  10.
 NSaved=10 IEnMin=10 EnMin= -226.389883162645     IErMin=10 ErrMin= 9.24D-08
 ErrMax= 9.24D-08  0.00D+00 EMaxC= 1.00D-01 BMatC= 1.26D-13 BMatP= 9.95D-13
 IDIUse=1 WtCom= 1.00D+00 WtEn= 0.00D+00
 Coeff-Com: -0.391D-04 0.621D-03-0.939D-03-0.210D-02 0.510D-02 0.769D-02
 Coeff-Com: -0.647D-02-0.120D+00 0.262D-01 0.109D+01
 Coeff:     -0.391D-04 0.621D-03-0.939D-03-0.210D-02 0.510D-02 0.769D-02
 Coeff:     -0.647D-02-0.120D+00 0.262D-01 0.109D+01
 Gap=     0.544 Goal=   None    Shift=    0.000
 RMSDP=1.97D-08 MaxDP=1.31D-07 DE=-3.58D-12 OVMax= 3.59D-07

 Cycle  11  Pass 1  IDiag  1:
 E= -226.389883162645     Delta-E=        0.000000000000 Rises=F Damp=F
 DIIS: error= 4.25D-08 at cycle  11 NSaved=  11.
 NSaved=11 IEnMin=11 EnMin= -226.389883162645     IErMin=11 ErrMin= 4.25D-08
 ErrMax= 4.25D-08  0.00D+00 EMaxC= 1.00D-01 BMatC= 2.17D-14 BMatP= 1.26D-13
 IDIUse=1 WtCom= 1.00D+00 WtEn= 0.00D+00
 Coeff-Com:  0.365D-04-0.870D-03 0.186D-02 0.247D-02-0.104D-01-0.738D-02
 Coeff-Com:  0.479D-01 0.246D-01-0.246D+00-0.998D-01 0.129D+01
 Coeff:      0.365D-04-0.870D-03 0.186D-02 0.247D-02-0.104D-01-0.738D-02
 Coeff:      0.479D-01 0.246D-01-0.246D+00-0.998D-01 0.129D+01
 Gap=     0.544 Goal=   None    Shift=    0.000
 RMSDP=1.08D-08 MaxDP=9.21D-08 DE=-1.71D-13 OVMax= 1.81D-07

 Cycle  12  Pass 1  IDiag  1:
 E= -226.389883162646     Delta-E=        0.000000000000 Rises=F Damp=F
 DIIS: error= 1.34D-08 at cycle  12 NSaved=  12.
 NSaved=12 IEnMin=12 EnMin= -226.389883162646     IErMin=12 ErrMin= 1.34D-08
 ErrMax= 1.34D-08  0.00D+00 EMaxC= 1.00D-01 BMatC= 2.57D-15 BMatP= 2.17D-14
 IDIUse=1 WtCom= 1.00D+00 WtEn= 0.00D+00
 Coeff-Com: -0.174D-04 0.460D-03-0.103D-02-0.126D-02 0.569D-02 0.375D-02
 Coeff-Com: -0.291D-01 0.219D-02 0.145D+00-0.774D-01-0.798D+00 0.175D+01
 Coeff:     -0.174D-04 0.460D-03-0.103D-02-0.126D-02 0.569D-02 0.375D-02
 Coeff:     -0.291D-01 0.219D-02 0.145D+00-0.774D-01-0.798D+00 0.175D+01
 Gap=     0.544 Goal=   None    Shift=    0.000
 RMSDP=4.62D-09 MaxDP=4.31D-08 DE=-2.84D-13 OVMax= 8.11D-08

 SCF Done:  E(RHF) =  -226.389883163     A.U. after   12 cycles
            NFock= 12  Conv=0.46D-08     -V/T= 2.0035
 KE= 2.256009812791D+02 PE=-7.663788350873D+02 EE= 1.977751456299D+02
 Leave Link  502 at Fri Apr 12 15:35:22 2019, MaxMem=   134217728 cpu:         0.4
 (Enter /cm/shared/c3ddb/gaussian/09.d01/g09/l701.exe)
 Compute integral first derivatives.
 ... and contract with generalized density number  0.
 Leave Link  701 at Fri Apr 12 15:35:23 2019, MaxMem=   134217728 cpu:         0.3
 (Enter /cm/shared/c3ddb/gaussian/09.d01/g09/l702.exe)
 L702 exits ... SP integral derivatives will be done elsewhere.
 Leave Link  702 at Fri Apr 12 15:35:23 2019, MaxMem=   134217728 cpu:         0.1
 (Enter /cm/shared/c3ddb/gaussian/09.d01/g09/l703.exe)
 Compute integral first derivatives, UseDBF=F ICtDFT=           0.
 Integral derivatives from FoFJK, PRISM(SPDF).
 Calling FoFJK, ICntrl=      2127 FMM=F ISym2X=0 I1Cent= 0 IOpClX= 0 NMat=1 NMatS=1 NMatT=0.
 FoFJK:  IHMeth= 1 ICntrl=    2127 DoSepK=F KAlg= 0 I1Cent=   0 FoldK=F
 IRaf=         0 NMat=   1 IRICut=       1 DoRegI=T DoRafI=F ISym2E= 0.
 FoFCou: FMM=F IPFlag=           0 FMFlag=      100000 FMFlg1=         800
         NFxFlg=           0 DoJE=F BraDBF=F KetDBF=F FulRan=T
         wScrn=  0.000000 ICntrl=    2127 IOpCl=  0 I1Cent=           0 NGrid=           0
         NMat0=    1 NMatS0=      1 NMatT0=    0 NMatD0=    1 NMtDS0=    0 NMtDT0=    0
 Symmetry not used in FoFCou.
 Leave Link  703 at Fri Apr 12 15:35:23 2019, MaxMem=   134217728 cpu:         0.2
 (Enter /cm/shared/c3ddb/gaussian/09.d01/g09/l716.exe)
 Dipole        = 8.84926416D-01 2.41198453D-01-7.57671874D-01
 -------------------------------------------------------------------
 Center     Atomic                   Forces (Hartrees/Bohr)
 Number     Number              X              Y              Z
 -------------------------------------------------------------------
      1        6           0.000368838    0.000365428    0.006650130
      2        6          -0.000100813    0.000142214   -0.001986073
      3        1          -0.000008283    0.000009310    0.000047358
      4        1           0.000004101    0.000002823   -0.000000146
      5        1           0.000003418    0.000004960   -0.000000187
      6        8          -0.001069367   -0.000725969   -0.004695755
      7        8           0.006303158    0.002178700    0.001762826
      8        1          -0.005501053   -0.001977467   -0.001778152
 -------------------------------------------------------------------
 Cartesian Forces:  Max     0.006650130 RMS     0.002558562
 Leave Link  716 at Fri Apr 12 15:35:23 2019, MaxMem=   134217728 cpu:         0.1
 (Enter /cm/shared/c3ddb/gaussian/09.d01/g09/l103.exe)

 GradGradGradGradGradGradGradGradGradGradGradGradGradGradGradGradGradGrad
 Berny optimization.
 Using GEDIIS/GDIIS optimizer.
 FormGI is forming the generalized inverse of G from B-inverse, IUseBI=4.
 Internal  Forces:  Max     0.010984893 RMS     0.002454337
 Search for a local minimum.
 Step number   3 out of a maximum of   32
 All quantities printed in internal units (Hartrees-Bohrs-Radians)
 RMS Force = .61336D-04 SwitMx=.10000D-02 MixMth= 2
 Mixed Optimization -- En-DIIS/RFO-DIIS
 Swapping is turned off.
 Update second derivatives using D2CorX and points    1    2    3
 DE= -1.70D-05 DEPred=-1.72D-05 R= 9.86D-01
 TightC=F SS=  1.41D+00  RLast= 9.39D-03 DXNew= 5.0454D-01 2.8167D-02
 Trust test= 9.86D-01 RLast= 9.39D-03 DXMaxT set to 3.00D-01
 ITU=  1  0  0
     Eigenvalues ---    0.02575   0.03294   0.03300   0.15560   0.16000
     Eigenvalues ---    0.16000   0.18373   0.22136   0.28635   0.37123
     Eigenvalues ---    0.37157   0.37201   0.43523   0.50243   0.52310
     Eigenvalues ---    0.650431000.000001000.000001000.000001000.00000
     Eigenvalues --- 1000.000001000.00000
 En-DIIS/RFO-DIIS IScMMF=        0 using points:     3    2
 RFO step:  Lambda=-4.31876906D-06.
 NNeg= 0 NP= 2 Switch=  2.50D-03 Rises=F DC=  1.70D-05 SmlDif=  1.00D-05
 RMS Error=  0.1404462255D-03 NUsed= 2 EDIIS=F
 DidBck=F Rises=F RFO-DIIS coefs:    0.99608    0.00392
 Iteration  1 RMS(Cart)=  0.00051099 RMS(Int)=  0.00000046
 Iteration  2 RMS(Cart)=  0.00000026 RMS(Int)=  0.00000040
 Iteration  1 RMS(Cart)=  0.00000050 RMS(Int)=  0.00000022
 ITry= 1 IFail=0 DXMaxC= 1.06D-03 DCOld= 1.00D+10 DXMaxT= 3.00D-01 DXLimC= 3.00D+00 Rises=F
 Variable       Old X    -DE/DX   Delta X   Delta X   Delta X     New X
                                 (Linear)    (Quad)   (Total)
    R1        2.47333  -0.00012   0.00000  -0.00018  -0.00018   2.47315
    R2        2.02078   0.00001   0.00000   0.00001   0.00002   2.02080
    R3        2.65562   0.00022  -0.00001   0.00052   0.00051   2.65613
    R4        2.02246   0.00000   0.00000   0.00001   0.00001   2.02247
    R5        2.02370  -0.00001   0.00000  -0.00002  -0.00002   2.02368
    R6        2.76040  -0.00004  -0.00001  -0.00005  -0.00007   2.76034
    R7        1.84269   0.00001   0.00000   0.00001   0.00001   1.84270
    A1        2.17923   0.00011   0.00000   0.00012   0.00012   2.17935
    A2        2.10847  -0.00002   0.00000  -0.00015  -0.00015   2.10832
    A3        1.99376  -0.00002   0.00000  -0.00006  -0.00006   1.99370
    A4        2.09993   0.00000   0.00000  -0.00002  -0.00002   2.09991
    A5        2.11940   0.00000   0.00000   0.00002   0.00002   2.11941
    A6        2.06383   0.00000   0.00000   0.00001   0.00001   2.06384
    A7        1.89650   0.00002  -0.00002   0.00013   0.00011   1.89661
    A8        1.79187  -0.00007  -0.00003  -0.00031  -0.00034   1.79153
    D1       -0.02358   0.00066   0.00000  -0.00085  -0.00084  -0.02443
    D2        3.11030   0.00066   0.00001  -0.00083  -0.00083   3.10947
    D3       -3.09837  -0.00066   0.00000   0.00083   0.00083  -3.09754
    D4        0.03551  -0.00066   0.00000   0.00084   0.00084   0.03635
    D5       -2.96706   0.00275   0.00000   0.00000   0.00000  -2.96706
    D6        0.23464   0.00156   0.00000   0.00150   0.00150   0.23614
    D7        1.22173   0.01098   0.00000   0.00000   0.00000   1.22173
         Item               Value     Threshold  Converged?
 Maximum Force            0.000221     0.000015     NO 
 RMS     Force            0.000061     0.000010     NO 
 Maximum Displacement     0.001058     0.000060     NO 
 RMS     Displacement     0.000511     0.000040     NO 
 Predicted change in Energy=-1.502446D-07
 Lowest energy point so far.  Saving SCF results.
 GradGradGradGradGradGradGradGradGradGradGradGradGradGradGradGradGradGrad

 Leave Link  103 at Fri Apr 12 15:35:23 2019, MaxMem=   134217728 cpu:         0.0
 (Enter /cm/shared/c3ddb/gaussian/09.d01/g09/l202.exe)
                          Input orientation:                          
 ---------------------------------------------------------------------
 Center     Atomic      Atomic             Coordinates (Angstroms)
 Number     Number       Type             X           Y           Z
 ---------------------------------------------------------------------
      1          6           0        0.741855    0.636356    0.024040
      2          6           0        1.375479   -0.508176   -0.012752
      3          1           0        1.212097    1.592992    0.109201
      4          1           0        2.444850   -0.534977    0.021129
      5          1           0        0.846722   -1.437658   -0.069957
      6          8           0       -0.662962    0.681245    0.033282
      7          8           0       -1.087844    2.064717   -0.164585
      8          1           0       -0.848577    2.230509   -1.095239
 ---------------------------------------------------------------------
                    Distance matrix (angstroms):
                    1          2          3          4          5
     1  C    0.000000
     2  C    1.308734   0.000000
     3  H    1.069361   2.111035   0.000000
     4  H    2.066936   1.070243   2.460831   0.000000
     5  H    2.078790   1.070885   3.057849   1.837701   0.000000
     6  O    1.405564   2.360526   2.086358   3.337340   2.603758
     7  O    2.328861   3.565219   2.363728   4.390083   4.002266
     8  H    2.514673   3.690338   2.470522   4.443068   4.169016
                    6          7          8
     6  O    0.000000
     7  O    1.460708   0.000000
     8  H    1.925676   0.975117   0.000000
 Symmetry turned off by external request.
 Stoichiometry    C2H4O2
 Framework group  C1[X(C2H4O2)]
 Deg. of freedom    18
 Full point group                 C1      NOp   1
 Rotational constants (GHZ):     42.0352408      4.5513000      4.1835667
 Leave Link  202 at Fri Apr 12 15:35:23 2019, MaxMem=   134217728 cpu:         0.0
 (Enter /cm/shared/c3ddb/gaussian/09.d01/g09/l301.exe)
 Standard basis: 3-21G (6D, 7F)
 Ernie: Thresh=  0.10000D-02 Tol=  0.10000D-05 Strict=F.
    44 basis functions,    72 primitive gaussians,    44 cartesian basis functions
    16 alpha electrons       16 beta electrons
       nuclear repulsion energy       116.6090566119 Hartrees.
 IExCor=    0 DFT=F Ex=HF Corr=None ExCW=0 ScaHFX=  1.000000
 ScaDFX=  1.000000  1.000000  1.000000  1.000000 ScalE2=  1.000000  1.000000
 IRadAn=      0 IRanWt=     -1 IRanGd=            0 ICorTp=0 IEmpDi=  4
 NAtoms=    8 NActive=    8 NUniq=    8 SFac= 1.00D+00 NAtFMM=   60 NAOKFM=F Big=F
 Integral buffers will be    131072 words long.
 Raffenetti 1 integral format.
 Two-electron integral symmetry is turned off.
 Leave Link  301 at Fri Apr 12 15:35:24 2019, MaxMem=   134217728 cpu:         0.2
 (Enter /cm/shared/c3ddb/gaussian/09.d01/g09/l302.exe)
 NPDir=0 NMtPBC=     1 NCelOv=     1 NCel=       1 NClECP=     1 NCelD=      1
         NCelK=      1 NCelE2=     1 NClLst=     1 CellRange=     0.0.
 One-electron integrals computed using PRISM.
 NBasis=    44 RedAO= T EigKep=  1.13D-02  NBF=    44
 NBsUse=    44 1.00D-06 EigRej= -1.00D+00 NBFU=    44
 Leave Link  302 at Fri Apr 12 15:35:24 2019, MaxMem=   134217728 cpu:         0.3
 (Enter /cm/shared/c3ddb/gaussian/09.d01/g09/l303.exe)
 DipDrv:  MaxL=1.
 Leave Link  303 at Fri Apr 12 15:35:24 2019, MaxMem=   134217728 cpu:         0.1
 (Enter /cm/shared/c3ddb/gaussian/09.d01/g09/l401.exe)
 Initial guess from the checkpoint file:  "TMP_CALCS/scangeom_S02_190_070.chk"
 B after Tr=     0.000065    0.000222    0.000228
         Rot=    1.000000    0.000077   -0.000100    0.000011 Ang=   0.01 deg.
 Guess basis will be translated and rotated to current coordinates.
 JPrj=2 DoOrth=T DoCkMO=T.
 Leave Link  401 at Fri Apr 12 15:35:25 2019, MaxMem=   134217728 cpu:         0.4
 (Enter /cm/shared/c3ddb/gaussian/09.d01/g09/l502.exe)
 Closed shell SCF:
 Using DIIS extrapolation, IDIIS=  1040.
 Two-electron integral symmetry not used.
 Keep R1 ints in memory in canonical form, NReq=1327247.
 IVT=       24902 IEndB=       24902 NGot=   134217728 MDV=   133702282
 LenX=   133702282 LenY=   133699905
 Requested convergence on RMS density matrix=1.00D-08 within 128 cycles.
 Requested convergence on MAX density matrix=1.00D-06.
 Requested convergence on             energy=1.00D-06.
 No special actions if energy rises.
 FoFCou: FMM=F IPFlag=           0 FMFlag=           0 FMFlg1=           0
         NFxFlg=           0 DoJE=F BraDBF=F KetDBF=F FulRan=T
         wScrn=  0.000000 ICntrl=     600 IOpCl=  0 I1Cent=           0 NGrid=           0
         NMat0=    1 NMatS0=    990 NMatT0=    0 NMatD0=    1 NMtDS0=    0 NMtDT0=    0
 Symmetry not used in FoFCou.

 Cycle   1  Pass 1  IDiag  1:
 E= -226.389883031558    
 DIIS: error= 3.48D-05 at cycle   1 NSaved=   1.
 NSaved= 1 IEnMin= 1 EnMin= -226.389883031558     IErMin= 1 ErrMin= 3.48D-05
 ErrMax= 3.48D-05  0.00D+00 EMaxC= 1.00D-01 BMatC= 1.61D-07 BMatP= 1.61D-07
 IDIUse=1 WtCom= 1.00D+00 WtEn= 0.00D+00
 Coeff-Com:  0.100D+01
 Coeff:      0.100D+01
 Gap=     0.934 Goal=   None    Shift=    0.000
 RMSDP=1.07D-05 MaxDP=6.12D-05              OVMax= 9.21D-05

 Cycle   2  Pass 1  IDiag  1:
 E= -226.389883261171     Delta-E=       -0.000000229612 Rises=F Damp=F
 DIIS: error= 1.68D-05 at cycle   2 NSaved=   2.
 NSaved= 2 IEnMin= 2 EnMin= -226.389883261171     IErMin= 2 ErrMin= 1.68D-05
 ErrMax= 1.68D-05  0.00D+00 EMaxC= 1.00D-01 BMatC= 1.27D-08 BMatP= 1.61D-07
 IDIUse=1 WtCom= 1.00D+00 WtEn= 0.00D+00
 Coeff-Com: -0.180D+00 0.118D+01
 Coeff:     -0.180D+00 0.118D+01
 Gap=     0.545 Goal=   None    Shift=    0.000
 RMSDP=4.45D-06 MaxDP=3.41D-05 DE=-2.30D-07 OVMax= 6.08D-05

 Cycle   3  Pass 1  IDiag  1:
 E= -226.389883292037     Delta-E=       -0.000000030866 Rises=F Damp=F
 DIIS: error= 6.69D-06 at cycle   3 NSaved=   3.
 NSaved= 3 IEnMin= 3 EnMin= -226.389883292037     IErMin= 3 ErrMin= 6.69D-06
 ErrMax= 6.69D-06  0.00D+00 EMaxC= 1.00D-01 BMatC= 2.66D-09 BMatP= 1.27D-08
 IDIUse=1 WtCom= 1.00D+00 WtEn= 0.00D+00
 Coeff-Com: -0.930D-01 0.275D+00 0.818D+00
 Coeff:     -0.930D-01 0.275D+00 0.818D+00
 Gap=     0.545 Goal=   None    Shift=    0.000
 RMSDP=1.53D-06 MaxDP=8.44D-06 DE=-3.09D-08 OVMax= 2.05D-05

 Cycle   4  Pass 1  IDiag  1:
 E= -226.389883296457     Delta-E=       -0.000000004420 Rises=F Damp=F
 DIIS: error= 3.14D-06 at cycle   4 NSaved=   4.
 NSaved= 4 IEnMin= 4 EnMin= -226.389883296457     IErMin= 4 ErrMin= 3.14D-06
 ErrMax= 3.14D-06  0.00D+00 EMaxC= 1.00D-01 BMatC= 4.57D-10 BMatP= 2.66D-09
 IDIUse=1 WtCom= 1.00D+00 WtEn= 0.00D+00
 Coeff-Com:  0.314D-01-0.229D+00 0.592D-01 0.114D+01
 Coeff:      0.314D-01-0.229D+00 0.592D-01 0.114D+01
 Gap=     0.545 Goal=   None    Shift=    0.000
 RMSDP=1.13D-06 MaxDP=6.01D-06 DE=-4.42D-09 OVMax= 1.68D-05

 Cycle   5  Pass 1  IDiag  1:
 E= -226.389883297790     Delta-E=       -0.000000001333 Rises=F Damp=F
 DIIS: error= 1.02D-06 at cycle   5 NSaved=   5.
 NSaved= 5 IEnMin= 5 EnMin= -226.389883297790     IErMin= 5 ErrMin= 1.02D-06
 ErrMax= 1.02D-06  0.00D+00 EMaxC= 1.00D-01 BMatC= 3.91D-11 BMatP= 4.57D-10
 IDIUse=1 WtCom= 1.00D+00 WtEn= 0.00D+00
 Coeff-Com:  0.800D-02-0.234D-01-0.745D-01-0.235D-01 0.111D+01
 Coeff:      0.800D-02-0.234D-01-0.745D-01-0.235D-01 0.111D+01
 Gap=     0.545 Goal=   None    Shift=    0.000
 RMSDP=3.43D-07 MaxDP=1.99D-06 DE=-1.33D-09 OVMax= 5.56D-06

 Cycle   6  Pass 1  IDiag  1:
 E= -226.389883297918     Delta-E=       -0.000000000128 Rises=F Damp=F
 DIIS: error= 5.00D-07 at cycle   6 NSaved=   6.
 NSaved= 6 IEnMin= 6 EnMin= -226.389883297918     IErMin= 6 ErrMin= 5.00D-07
 ErrMax= 5.00D-07  0.00D+00 EMaxC= 1.00D-01 BMatC= 6.82D-12 BMatP= 3.91D-11
 IDIUse=1 WtCom= 1.00D+00 WtEn= 0.00D+00
 Coeff-Com: -0.407D-02 0.350D-01-0.185D-01-0.196D+00 0.168D+00 0.102D+01
 Coeff:     -0.407D-02 0.350D-01-0.185D-01-0.196D+00 0.168D+00 0.102D+01
 Gap=     0.545 Goal=   None    Shift=    0.000
 RMSDP=1.35D-07 MaxDP=8.81D-07 DE=-1.28D-10 OVMax= 2.29D-06

 Cycle   7  Pass 1  IDiag  1:
[...]
 RMSDP=1.00D-06 MaxDP=6.36D-06              OVMax= 6.33D-06

 Cycle   2  Pass 1  IDiag  1:
 E= -226.389883321966     Delta-E=       -0.000000001555 Rises=F Damp=F
 DIIS: error= 1.02D-06 at cycle   2 NSaved=   2.
 NSaved= 2 IEnMin= 2 EnMin= -226.389883321966     IErMin= 2 ErrMin= 1.02D-06
 ErrMax= 1.02D-06  0.00D+00 EMaxC= 1.00D-01 BMatC= 7.17D-11 BMatP= 1.34D-09
 IDIUse=1 WtCom= 1.00D+00 WtEn= 0.00D+00
 Coeff-Com: -0.151D+00 0.115D+01
 Coeff:     -0.151D+00 0.115D+01
 Gap=     0.545 Goal=   None    Shift=    0.000
 RMSDP=3.38D-07 MaxDP=1.76D-06 DE=-1.55D-09 OVMax= 3.67D-06

 Cycle   3  Pass 1  IDiag  1:
 E= -226.389883322121     Delta-E=       -0.000000000155 Rises=F Damp=F
 DIIS: error= 4.86D-07 at cycle   3 NSaved=   3.
 NSaved= 3 IEnMin= 3 EnMin= -226.389883322121     IErMin= 3 ErrMin= 4.86D-07
 ErrMax= 4.86D-07  0.00D+00 EMaxC= 1.00D-01 BMatC= 1.15D-11 BMatP= 7.17D-11
 IDIUse=1 WtCom= 1.00D+00 WtEn= 0.00D+00
 Coeff-Com: -0.584D-01 0.190D+00 0.869D+00
 Coeff:     -0.584D-01 0.190D+00 0.869D+00
 Gap=     0.545 Goal=   None    Shift=    0.000
 RMSDP=1.10D-07 MaxDP=5.60D-07 DE=-1.55D-10 OVMax= 1.31D-06

 Cycle   4  Pass 1  IDiag  1:
 E= -226.389883322140     Delta-E=       -0.000000000019 Rises=F Damp=F
 DIIS: error= 2.37D-07 at cycle   4 NSaved=   4.
 NSaved= 4 IEnMin= 4 EnMin= -226.389883322140     IErMin= 4 ErrMin= 2.37D-07
 ErrMax= 2.37D-07  0.00D+00 EMaxC= 1.00D-01 BMatC= 2.63D-12 BMatP= 1.15D-11
 IDIUse=1 WtCom= 1.00D+00 WtEn= 0.00D+00
 Coeff-Com:  0.176D-01-0.181D+00 0.171D+00 0.993D+00
 Coeff:      0.176D-01-0.181D+00 0.171D+00 0.993D+00
 Gap=     0.545 Goal=   None    Shift=    0.000
 RMSDP=7.14D-08 MaxDP=4.82D-07 DE=-1.92D-11 OVMax= 1.06D-06

 Cycle   5  Pass 1  IDiag  1:
 E= -226.389883322146     Delta-E=       -0.000000000006 Rises=F Damp=F
 DIIS: error= 1.51D-07 at cycle   5 NSaved=   5.
 NSaved= 5 IEnMin= 5 EnMin= -226.389883322146     IErMin= 5 ErrMin= 1.51D-07
 ErrMax= 1.51D-07  0.00D+00 EMaxC= 1.00D-01 BMatC= 3.08D-13 BMatP= 2.63D-12
 IDIUse=1 WtCom= 1.00D+00 WtEn= 0.00D+00
 Coeff-Com:  0.289D-02 0.158D-01-0.136D+00-0.210D+00 0.133D+01
 Coeff:      0.289D-02 0.158D-01-0.136D+00-0.210D+00 0.133D+01
 Gap=     0.545 Goal=   None    Shift=    0.000
 RMSDP=3.68D-08 MaxDP=3.05D-07 DE=-6.03D-12 OVMax= 6.44D-07

 Cycle   6  Pass 1  IDiag  1:
 E= -226.389883322148     Delta-E=       -0.000000000002 Rises=F Damp=F
 DIIS: error= 6.09D-08 at cycle   6 NSaved=   6.
 NSaved= 6 IEnMin= 6 EnMin= -226.389883322148     IErMin= 6 ErrMin= 6.09D-08
 ErrMax= 6.09D-08  0.00D+00 EMaxC= 1.00D-01 BMatC= 5.16D-14 BMatP= 3.08D-13
 IDIUse=1 WtCom= 1.00D+00 WtEn= 0.00D+00
 Coeff-Com: -0.295D-02 0.337D-01-0.378D-01-0.195D+00 0.945D-01 0.111D+01
 Coeff:     -0.295D-02 0.337D-01-0.378D-01-0.195D+00 0.945D-01 0.111D+01
 Gap=     0.545 Goal=   None    Shift=    0.000
 RMSDP=1.50D-08 MaxDP=1.37D-07 DE=-1.71D-12 OVMax= 2.75D-07

 Cycle   7  Pass 1  IDiag  1:
 E= -226.389883322149     Delta-E=        0.000000000000 Rises=F Damp=F
 DIIS: error= 2.34D-08 at cycle   7 NSaved=   7.
 NSaved= 7 IEnMin= 7 EnMin= -226.389883322149     IErMin= 7 ErrMin= 2.34D-08
 ErrMax= 2.34D-08  0.00D+00 EMaxC= 1.00D-01 BMatC= 7.11D-15 BMatP= 5.16D-14
 IDIUse=1 WtCom= 1.00D+00 WtEn= 0.00D+00
 Coeff-Com:  0.141D-03-0.778D-02 0.239D-01 0.571D-01-0.171D+00-0.195D+00
 Coeff-Com:  0.129D+01
 Coeff:      0.141D-03-0.778D-02 0.239D-01 0.571D-01-0.171D+00-0.195D+00
 Coeff:      0.129D+01
 Gap=     0.545 Goal=   None    Shift=    0.000
 RMSDP=5.64D-09 MaxDP=4.80D-08 DE=-4.55D-13 OVMax= 9.58D-08

 SCF Done:  E(RHF) =  -226.389883322     A.U. after    7 cycles
            NFock=  7  Conv=0.56D-08     -V/T= 2.0035
 KE= 2.256006840905D+02 PE=-7.663696728276D+02 EE= 1.977711826638D+02
 Leave Link  502 at Fri Apr 12 15:35:31 2019, MaxMem=   134217728 cpu:         0.2
 (Enter /cm/shared/c3ddb/gaussian/09.d01/g09/l701.exe)
 Compute integral first derivatives.
 ... and contract with generalized density number  0.
 Leave Link  701 at Fri Apr 12 15:35:32 2019, MaxMem=   134217728 cpu:         0.2
 (Enter /cm/shared/c3ddb/gaussian/09.d01/g09/l702.exe)
 L702 exits ... SP integral derivatives will be done elsewhere.
 Leave Link  702 at Fri Apr 12 15:35:32 2019, MaxMem=   134217728 cpu:         0.0
 (Enter /cm/shared/c3ddb/gaussian/09.d01/g09/l703.exe)
 Compute integral first derivatives, UseDBF=F ICtDFT=           0.
 Integral derivatives from FoFJK, PRISM(SPDF).
 Calling FoFJK, ICntrl=      2127 FMM=F ISym2X=0 I1Cent= 0 IOpClX= 0 NMat=1 NMatS=1 NMatT=0.
 FoFJK:  IHMeth= 1 ICntrl=    2127 DoSepK=F KAlg= 0 I1Cent=   0 FoldK=F
 IRaf=         0 NMat=   1 IRICut=       1 DoRegI=T DoRafI=F ISym2E= 0.
 FoFCou: FMM=F IPFlag=           0 FMFlag=      100000 FMFlg1=         800
         NFxFlg=           0 DoJE=F BraDBF=F KetDBF=F FulRan=T
         wScrn=  0.000000 ICntrl=    2127 IOpCl=  0 I1Cent=           0 NGrid=           0
         NMat0=    1 NMatS0=      1 NMatT0=    0 NMatD0=    1 NMtDS0=    0 NMtDT0=    0
 Symmetry not used in FoFCou.
 Leave Link  703 at Fri Apr 12 15:35:32 2019, MaxMem=   134217728 cpu:         0.2
 (Enter /cm/shared/c3ddb/gaussian/09.d01/g09/l716.exe)
 Dipole        = 8.85477021D-01 2.40207527D-01-7.57713603D-01
 -------------------------------------------------------------------
 Center     Atomic                   Forces (Hartrees/Bohr)
 Number     Number              X              Y              Z
 -------------------------------------------------------------------
      1        6           0.000056043    0.000464936    0.006775828
      2        6          -0.000010579    0.000061065   -0.002030087
      3        1           0.000000525   -0.000000228   -0.000000360
      4        1          -0.000000756    0.000000057   -0.000000384
      5        1          -0.000001174    0.000000190   -0.000001369
      6        8          -0.000847830   -0.000765287   -0.004696405
      7        8           0.006320071    0.002184425    0.001718692
      8        1          -0.005516301   -0.001945159   -0.001765914
 -------------------------------------------------------------------
 Cartesian Forces:  Max     0.006775828 RMS     0.002570810
 Leave Link  716 at Fri Apr 12 15:35:32 2019, MaxMem=   134217728 cpu:         0.0
 (Enter /cm/shared/c3ddb/gaussian/09.d01/g09/l103.exe)

 GradGradGradGradGradGradGradGradGradGradGradGradGradGradGradGradGradGrad
 Berny optimization.
 Using GEDIIS/GDIIS optimizer.
 FormGI is forming the generalized inverse of G from B-inverse, IUseBI=4.
 Internal  Forces:  Max     0.010985359 RMS     0.002456005
 Search for a local minimum.
 Step number   6 out of a maximum of   32
 All quantities printed in internal units (Hartrees-Bohrs-Radians)
 RMS Force = .12949D-05 SwitMx=.10000D-02 MixMth= 2
 Mixed Optimization -- En-DIIS/RFO-DIIS
 Swapping is turned off.
 Update second derivatives using D2CorX and points    1    2    3    4    5
                                                      6
 DE= -1.36D-09 DEPred=-1.58D-09 R= 8.62D-01
 Trust test= 8.62D-01 RLast= 2.22D-04 DXMaxT set to 3.00D-01
 ITU=  0  0  0  1  0  0
     Eigenvalues ---    0.02904   0.03475   0.03845   0.12136   0.15927
     Eigenvalues ---    0.16099   0.21093   0.22129   0.29159   0.37091
     Eigenvalues ---    0.37206   0.37462   0.38870   0.50152   0.52318
     Eigenvalues ---    0.673701000.000001000.000001000.000001000.00000
     Eigenvalues --- 1000.000001000.00000
 En-DIIS/RFO-DIIS IScMMF=        0 using points:     6    5    4    3    2
 RFO step:  Lambda=-4.19650599D-06.
 NNeg= 0 NP= 5 Switch=  2.50D-03 Rises=F DC=  1.70D-05 SmlDif=  1.00D-05
 RMS Error=  0.7771223510D-04 NUsed= 5 EDIIS=F
 DidBck=F Rises=F RFO-DIIS coefs:    0.88280    0.12260   -0.00802    0.00248    0.00014
 Iteration  1 RMS(Cart)=  0.00001155 RMS(Int)=  0.00000035
 Iteration  2 RMS(Cart)=  0.00000000 RMS(Int)=  0.00000035
 Iteration  1 RMS(Cart)=  0.00000045 RMS(Int)=  0.00000020
 ITry= 1 IFail=0 DXMaxC= 2.50D-05 DCOld= 1.00D+10 DXMaxT= 3.00D-01 DXLimC= 3.00D+00 Rises=F
 Variable       Old X    -DE/DX   Delta X   Delta X   Delta X     New X
                                 (Linear)    (Quad)   (Total)
    R1        2.47314   0.00000   0.00000   0.00000   0.00000   2.47314
    R2        2.02079   0.00000   0.00000   0.00000   0.00000   2.02079
    R3        2.65634   0.00000  -0.00001   0.00000  -0.00001   2.65634
    R4        2.02248   0.00000   0.00000   0.00000   0.00000   2.02247
    R5        2.02368   0.00000   0.00000   0.00000   0.00000   2.02368
    R6        2.76036   0.00000   0.00000   0.00000   0.00000   2.76036
    R7        1.84270   0.00000   0.00000   0.00000   0.00000   1.84270
    A1        2.17963   0.00008  -0.00001   0.00001   0.00000   2.17963
    A2        2.10820   0.00001   0.00000  -0.00001  -0.00001   2.10819
    A3        1.99357  -0.00002   0.00001   0.00000   0.00001   1.99357
    A4        2.09995   0.00000   0.00000   0.00001   0.00000   2.09996
    A5        2.11939   0.00000   0.00000  -0.00001  -0.00001   2.11938
    A6        2.06381   0.00000   0.00000   0.00000   0.00000   2.06382
    A7        1.89643   0.00000   0.00000   0.00000   0.00000   1.89643
    A8        1.79164   0.00000   0.00000   0.00000   0.00001   1.79165
    D1       -0.02446   0.00069  -0.00001   0.00001  -0.00001  -0.02447
    D2        3.10959   0.00069   0.00001   0.00002   0.00003   3.10962
    D3       -3.09792  -0.00069  -0.00001   0.00001   0.00000  -3.09792
    D4        0.03613  -0.00069   0.00001   0.00002   0.00003   0.03616
    D5       -2.96706   0.00278   0.00000   0.00000   0.00000  -2.96706
    D6        0.23581   0.00154   0.00000   0.00000   0.00000   0.23581
    D7        1.22173   0.01099   0.00000   0.00000   0.00000   1.22173
         Item               Value     Threshold  Converged?
 Maximum Force            0.000003     0.000015     YES
 RMS     Force            0.000001     0.000010     YES
 Maximum Displacement     0.000025     0.000060     YES
 RMS     Displacement     0.000011     0.000040     YES
 Predicted change in Energy=-6.910242D-11
 Optimization completed.
    -- Stationary point found.
                           ----------------------------
                           !   Optimized Parameters   !
                           ! (Angstroms and Degrees)  !
 --------------------------                            --------------------------
 ! Name  Definition              Value          Derivative Info.                !
 --------------------------------------------------------------------------------
 ! R1    R(1,2)                  1.3087         -DE/DX =    0.0                 !
 ! R2    R(1,3)                  1.0694         -DE/DX =    0.0                 !
 ! R3    R(1,6)                  1.4057         -DE/DX =    0.0                 !
 ! R4    R(2,4)                  1.0702         -DE/DX =    0.0                 !
 ! R5    R(2,5)                  1.0709         -DE/DX =    0.0                 !
 ! R6    R(6,7)                  1.4607         -DE/DX =    0.0                 !
 ! R7    R(7,8)                  0.9751         -DE/DX =    0.0                 !
 ! A1    A(2,1,3)              124.8835         -DE/DX =    0.0001              !
 ! A2    A(2,1,6)              120.7908         -DE/DX =    0.0                 !
 ! A3    A(3,1,6)              114.2229         -DE/DX =    0.0                 !
 ! A4    A(1,2,4)              120.3185         -DE/DX =    0.0                 !
 ! A5    A(1,2,5)              121.4323         -DE/DX =    0.0                 !
 ! A6    A(4,2,5)              118.2478         -DE/DX =    0.0                 !
 ! A7    A(1,6,7)              108.6572         -DE/DX =    0.0                 !
 ! A8    A(6,7,8)              102.6536         -DE/DX =    0.0                 !
 ! D1    D(3,1,2,4)             -1.4015         -DE/DX =    0.0007              !
 ! D2    D(3,1,2,5)            178.1664         -DE/DX =    0.0007              !
 ! D3    D(6,1,2,4)           -177.4979         -DE/DX =   -0.0007              !
 ! D4    D(6,1,2,5)              2.07           -DE/DX =   -0.0007              !
 ! D5    D(2,1,6,7)           -169.9999         -DE/DX =    0.0028              !
 ! D6    D(3,1,6,7)             13.5109         -DE/DX =    0.0015              !
 ! D7    D(1,6,7,8)             69.9999         -DE/DX =    0.011               !
 --------------------------------------------------------------------------------
 Lowest energy point so far.  Saving SCF results.
 GradGradGradGradGradGradGradGradGradGradGradGradGradGradGradGradGradGrad

 Largest change from initial coordinates is atom    8       0.015 Angstoms.
 Leave Link  103 at Fri Apr 12 15:35:32 2019, MaxMem=   134217728 cpu:         0.0
 (Enter /cm/shared/c3ddb/gaussian/09.d01/g09/l202.exe)
                          Input orientation:                          
 ---------------------------------------------------------------------
 Center     Atomic      Atomic             Coordinates (Angstroms)
 Number     Number       Type             X           Y           Z
 ---------------------------------------------------------------------
      1          6           0        0.741891    0.636361    0.024134
      2          6           0        1.375496   -0.508174   -0.012692
      3          1           0        1.211891    1.593123    0.109137
      4          1           0        2.444878   -0.535031    0.020965
      5          1           0        0.846706   -1.437642   -0.069850
      6          8           0       -0.663044    0.681112    0.033204
      7          8           0       -1.087790    2.064646   -0.164596
      8          1           0       -0.848409    2.230614   -1.095185
 ---------------------------------------------------------------------
                    Distance matrix (angstroms):
                    1          2          3          4          5
     1  C    0.000000
     2  C    1.308730   0.000000
     3  H    1.069354   2.111175   0.000000
     4  H    2.066962   1.070248   2.461112   0.000000
     5  H    2.078775   1.070885   3.057929   1.837690   0.000000
     6  O    1.405677   2.360541   2.086363   3.337414   2.603667
     7  O    2.328809   3.565145   2.363429   4.390045   4.002158
     8  H    2.514672   3.690326   2.470146   4.443009   4.169032
                    6          7          8
     6  O    0.000000
     7  O    1.460719   0.000000
     8  H    1.925767   0.975113   0.000000
 Symmetry turned off by external request.
 Stoichiometry    C2H4O2
 Framework group  C1[X(C2H4O2)]
 Deg. of freedom    18
 Full point group                 C1      NOp   1
 Rotational constants (GHZ):     42.0266274      4.5514789      4.1836129
 Leave Link  202 at Fri Apr 12 15:35:32 2019, MaxMem=   134217728 cpu:         0.0
 (Enter /cm/shared/c3ddb/gaussian/09.d01/g09/l601.exe)
 Copying SCF densities to generalized density rwf, IOpCl= 0 IROHF=0.

 **********************************************************************

            Population analysis using the SCF density.

 **********************************************************************

 Alpha  occ. eigenvalues --  -20.54081 -20.53338 -11.24949 -11.17253  -1.48391
 Alpha  occ. eigenvalues --   -1.24216  -1.03574  -0.80734  -0.72325  -0.66010
 Alpha  occ. eigenvalues --   -0.65572  -0.58041  -0.54826  -0.52677  -0.48572
 Alpha  occ. eigenvalues --   -0.36770
 Alpha virt. eigenvalues --    0.17684   0.22610   0.26750   0.31462   0.33394
 Alpha virt. eigenvalues --    0.35477   0.49445   0.56948   0.89352   0.96541
 Alpha virt. eigenvalues --    0.99213   1.06091   1.10017   1.10801   1.24983
 Alpha virt. eigenvalues --    1.31829   1.36233   1.56907   1.59221   1.75844
 Alpha virt. eigenvalues --    1.78958   1.90982   1.94847   1.98630   2.05708
 Alpha virt. eigenvalues --    2.27922   3.03938   3.51552
          Condensed to atoms (all electrons):
               1          2          3          4          5          6
     1  C    4.926462   0.508303   0.360406  -0.046522  -0.051408   0.204960
     2  C    0.508303   5.307392  -0.043367   0.386369   0.390096  -0.051685
     3  H    0.360406  -0.043367   0.459515  -0.000721   0.002283  -0.035297
     4  H   -0.046522   0.386369  -0.000721   0.444837  -0.014832   0.001280
     5  H   -0.051408   0.390096   0.002283  -0.014832   0.429546  -0.000556
     6  O    0.204960  -0.051685  -0.035297   0.001280  -0.000556   8.173067
     7  O   -0.026827   0.002868   0.003010  -0.000024  -0.000016   0.123909
     8  H   -0.001780  -0.000150   0.000649   0.000003   0.000011  -0.025941
               7          8
     1  C   -0.026827  -0.001780
     2  C    0.002868  -0.000150
     3  H    0.003010   0.000649
     4  H   -0.000024   0.000003
     5  H   -0.000016   0.000011
     6  O    0.123909  -0.025941
     7  O    8.027721   0.238761
     8  H    0.238761   0.383897
 Mulliken charges:
               1
     1  C    0.126407
     2  C   -0.499826
     3  H    0.253522
     4  H    0.229610
     5  H    0.244875
     6  O   -0.389738
     7  O   -0.369400
     8  H    0.404550
 Sum of Mulliken charges =   0.00000
 Mulliken charges with hydrogens summed into heavy atoms:
               1
     1  C    0.379929
     2  C   -0.025341
     6  O   -0.389738
     7  O    0.035150
 Electronic spatial extent (au):  <R**2>=            370.1914
 Charge=              0.0000 electrons
 Dipole moment (field-independent basis, Debye):
    X=              2.2507    Y=              0.6105    Z=             -1.9259  Tot=              3.0245
 Quadrupole moment (field-independent basis, Debye-Ang):
   XX=            -24.1211   YY=            -20.2053   ZZ=            -23.0993
   XY=              1.9051   XZ=              1.8534   YZ=             -4.3540
 Traceless Quadrupole moment (field-independent basis, Debye-Ang):
   XX=             -1.6458   YY=              2.2699   ZZ=             -0.6241
   XY=              1.9051   XZ=              1.8534   YZ=             -4.3540
 Octapole moment (field-independent basis, Debye-Ang**2):
  XXX=             -6.0193  YYY=            -43.1524  ZZZ=              0.6018  XYY=             -0.9565
  XXY=            -18.3427  XXZ=              0.2661  XZZ=             -8.9881  YZZ=            -10.1573
  YYZ=             -9.2689  XYZ=              3.9775
 Hexadecapole moment (field-independent basis, Debye-Ang**3):
 XXXX=           -171.8326 YYYY=           -205.0828 ZZZZ=            -22.6933 XXXY=             54.1384
 XXXZ=             -2.4289 YYYX=             54.4290 YYYZ=            -16.3340 ZZZX=             -1.6259
 ZZZY=              1.3424 XXYY=            -69.9036 XXZZ=            -36.4066 YYZZ=            -29.8011
 XXYZ=             -0.1088 YYXZ=              7.6059 ZZXY=             12.6888
 N-N= 1.166079227512D+02 E-N=-7.663696726857D+02  KE= 2.256006840905D+02
 No NMR shielding tensors so no spin-rotation constants.
 Leave Link  601 at Fri Apr 12 15:35:32 2019, MaxMem=   134217728 cpu:         0.1
 (Enter /cm/shared/c3ddb/gaussian/09.d01/g09/l9999.exe)
 1\1\GINC-NODE029\FOpt\RHF\3-21G\C2H4O2\MATTSJ\12-Apr-2019\0\\#p hf 3-2
 1g scf=tight NoSymmetry guess=read opt=(tight,modredundant)\\Geometry 
 optimization at the 2D-PES\\0,1\C,0.7418913093,0.636361037,0.024134253
 9\C,1.3754963792,-0.5081744713,-0.0126916709\H,1.2118907144,1.59312300
 1,0.1091373045\H,2.4448779531,-0.5350313126,0.0209651434\H,0.846706289
 1,-1.437641652,-0.0698495298\O,-0.6630440831,0.6811120318,0.0332039555
 \O,-1.0877903092,2.0646455222,-0.1645955706\H,-0.8484092528,2.23061384
 4,-1.095184886\\Version=AS64L-G09RevD.01\HF=-226.3898833\RMSD=5.637e-0
 9\RMSF=2.571e-03\Dipole=0.885477,0.2402075,-0.7577136\Quadrupole=-1.22
 36303,1.6876454,-0.4640151,1.4163991,1.3779805,-3.2370975\PG=C01 [X(C2
 H4O2)]\\@


 IN THE FIGHT BETWEEN YOU AND THE WORLD, BACK THE WORLD

                                        -- FRANZ KAFKA
 Job cpu time:       0 days  0 hours  0 minutes 18.7 seconds.
 File lengths (MBytes):  RWF=      5 Int=      0 D2E=      0 Chk=      1 Scr=      1
 Normal termination of Gaussian 09 at Fri Apr 12 15:35:33 2019.
