 Entering Gaussian System, Link 0=/cm/shared/c3ddb/gaussian/09.d01/g09/g09
 Initial command:
 /cm/shared/c3ddb/gaussian/09.d01/g09/l1.exe "/scratch/users/mattsj/g09/S02-7952157/Gau-41455.inp" -scrdir="/scratch/users/mattsj/g09/S02-7952157/"
 Entering Link 1 = /cm/shared/c3ddb/gaussian/09.d01/g09/l1.exe PID=     41456.
  
 Copyright (c) 1988,1990,1992,1993,1995,1998,2003,2009,2013,
            Gaussian, Inc.  All Rights Reserved.
  
 This is part of the Gaussian(R) 09 program.  It is based on
 the Gaussian(R) 03 system (copyright 2003, Gaussian, Inc.),
 the Gaussian(R) 98 system (copyright 1998, Gaussian, Inc.),
 the Gaussian(R) 94 system (copyright 1995, Gaussian, Inc.),
 the Gaussian 92(TM) system (copyright 1992, Gaussian, Inc.),
 the Gaussian 90(TM) system (copyright 1990, Gaussian, Inc.),
 the Gaussian 88(TM) system (copyright 1988, Gaussian, Inc.),
 the Gaussian 86(TM) system (copyright 1986, Carnegie Mellon
 University), and the Gaussian 82(TM) system (copyright 1983,
 Carnegie Mellon University). Gaussian is a federally registered
 trademark of Gaussian, Inc.
  
 This software contains proprietary and confidential information,
 including trade secrets, belonging to Gaussian, Inc.
  
 This software is provided under written license and may be
 used, copied, transmitted, or stored only in accord with that
 written license.
  
 The following legend is applicable only to US Government
 contracts under FAR:
  
                    RESTRICTED RIGHTS LEGEND
  
 Use, reproduction and disclosure by the US Government is
 subject to restrictions as set forth in subparagraphs (a)
 and (c) of the Commercial Computer Software - Restricted
 Rights clause in FAR 52.227-19.
  
 Gaussian, Inc.
 340 Quinnipiac St., Bldg. 40, Wallingford CT 06492
  
  
 ---------------------------------------------------------------
 Warning -- This program may not be used in any manner that
 competes with the business of Gaussian, Inc. or will provide
 assistance to any competitor of Gaussian, Inc.  The licensee
 of this program is prohibited from giving any competitor of
 Gaussian, Inc. access to this program.  By using this program,
 the user acknowledges that Gaussian, Inc. is engaged in the
 business of creating and licensing software in the field of
 computational chemistry and represents and warrants to the
 licensee that it is not a competitor of Gaussian, Inc. and that
 it will not use this program in any manner prohibited above.
 ---------------------------------------------------------------
  

 Cite this work as:
 Gaussian 09, Revision D.01,
 M. J. Frisch, G. W. Trucks, H. B. Schlegel, G. E. Scuseria, 
 M. A. Robb, J. R. Cheeseman, G. Scalmani, V. Barone, B. Mennucci, 
 G. A. Petersson, H. Nakatsuji, M. Caricato, X. Li, H. P. Hratchian, 
 A. F. Izmaylov, J. Bloino, G. Zheng, J. L. Sonnenberg, M. Hada, 
 M. Ehara, K. Toyota, R. Fukuda, J. Hasegawa, M. Ishida, T. Nakajima, 
 Y. Honda, O. Kitao, H. Nakai, T. Vreven, J. A. Montgomery, Jr., 
 J. E. Peralta, F. Ogliaro, M. Bearpark, J. J. Heyd, E. Brothers, 
 K. N. Kudin, V. N. Staroverov, T. Keith, R. Kobayashi, J. Normand, 
 K. Raghavachari, A. Rendell, J. C. Burant, S. S. Iyengar, J. Tomasi, 
 M. Cossi, N. Rega, J. M. Millam, M. Klene, J. E. Knox, J. B. Cross, 
 V. Bakken, C. Adamo, J. Jaramillo, R. Gomperts, R. E. Stratmann, 
 O. Yazyev, A. J. Austin, R. Cammi, C. Pomelli, J. W. Ochterski, 
 R. L. Martin, K. Morokuma, V. G. Zakrzewski, G. A. Voth, 
 P. Salvador, J. J. Dannenberg, S. Dapprich, A. D. Daniels, 
 O. Farkas, J. B. Foresman, J. V. Ortiz, J. Cioslowski, 
 and D. J. Fox, Gaussian, Inc., Wallingford CT, 2013.
 
 ******************************************
 Gaussian 09:  AS64L-G09RevD.01 24-Apr-2013
                12-Apr-2019 
 ******************************************
 %nproc=1
 Will use up to    1 processors via shared memory.
 %mem=1GB
 %chk=TMP_CALCS/scangeom_S02_250_060.chk
 --------------------------------------------------------------------
 #p hf 3-21g scf=tight NoSymmetry guess=read opt=(tight,modredundant)
 --------------------------------------------------------------------
 1/7=10,18=120,19=15,38=1/1,3;
 2/9=110,12=2,15=1,17=6,18=5,40=1/2;
 3/5=5,11=9,16=1,25=1,30=1,71=1,116=-2/1,2,3;
 4/5=1/1;
 5/5=2,32=2,38=6/2;
 6/7=2,8=2,9=2,10=2,28=1/1;
 7/30=1/1,2,3,16;
 1/7=10,18=20,19=15/3(2);
 2/9=110,15=1/2;
 99//99;
 2/9=110,15=1/2;
 3/5=5,11=9,16=1,25=1,30=1,71=1/1,2,3;
 4/5=5,16=3,69=1/1;
 5/5=2,32=2,38=5/2;
 7/30=1/1,2,3,16;
 1/7=10,18=20,19=15/3(-5);
 2/9=110,15=1/2;
 6/7=2,8=2,9=2,10=2,19=2,28=1/1;
 99/9=1/99;
 Leave Link    1 at Fri Apr 12 15:12:00 2019, MaxMem=   134217728 cpu:         0.1
 (Enter /cm/shared/c3ddb/gaussian/09.d01/g09/l101.exe)
 -----------------------------------
 Geometry optimization at the 2D-PES
 -----------------------------------
 Symbolic Z-matrix:
 Charge =  0 Multiplicity = 1
 C                     0.73196   0.63527   0.03265 
 C                     1.37789  -0.50314  -0.01859 
 H                     1.19427   1.59919   0.06669 
 H                     2.44817  -0.52789   0.00658 
 H                     0.85039  -1.4353   -0.05265 
 O                    -0.6779    0.65496   0.04772 
 O                    -1.12803   1.19329  -1.24848 
 H                    -0.75495   0.55731  -1.88802 
 
 The following ModRedundant input section has been read:
 D       2       1       6       7 F                                           
 D       1       6       7       8 F                                           
 
 NAtoms=      8 NQM=        8 NQMF=       0 NMMI=      0 NMMIF=      0
                NMic=       0 NMicF=      0.
                    Isotopes and Nuclear Properties:
 (Nuclear quadrupole moments (NQMom) in fm**2, nuclear magnetic moments (NMagM)
  in nuclear magnetons)

  Atom         1           2           3           4           5           6           7           8
 IAtWgt=          12          12           1           1           1          16          16           1
 AtmWgt=  12.0000000  12.0000000   1.0078250   1.0078250   1.0078250  15.9949146  15.9949146   1.0078250
 NucSpn=           0           0           1           1           1           0           0           1
 AtZEff=   0.0000000   0.0000000   0.0000000   0.0000000   0.0000000   0.0000000   0.0000000   0.0000000
 NQMom=    0.0000000   0.0000000   0.0000000   0.0000000   0.0000000   0.0000000   0.0000000   0.0000000
 NMagM=    0.0000000   0.0000000   2.7928460   2.7928460   2.7928460   0.0000000   0.0000000   2.7928460
 AtZNuc=   6.0000000   6.0000000   1.0000000   1.0000000   1.0000000   8.0000000   8.0000000   1.0000000
 Leave Link  101 at Fri Apr 12 15:12:00 2019, MaxMem=   134217728 cpu:         0.4
 (Enter /cm/shared/c3ddb/gaussian/09.d01/g09/l103.exe)

 GradGradGradGradGradGradGradGradGradGradGradGradGradGradGradGradGradGrad
 Berny optimization.
 Initialization pass.
                           ----------------------------
                           !    Initial Parameters    !
                           ! (Angstroms and Degrees)  !
 --------------------------                            --------------------------
 ! Name  Definition              Value          Derivative Info.                !
 --------------------------------------------------------------------------------
 ! R1    R(1,2)                  1.3099         estimate D2E/DX2                !
 ! R2    R(1,3)                  1.0696         estimate D2E/DX2                !
 ! R3    R(1,6)                  1.4101         estimate D2E/DX2                !
 ! R4    R(2,4)                  1.0709         estimate D2E/DX2                !
 ! R5    R(2,5)                  1.0716         estimate D2E/DX2                !
 ! R6    R(6,7)                  1.474          estimate D2E/DX2                !
 ! R7    R(7,8)                  0.976          estimate D2E/DX2                !
 ! A1    A(2,1,3)              124.8422         estimate D2E/DX2                !
 ! A2    A(2,1,6)              120.371          estimate D2E/DX2                !
 ! A3    A(3,1,6)              114.7868         estimate D2E/DX2                !
 ! A4    A(1,2,4)              120.7984         estimate D2E/DX2                !
 ! A5    A(1,2,5)              120.9636         estimate D2E/DX2                !
 ! A6    A(4,2,5)              118.2049         estimate D2E/DX2                !
 ! A7    A(1,6,7)              107.5205         estimate D2E/DX2                !
 ! A8    A(6,7,8)              102.7972         estimate D2E/DX2                !
 ! D1    D(3,1,2,4)              2.2454         estimate D2E/DX2                !
 ! D2    D(3,1,2,5)           -179.8823         estimate D2E/DX2                !
 ! D3    D(6,1,2,4)           -177.6971         estimate D2E/DX2                !
 ! D4    D(6,1,2,5)              0.1752         estimate D2E/DX2                !
 ! D5    D(2,1,6,7)           -110.0            Frozen                          !
 ! D6    D(3,1,6,7)             70.052          estimate D2E/DX2                !
 ! D7    D(1,6,7,8)             60.0            Frozen                          !
 --------------------------------------------------------------------------------
 Trust Radius=3.00D-01 FncErr=1.00D-07 GrdErr=1.00D-07
 Number of steps in this run=     32 maximum allowed number of steps=    100.
 GradGradGradGradGradGradGradGradGradGradGradGradGradGradGradGradGradGrad

 Leave Link  103 at Fri Apr 12 15:12:00 2019, MaxMem=   134217728 cpu:         0.0
 (Enter /cm/shared/c3ddb/gaussian/09.d01/g09/l202.exe)
                          Input orientation:                          
 ---------------------------------------------------------------------
 Center     Atomic      Atomic             Coordinates (Angstroms)
 Number     Number       Type             X           Y           Z
 ---------------------------------------------------------------------
      1          6           0        0.731956    0.635265    0.032651
      2          6           0        1.377889   -0.503137   -0.018593
      3          1           0        1.194274    1.599189    0.066689
      4          1           0        2.448170   -0.527888    0.006575
      5          1           0        0.850385   -1.435304   -0.052654
      6          8           0       -0.677898    0.654956    0.047720
      7          8           0       -1.128033    1.193286   -1.248482
      8          1           0       -0.754954    0.557307   -1.888015
 ---------------------------------------------------------------------
                    Distance matrix (angstroms):
                    1          2          3          4          5
     1  C    0.000000
     2  C    1.309891   0.000000
     3  H    1.069601   2.112052   0.000000
     4  H    2.073402   1.070863   2.469884   0.000000
     5  H    2.075707   1.071614   3.056248   1.838431   0.000000
     6  O    1.410072   2.360474   2.096894   3.342621   2.591314
     7  O    2.326424   3.266515   2.699545   4.162552   3.500518
     8  H    2.430213   3.027920   2.950572   3.876483   3.148994
                    6          7          8
     6  O    0.000000
     7  O    1.473961   0.000000
     8  H    1.939728   0.976043   0.000000
 Symmetry turned off by external request.
 Stoichiometry    C2H4O2
 Framework group  C1[X(C2H4O2)]
 Deg. of freedom    18
 Full point group                 C1      NOp   1
 Rotational constants (GHZ):     26.0115628      4.9549362      4.7971411
 Leave Link  202 at Fri Apr 12 15:12:00 2019, MaxMem=   134217728 cpu:         0.0
 (Enter /cm/shared/c3ddb/gaussian/09.d01/g09/l301.exe)
 Standard basis: 3-21G (6D, 7F)
 Ernie: Thresh=  0.10000D-02 Tol=  0.10000D-05 Strict=F.
    44 basis functions,    72 primitive gaussians,    44 cartesian basis functions
    16 alpha electrons       16 beta electrons
       nuclear repulsion energy       117.1975442019 Hartrees.
 IExCor=    0 DFT=F Ex=HF Corr=None ExCW=0 ScaHFX=  1.000000
 ScaDFX=  1.000000  1.000000  1.000000  1.000000 ScalE2=  1.000000  1.000000
 IRadAn=      0 IRanWt=     -1 IRanGd=            0 ICorTp=0 IEmpDi=  4
 NAtoms=    8 NActive=    8 NUniq=    8 SFac= 1.00D+00 NAtFMM=   60 NAOKFM=F Big=F
 Integral buffers will be    131072 words long.
 Raffenetti 1 integral format.
 Two-electron integral symmetry is turned off.
 Leave Link  301 at Fri Apr 12 15:12:01 2019, MaxMem=   134217728 cpu:         0.2
 (Enter /cm/shared/c3ddb/gaussian/09.d01/g09/l302.exe)
 NPDir=0 NMtPBC=     1 NCelOv=     1 NCel=       1 NClECP=     1 NCelD=      1
         NCelK=      1 NCelE2=     1 NClLst=     1 CellRange=     0.0.
 One-electron integrals computed using PRISM.
 NBasis=    44 RedAO= T EigKep=  1.18D-02  NBF=    44
 NBsUse=    44 1.00D-06 EigRej= -1.00D+00 NBFU=    44
 Leave Link  302 at Fri Apr 12 15:12:01 2019, MaxMem=   134217728 cpu:         0.2
 (Enter /cm/shared/c3ddb/gaussian/09.d01/g09/l303.exe)
 DipDrv:  MaxL=1.
 Leave Link  303 at Fri Apr 12 15:12:01 2019, MaxMem=   134217728 cpu:         0.1
 (Enter /cm/shared/c3ddb/gaussian/09.d01/g09/l401.exe)
 Initial guess from the checkpoint file:  "TMP_CALCS/scangeom_S02_250_060.chk"
 B after Tr=    -0.003951    0.002597    0.012692
         Rot=    0.999971    0.006120   -0.004460    0.001217 Ang=   0.88 deg.
 Guess basis will be translated and rotated to current coordinates.
 JPrj=2 DoOrth=T DoCkMO=T.
 Leave Link  401 at Fri Apr 12 15:12:01 2019, MaxMem=   134217728 cpu:         0.4
 (Enter /cm/shared/c3ddb/gaussian/09.d01/g09/l502.exe)
 Closed shell SCF:
 Using DIIS extrapolation, IDIIS=  1040.
 Two-electron integral symmetry not used.
 Keep R1 ints in memory in canonical form, NReq=1327430.
 IVT=       24902 IEndB=       24902 NGot=   134217728 MDV=   133702282
 LenX=   133702282 LenY=   133699905
 Requested convergence on RMS density matrix=1.00D-08 within 128 cycles.
 Requested convergence on MAX density matrix=1.00D-06.
 Requested convergence on             energy=1.00D-06.
 No special actions if energy rises.
 FoFCou: FMM=F IPFlag=           0 FMFlag=           0 FMFlg1=           0
         NFxFlg=           0 DoJE=F BraDBF=F KetDBF=F FulRan=T
         wScrn=  0.000000 ICntrl=     600 IOpCl=  0 I1Cent=           0 NGrid=           0
         NMat0=    1 NMatS0=    990 NMatT0=    0 NMatD0=    1 NMtDS0=    0 NMtDT0=    0
 Symmetry not used in FoFCou.

 Cycle   1  Pass 1  IDiag  1:
 E= -226.385840324320    
 DIIS: error= 5.94D-03 at cycle   1 NSaved=   1.
 NSaved= 1 IEnMin= 1 EnMin= -226.385840324320     IErMin= 1 ErrMin= 5.94D-03
 ErrMax= 5.94D-03  0.00D+00 EMaxC= 1.00D-01 BMatC= 1.91D-03 BMatP= 1.91D-03
 IDIUse=3 WtCom= 9.41D-01 WtEn= 5.94D-02
 Coeff-Com:  0.100D+01
 Coeff-En:   0.100D+01
 Coeff:      0.100D+01
 Gap=     0.544 Goal=   None    Shift=    0.000
 GapD=    0.544 DampG=2.000 DampE=1.000 DampFc=2.0000 IDamp=-1.
 RMSDP=1.11D-03 MaxDP=1.37D-02              OVMax= 1.08D-02

 Cycle   2  Pass 1  IDiag  1:
 E= -226.388739201090     Delta-E=       -0.002898876771 Rises=F Damp=F
 DIIS: error= 2.68D-03 at cycle   2 NSaved=   2.
 NSaved= 2 IEnMin= 2 EnMin= -226.388739201090     IErMin= 2 ErrMin= 2.68D-03
 ErrMax= 2.68D-03  0.00D+00 EMaxC= 1.00D-01 BMatC= 1.79D-04 BMatP= 1.91D-03
 IDIUse=3 WtCom= 9.73D-01 WtEn= 2.68D-02
 Coeff-Com: -0.319D+00 0.132D+01
 Coeff-En:   0.000D+00 0.100D+01
 Coeff:     -0.310D+00 0.131D+01
 Gap=     0.544 Goal=   None    Shift=    0.000
 RMSDP=5.69D-04 MaxDP=5.26D-03 DE=-2.90D-03 OVMax= 7.87D-03

 Cycle   3  Pass 1  IDiag  1:
 E= -226.389214094717     Delta-E=       -0.000474893626 Rises=F Damp=F
 DIIS: error= 8.90D-04 at cycle   3 NSaved=   3.
 NSaved= 3 IEnMin= 3 EnMin= -226.389214094717     IErMin= 3 ErrMin= 8.90D-04
 ErrMax= 8.90D-04  0.00D+00 EMaxC= 1.00D-01 BMatC= 1.59D-05 BMatP= 1.79D-04
 IDIUse=3 WtCom= 9.91D-01 WtEn= 8.90D-03
 Coeff-Com:  0.595D-01-0.401D+00 0.134D+01
 Coeff-En:   0.000D+00 0.000D+00 0.100D+01
 Coeff:      0.590D-01-0.397D+00 0.134D+01
 Gap=     0.544 Goal=   None    Shift=    0.000
 RMSDP=2.31D-04 MaxDP=3.10D-03 DE=-4.75D-04 OVMax= 3.63D-03

 Cycle   4  Pass 1  IDiag  1:
 E= -226.389267123291     Delta-E=       -0.000053028574 Rises=F Damp=F
 DIIS: error= 2.31D-04 at cycle   4 NSaved=   4.
 NSaved= 4 IEnMin= 4 EnMin= -226.389267123291     IErMin= 4 ErrMin= 2.31D-04
 ErrMax= 2.31D-04  0.00D+00 EMaxC= 1.00D-01 BMatC= 3.07D-06 BMatP= 1.59D-05
 IDIUse=3 WtCom= 9.98D-01 WtEn= 2.31D-03
 Coeff-Com:  0.639D-01-0.308D+00 0.355D+00 0.890D+00
 Coeff-En:   0.000D+00 0.000D+00 0.000D+00 0.100D+01
 Coeff:      0.637D-01-0.307D+00 0.354D+00 0.890D+00
 Gap=     0.544 Goal=   None    Shift=    0.000
 RMSDP=8.09D-05 MaxDP=1.13D-03 DE=-5.30D-05 OVMax= 1.22D-03

 Cycle   5  Pass 1  IDiag  1:
 E= -226.389273174223     Delta-E=       -0.000006050932 Rises=F Damp=F
 DIIS: error= 5.42D-05 at cycle   5 NSaved=   5.
 NSaved= 5 IEnMin= 5 EnMin= -226.389273174223     IErMin= 5 ErrMin= 5.42D-05
 ErrMax= 5.42D-05  0.00D+00 EMaxC= 1.00D-01 BMatC= 1.67D-07 BMatP= 3.07D-06
 IDIUse=1 WtCom= 1.00D+00 WtEn= 0.00D+00
 Coeff-Com: -0.222D-02 0.245D-01-0.132D+00 0.844D-01 0.103D+01
 Coeff:     -0.222D-02 0.245D-01-0.132D+00 0.844D-01 0.103D+01
 Gap=     0.544 Goal=   None    Shift=    0.000
 RMSDP=2.06D-05 MaxDP=2.74D-04 DE=-6.05D-06 OVMax= 3.19D-04

 Cycle   6  Pass 1  IDiag  1:
 E= -226.389273469424     Delta-E=       -0.000000295201 Rises=F Damp=F
 DIIS: error= 1.17D-05 at cycle   6 NSaved=   6.
 NSaved= 6 IEnMin= 6 EnMin= -226.389273469424     IErMin= 6 ErrMin= 1.17D-05
 ErrMax= 1.17D-05  0.00D+00 EMaxC= 1.00D-01 BMatC= 1.09D-08 BMatP= 1.67D-07
 IDIUse=1 WtCom= 1.00D+00 WtEn= 0.00D+00
 Coeff-Com: -0.253D-02 0.165D-01-0.507D-01 0.118D-02 0.304D+00 0.732D+00
 Coeff:     -0.253D-02 0.165D-01-0.507D-01 0.118D-02 0.304D+00 0.732D+00
 Gap=     0.544 Goal=   None    Shift=    0.000
 RMSDP=2.57D-06 MaxDP=1.73D-05 DE=-2.95D-07 OVMax= 3.69D-05

 Cycle   7  Pass 1  IDiag  1:
 E= -226.389273483261     Delta-E=       -0.000000013837 Rises=F Damp=F
 DIIS: error= 7.54D-06 at cycle   7 NSaved=   7.
 NSaved= 7 IEnMin= 7 EnMin= -226.389273483261     IErMin= 7 ErrMin= 7.54D-06
 ErrMax= 7.54D-06  0.00D+00 EMaxC= 1.00D-01 BMatC= 1.20D-09 BMatP= 1.09D-08
 IDIUse=1 WtCom= 1.00D+00 WtEn= 0.00D+00
 Coeff-Com:  0.829D-03-0.683D-02 0.281D-01-0.961D-02-0.210D+00-0.200D+00
 Coeff-Com:  0.140D+01
 Coeff:      0.829D-03-0.683D-02 0.281D-01-0.961D-02-0.210D+00-0.200D+00
 Coeff:      0.140D+01
 Gap=     0.544 Goal=   None    Shift=    0.000
 RMSDP=2.08D-06 MaxDP=1.22D-05 DE=-1.38D-08 OVMax= 3.83D-05

 Cycle   8  Pass 1  IDiag  1:
 E= -226.389273488071     Delta-E=       -0.000000004810 Rises=F Damp=F
 DIIS: error= 3.89D-06 at cycle   8 NSaved=   8.
 NSaved= 8 IEnMin= 8 EnMin= -226.389273488071     IErMin= 8 ErrMin= 3.89D-06
 ErrMax= 3.89D-06  0.00D+00 EMaxC= 1.00D-01 BMatC= 1.74D-10 BMatP= 1.20D-09
 IDIUse=1 WtCom= 1.00D+00 WtEn= 0.00D+00
 Coeff-Com:  0.156D-03-0.824D-03 0.165D-02 0.108D-02-0.380D-02-0.556D-01
 Coeff-Com: -0.196D+00 0.125D+01
 Coeff:      0.156D-03-0.824D-03 0.165D-02 0.108D-02-0.380D-02-0.556D-01
 Coeff:     -0.196D+00 0.125D+01
 Gap=     0.544 Goal=   None    Shift=    0.000
 RMSDP=8.48D-07 MaxDP=6.01D-06 DE=-4.81D-09 OVMax= 1.98D-05

 Cycle   9  Pass 1  IDiag  1:
 E= -226.389273488901     Delta-E=       -0.000000000830 Rises=F Damp=F
 DIIS: error= 1.77D-06 at cycle   9 NSaved=   9.
 NSaved= 9 IEnMin= 9 EnMin= -226.389273488901     IErMin= 9 ErrMin= 1.77D-06
 ErrMax= 1.77D-06  0.00D+00 EMaxC= 1.00D-01 BMatC= 3.74D-11 BMatP= 1.74D-10
 IDIUse=1 WtCom= 1.00D+00 WtEn= 0.00D+00
 Coeff-Com: -0.148D-03 0.126D-02-0.522D-02 0.177D-02 0.397D-01 0.388D-01
 Coeff-Com: -0.289D+00 0.151D-01 0.120D+01
 Coeff:     -0.148D-03 0.126D-02-0.522D-02 0.177D-02 0.397D-01 0.388D-01
 Coeff:     -0.289D+00 0.151D-01 0.120D+01
 Gap=     0.544 Goal=   None    Shift=    0.000
 RMSDP=4.60D-07 MaxDP=3.11D-06 DE=-8.30D-10 OVMax= 1.17D-05

 Cycle  10  Pass 1  IDiag  1:
 E= -226.389273489085     Delta-E=       -0.000000000185 Rises=F Damp=F
 DIIS: error= 6.38D-07 at cycle  10 NSaved=  10.
 NSaved=10 IEnMin=10 EnMin= -226.389273489085     IErMin=10 ErrMin= 6.38D-07
 ErrMax= 6.38D-07  0.00D+00 EMaxC= 1.00D-01 BMatC= 5.35D-12 BMatP= 3.74D-11
 IDIUse=1 WtCom= 1.00D+00 WtEn= 0.00D+00
 Coeff-Com: -0.352D-05-0.565D-04 0.555D-03-0.498D-03-0.578D-02 0.665D-02
 Coeff-Com:  0.639D-01-0.185D+00-0.191D+00 0.131D+01
 Coeff:     -0.352D-05-0.565D-04 0.555D-03-0.498D-03-0.578D-02 0.665D-02
 Coeff:      0.639D-01-0.185D+00-0.191D+00 0.131D+01
 Gap=     0.544 Goal=   None    Shift=    0.000
 RMSDP=1.80D-07 MaxDP=1.06D-06 DE=-1.85D-10 OVMax= 4.68D-06

 Cycle  11  Pass 1  IDiag  1:
 E= -226.389273489111     Delta-E=       -0.000000000025 Rises=F Damp=F
 DIIS: error= 1.47D-07 at cycle  11 NSaved=  11.
 NSaved=11 IEnMin=11 EnMin= -226.389273489111     IErMin=11 ErrMin= 1.47D-07
 ErrMax= 1.47D-07  0.00D+00 EMaxC= 1.00D-01 BMatC= 6.99D-13 BMatP= 5.35D-12
 IDIUse=1 WtCom= 1.00D+00 WtEn= 0.00D+00
 Coeff-Com:  0.294D-04-0.245D-03 0.100D-02-0.337D-03-0.771D-02-0.527D-02
 Coeff-Com:  0.494D-01-0.213D-02-0.203D+00 0.613D-01 0.111D+01
 Coeff:      0.294D-04-0.245D-03 0.100D-02-0.337D-03-0.771D-02-0.527D-02
 Coeff:      0.494D-01-0.213D-02-0.203D+00 0.613D-01 0.111D+01
 Gap=     0.544 Goal=   None    Shift=    0.000
 RMSDP=4.93D-08 MaxDP=2.62D-07 DE=-2.52D-11 OVMax= 1.20D-06

 Cycle  12  Pass 1  IDiag  1:
 E= -226.389273489113     Delta-E=       -0.000000000002 Rises=F Damp=F
 DIIS: error= 3.07D-08 at cycle  12 NSaved=  12.
 NSaved=12 IEnMin=12 EnMin= -226.389273489113     IErMin=12 ErrMin= 3.07D-08
 ErrMax= 3.07D-08  0.00D+00 EMaxC= 1.00D-01 BMatC= 4.92D-14 BMatP= 6.99D-13
 IDIUse=1 WtCom= 1.00D+00 WtEn= 0.00D+00
 Coeff-Com: -0.826D-05 0.752D-04-0.336D-03 0.154D-03 0.267D-02 0.118D-02
 Coeff-Com: -0.215D-01 0.232D-01 0.719D-01-0.152D+00-0.303D+00 0.138D+01
 Coeff:     -0.826D-05 0.752D-04-0.336D-03 0.154D-03 0.267D-02 0.118D-02
 Coeff:     -0.215D-01 0.232D-01 0.719D-01-0.152D+00-0.303D+00 0.138D+01
 Gap=     0.544 Goal=   None    Shift=    0.000
 RMSDP=1.53D-08 MaxDP=1.04D-07 DE=-2.05D-12 OVMax= 2.95D-07

 Cycle  13  Pass 1  IDiag  1:
 E= -226.389273489113     Delta-E=        0.000000000000 Rises=F Damp=F
 DIIS: error= 7.81D-09 at cycle  13 NSaved=  13.
 NSaved=13 IEnMin=13 EnMin= -226.389273489113     IErMin=13 ErrMin= 7.81D-09
 ErrMax= 7.81D-09  0.00D+00 EMaxC= 1.00D-01 BMatC= 1.63D-15 BMatP= 4.92D-14
 IDIUse=1 WtCom= 1.00D+00 WtEn= 0.00D+00
 Coeff-Com:  0.178D-05-0.167D-04 0.778D-04-0.348D-04-0.638D-03-0.221D-03
 Coeff-Com:  0.534D-02-0.748D-02-0.172D-01 0.491D-01 0.521D-01-0.451D+00
 Coeff-Com:  0.137D+01
 Coeff:      0.178D-05-0.167D-04 0.778D-04-0.348D-04-0.638D-03-0.221D-03
 Coeff:      0.534D-02-0.748D-02-0.172D-01 0.491D-01 0.521D-01-0.451D+00
 Coeff:      0.137D+01
 Gap=     0.544 Goal=   None    Shift=    0.000
 RMSDP=3.14D-09 MaxDP=2.22D-08 DE=-4.55D-13 OVMax= 5.07D-08

 SCF Done:  E(RHF) =  -226.389273489     A.U. after   13 cycles
            NFock= 13  Conv=0.31D-08     -V/T= 2.0035
 KE= 2.256098951260D+02 PE=-7.676254997521D+02 EE= 1.984287869351D+02
 Leave Link  502 at Fri Apr 12 15:12:02 2019, MaxMem=   134217728 cpu:         0.3
 (Enter /cm/shared/c3ddb/gaussian/09.d01/g09/l601.exe)
 Copying SCF densities to generalized density rwf, IOpCl= 0 IROHF=0.

 **********************************************************************

            Population analysis using the SCF density.

 **********************************************************************

 Alpha  occ. eigenvalues --  -20.53178 -20.52214 -11.24815 -11.19001  -1.46990
 Alpha  occ. eigenvalues --   -1.23448  -1.04451  -0.80551  -0.72487  -0.65856
 Alpha  occ. eigenvalues --   -0.63219  -0.59929  -0.56119  -0.50381  -0.45743
 Alpha  occ. eigenvalues --   -0.39520
 Alpha virt. eigenvalues --    0.14909   0.25722   0.27432   0.30396   0.31286
 Alpha virt. eigenvalues --    0.35779   0.48706   0.55694   0.88198   0.96479
 Alpha virt. eigenvalues --    0.98061   1.05751   1.09013   1.10444   1.24150
 Alpha virt. eigenvalues --    1.31094   1.36163   1.56926   1.58678   1.78149
 Alpha virt. eigenvalues --    1.79794   1.84883   1.97696   2.06086   2.08648
 Alpha virt. eigenvalues --    2.18986   3.06509   3.47256
          Condensed to atoms (all electrons):
               1          2          3          4          5          6
     1  C    4.935745   0.476005   0.375606  -0.040303  -0.050878   0.238379
     2  C    0.476005   5.353983  -0.062059   0.371751   0.387125  -0.062048
     3  H    0.375606  -0.062059   0.470317   0.001260   0.002224  -0.038058
     4  H   -0.040303   0.371751   0.001260   0.445969  -0.014494   0.001507
     5  H   -0.050878   0.387125   0.002224  -0.014494   0.428698  -0.000094
     6  O    0.238379  -0.062048  -0.038058   0.001507  -0.000094   8.147162
     7  O   -0.034901  -0.000814   0.002135  -0.000030  -0.000010   0.123567
     8  H    0.000388   0.002922  -0.000183  -0.000028   0.000225  -0.025991
               7          8
     1  C   -0.034901   0.000388
     2  C   -0.000814   0.002922
     3  H    0.002135  -0.000183
     4  H   -0.000030  -0.000028
     5  H   -0.000010   0.000225
     6  O    0.123567  -0.025991
     7  O    8.052881   0.235035
     8  H    0.235035   0.388766
 Mulliken charges:
               1
     1  C    0.099959
     2  C   -0.466864
     3  H    0.248757
     4  H    0.234369
     5  H    0.247203
     6  O   -0.384425
     7  O   -0.377862
     8  H    0.398864
 Sum of Mulliken charges =   0.00000
 Mulliken charges with hydrogens summed into heavy atoms:
               1
     1  C    0.348716
     2  C    0.014707
     6  O   -0.384425
     7  O    0.021002
 Electronic spatial extent (au):  <R**2>=            327.8236
 Charge=              0.0000 electrons
 Dipole moment (field-independent basis, Debye):
    X=              2.7938    Y=             -1.4012    Z=             -1.4113  Tot=              3.4294
 Quadrupole moment (field-independent basis, Debye-Ang):
   XX=            -24.4189   YY=            -24.2598   ZZ=            -21.3835
   XY=              3.0223   XZ=              0.3187   YZ=              1.0694
 Traceless Quadrupole moment (field-independent basis, Debye-Ang):
   XX=             -1.0648   YY=             -0.9057   ZZ=              1.9705
   XY=              3.0223   XZ=              0.3187   YZ=              1.0694
 Octapole moment (field-independent basis, Debye-Ang**2):
  XXX=             -3.6703  YYY=            -34.5633  ZZZ=             11.8400  XYY=              1.5030
  XXY=            -13.8277  XXZ=              8.8306  XZZ=             -8.1126  YZZ=            -10.4636
  YYZ=             10.2414  XYZ=             -1.7905
 Hexadecapole moment (field-independent basis, Debye-Ang**3):
 XXXX=           -174.3918 YYYY=           -118.2238 ZZZZ=            -58.0594 XXXY=             36.8024
 XXXZ=            -26.7720 YYYX=             41.6381 YYYZ=             29.5349 ZZZX=            -17.5261
 ZZZY=             20.7678 XXYY=            -52.8137 XXZZ=            -47.9989 YYZZ=            -37.0605
 XXYZ=             11.3286 YYXZ=            -11.5613 ZZXY=             13.1576
 N-N= 1.171975442019D+02 E-N=-7.676254998003D+02  KE= 2.256098951260D+02
 No NMR shielding tensors so no spin-rotation constants.
 Leave Link  601 at Fri Apr 12 15:12:02 2019, MaxMem=   134217728 cpu:         0.2
 (Enter /cm/shared/c3ddb/gaussian/09.d01/g09/l701.exe)
 Compute integral first derivatives.
 ... and contract with generalized density number  0.
 Leave Link  701 at Fri Apr 12 15:12:03 2019, MaxMem=   134217728 cpu:         0.2
 (Enter /cm/shared/c3ddb/gaussian/09.d01/g09/l702.exe)
 L702 exits ... SP integral derivatives will be done elsewhere.
 Leave Link  702 at Fri Apr 12 15:12:03 2019, MaxMem=   134217728 cpu:         0.1
 (Enter /cm/shared/c3ddb/gaussian/09.d01/g09/l703.exe)
 Compute integral first derivatives, UseDBF=F ICtDFT=           0.
 Integral derivatives from FoFJK, PRISM(SPDF).
 Calling FoFJK, ICntrl=      2127 FMM=F ISym2X=0 I1Cent= 0 IOpClX= 0 NMat=1 NMatS=1 NMatT=0.
 FoFJK:  IHMeth= 1 ICntrl=    2127 DoSepK=F KAlg= 0 I1Cent=   0 FoldK=F
 IRaf=         0 NMat=   1 IRICut=       1 DoRegI=T DoRafI=F ISym2E= 0.
 FoFCou: FMM=F IPFlag=           0 FMFlag=      100000 FMFlg1=         800
         NFxFlg=           0 DoJE=F BraDBF=F KetDBF=F FulRan=T
         wScrn=  0.000000 ICntrl=    2127 IOpCl=  0 I1Cent=           0 NGrid=           0
         NMat0=    1 NMatS0=      1 NMatT0=    0 NMatD0=    1 NMtDS0=    0 NMtDT0=    0
 Symmetry not used in FoFCou.
 Leave Link  703 at Fri Apr 12 15:12:03 2019, MaxMem=   134217728 cpu:         0.2
 (Enter /cm/shared/c3ddb/gaussian/09.d01/g09/l716.exe)
 Dipole        = 1.09917462D+00-5.51273437D-01-5.55262832D-01
 -------------------------------------------------------------------
 Center     Atomic                   Forces (Hartrees/Bohr)
 Number     Number              X              Y              Z
 -------------------------------------------------------------------
      1        6           0.000312693    0.003759418   -0.001823272
      2        6          -0.000101355    0.000146967    0.001603128
      3        1          -0.000216451   -0.000185268   -0.000186217
      4        1          -0.000042405   -0.000050948    0.000103531
      5        1           0.000071996   -0.000098105   -0.000042744
      6        8          -0.001750142   -0.005962392   -0.002541011
      7        8           0.004961562    0.005276831    0.001574251
      8        1          -0.003235900   -0.002886503    0.001312333
 -------------------------------------------------------------------
 Cartesian Forces:  Max     0.005962392 RMS     0.002422465
 Leave Link  716 at Fri Apr 12 15:12:03 2019, MaxMem=   134217728 cpu:         0.1
 (Enter /cm/shared/c3ddb/gaussian/09.d01/g09/l103.exe)

 GradGradGradGradGradGradGradGradGradGradGradGradGradGradGradGradGradGrad
 Berny optimization.
 FormGI is forming the generalized inverse of G from B-inverse, IUseBI=4.
 Internal  Forces:  Max     0.007846986 RMS     0.001984924
 Search for a local minimum.
 Step number   1 out of a maximum of   32
 All quantities printed in internal units (Hartrees-Bohrs-Radians)
 RMS Force = .89858D-03 SwitMx=.10000D-02 MixMth= 2
 Mixed Optimization -- En-DIIS/RFO-DIIS
 Second derivative matrix not updated -- first step.
 ITU=  0
     Eigenvalues ---    0.02506   0.03281   0.03285   0.16000   0.16000
     Eigenvalues ---    0.16000   0.16000   0.22000   0.25000   0.35270
     Eigenvalues ---    0.37027   0.37121   0.37281   0.43991   0.52161
     Eigenvalues ---    0.645191000.000001000.000001000.000001000.00000
     Eigenvalues --- 1000.000001000.00000
 RFO step:  Lambda=-7.10342010D-05 EMin= 2.50623885D-02
 Linear search not attempted -- first point.
 Iteration  1 RMS(Cart)=  0.01089017 RMS(Int)=  0.00006535
 Iteration  2 RMS(Cart)=  0.00006150 RMS(Int)=  0.00000078
 Iteration  3 RMS(Cart)=  0.00000000 RMS(Int)=  0.00000078
 Iteration  1 RMS(Cart)=  0.00000030 RMS(Int)=  0.00000012
 ITry= 1 IFail=0 DXMaxC= 2.93D-02 DCOld= 1.00D+10 DXMaxT= 3.00D-01 DXLimC= 3.00D+00 Rises=F
 Variable       Old X    -DE/DX   Delta X   Delta X   Delta X     New X
                                 (Linear)    (Quad)   (Total)
    R1        2.47534  -0.00010   0.00000  -0.00015  -0.00015   2.47518
    R2        2.02125  -0.00027   0.00000  -0.00071  -0.00071   2.02054
    R3        2.66465  -0.00002   0.00000  -0.00005  -0.00005   2.66460
    R4        2.02364  -0.00004   0.00000  -0.00010  -0.00010   2.02353
    R5        2.02506   0.00005   0.00000   0.00014   0.00014   2.02519
    R6        2.78538  -0.00219   0.00000  -0.00621  -0.00621   2.77917
    R7        1.84445  -0.00022   0.00000  -0.00041  -0.00041   1.84404
    A1        2.17891   0.00007   0.00000   0.00050   0.00050   2.17941
    A2        2.10087   0.00009   0.00000   0.00039   0.00039   2.10126
    A3        2.00341  -0.00015   0.00000  -0.00089  -0.00089   2.00251
    A4        2.10833  -0.00001   0.00000  -0.00011  -0.00011   2.10822
    A5        2.11121   0.00012   0.00000   0.00074   0.00073   2.11195
    A6        2.06306  -0.00011   0.00000  -0.00068  -0.00068   2.06238
    A7        1.87659  -0.00249   0.00000  -0.00995  -0.00995   1.86663
    A8        1.79415  -0.00222   0.00000  -0.01385  -0.01385   1.78030
    D1        0.03919  -0.00046   0.00000   0.00469   0.00469   0.04388
    D2       -3.13954  -0.00052   0.00000   0.00296   0.00296  -3.13658
    D3       -3.10140   0.00064   0.00000   0.00089   0.00089  -3.10051
    D4        0.00306   0.00058   0.00000  -0.00084  -0.00084   0.00222
    D5       -1.91986  -0.00240   0.00000   0.00000   0.00000  -1.91986
    D6        1.22264  -0.00141   0.00000  -0.00343  -0.00343   1.21921
    D7        1.04720   0.00785   0.00000   0.00000   0.00000   1.04720
         Item               Value     Threshold  Converged?
 Maximum Force            0.002489     0.000015     NO 
 RMS     Force            0.000899     0.000010     NO 
 Maximum Displacement     0.029343     0.000060     NO 
 RMS     Displacement     0.010886     0.000040     NO 
 Predicted change in Energy=-3.552824D-05
 Lowest energy point so far.  Saving SCF results.
 GradGradGradGradGradGradGradGradGradGradGradGradGradGradGradGradGradGrad

 Leave Link  103 at Fri Apr 12 15:12:03 2019, MaxMem=   134217728 cpu:         0.0
 (Enter /cm/shared/c3ddb/gaussian/09.d01/g09/l202.exe)
                          Input orientation:                          
 ---------------------------------------------------------------------
 Center     Atomic      Atomic             Coordinates (Angstroms)
 Number     Number       Type             X           Y           Z
 ---------------------------------------------------------------------
      1          6           0        0.727731    0.635856    0.031281
      2          6           0        1.374278   -0.502001   -0.022217
      3          1           0        1.188782    1.600083    0.061854
      4          1           0        2.444553   -0.525990    0.001577
      5          1           0        0.847986   -1.434974   -0.055235
      6          8           0       -0.682069    0.655135    0.049252
      7          8           0       -1.120047    1.194658   -1.246883
      8          1           0       -0.739426    0.550907   -1.873737
 ---------------------------------------------------------------------
                    Distance matrix (angstroms):
                    1          2          3          4          5
     1  C    0.000000
     2  C    1.309810   0.000000
     3  H    1.069223   2.111926   0.000000
     4  H    2.073221   1.070808   2.469976   0.000000
     5  H    2.076122   1.071687   3.056374   1.838071   0.000000
     6  O    1.410046   2.360643   2.095989   3.342618   2.592401
     7  O    2.315220   3.255782   2.684744   4.150380   3.494015
     8  H    2.406004   3.000748   2.926648   3.848926   3.125788
                    6          7          8
     6  O    0.000000
     7  O    1.470672   0.000000
     8  H    1.926665   0.975824   0.000000
 Symmetry turned off by external request.
 Stoichiometry    C2H4O2
 Framework group  C1[X(C2H4O2)]
 Deg. of freedom    18
 Full point group                 C1      NOp   1
 Rotational constants (GHZ):     25.9301808      4.9852023      4.8236625
 Leave Link  202 at Fri Apr 12 15:12:03 2019, MaxMem=   134217728 cpu:         0.0
 (Enter /cm/shared/c3ddb/gaussian/09.d01/g09/l301.exe)
 Standard basis: 3-21G (6D, 7F)
 Ernie: Thresh=  0.10000D-02 Tol=  0.10000D-05 Strict=F.
    44 basis functions,    72 primitive gaussians,    44 cartesian basis functions
    16 alpha electrons       16 beta electrons
       nuclear repulsion energy       117.3849880136 Hartrees.
 IExCor=    0 DFT=F Ex=HF Corr=None ExCW=0 ScaHFX=  1.000000
 ScaDFX=  1.000000  1.000000  1.000000  1.000000 ScalE2=  1.000000  1.000000
 IRadAn=      0 IRanWt=     -1 IRanGd=            0 ICorTp=0 IEmpDi=  4
 NAtoms=    8 NActive=    8 NUniq=    8 SFac= 1.00D+00 NAtFMM=   60 NAOKFM=F Big=F
 Integral buffers will be    131072 words long.
 Raffenetti 1 integral format.
 Two-electron integral symmetry is turned off.
 Leave Link  301 at Fri Apr 12 15:12:04 2019, MaxMem=   134217728 cpu:         0.2
 (Enter /cm/shared/c3ddb/gaussian/09.d01/g09/l302.exe)
 NPDir=0 NMtPBC=     1 NCelOv=     1 NCel=       1 NClECP=     1 NCelD=      1
         NCelK=      1 NCelE2=     1 NClLst=     1 CellRange=     0.0.
 One-electron integrals computed using PRISM.
 NBasis=    44 RedAO= T EigKep=  1.18D-02  NBF=    44
 NBsUse=    44 1.00D-06 EigRej= -1.00D+00 NBFU=    44
 Leave Link  302 at Fri Apr 12 15:12:04 2019, MaxMem=   134217728 cpu:         0.3
 (Enter /cm/shared/c3ddb/gaussian/09.d01/g09/l303.exe)
 DipDrv:  MaxL=1.
 Leave Link  303 at Fri Apr 12 15:12:04 2019, MaxMem=   134217728 cpu:         0.1
 (Enter /cm/shared/c3ddb/gaussian/09.d01/g09/l401.exe)
 Initial guess from the checkpoint file:  "TMP_CALCS/scangeom_S02_250_060.chk"
 B after Tr=    -0.001870    0.000163   -0.001746
         Rot=    1.000000   -0.000776    0.000516    0.000236 Ang=  -0.11 deg.
 Guess basis will be translated and rotated to current coordinates.
 JPrj=2 DoOrth=T DoCkMO=T.
 Generating alternative initial guess.
 ExpMin= 1.83D-01 ExpMax= 3.22D+02 ExpMxC= 3.22D+02 IAcc=1 IRadAn=         1 AccDes= 0.00D+00
 Harris functional with IExCor=  205 and IRadAn=       1 diagonalized for initial guess.
 HarFok:  IExCor=  205 AccDes= 0.00D+00 IRadAn=         1 IDoV= 1 UseB2=F ITyADJ=14
 ICtDFT=  3500011 ScaDFX=  1.000000  1.000000  1.000000  1.000000
 FoFCou: FMM=F IPFlag=           0 FMFlag=      100000 FMFlg1=           0
         NFxFlg=           0 DoJE=T BraDBF=F KetDBF=T FulRan=T
         wScrn=  0.000000 ICntrl=     500 IOpCl=  0 I1Cent=   200000004 NGrid=           0
         NMat0=    1 NMatS0=      1 NMatT0=    0 NMatD0=    1 NMtDS0=    0 NMtDT0=    0
 Symmetry not used in FoFCou.
 Harris En= -226.614550188346    
 Leave Link  401 at Fri Apr 12 15:12:05 2019, MaxMem=   134217728 cpu:         0.6
 (Enter /cm/shared/c3ddb/gaussian/09.d01/g09/l502.exe)
 Closed shell SCF:
 Using DIIS extrapolation, IDIIS=  1040.
 Two-electron integral symmetry not used.
 Keep R1 ints in memory in canonical form, NReq=1327430.
 IVT=       24902 IEndB=       24902 NGot=   134217728 MDV=   133702282
 LenX=   133702282 LenY=   133699905
 Requested convergence on RMS density matrix=1.00D-08 within 128 cycles.
 Requested convergence on MAX density matrix=1.00D-06.
 Requested convergence on             energy=1.00D-06.
 No special actions if energy rises.
 FoFCou: FMM=F IPFlag=           0 FMFlag=           0 FMFlg1=           0
         NFxFlg=           0 DoJE=F BraDBF=F KetDBF=F FulRan=T
         wScrn=  0.000000 ICntrl=     600 IOpCl=  0 I1Cent=           0 NGrid=           0
         NMat0=    1 NMatS0=    990 NMatT0=    0 NMatD0=    1 NMtDS0=    0 NMtDT0=    0
 Symmetry not used in FoFCou.

 Cycle   1  Pass 1  IDiag  1:
 E= -226.389224665554    
 DIIS: error= 7.23D-04 at cycle   1 NSaved=   1.
 NSaved= 1 IEnMin= 1 EnMin= -226.389224665554     IErMin= 1 ErrMin= 7.23D-04
 ErrMax= 7.23D-04  0.00D+00 EMaxC= 1.00D-01 BMatC= 4.00D-05 BMatP= 4.00D-05
 IDIUse=3 WtCom= 9.93D-01 WtEn= 7.23D-03
 Coeff-Com:  0.100D+01
 Coeff-En:   0.100D+01
 Coeff:      0.100D+01
 Gap=     0.963 Goal=   None    Shift=    0.000
 RMSDP=1.42D-04 MaxDP=8.62D-04              OVMax= 1.17D-03

 Cycle   2  Pass 1  IDiag  1:
 E= -226.389276219067     Delta-E=       -0.000051553512 Rises=F Damp=F
 DIIS: error= 3.09D-04 at cycle   2 NSaved=   2.
 NSaved= 2 IEnMin= 2 EnMin= -226.389276219067     IErMin= 2 ErrMin= 3.09D-04
 ErrMax= 3.09D-04  0.00D+00 EMaxC= 1.00D-01 BMatC= 2.92D-06 BMatP= 4.00D-05
 IDIUse=3 WtCom= 9.97D-01 WtEn= 3.09D-03
 Coeff-Com: -0.184D+00 0.118D+01
 Coeff-En:   0.000D+00 0.100D+01
 Coeff:     -0.183D+00 0.118D+01
 Gap=     0.545 Goal=   None    Shift=    0.000
 RMSDP=6.32D-05 MaxDP=4.82D-04 DE=-5.16D-05 OVMax= 1.05D-03

 Cycle   3  Pass 1  IDiag  1:
 E= -226.389284879302     Delta-E=       -0.000008660236 Rises=F Damp=F
 DIIS: error= 1.31D-04 at cycle   3 NSaved=   3.
 NSaved= 3 IEnMin= 3 EnMin= -226.389284879302     IErMin= 3 ErrMin= 1.31D-04
 ErrMax= 1.31D-04  0.00D+00 EMaxC= 1.00D-01 BMatC= 4.67D-07 BMatP= 2.92D-06
 IDIUse=3 WtCom= 9.99D-01 WtEn= 1.31D-03
 Coeff-Com: -0.592D-02-0.245D+00 0.125D+01
 Coeff-En:   0.000D+00 0.000D+00 0.100D+01
 Coeff:     -0.591D-02-0.245D+00 0.125D+01
 Gap=     0.545 Goal=   None    Shift=    0.000
 RMSDP=3.05D-05 MaxDP=2.64D-04 DE=-8.66D-06 OVMax= 6.17D-04

 Cycle   4  Pass 1  IDiag  1:
 E= -226.389286431392     Delta-E=       -0.000001552089 Rises=F Damp=F
 DIIS: error= 6.31D-05 at cycle   4 NSaved=   4.
 NSaved= 4 IEnMin= 4 EnMin= -226.389286431392     IErMin= 4 ErrMin= 6.31D-05
 ErrMax= 6.31D-05  0.00D+00 EMaxC= 1.00D-01 BMatC= 1.42D-07 BMatP= 4.67D-07
 IDIUse=1 WtCom= 1.00D+00 WtEn= 0.00D+00
 Coeff-Com:  0.306D-01-0.288D+00 0.417D+00 0.840D+00
 Coeff:      0.306D-01-0.288D+00 0.417D+00 0.840D+00
 Gap=     0.545 Goal=   None    Shift=    0.000
 RMSDP=1.29D-05 MaxDP=1.18D-04 DE=-1.55D-06 OVMax= 2.83D-04

 Cycle   5  Pass 1  IDiag  1:
 E= -226.389286730844     Delta-E=       -0.000000299452 Rises=F Damp=F
 DIIS: error= 3.53D-05 at cycle   5 NSaved=   5.
 NSaved= 5 IEnMin= 5 EnMin= -226.389286730844     IErMin= 5 ErrMin= 3.53D-05
 ErrMax= 3.53D-05  0.00D+00 EMaxC= 1.00D-01 BMatC= 1.49D-08 BMatP= 1.42D-07
 IDIUse=1 WtCom= 1.00D+00 WtEn= 0.00D+00
 Coeff-Com: -0.550D-02 0.106D+00-0.301D+00-0.241D+00 0.144D+01
 Coeff:     -0.550D-02 0.106D+00-0.301D+00-0.241D+00 0.144D+01
 Gap=     0.545 Goal=   None    Shift=    0.000
 RMSDP=8.08D-06 MaxDP=7.37D-05 DE=-2.99D-07 OVMax= 2.07D-04

 Cycle   6  Pass 1  IDiag  1:
 E= -226.389286798311     Delta-E=       -0.000000067467 Rises=F Damp=F
 DIIS: error= 9.88D-06 at cycle   6 NSaved=   6.
 NSaved= 6 IEnMin= 6 EnMin= -226.389286798311     IErMin= 6 ErrMin= 9.88D-06
 ErrMax= 9.88D-06  0.00D+00 EMaxC= 1.00D-01 BMatC= 1.62D-09 BMatP= 1.49D-08
 IDIUse=1 WtCom= 1.00D+00 WtEn= 0.00D+00
 Coeff-Com: -0.284D-02 0.288D-01-0.434D-01-0.918D-01 0.342D-01 0.108D+01
 Coeff:     -0.284D-02 0.288D-01-0.434D-01-0.918D-01 0.342D-01 0.108D+01
 Gap=     0.545 Goal=   None    Shift=    0.000
 RMSDP=2.24D-06 MaxDP=1.77D-05 DE=-6.75D-08 OVMax= 5.36D-05

 Cycle   7  Pass 1  IDiag  1:
 E= -226.389286804557     Delta-E=       -0.000000006246 Rises=F Damp=F
 DIIS: error= 3.44D-06 at cycle   7 NSaved=   7.
 NSaved= 7 IEnMin= 7 EnMin= -226.389286804557     IErMin= 7 ErrMin= 3.44D-06
 ErrMax= 3.44D-06  0.00D+00 EMaxC= 1.00D-01 BMatC= 3.01D-10 BMatP= 1.62D-09
 IDIUse=1 WtCom= 1.00D+00 WtEn= 0.00D+00
 Coeff-Com:  0.141D-02-0.241D-01 0.659D-01 0.587D-01-0.320D+00-0.386D-01
 Coeff-Com:  0.126D+01
 Coeff:      0.141D-02-0.241D-01 0.659D-01 0.587D-01-0.320D+00-0.386D-01
 Coeff:      0.126D+01
 Gap=     0.545 Goal=   None    Shift=    0.000
 RMSDP=1.21D-06 MaxDP=8.48D-06 DE=-6.25D-09 OVMax= 2.56D-05

 Cycle   8  Pass 1  IDiag  1:
 E= -226.389286805812     Delta-E=       -0.000000001255 Rises=F Damp=F
 DIIS: error= 1.11D-06 at cycle   8 NSaved=   8.
 NSaved= 8 IEnMin= 8 EnMin= -226.389286805812     IErMin= 8 ErrMin= 1.11D-06
 ErrMax= 1.11D-06  0.00D+00 EMaxC= 1.00D-01 BMatC= 2.31D-11 BMatP= 3.01D-10
 IDIUse=1 WtCom= 1.00D+00 WtEn= 0.00D+00
 Coeff-Com: -0.859D-04 0.318D-02-0.126D-01-0.164D-02 0.633D-01-0.719D-01
 Coeff-Com: -0.264D+00 0.128D+01
 Coeff:     -0.859D-04 0.318D-02-0.126D-01-0.164D-02 0.633D-01-0.719D-01
 Coeff:     -0.264D+00 0.128D+01
 Gap=     0.545 Goal=   None    Shift=    0.000
 RMSDP=2.90D-07 MaxDP=1.68D-06 DE=-1.26D-09 OVMax= 6.48D-06

 Cycle   9  Pass 1  IDiag  1:
 E= -226.389286805901     Delta-E=       -0.000000000089 Rises=F Damp=F
 DIIS: error= 4.88D-07 at cycle   9 NSaved=   9.
 NSaved= 9 IEnMin= 9 EnMin= -226.389286805901     IErMin= 9 ErrMin= 4.88D-07
 ErrMax= 4.88D-07  0.00D+00 EMaxC= 1.00D-01 BMatC= 3.69D-12 BMatP= 2.31D-11
 IDIUse=1 WtCom= 1.00D+00 WtEn= 0.00D+00
 Coeff-Com: -0.211D-03 0.364D-02-0.101D-01-0.780D-02 0.455D-01 0.110D-01
 Coeff-Com: -0.189D+00-0.186D-01 0.117D+01
 Coeff:     -0.211D-03 0.364D-02-0.101D-01-0.780D-02 0.455D-01 0.110D-01
 Coeff:     -0.189D+00-0.186D-01 0.117D+01
 Gap=     0.545 Goal=   None    Shift=    0.000
 RMSDP=1.22D-07 MaxDP=6.66D-07 DE=-8.94D-11 OVMax= 3.04D-06

 Cycle  10  Pass 1  IDiag  1:
 E= -226.389286805916     Delta-E=       -0.000000000015 Rises=F Damp=F
 DIIS: error= 2.13D-07 at cycle  10 NSaved=  10.
 NSaved=10 IEnMin=10 EnMin= -226.389286805916     IErMin=10 ErrMin= 2.13D-07
 ErrMax= 2.13D-07  0.00D+00 EMaxC= 1.00D-01 BMatC= 5.39D-13 BMatP= 3.69D-12
 IDIUse=1 WtCom= 1.00D+00 WtEn= 0.00D+00
 Coeff-Com:  0.912D-04-0.189D-02 0.580D-02 0.362D-02-0.277D-01 0.649D-02
 Coeff-Com:  0.115D+00-0.184D+00-0.457D+00 0.154D+01
 Coeff:      0.912D-04-0.189D-02 0.580D-02 0.362D-02-0.277D-01 0.649D-02
 Coeff:      0.115D+00-0.184D+00-0.457D+00 0.154D+01
 Gap=     0.545 Goal=   None    Shift=    0.000
 RMSDP=5.97D-08 MaxDP=4.09D-07 DE=-1.47D-11 OVMax= 1.51D-06

 Cycle  11  Pass 1  IDiag  1:
 E= -226.389286805919     Delta-E=       -0.000000000003 Rises=F Damp=F
 DIIS: error= 5.91D-08 at cycle  11 NSaved=  11.
 NSaved=11 IEnMin=11 EnMin= -226.389286805919     IErMin=11 ErrMin= 5.91D-08
 ErrMax= 5.91D-08  0.00D+00 EMaxC= 1.00D-01 BMatC= 5.81D-14 BMatP= 5.39D-13
 IDIUse=1 WtCom= 1.00D+00 WtEn= 0.00D+00
 Coeff-Com:  0.486D-05-0.294D-04 0.123D-04 0.117D-03 0.211D-03-0.215D-02
 Coeff-Com: -0.751D-03 0.307D-01-0.421D-01-0.235D+00 0.125D+01
 Coeff:      0.486D-05-0.294D-04 0.123D-04 0.117D-03 0.211D-03-0.215D-02
 Coeff:     -0.751D-03 0.307D-01-0.421D-01-0.235D+00 0.125D+01
 Gap=     0.545 Goal=   None    Shift=    0.000
 RMSDP=1.64D-08 MaxDP=1.25D-07 DE=-3.01D-12 OVMax= 3.91D-07

 Cycle  12  Pass 1  IDiag  1:
 E= -226.389286805919     Delta-E=        0.000000000000 Rises=F Damp=F
 DIIS: error= 1.87D-08 at cycle  12 NSaved=  12.
 NSaved=12 IEnMin=11 EnMin= -226.389286805919     IErMin=12 ErrMin= 1.87D-08
 ErrMax= 1.87D-08  0.00D+00 EMaxC= 1.00D-01 BMatC= 1.15D-14 BMatP= 5.81D-14
 IDIUse=1 WtCom= 1.00D+00 WtEn= 0.00D+00
 Coeff-Com: -0.190D-04 0.420D-03-0.130D-02-0.826D-03 0.629D-02-0.179D-02
 Coeff-Com: -0.259D-01 0.483D-01 0.926D-01-0.396D+00 0.244D+00 0.103D+01
 Coeff:     -0.190D-04 0.420D-03-0.130D-02-0.826D-03 0.629D-02-0.179D-02
 Coeff:     -0.259D-01 0.483D-01 0.926D-01-0.396D+00 0.244D+00 0.103D+01
 Gap=     0.545 Goal=   None    Shift=    0.000
 RMSDP=6.93D-09 MaxDP=5.28D-08 DE= 2.84D-13 OVMax= 1.45D-07

 SCF Done:  E(RHF) =  -226.389286806     A.U. after   12 cycles
            NFock= 12  Conv=0.69D-08     -V/T= 2.0034
 KE= 2.256227896926D+02 PE=-7.679963958523D+02 EE= 1.985993313402D+02
 Leave Link  502 at Fri Apr 12 15:12:05 2019, MaxMem=   134217728 cpu:         0.3
 (Enter /cm/shared/c3ddb/gaussian/09.d01/g09/l701.exe)
 Compute integral first derivatives.
 ... and contract with generalized density number  0.
 Leave Link  701 at Fri Apr 12 15:12:06 2019, MaxMem=   134217728 cpu:         0.2
 (Enter /cm/shared/c3ddb/gaussian/09.d01/g09/l702.exe)
 L702 exits ... SP integral derivatives will be done elsewhere.
 Leave Link  702 at Fri Apr 12 15:12:06 2019, MaxMem=   134217728 cpu:         0.1
 (Enter /cm/shared/c3ddb/gaussian/09.d01/g09/l703.exe)
 Compute integral first derivatives, UseDBF=F ICtDFT=           0.
 Integral derivatives from FoFJK, PRISM(SPDF).
 Calling FoFJK, ICntrl=      2127 FMM=F ISym2X=0 I1Cent= 0 IOpClX= 0 NMat=1 NMatS=1 NMatT=0.
 FoFJK:  IHMeth= 1 ICntrl=    2127 DoSepK=F KAlg= 0 I1Cent=   0 FoldK=F
 IRaf=         0 NMat=   1 IRICut=       1 DoRegI=T DoRafI=F ISym2E= 0.
 FoFCou: FMM=F IPFlag=           0 FMFlag=      100000 FMFlg1=         800
         NFxFlg=           0 DoJE=F BraDBF=F KetDBF=F FulRan=T
         wScrn=  0.000000 ICntrl=    2127 IOpCl=  0 I1Cent=           0 NGrid=           0
         NMat0=    1 NMatS0=      1 NMatT0=    0 NMatD0=    1 NMtDS0=    0 NMtDT0=    0
 Symmetry not used in FoFCou.
 Leave Link  703 at Fri Apr 12 15:12:06 2019, MaxMem=   134217728 cpu:         0.2
 (Enter /cm/shared/c3ddb/gaussian/09.d01/g09/l716.exe)
 Dipole        = 1.10150212D+00-5.53215427D-01-5.46639618D-01
 -------------------------------------------------------------------
 Center     Atomic                   Forces (Hartrees/Bohr)
 Number     Number              X              Y              Z
 -------------------------------------------------------------------
      1        6           0.000521635    0.003270434   -0.000666582
      2        6          -0.000034830   -0.000015837    0.001748555
      3        1          -0.000080399    0.000033147   -0.000035709
      4        1           0.000014057   -0.000018387   -0.000125556
      5        1           0.000025492   -0.000031891    0.000086856
      6        8          -0.000477118   -0.005925049    0.000010303
      7        8           0.004246465    0.004636808   -0.000533190
      8        1          -0.004215302   -0.001949225   -0.000484676
 -------------------------------------------------------------------
 Cartesian Forces:  Max     0.005925049 RMS     0.002155026
 Leave Link  716 at Fri Apr 12 15:12:06 2019, MaxMem=   134217728 cpu:         0.1
 (Enter /cm/shared/c3ddb/gaussian/09.d01/g09/l103.exe)

 GradGradGradGradGradGradGradGradGradGradGradGradGradGradGradGradGradGrad
 Berny optimization.
 Using GEDIIS/GDIIS optimizer.
 FormGI is forming the generalized inverse of G from B-inverse, IUseBI=4.
 Internal  Forces:  Max     0.008226798 RMS     0.001960973
 Search for a local minimum.
 Step number   2 out of a maximum of   32
 All quantities printed in internal units (Hartrees-Bohrs-Radians)
 RMS Force = .62587D-03 SwitMx=.10000D-02 MixMth= 2
 Mixed Optimization -- En-DIIS/RFO-DIIS
 Swapping is turned off.
 Update second derivatives using D2CorX and points    1    2
 DE= -1.33D-05 DEPred=-3.55D-05 R= 3.75D-01
 Trust test= 3.75D-01 RLast= 1.94D-02 DXMaxT set to 3.00D-01
 ITU=  0  0
     Eigenvalues ---    0.02455   0.03284   0.03311   0.15904   0.16000
     Eigenvalues ---    0.16000   0.19689   0.21970   0.25666   0.37024
     Eigenvalues ---    0.37121   0.37242   0.43066   0.47616   0.52127
     Eigenvalues ---    0.645131000.000001000.000001000.000001000.00000
     Eigenvalues --- 1000.000001000.00000
 En-DIIS/RFO-DIIS IScMMF=        0 using points:     2    1
 RFO step:  Lambda=-1.48141935D-05.
 NNeg= 0 NP= 2 Switch=  2.50D-03 Rises=F DC=  1.33D-05 SmlDif=  1.00D-05
 RMS Error=  0.9684094806D-03 NUsed= 2 EDIIS=F
 DidBck=T Rises=F RFO-DIIS coefs:    0.61204    0.38796
 Iteration  1 RMS(Cart)=  0.00382333 RMS(Int)=  0.00001062
 Iteration  2 RMS(Cart)=  0.00000878 RMS(Int)=  0.00000046
 Iteration  3 RMS(Cart)=  0.00000000 RMS(Int)=  0.00000046
 Iteration  1 RMS(Cart)=  0.00000037 RMS(Int)=  0.00000014
 ITry= 1 IFail=0 DXMaxC= 1.08D-02 DCOld= 1.00D+10 DXMaxT= 3.00D-01 DXLimC= 3.00D+00 Rises=F
 Variable       Old X    -DE/DX   Delta X   Delta X   Delta X     New X
                                 (Linear)    (Quad)   (Total)
    R1        2.47518  -0.00001   0.00006  -0.00008  -0.00002   2.47517
    R2        2.02054  -0.00001   0.00028  -0.00032  -0.00004   2.02050
    R3        2.66460   0.00039   0.00002   0.00052   0.00054   2.66514
    R4        2.02353   0.00001   0.00004  -0.00003   0.00001   2.02355
    R5        2.02519   0.00001  -0.00005   0.00008   0.00003   2.02522
    R6        2.77917   0.00187   0.00241   0.00057   0.00298   2.78215
    R7        1.84404  -0.00005   0.00016  -0.00023  -0.00007   1.84397
    A1        2.17941   0.00006  -0.00019   0.00046   0.00027   2.17968
    A2        2.10126   0.00005  -0.00015   0.00031   0.00016   2.10142
    A3        2.00251  -0.00011   0.00035  -0.00079  -0.00044   2.00207
    A4        2.10822   0.00001   0.00004   0.00000   0.00004   2.10827
    A5        2.11195   0.00003  -0.00029   0.00044   0.00015   2.11210
    A6        2.06238  -0.00004   0.00026  -0.00045  -0.00018   2.06220
    A7        1.86663   0.00083   0.00386  -0.00227   0.00159   1.86822
    A8        1.78030   0.00184   0.00537   0.00107   0.00644   1.78674
    D1        0.04388  -0.00064  -0.00182   0.00166  -0.00016   0.04372
    D2       -3.13658  -0.00061  -0.00115   0.00152   0.00038  -3.13620
    D3       -3.10051   0.00042  -0.00034  -0.00331  -0.00365  -3.10417
    D4        0.00222   0.00046   0.00033  -0.00344  -0.00312  -0.00090
    D5       -1.91986  -0.00242   0.00000   0.00000   0.00000  -1.91986
    D6        1.21921  -0.00146   0.00133  -0.00449  -0.00315   1.21605
    D7        1.04720   0.00823   0.00000   0.00000   0.00000   1.04720
         Item               Value     Threshold  Converged?
 Maximum Force            0.001874     0.000015     NO 
 RMS     Force            0.000626     0.000010     NO 
 Maximum Displacement     0.010799     0.000060     NO 
 RMS     Displacement     0.003823     0.000040     NO 
 Predicted change in Energy=-1.027679D-05
 Lowest energy point so far.  Saving SCF results.
 GradGradGradGradGradGradGradGradGradGradGradGradGradGradGradGradGradGrad

 Leave Link  103 at Fri Apr 12 15:12:06 2019, MaxMem=   134217728 cpu:         0.0
 (Enter /cm/shared/c3ddb/gaussian/09.d01/g09/l202.exe)
                          Input orientation:                          
 ---------------------------------------------------------------------
 Center     Atomic      Atomic             Coordinates (Angstroms)
 Number     Number       Type             X           Y           Z
 ---------------------------------------------------------------------
      1          6           0        0.728418    0.635006    0.033002
      2          6           0        1.375320   -0.502632   -0.020633
      3          1           0        1.188863    1.599561    0.061548
      4          1           0        2.445662   -0.526191    0.000755
      5          1           0        0.849480   -1.435939   -0.051861
      6          8           0       -0.681685    0.654123    0.049724
      7          8           0       -1.121263    1.194767   -1.247192
      8          1           0       -0.743006    0.554980   -1.879451
 ---------------------------------------------------------------------
                    Distance matrix (angstroms):
                    1          2          3          4          5
     1  C    0.000000
     2  C    1.309802   0.000000
     3  H    1.069201   2.112046   0.000000
     4  H    2.073245   1.070815   2.470235   0.000000
     5  H    2.076216   1.071701   3.056518   1.837990   0.000000
     6  O    1.410331   2.360995   2.095935   3.343028   2.592902
     7  O    2.318091   3.258609   2.685767   4.152351   3.497608
     8  H    2.414326   3.010158   2.930998   3.856386   3.136855
                    6          7          8
     6  O    0.000000
     7  O    1.472249   0.000000
     8  H    1.932694   0.975785   0.000000
 Symmetry turned off by external request.
 Stoichiometry    C2H4O2
 Framework group  C1[X(C2H4O2)]
 Deg. of freedom    18
 Full point group                 C1      NOp   1
 Rotational constants (GHZ):     25.9222394      4.9771194      4.8157319
 Leave Link  202 at Fri Apr 12 15:12:06 2019, MaxMem=   134217728 cpu:         0.0
 (Enter /cm/shared/c3ddb/gaussian/09.d01/g09/l301.exe)
 Standard basis: 3-21G (6D, 7F)
 Ernie: Thresh=  0.10000D-02 Tol=  0.10000D-05 Strict=F.
    44 basis functions,    72 primitive gaussians,    44 cartesian basis functions
    16 alpha electrons       16 beta electrons
       nuclear repulsion energy       117.3162020368 Hartrees.
 IExCor=    0 DFT=F Ex=HF Corr=None ExCW=0 ScaHFX=  1.000000
 ScaDFX=  1.000000  1.000000  1.000000  1.000000 ScalE2=  1.000000  1.000000
 IRadAn=      0 IRanWt=     -1 IRanGd=            0 ICorTp=0 IEmpDi=  4
 NAtoms=    8 NActive=    8 NUniq=    8 SFac= 1.00D+00 NAtFMM=   60 NAOKFM=F Big=F
 Integral buffers will be    131072 words long.
 Raffenetti 1 integral format.
 Two-electron integral symmetry is turned off.
 Leave Link  301 at Fri Apr 12 15:12:07 2019, MaxMem=   134217728 cpu:         0.2
 (Enter /cm/shared/c3ddb/gaussian/09.d01/g09/l302.exe)
 NPDir=0 NMtPBC=     1 NCelOv=     1 NCel=       1 NClECP=     1 NCelD=      1
         NCelK=      1 NCelE2=     1 NClLst=     1 CellRange=     0.0.
 One-electron integrals computed using PRISM.
 NBasis=    44 RedAO= T EigKep=  1.18D-02  NBF=    44
 NBsUse=    44 1.00D-06 EigRej= -1.00D+00 NBFU=    44
 Leave Link  302 at Fri Apr 12 15:12:07 2019, MaxMem=   134217728 cpu:         0.3
 (Enter /cm/shared/c3ddb/gaussian/09.d01/g09/l303.exe)
 DipDrv:  MaxL=1.
 Leave Link  303 at Fri Apr 12 15:12:07 2019, MaxMem=   134217728 cpu:         0.1
 (Enter /cm/shared/c3ddb/gaussian/09.d01/g09/l401.exe)
 Initial guess from the checkpoint file:  "TMP_CALCS/scangeom_S02_250_060.chk"
 B after Tr=     0.000238   -0.000939    0.000879
         Rot=    1.000000   -0.000077    0.000088   -0.000102 Ang=  -0.02 deg.
 Guess basis will be translated and rotated to current coordinates.
 JPrj=2 DoOrth=T DoCkMO=T.
 Leave Link  401 at Fri Apr 12 15:12:08 2019, MaxMem=   134217728 cpu:         0.3
 (Enter /cm/shared/c3ddb/gaussian/09.d01/g09/l502.exe)
 Closed shell SCF:
 Using DIIS extrapolation, IDIIS=  1040.
 Two-electron integral symmetry not used.
 Keep R1 ints in memory in canonical form, NReq=1327430.
 IVT=       24902 IEndB=       24902 NGot=   134217728 MDV=   133702282
 LenX=   133702282 LenY=   133699905
 Requested convergence on RMS density matrix=1.00D-08 within 128 cycles.
 Requested convergence on MAX density matrix=1.00D-06.
 Requested convergence on             energy=1.00D-06.
 No special actions if energy rises.
 FoFCou: FMM=F IPFlag=           0 FMFlag=           0 FMFlg1=           0
         NFxFlg=           0 DoJE=F BraDBF=F KetDBF=F FulRan=T
         wScrn=  0.000000 ICntrl=     600 IOpCl=  0 I1Cent=           0 NGrid=           0
         NMat0=    1 NMatS0=    990 NMatT0=    0 NMatD0=    1 NMtDS0=    0 NMtDT0=    0
 Symmetry not used in FoFCou.

 Cycle   1  Pass 1  IDiag  1:
 E= -226.389289916410    
 DIIS: error= 2.32D-04 at cycle   1 NSaved=   1.
 NSaved= 1 IEnMin= 1 EnMin= -226.389289916410     IErMin= 1 ErrMin= 2.32D-04
 ErrMax= 2.32D-04  0.00D+00 EMaxC= 1.00D-01 BMatC= 4.98D-06 BMatP= 4.98D-06
 IDIUse=3 WtCom= 9.98D-01 WtEn= 2.32D-03
 Coeff-Com:  0.100D+01
 Coeff-En:   0.100D+01
 Coeff:      0.100D+01
 Gap=     0.963 Goal=   None    Shift=    0.000
 RMSDP=4.88D-05 MaxDP=3.90D-04              OVMax= 4.25D-04

 Cycle   2  Pass 1  IDiag  1:
 E= -226.389295738709     Delta-E=       -0.000005822299 Rises=F Damp=F
 DIIS: error= 7.01D-05 at cycle   2 NSaved=   2.
 NSaved= 2 IEnMin= 2 EnMin= -226.389295738709     IErMin= 2 ErrMin= 7.01D-05
 ErrMax= 7.01D-05  0.00D+00 EMaxC= 1.00D-01 BMatC= 3.14D-07 BMatP= 4.98D-06
 IDIUse=1 WtCom= 1.00D+00 WtEn= 0.00D+00
 Coeff-Com: -0.183D+00 0.118D+01
 Coeff:     -0.183D+00 0.118D+01
 Gap=     0.545 Goal=   None    Shift=    0.000
 RMSDP=1.93D-05 MaxDP=1.17D-04 DE=-5.82D-06 OVMax= 3.24D-04

 Cycle   3  Pass 1  IDiag  1:
 E= -226.389296568548     Delta-E=       -0.000000829839 Rises=F Damp=F
 DIIS: error= 3.79D-05 at cycle   3 NSaved=   3.
 NSaved= 3 IEnMin= 3 EnMin= -226.389296568548     IErMin= 3 ErrMin= 3.79D-05
 ErrMax= 3.79D-05  0.00D+00 EMaxC= 1.00D-01 BMatC= 3.97D-08 BMatP= 3.14D-07
 IDIUse=1 WtCom= 1.00D+00 WtEn= 0.00D+00
 Coeff-Com: -0.296D-02-0.210D+00 0.121D+01
 Coeff:     -0.296D-02-0.210D+00 0.121D+01
 Gap=     0.545 Goal=   None    Shift=    0.000
 RMSDP=8.89D-06 MaxDP=5.77D-05 DE=-8.30D-07 OVMax= 1.82D-04

 Cycle   4  Pass 1  IDiag  1:
 E= -226.389296698329     Delta-E=       -0.000000129781 Rises=F Damp=F
 DIIS: error= 2.03D-05 at cycle   4 NSaved=   4.
 NSaved= 4 IEnMin= 4 EnMin= -226.389296698329     IErMin= 4 ErrMin= 2.03D-05
 ErrMax= 2.03D-05  0.00D+00 EMaxC= 1.00D-01 BMatC= 9.97D-09 BMatP= 3.97D-08
 IDIUse=1 WtCom= 1.00D+00 WtEn= 0.00D+00
 Coeff-Com:  0.248D-01-0.225D+00 0.287D+00 0.913D+00
 Coeff:      0.248D-01-0.225D+00 0.287D+00 0.913D+00
 Gap=     0.545 Goal=   None    Shift=    0.000
 RMSDP=3.92D-06 MaxDP=2.57D-05 DE=-1.30D-07 OVMax= 9.35D-05

 Cycle   5  Pass 1  IDiag  1:
 E= -226.389296723319     Delta-E=       -0.000000024990 Rises=F Damp=F
 DIIS: error= 9.38D-06 at cycle   5 NSaved=   5.
 NSaved= 5 IEnMin= 5 EnMin= -226.389296723319     IErMin= 5 ErrMin= 9.38D-06
 ErrMax= 9.38D-06  0.00D+00 EMaxC= 1.00D-01 BMatC= 1.53D-09 BMatP= 9.97D-09
 IDIUse=1 WtCom= 1.00D+00 WtEn= 0.00D+00
 Coeff-Com: -0.977D-03 0.542D-01-0.244D+00-0.240D-01 0.121D+01
 Coeff:     -0.977D-03 0.542D-01-0.244D+00-0.240D-01 0.121D+01
 Gap=     0.545 Goal=   None    Shift=    0.000
 RMSDP=2.13D-06 MaxDP=1.45D-05 DE=-2.50D-08 OVMax= 5.50D-05

 Cycle   6  Pass 1  IDiag  1:
 E= -226.389296728499     Delta-E=       -0.000000005181 Rises=F Damp=F
 DIIS: error= 3.36D-06 at cycle   6 NSaved=   6.
 NSaved= 6 IEnMin= 6 EnMin= -226.389296728499     IErMin= 6 ErrMin= 3.36D-06
 ErrMax= 3.36D-06  0.00D+00 EMaxC= 1.00D-01 BMatC= 1.79D-10 BMatP= 1.53D-09
 IDIUse=1 WtCom= 1.00D+00 WtEn= 0.00D+00
 Coeff-Com: -0.324D-02 0.359D-01-0.729D-01-0.118D+00 0.150D+00 0.101D+01
 Coeff:     -0.324D-02 0.359D-01-0.729D-01-0.118D+00 0.150D+00 0.101D+01
 Gap=     0.545 Goal=   None    Shift=    0.000
 RMSDP=7.38D-07 MaxDP=5.68D-06 DE=-5.18D-09 OVMax= 1.90D-05

 Cycle   7  Pass 1  IDiag  1:
 E= -226.389296729109     Delta-E=       -0.000000000610 Rises=F Damp=F
 DIIS: error= 1.09D-06 at cycle   7 NSaved=   7.
 NSaved= 7 IEnMin= 7 EnMin= -226.389296729109     IErMin= 7 ErrMin= 1.09D-06
 ErrMax= 1.09D-06  0.00D+00 EMaxC= 1.00D-01 BMatC= 2.63D-11 BMatP= 1.79D-10
 IDIUse=1 WtCom= 1.00D+00 WtEn= 0.00D+00
 Coeff-Com:  0.876D-03-0.160D-01 0.557D-01 0.268D-01-0.239D+00-0.166D+00
 Coeff-Com:  0.134D+01
 Coeff:      0.876D-03-0.160D-01 0.557D-01 0.268D-01-0.239D+00-0.166D+00
 Coeff:      0.134D+01
 Gap=     0.545 Goal=   None    Shift=    0.000
 RMSDP=3.32D-07 MaxDP=1.96D-06 DE=-6.10D-10 OVMax= 7.58D-06

 Cycle   8  Pass 1  IDiag  1:
 E= -226.389296729209     Delta-E=       -0.000000000099 Rises=F Damp=F
 DIIS: error= 2.39D-07 at cycle   8 NSaved=   8.
 NSaved= 8 IEnMin= 8 EnMin= -226.389296729209     IErMin= 8 ErrMin= 2.39D-07
 ErrMax= 2.39D-07  0.00D+00 EMaxC= 1.00D-01 BMatC= 1.94D-12 BMatP= 2.63D-11
 IDIUse=1 WtCom= 1.00D+00 WtEn= 0.00D+00
 Coeff-Com:  0.292D-03-0.335D-02 0.739D-02 0.937D-02-0.147D-01-0.950D-01
 Coeff-Com:  0.585D-01 0.104D+01
 Coeff:      0.292D-03-0.335D-02 0.739D-02 0.937D-02-0.147D-01-0.950D-01
 Coeff:      0.585D-01 0.104D+01
 Gap=     0.545 Goal=   None    Shift=    0.000
 RMSDP=6.61D-08 MaxDP=3.53D-07 DE=-9.94D-11 OVMax= 1.24D-06

 Cycle   9  Pass 1  IDiag  1:
 E= -226.389296729215     Delta-E=       -0.000000000006 Rises=F Damp=F
 DIIS: error= 9.35D-08 at cycle   9 NSaved=   9.
 NSaved= 9 IEnMin= 9 EnMin= -226.389296729215     IErMin= 9 ErrMin= 9.35D-08
 ErrMax= 9.35D-08  0.00D+00 EMaxC= 1.00D-01 BMatC= 2.56D-13 BMatP= 1.94D-12
 IDIUse=1 WtCom= 1.00D+00 WtEn= 0.00D+00
 Coeff-Com: -0.161D-03 0.287D-02-0.947D-02-0.611D-02 0.416D-01 0.308D-01
 Coeff-Com: -0.213D+00-0.116D+00 0.127D+01
 Coeff:     -0.161D-03 0.287D-02-0.947D-02-0.611D-02 0.416D-01 0.308D-01
 Coeff:     -0.213D+00-0.116D+00 0.127D+01
 Gap=     0.545 Goal=   None    Shift=    0.000
 RMSDP=3.19D-08 MaxDP=1.68D-07 DE=-5.74D-12 OVMax= 4.42D-07

 Cycle  10  Pass 1  IDiag  1:
 E= -226.389296729215     Delta-E=       -0.000000000001 Rises=F Damp=F
 DIIS: error= 1.67D-08 at cycle  10 NSaved=  10.
 NSaved=10 IEnMin=10 EnMin= -226.389296729215     IErMin=10 ErrMin= 1.67D-08
 ErrMax= 1.67D-08  0.00D+00 EMaxC= 1.00D-01 BMatC= 1.40D-14 BMatP= 2.56D-13
 IDIUse=1 WtCom= 1.00D+00 WtEn= 0.00D+00
 Coeff-Com: -0.125D-04 0.947D-04-0.953D-04-0.393D-03-0.174D-03 0.344D-02
 Coeff-Com:  0.470D-02-0.584D-01-0.176D-01 0.107D+01
 Coeff:     -0.125D-04 0.947D-04-0.953D-04-0.393D-03-0.174D-03 0.344D-02
 Coeff:      0.470D-02-0.584D-01-0.176D-01 0.107D+01
 Gap=     0.545 Goal=   None    Shift=    0.000
 RMSDP=5.36D-09 MaxDP=3.94D-08 DE=-6.82D-13 OVMax= 6.39D-08

 SCF Done:  E(RHF) =  -226.389296729     A.U. after   10 cycles
            NFock= 10  Conv=0.54D-08     -V/T= 2.0034
 KE= 2.256173212789D+02 PE=-7.678598185414D+02 EE= 1.985369984965D+02
 Leave Link  502 at Fri Apr 12 15:12:08 2019, MaxMem=   134217728 cpu:         0.3
 (Enter /cm/shared/c3ddb/gaussian/09.d01/g09/l701.exe)
 Compute integral first derivatives.
 ... and contract with generalized density number  0.
 Leave Link  701 at Fri Apr 12 15:12:09 2019, MaxMem=   134217728 cpu:         0.3
 (Enter /cm/shared/c3ddb/gaussian/09.d01/g09/l702.exe)
 L702 exits ... SP integral derivatives will be done elsewhere.
 Leave Link  702 at Fri Apr 12 15:12:09 2019, MaxMem=   134217728 cpu:         0.1
 (Enter /cm/shared/c3ddb/gaussian/09.d01/g09/l703.exe)
 Compute integral first derivatives, UseDBF=F ICtDFT=           0.
 Integral derivatives from FoFJK, PRISM(SPDF).
 Calling FoFJK, ICntrl=      2127 FMM=F ISym2X=0 I1Cent= 0 IOpClX= 0 NMat=1 NMatS=1 NMatT=0.
 FoFJK:  IHMeth= 1 ICntrl=    2127 DoSepK=F KAlg= 0 I1Cent=   0 FoldK=F
 IRaf=         0 NMat=   1 IRICut=       1 DoRegI=T DoRafI=F ISym2E= 0.
 FoFCou: FMM=F IPFlag=           0 FMFlag=      100000 FMFlg1=         800
         NFxFlg=           0 DoJE=F BraDBF=F KetDBF=F FulRan=T
         wScrn=  0.000000 ICntrl=    2127 IOpCl=  0 I1Cent=           0 NGrid=           0
         NMat0=    1 NMatS0=      1 NMatT0=    0 NMatD0=    1 NMtDS0=    0 NMtDT0=    0
 Symmetry not used in FoFCou.
 Leave Link  703 at Fri Apr 12 15:12:09 2019, MaxMem=   134217728 cpu:         0.2
 (Enter /cm/shared/c3ddb/gaussian/09.d01/g09/l716.exe)
 Dipole        = 1.10122052D+00-5.51743825D-01-5.50465199D-01
 -------------------------------------------------------------------
 Center     Atomic                   Forces (Hartrees/Bohr)
 Number     Number              X              Y              Z
 -------------------------------------------------------------------
      1        6           0.000227206    0.003371883   -0.001389771
      2        6          -0.000017628   -0.000047507    0.001801862
      3        1          -0.000029302    0.000022368    0.000041308
      4        1           0.000010544   -0.000005818    0.000032336
      5        1           0.000012701    0.000002294   -0.000008264
      6        8          -0.000750375   -0.005870164   -0.001312006
      7        8           0.004279510    0.005012661    0.000568929
      8        1          -0.003732656   -0.002485717    0.000265606
 -------------------------------------------------------------------
 Cartesian Forces:  Max     0.005870164 RMS     0.002210735
 Leave Link  716 at Fri Apr 12 15:12:09 2019, MaxMem=   134217728 cpu:         0.1
 (Enter /cm/shared/c3ddb/gaussian/09.d01/g09/l103.exe)

 GradGradGradGradGradGradGradGradGradGradGradGradGradGradGradGradGradGrad
 Berny optimization.
 Using GEDIIS/GDIIS optimizer.
 FormGI is forming the generalized inverse of G from B-inverse, IUseBI=4.
 Internal  Forces:  Max     0.008091254 RMS     0.001847922
 Search for a local minimum.
 Step number   3 out of a maximum of   32
 All quantities printed in internal units (Hartrees-Bohrs-Radians)
 RMS Force = .45623D-04 SwitMx=.10000D-02 MixMth= 2
 Mixed Optimization -- En-DIIS/RFO-DIIS
 Swapping is turned off.
 Update second derivatives using D2CorX and points    1    2    3
 DE= -9.92D-06 DEPred=-1.03D-05 R= 9.66D-01
 TightC=F SS=  1.41D+00  RLast= 9.31D-03 DXNew= 5.0454D-01 2.7941D-02
 Trust test= 9.66D-01 RLast= 9.31D-03 DXMaxT set to 3.00D-01
 ITU=  1  0  0
     Eigenvalues ---    0.02634   0.03280   0.03380   0.15741   0.16000
     Eigenvalues ---    0.16002   0.20316   0.21945   0.25718   0.37027
     Eigenvalues ---    0.37122   0.37249   0.43424   0.45485   0.52147
     Eigenvalues ---    0.645081000.000001000.000001000.000001000.00000
     Eigenvalues --- 1000.000001000.00000
 En-DIIS/RFO-DIIS IScMMF=        0 using points:     3    2    1
 RFO step:  Lambda=-2.47469323D-06.
 NNeg= 0 NP= 3 Switch=  2.50D-03 Rises=F DC=  1.33D-05 SmlDif=  1.00D-05
 RMS Error=  0.1380038689D-03 NUsed= 3 EDIIS=F
 DidBck=F Rises=F RFO-DIIS coefs:    0.81639    0.11190    0.07171
 Iteration  1 RMS(Cart)=  0.00068002 RMS(Int)=  0.00000039
 Iteration  2 RMS(Cart)=  0.00000035 RMS(Int)=  0.00000021
 Iteration  1 RMS(Cart)=  0.00000028 RMS(Int)=  0.00000011
 ITry= 1 IFail=0 DXMaxC= 1.63D-03 DCOld= 1.00D+10 DXMaxT= 3.00D-01 DXLimC= 3.00D+00 Rises=F
 Variable       Old X    -DE/DX   Delta X   Delta X   Delta X     New X
                                 (Linear)    (Quad)   (Total)
    R1        2.47517  -0.00003   0.00001  -0.00005  -0.00004   2.47513
    R2        2.02050   0.00001   0.00006  -0.00004   0.00002   2.02052
    R3        2.66514   0.00015  -0.00010   0.00040   0.00030   2.66544
    R4        2.02355   0.00001   0.00000   0.00002   0.00003   2.02357
    R5        2.02522  -0.00001  -0.00001   0.00000  -0.00002   2.02520
    R6        2.78215   0.00003  -0.00010   0.00026   0.00015   2.78230
    R7        1.84397   0.00001   0.00004  -0.00003   0.00002   1.84398
    A1        2.17968   0.00003  -0.00009   0.00023   0.00014   2.17982
    A2        2.10142   0.00003  -0.00006   0.00018   0.00012   2.10154
    A3        2.00207  -0.00005   0.00015  -0.00040  -0.00026   2.00182
    A4        2.10827   0.00000   0.00000  -0.00001  -0.00001   2.10825
    A5        2.11210   0.00001  -0.00008   0.00014   0.00006   2.11216
    A6        2.06220  -0.00001   0.00008  -0.00014  -0.00006   2.06214
    A7        1.86822   0.00002   0.00042  -0.00031   0.00011   1.86833
    A8        1.78674  -0.00007  -0.00019   0.00004  -0.00015   1.78659
    D1        0.04372  -0.00062  -0.00031   0.00008  -0.00023   0.04349
    D2       -3.13620  -0.00064  -0.00028  -0.00045  -0.00073  -3.13694
    D3       -3.10417   0.00068   0.00061   0.00092   0.00153  -3.10264
    D4       -0.00090   0.00065   0.00063   0.00039   0.00103   0.00013
    D5       -1.91986  -0.00249   0.00000   0.00000   0.00000  -1.91986
    D6        1.21605  -0.00132   0.00083   0.00076   0.00159   1.21764
    D7        1.04720   0.00809   0.00000   0.00000   0.00000   1.04720
         Item               Value     Threshold  Converged?
 Maximum Force            0.000153     0.000015     NO 
 RMS     Force            0.000046     0.000010     NO 
 Maximum Displacement     0.001635     0.000060     NO 
 RMS     Displacement     0.000680     0.000040     NO 
 Predicted change in Energy=-1.695419D-07
 Lowest energy point so far.  Saving SCF results.
 GradGradGradGradGradGradGradGradGradGradGradGradGradGradGradGradGradGrad

 Leave Link  103 at Fri Apr 12 15:12:09 2019, MaxMem=   134217728 cpu:         0.0
 (Enter /cm/shared/c3ddb/gaussian/09.d01/g09/l202.exe)
                          Input orientation:                          
 ---------------------------------------------------------------------
 Center     Atomic      Atomic             Coordinates (Angstroms)
 Number     Number       Type             X           Y           Z
 ---------------------------------------------------------------------
      1          6           0        0.728702    0.635087    0.032519
      2          6           0        1.375445   -0.502633   -0.020840
      3          1           0        1.189160    1.599618    0.062056
      4          1           0        2.445775   -0.526375    0.001620
      5          1           0        0.849532   -1.435875   -0.052447
      6          8           0       -0.681549    0.654547    0.049695
      7          8           0       -1.121600    1.194757   -1.247334
      8          1           0       -0.743677    0.554547   -1.879377
 ---------------------------------------------------------------------
                    Distance matrix (angstroms):
                    1          2          3          4          5
     1  C    0.000000
     2  C    1.309783   0.000000
     3  H    1.069211   2.112115   0.000000
     4  H    2.073232   1.070829   2.470340   0.000000
     5  H    2.076223   1.071692   3.056578   1.837962   0.000000
     6  O    1.410490   2.361199   2.095916   3.343208   2.593165
     7  O    2.318378   3.258935   2.686639   4.153113   3.497620
     8  H    2.414484   3.010393   2.932097   3.857350   3.136521
                    6          7          8
     6  O    0.000000
     7  O    1.472331   0.000000
     8  H    1.932660   0.975793   0.000000
 Symmetry turned off by external request.
 Stoichiometry    C2H4O2
 Framework group  C1[X(C2H4O2)]
 Deg. of freedom    18
 Full point group                 C1      NOp   1
 Rotational constants (GHZ):     25.9239380      4.9760992      4.8147227
 Leave Link  202 at Fri Apr 12 15:12:09 2019, MaxMem=   134217728 cpu:         0.0
 (Enter /cm/shared/c3ddb/gaussian/09.d01/g09/l301.exe)
 Standard basis: 3-21G (6D, 7F)
 Ernie: Thresh=  0.10000D-02 Tol=  0.10000D-05 Strict=F.
    44 basis functions,    72 primitive gaussians,    44 cartesian basis functions
    16 alpha electrons       16 beta electrons
       nuclear repulsion energy       117.3087877003 Hartrees.
 IExCor=    0 DFT=F Ex=HF Corr=None ExCW=0 ScaHFX=  1.000000
 ScaDFX=  1.000000  1.000000  1.000000  1.000000 ScalE2=  1.000000  1.000000
 IRadAn=      0 IRanWt=     -1 IRanGd=            0 ICorTp=0 IEmpDi=  4
 NAtoms=    8 NActive=    8 NUniq=    8 SFac= 1.00D+00 NAtFMM=   60 NAOKFM=F Big=F
 Integral buffers will be    131072 words long.
 Raffenetti 1 integral format.
 Two-electron integral symmetry is turned off.
 Leave Link  301 at Fri Apr 12 15:12:10 2019, MaxMem=   134217728 cpu:         0.3
 (Enter /cm/shared/c3ddb/gaussian/09.d01/g09/l302.exe)
 NPDir=0 NMtPBC=     1 NCelOv=     1 NCel=       1 NClECP=     1 NCelD=      1
         NCelK=      1 NCelE2=     1 NClLst=     1 CellRange=     0.0.
 One-electron integrals computed using PRISM.
 NBasis=    44 RedAO= T EigKep=  1.18D-02  NBF=    44
 NBsUse=    44 1.00D-06 EigRej= -1.00D+00 NBFU=    44
 Leave Link  302 at Fri Apr 12 15:12:10 2019, MaxMem=   134217728 cpu:         0.2
 (Enter /cm/shared/c3ddb/gaussian/09.d01/g09/l303.exe)
 DipDrv:  MaxL=1.
 Leave Link  303 at Fri Apr 12 15:12:10 2019, MaxMem=   134217728 cpu:         0.1
 (Enter /cm/shared/c3ddb/gaussian/09.d01/g09/l401.exe)
 Initial guess from the checkpoint file:  "TMP_CALCS/scangeom_S02_250_060.chk"
 B after Tr=     0.000094    0.000336   -0.000070
         Rot=    1.000000    0.000099   -0.000091    0.000035 Ang=   0.02 deg.
 Guess basis will be translated and rotated to current coordinates.
 JPrj=2 DoOrth=T DoCkMO=T.
 Leave Link  401 at Fri Apr 12 15:12:11 2019, MaxMem=   134217728 cpu:         0.3
 (Enter /cm/shared/c3ddb/gaussian/09.d01/g09/l502.exe)
 Closed shell SCF:
 Using DIIS extrapolation, IDIIS=  1040.
 Two-electron integral symmetry not used.
 Keep R1 ints in memory in canonical form, NReq=1327430.
 IVT=       24902 IEndB=       24902 NGot=   134217728 MDV=   133702282
 LenX=   133702282 LenY=   133699905
 Requested convergence on RMS density matrix=1.00D-08 within 128 cycles.
 Requested convergence on MAX density matrix=1.00D-06.
 Requested convergence on             energy=1.00D-06.
 No special actions if energy rises.
 FoFCou: FMM=F IPFlag=           0 FMFlag=           0 FMFlg1=           0
         NFxFlg=           0 DoJE=F BraDBF=F KetDBF=F FulRan=T
         wScrn=  0.000000 ICntrl=     600 IOpCl=  0 I1Cent=           0 NGrid=           0
         NMat0=    1 NMatS0=    990 NMatT0=    0 NMatD0=    1 NMtDS0=    0 NMtDT0=    0
 Symmetry not used in FoFCou.

 Cycle   1  Pass 1  IDiag  1:
 E= -226.389296476888    
 DIIS: error= 4.76D-05 at cycle   1 NSaved=   1.
 NSaved= 1 IEnMin= 1 EnMin= -226.389296476888     IErMin= 1 ErrMin= 4.76D-05
 ErrMax= 4.76D-05  0.00D+00 EMaxC= 1.00D-01 BMatC= 1.75D-07 BMatP= 1.75D-07
 IDIUse=1 WtCom= 1.00D+00 WtEn= 0.00D+00
 Coeff-Com:  0.100D+01
 Coeff:      0.100D+01
 Gap=     0.963 Goal=   None    Shift=    0.000
 RMSDP=1.06D-05 MaxDP=7.68D-05              OVMax= 1.69D-04

 Cycle   2  Pass 1  IDiag  1:
 E= -226.389296792159     Delta-E=       -0.000000315271 Rises=F Damp=F
 DIIS: error= 2.18D-05 at cycle   2 NSaved=   2.
 NSaved= 2 IEnMin= 2 EnMin= -226.389296792159     IErMin= 2 ErrMin= 2.18D-05
 ErrMax= 2.18D-05  0.00D+00 EMaxC= 1.00D-01 BMatC= 1.72D-08 BMatP= 1.75D-07
 IDIUse=1 WtCom= 1.00D+00 WtEn= 0.00D+00
 Coeff-Com: -0.260D+00 0.126D+01
 Coeff:     -0.260D+00 0.126D+01
 Gap=     0.545 Goal=   None    Shift=    0.000
 RMSDP=5.50D-06 MaxDP=4.02D-05 DE=-3.15D-07 OVMax= 1.21D-04

 Cycle   3  Pass 1  IDiag  1:
 E= -226.389296846997     Delta-E=       -0.000000054837 Rises=F Damp=F
 DIIS: error= 8.38D-06 at cycle   3 NSaved=   3.
 NSaved= 3 IEnMin= 3 EnMin= -226.389296846997     IErMin= 3 ErrMin= 8.38D-06
 ErrMax= 8.38D-06  0.00D+00 EMaxC= 1.00D-01 BMatC= 2.03D-09 BMatP= 1.72D-08
 IDIUse=1 WtCom= 1.00D+00 WtEn= 0.00D+00
 Coeff-Com: -0.479D-01-0.217D-01 0.107D+01
 Coeff:     -0.479D-01-0.217D-01 0.107D+01
 Gap=     0.545 Goal=   None    Shift=    0.000
 RMSDP=2.04D-06 MaxDP=1.40D-05 DE=-5.48D-08 OVMax= 4.37D-05

 Cycle   4  Pass 1  IDiag  1:
 E= -226.389296853093     Delta-E=       -0.000000006096 Rises=F Damp=F
 DIIS: error= 2.71D-06 at cycle   4 NSaved=   4.
 NSaved= 4 IEnMin= 4 EnMin= -226.389296853093     IErMin= 4 ErrMin= 2.71D-06
 ErrMax= 2.71D-06  0.00D+00 EMaxC= 1.00D-01 BMatC= 4.88D-10 BMatP= 2.03D-09
 IDIUse=1 WtCom= 1.00D+00 WtEn= 0.00D+00
 Coeff-Com:  0.352D-01-0.233D+00 0.271D+00 0.927D+00
 Coeff:      0.352D-01-0.233D+00 0.271D+00 0.927D+00
 Gap=     0.545 Goal=   None    Shift=    0.000
 RMSDP=9.29D-07 MaxDP=5.67D-06 DE=-6.10D-09 OVMax= 1.93D-05

 Cycle   5  Pass 1  IDiag  1:
 E= -226.389296854149     Delta-E=       -0.000000001057 Rises=F Damp=F
 DIIS: error= 7.82D-07 at cycle   5 NSaved=   5.
 NSaved= 5 IEnMin= 5 EnMin= -226.389296854149     IErMin= 5 ErrMin= 7.82D-07
 ErrMax= 7.82D-07  0.00D+00 EMaxC= 1.00D-01 BMatC= 3.16D-11 BMatP= 4.88D-10
 IDIUse=1 WtCom= 1.00D+00 WtEn= 0.00D+00
 Coeff-Com:  0.450D-02-0.271D-02-0.850D-01 0.955D-02 0.107D+01
 Coeff:      0.450D-02-0.271D-02-0.850D-01 0.955D-02 0.107D+01
 Gap=     0.545 Goal=   None    Shift=    0.000
 RMSDP=2.57D-07 MaxDP=1.40D-06 DE=-1.06D-09 OVMax= 4.75D-06

 Cycle   6  Pass 1  IDiag  1:
 E= -226.389296854237     Delta-E=       -0.000000000088 Rises=F Damp=F
 DIIS: error= 4.60D-07 at cycle   6 NSaved=   6.
 NSaved= 6 IEnMin= 6 EnMin= -226.389296854237     IErMin= 6 ErrMin= 4.60D-07
 ErrMax= 4.60D-07  0.00D+00 EMaxC= 1.00D-01 BMatC= 6.38D-12 BMatP= 3.16D-11
 IDIUse=1 WtCom= 1.00D+00 WtEn= 0.00D+00
 Coeff-Com: -0.430D-02 0.344D-01-0.571D-01-0.140D+00 0.219D+00 0.948D+00
 Coeff:     -0.430D-02 0.344D-01-0.571D-01-0.140D+00 0.219D+00 0.948D+00
 Gap=     0.545 Goal=   None    Shift=    0.000
 RMSDP=1.00D-07 MaxDP=7.21D-07 DE=-8.81D-11 OVMax= 1.77D-06

 Cycle   7  Pass 1  IDiag  1:
 E= -226.389296854253     Delta-E=       -0.000000000016 Rises=F Damp=F
 DIIS: error= 2.30D-07 at cycle   7 NSaved=   7.
 NSaved= 7 IEnMin= 7 EnMin= -226.389296854253     IErMin= 7 ErrMin= 2.30D-07
 ErrMax= 2.30D-07  0.00D+00 EMaxC= 1.00D-01 BMatC= 8.29D-13 BMatP= 6.38D-12
 IDIUse=1 WtCom= 1.00D+00 WtEn= 0.00D+00
 Coeff-Com:  0.145D-02-0.159D-01 0.402D-01 0.628D-01-0.256D+00-0.461D+00
 Coeff-Com:  0.163D+01
 Coeff:      0.145D-02-0.159D-01 0.402D-01 0.628D-01-0.256D+00-0.461D+00
 Coeff:      0.163D+01
 Gap=     0.545 Goal=   None    Shift=    0.000
 RMSDP=6.74D-08 MaxDP=5.63D-07 DE=-1.59D-11 OVMax= 1.43D-06

 Cycle   8  Pass 1  IDiag  1:
 E= -226.389296854258     Delta-E=       -0.000000000004 Rises=F Damp=F
 DIIS: error= 6.63D-08 at cycle   8 NSaved=   8.
 NSaved= 8 IEnMin= 8 EnMin= -226.389296854258     IErMin= 8 ErrMin= 6.63D-08
 ErrMax= 6.63D-08  0.00D+00 EMaxC= 1.00D-01 BMatC= 7.67D-14 BMatP= 8.29D-13
 IDIUse=1 WtCom= 1.00D+00 WtEn= 0.00D+00
 Coeff-Com: -0.418D-04 0.188D-02-0.765D-02-0.745D-02 0.592D-01 0.626D-01
 Coeff-Com: -0.529D+00 0.142D+01
 Coeff:     -0.418D-04 0.188D-02-0.765D-02-0.745D-02 0.592D-01 0.626D-01
 Coeff:     -0.529D+00 0.142D+01
 Gap=     0.545 Goal=   None    Shift=    0.000
 RMSDP=2.17D-08 MaxDP=1.70D-07 DE=-4.32D-12 OVMax= 4.18D-07

 Cycle   9  Pass 1  IDiag  1:
 E= -226.389296854258     Delta-E=        0.000000000000 Rises=F Damp=F
 DIIS: error= 2.40D-08 at cycle   9 NSaved=   9.
 NSaved= 9 IEnMin= 9 EnMin= -226.389296854258     IErMin= 9 ErrMin= 2.40D-08
 ErrMax= 2.40D-08  0.00D+00 EMaxC= 1.00D-01 BMatC= 1.26D-14 BMatP= 7.67D-14
[...]
 RMSDP=1.01D-06 MaxDP=5.17D-06              OVMax= 9.74D-06

 Cycle   2  Pass 1  IDiag  1:
 E= -226.389296873110     Delta-E=       -0.000000001870 Rises=F Damp=F
 DIIS: error= 1.57D-06 at cycle   2 NSaved=   2.
 NSaved= 2 IEnMin= 2 EnMin= -226.389296873110     IErMin= 2 ErrMin= 1.57D-06
 ErrMax= 1.57D-06  0.00D+00 EMaxC= 1.00D-01 BMatC= 1.17D-10 BMatP= 1.55D-09
 IDIUse=1 WtCom= 1.00D+00 WtEn= 0.00D+00
 Coeff-Com: -0.118D+00 0.112D+01
 Coeff:     -0.118D+00 0.112D+01
 Gap=     0.545 Goal=   None    Shift=    0.000
 RMSDP=4.14D-07 MaxDP=1.84D-06 DE=-1.87D-09 OVMax= 5.06D-06

 Cycle   3  Pass 1  IDiag  1:
 E= -226.389296873391     Delta-E=       -0.000000000281 Rises=F Damp=F
 DIIS: error= 9.32D-07 at cycle   3 NSaved=   3.
 NSaved= 3 IEnMin= 3 EnMin= -226.389296873391     IErMin= 3 ErrMin= 9.32D-07
 ErrMax= 9.32D-07  0.00D+00 EMaxC= 1.00D-01 BMatC= 2.96D-11 BMatP= 1.17D-10
 IDIUse=1 WtCom= 1.00D+00 WtEn= 0.00D+00
 Coeff-Com: -0.690D-01 0.240D+00 0.829D+00
 Coeff:     -0.690D-01 0.240D+00 0.829D+00
 Gap=     0.545 Goal=   None    Shift=    0.000
 RMSDP=1.47D-07 MaxDP=9.57D-07 DE=-2.81D-10 OVMax= 2.87D-06

 Cycle   4  Pass 1  IDiag  1:
 E= -226.389296873446     Delta-E=       -0.000000000055 Rises=F Damp=F
 DIIS: error= 4.09D-07 at cycle   4 NSaved=   4.
 NSaved= 4 IEnMin= 4 EnMin= -226.389296873446     IErMin= 4 ErrMin= 4.09D-07
 ErrMax= 4.09D-07  0.00D+00 EMaxC= 1.00D-01 BMatC= 7.23D-12 BMatP= 2.96D-11
 IDIUse=1 WtCom= 1.00D+00 WtEn= 0.00D+00
 Coeff-Com:  0.297D-01-0.305D+00 0.422D-01 0.123D+01
 Coeff:      0.297D-01-0.305D+00 0.422D-01 0.123D+01
 Gap=     0.545 Goal=   None    Shift=    0.000
 RMSDP=1.40D-07 MaxDP=9.31D-07 DE=-5.53D-11 OVMax= 2.10D-06

 Cycle   5  Pass 1  IDiag  1:
 E= -226.389296873470     Delta-E=       -0.000000000024 Rises=F Damp=F
 DIIS: error= 1.97D-07 at cycle   5 NSaved=   5.
 NSaved= 5 IEnMin= 5 EnMin= -226.389296873470     IErMin= 5 ErrMin= 1.97D-07
 ErrMax= 1.97D-07  0.00D+00 EMaxC= 1.00D-01 BMatC= 6.05D-13 BMatP= 7.23D-12
 IDIUse=1 WtCom= 1.00D+00 WtEn= 0.00D+00
 Coeff-Com: -0.739D-02 0.132D+00-0.110D+00-0.622D+00 0.161D+01
 Coeff:     -0.739D-02 0.132D+00-0.110D+00-0.622D+00 0.161D+01
 Gap=     0.545 Goal=   None    Shift=    0.000
 RMSDP=5.66D-08 MaxDP=4.34D-07 DE=-2.41D-11 OVMax= 1.18D-06

 Cycle   6  Pass 1  IDiag  1:
 E= -226.389296873473     Delta-E=       -0.000000000003 Rises=F Damp=F
 DIIS: error= 7.26D-08 at cycle   6 NSaved=   6.
 NSaved= 6 IEnMin= 6 EnMin= -226.389296873473     IErMin= 6 ErrMin= 7.26D-08
 ErrMax= 7.26D-08  0.00D+00 EMaxC= 1.00D-01 BMatC= 6.89D-14 BMatP= 6.05D-13
 IDIUse=1 WtCom= 1.00D+00 WtEn= 0.00D+00
 Coeff-Com: -0.473D-03-0.823D-02 0.176D-01 0.712D-01-0.444D+00 0.136D+01
 Coeff:     -0.473D-03-0.823D-02 0.176D-01 0.712D-01-0.444D+00 0.136D+01
 Gap=     0.545 Goal=   None    Shift=    0.000
 RMSDP=1.89D-08 MaxDP=1.18D-07 DE=-2.61D-12 OVMax= 4.50D-07

 Cycle   7  Pass 1  IDiag  1:
 E= -226.389296873473     Delta-E=        0.000000000000 Rises=F Damp=F
 DIIS: error= 2.88D-08 at cycle   7 NSaved=   7.
 NSaved= 7 IEnMin= 7 EnMin= -226.389296873473     IErMin= 7 ErrMin= 2.88D-08
 ErrMax= 2.88D-08  0.00D+00 EMaxC= 1.00D-01 BMatC= 1.38D-14 BMatP= 6.89D-14
 IDIUse=1 WtCom= 1.00D+00 WtEn= 0.00D+00
 Coeff-Com:  0.167D-02-0.318D-01 0.256D-01 0.161D+00-0.448D+00 0.216D+00
 Coeff-Com:  0.108D+01
 Coeff:      0.167D-02-0.318D-01 0.256D-01 0.161D+00-0.448D+00 0.216D+00
 Coeff:      0.108D+01
 Gap=     0.545 Goal=   None    Shift=    0.000
 RMSDP=8.61D-09 MaxDP=4.54D-08 DE=-3.41D-13 OVMax= 2.08D-07

 SCF Done:  E(RHF) =  -226.389296873     A.U. after    7 cycles
            NFock=  7  Conv=0.86D-08     -V/T= 2.0034
 KE= 2.256168181371D+02 PE=-7.678447865473D+02 EE= 1.985300230255D+02
 Leave Link  502 at Fri Apr 12 15:12:14 2019, MaxMem=   134217728 cpu:         0.2
 (Enter /cm/shared/c3ddb/gaussian/09.d01/g09/l701.exe)
 Compute integral first derivatives.
 ... and contract with generalized density number  0.
 Leave Link  701 at Fri Apr 12 15:12:14 2019, MaxMem=   134217728 cpu:         0.1
 (Enter /cm/shared/c3ddb/gaussian/09.d01/g09/l702.exe)
 L702 exits ... SP integral derivatives will be done elsewhere.
 Leave Link  702 at Fri Apr 12 15:12:15 2019, MaxMem=   134217728 cpu:         0.0
 (Enter /cm/shared/c3ddb/gaussian/09.d01/g09/l703.exe)
 Compute integral first derivatives, UseDBF=F ICtDFT=           0.
 Integral derivatives from FoFJK, PRISM(SPDF).
 Calling FoFJK, ICntrl=      2127 FMM=F ISym2X=0 I1Cent= 0 IOpClX= 0 NMat=1 NMatS=1 NMatT=0.
 FoFJK:  IHMeth= 1 ICntrl=    2127 DoSepK=F KAlg= 0 I1Cent=   0 FoldK=F
 IRaf=         0 NMat=   1 IRICut=       1 DoRegI=T DoRafI=F ISym2E= 0.
 FoFCou: FMM=F IPFlag=           0 FMFlag=      100000 FMFlg1=         800
         NFxFlg=           0 DoJE=F BraDBF=F KetDBF=F FulRan=T
         wScrn=  0.000000 ICntrl=    2127 IOpCl=  0 I1Cent=           0 NGrid=           0
         NMat0=    1 NMatS0=      1 NMatT0=    0 NMatD0=    1 NMtDS0=    0 NMtDT0=    0
 Symmetry not used in FoFCou.
 Leave Link  703 at Fri Apr 12 15:12:15 2019, MaxMem=   134217728 cpu:         0.2
 (Enter /cm/shared/c3ddb/gaussian/09.d01/g09/l716.exe)
 Dipole        = 1.10137906D+00-5.52328639D-01-5.50020351D-01
 -------------------------------------------------------------------
 Center     Atomic                   Forces (Hartrees/Bohr)
 Number     Number              X              Y              Z
 -------------------------------------------------------------------
      1        6           0.000033057    0.003453038   -0.001257072
      2        6           0.000023598   -0.000074605    0.001789209
      3        1          -0.000001062   -0.000000856   -0.000000221
      4        1           0.000000156   -0.000000632   -0.000000024
      5        1          -0.000000815    0.000000766   -0.000000452
      6        8          -0.000627278   -0.005879725   -0.001380215
      7        8           0.004324076    0.004961212    0.000601657
      8        1          -0.003751732   -0.002459197    0.000247118
 -------------------------------------------------------------------
 Cartesian Forces:  Max     0.005879725 RMS     0.002212081
 Leave Link  716 at Fri Apr 12 15:12:15 2019, MaxMem=   134217728 cpu:         0.0
 (Enter /cm/shared/c3ddb/gaussian/09.d01/g09/l103.exe)

 GradGradGradGradGradGradGradGradGradGradGradGradGradGradGradGradGradGrad
 Berny optimization.
 Using GEDIIS/GDIIS optimizer.
 FormGI is forming the generalized inverse of G from B-inverse, IUseBI=4.
 Internal  Forces:  Max     0.008092484 RMS     0.001845190
 Search for a local minimum.
 Step number   6 out of a maximum of   32
 All quantities printed in internal units (Hartrees-Bohrs-Radians)
 RMS Force = .11690D-05 SwitMx=.10000D-02 MixMth= 2
 Mixed Optimization -- En-DIIS/RFO-DIIS
 Swapping is turned off.
 Update second derivatives using D2CorX and points    1    2    3    4    5
                                                      6
 DE= -2.15D-09 DEPred=-2.19D-09 R= 9.80D-01
 Trust test= 9.80D-01 RLast= 1.74D-04 DXMaxT set to 3.00D-01
 ITU=  0  0  0  1  0  0
     Eigenvalues ---    0.02883   0.03483   0.05077   0.13248   0.15985
     Eigenvalues ---    0.16035   0.21487   0.23033   0.27092   0.36397
     Eigenvalues ---    0.37047   0.37141   0.37967   0.46352   0.52143
     Eigenvalues ---    0.651151000.000001000.000001000.000001000.00000
     Eigenvalues --- 1000.000001000.00000
 En-DIIS/RFO-DIIS IScMMF=        0 using points:     6    5    4    3    2
 RFO step:  Lambda=-2.36872046D-06.
 NNeg= 0 NP= 5 Switch=  2.50D-03 Rises=F DC=  9.92D-06 SmlDif=  1.00D-05
 RMS Error=  0.5839060461D-04 NUsed= 5 EDIIS=F
 DidBck=F Rises=F RFO-DIIS coefs:    1.00781   -0.00349   -0.00052   -0.00315   -0.00064
 Iteration  1 RMS(Cart)=  0.00000863 RMS(Int)=  0.00000031
 Iteration  2 RMS(Cart)=  0.00000000 RMS(Int)=  0.00000031
 Iteration  1 RMS(Cart)=  0.00000043 RMS(Int)=  0.00000017
 ITry= 1 IFail=0 DXMaxC= 1.96D-05 DCOld= 1.00D+10 DXMaxT= 3.00D-01 DXLimC= 3.00D+00 Rises=F
 Variable       Old X    -DE/DX   Delta X   Delta X   Delta X     New X
                                 (Linear)    (Quad)   (Total)
    R1        2.47508   0.00000   0.00000   0.00000   0.00000   2.47509
    R2        2.02051   0.00000   0.00000   0.00000   0.00000   2.02050
    R3        2.66559   0.00000   0.00000   0.00000   0.00001   2.66560
    R4        2.02358   0.00000   0.00000   0.00000   0.00000   2.02358
    R5        2.02520   0.00000   0.00000   0.00000   0.00000   2.02520
    R6        2.78229   0.00000   0.00000  -0.00001   0.00000   2.78228
    R7        1.84398   0.00000   0.00000   0.00000   0.00000   1.84398
    A1        2.17998   0.00001   0.00000   0.00001   0.00001   2.17999
    A2        2.10145   0.00000   0.00000   0.00000   0.00000   2.10145
    A3        2.00174   0.00000   0.00000   0.00000   0.00000   2.00173
    A4        2.10825   0.00000   0.00000   0.00001   0.00001   2.10826
    A5        2.11221   0.00000   0.00000  -0.00001  -0.00001   2.11220
    A6        2.06211   0.00000   0.00000   0.00000   0.00000   2.06211
    A7        1.86829   0.00000   0.00000   0.00000   0.00000   1.86829
    A8        1.78647   0.00000   0.00000   0.00000   0.00001   1.78648
    D1        0.04336  -0.00061   0.00000   0.00000   0.00000   0.04336
    D2       -3.13675  -0.00061   0.00000   0.00001   0.00001  -3.13674
    D3       -3.10311   0.00061   0.00000   0.00000   0.00000  -3.10311
    D4       -0.00004   0.00061   0.00000   0.00001   0.00001  -0.00003
    D5       -1.91986  -0.00246   0.00000   0.00000   0.00000  -1.91986
    D6        1.21733  -0.00136   0.00000   0.00000   0.00000   1.21733
    D7        1.04720   0.00809   0.00000   0.00000   0.00000   1.04720
         Item               Value     Threshold  Converged?
 Maximum Force            0.000003     0.000015     YES
 RMS     Force            0.000001     0.000010     YES
 Maximum Displacement     0.000020     0.000060     YES
 RMS     Displacement     0.000009     0.000040     YES
 Predicted change in Energy=-7.381557D-11
 Optimization completed.
    -- Stationary point found.
                           ----------------------------
                           !   Optimized Parameters   !
                           ! (Angstroms and Degrees)  !
 --------------------------                            --------------------------
 ! Name  Definition              Value          Derivative Info.                !
 --------------------------------------------------------------------------------
 ! R1    R(1,2)                  1.3098         -DE/DX =    0.0                 !
 ! R2    R(1,3)                  1.0692         -DE/DX =    0.0                 !
 ! R3    R(1,6)                  1.4106         -DE/DX =    0.0                 !
 ! R4    R(2,4)                  1.0708         -DE/DX =    0.0                 !
 ! R5    R(2,5)                  1.0717         -DE/DX =    0.0                 !
 ! R6    R(6,7)                  1.4723         -DE/DX =    0.0                 !
 ! R7    R(7,8)                  0.9758         -DE/DX =    0.0                 !
 ! A1    A(2,1,3)              124.9039         -DE/DX =    0.0                 !
 ! A2    A(2,1,6)              120.4044         -DE/DX =    0.0                 !
 ! A3    A(3,1,6)              114.6911         -DE/DX =    0.0                 !
 ! A4    A(1,2,4)              120.7936         -DE/DX =    0.0                 !
 ! A5    A(1,2,5)              121.0208         -DE/DX =    0.0                 !
 ! A6    A(4,2,5)              118.1501         -DE/DX =    0.0                 !
 ! A7    A(1,6,7)              107.045          -DE/DX =    0.0                 !
 ! A8    A(6,7,8)              102.3571         -DE/DX =    0.0                 !
 ! D1    D(3,1,2,4)              2.4842         -DE/DX =   -0.0006              !
 ! D2    D(3,1,2,5)           -179.7226         -DE/DX =   -0.0006              !
 ! D3    D(6,1,2,4)           -177.7954         -DE/DX =    0.0006              !
 ! D4    D(6,1,2,5)             -0.0022         -DE/DX =    0.0006              !
 ! D5    D(2,1,6,7)           -110.0            -DE/DX =   -0.0025              !
 ! D6    D(3,1,6,7)             69.7476         -DE/DX =   -0.0014              !
 ! D7    D(1,6,7,8)             60.0            -DE/DX =    0.0081              !
 --------------------------------------------------------------------------------
 Lowest energy point so far.  Saving SCF results.
 GradGradGradGradGradGradGradGradGradGradGradGradGradGradGradGradGradGrad

 Largest change from initial coordinates is atom    8       0.015 Angstoms.
 Leave Link  103 at Fri Apr 12 15:12:15 2019, MaxMem=   134217728 cpu:         0.0
 (Enter /cm/shared/c3ddb/gaussian/09.d01/g09/l202.exe)
                          Input orientation:                          
 ---------------------------------------------------------------------
 Center     Atomic      Atomic             Coordinates (Angstroms)
 Number     Number       Type             X           Y           Z
 ---------------------------------------------------------------------
      1          6           0        0.728709    0.635084    0.032632
      2          6           0        1.375400   -0.502634   -0.020765
      3          1           0        1.189036    1.599676    0.061985
      4          1           0        2.445742   -0.526384    0.001344
      5          1           0        0.849507   -1.435885   -0.052343
      6          8           0       -0.681625    0.654475    0.049687
      7          8           0       -1.121524    1.194774   -1.247346
      8          1           0       -0.743456    0.554569   -1.879304
 ---------------------------------------------------------------------
                    Distance matrix (angstroms):
                    1          2          3          4          5
     1  C    0.000000
     2  C    1.309757   0.000000
     3  H    1.069206   2.112176   0.000000
     4  H    2.073208   1.070833   2.470449   0.000000
     5  H    2.076229   1.071690   3.056630   1.837945   0.000000
     6  O    1.410570   2.361189   2.095931   3.343230   2.593141
     7  O    2.318396   3.258885   2.686444   4.152951   3.497623
     8  H    2.414384   3.010216   2.931787   3.856978   3.136435
                    6          7          8
     6  O    0.000000
     7  O    1.472322   0.000000
     8  H    1.932566   0.975791   0.000000
 Symmetry turned off by external request.
 Stoichiometry    C2H4O2
 Framework group  C1[X(C2H4O2)]
 Deg. of freedom    18
 Full point group                 C1      NOp   1
 Rotational constants (GHZ):     25.9222046      4.9761897      4.8148371
 Leave Link  202 at Fri Apr 12 15:12:15 2019, MaxMem=   134217728 cpu:         0.0
 (Enter /cm/shared/c3ddb/gaussian/09.d01/g09/l601.exe)
 Copying SCF densities to generalized density rwf, IOpCl= 0 IROHF=0.

 **********************************************************************

            Population analysis using the SCF density.

 **********************************************************************

 Alpha  occ. eigenvalues --  -20.53196 -20.52232 -11.24829 -11.19010  -1.47147
 Alpha  occ. eigenvalues --   -1.23405  -1.04479  -0.80589  -0.72521  -0.65886
 Alpha  occ. eigenvalues --   -0.63265  -0.59986  -0.56131  -0.50391  -0.45788
 Alpha  occ. eigenvalues --   -0.39543
 Alpha virt. eigenvalues --    0.14962   0.25786   0.27413   0.30383   0.31314
 Alpha virt. eigenvalues --    0.35739   0.48673   0.55673   0.88179   0.96531
 Alpha virt. eigenvalues --    0.98051   1.05757   1.09014   1.10576   1.24146
 Alpha virt. eigenvalues --    1.31110   1.36196   1.56887   1.58622   1.78316
 Alpha virt. eigenvalues --    1.79824   1.84840   1.97649   2.05886   2.08778
 Alpha virt. eigenvalues --    2.18820   3.06795   3.47393
          Condensed to atoms (all electrons):
               1          2          3          4          5          6
     1  C    4.937555   0.475994   0.375619  -0.040356  -0.050820   0.238415
     2  C    0.475994   5.353906  -0.061848   0.371822   0.387197  -0.062035
     3  H    0.375619  -0.061848   0.469641   0.001241   0.002214  -0.038077
     4  H   -0.040356   0.371822   0.001241   0.445951  -0.014533   0.001505
     5  H   -0.050820   0.387197   0.002214  -0.014533   0.428582  -0.000109
     6  O    0.238415  -0.062035  -0.038077   0.001505  -0.000109   8.148169
     7  O   -0.035876  -0.000859   0.002199  -0.000031  -0.000011   0.122824
     8  H    0.000354   0.003007  -0.000193  -0.000029   0.000233  -0.026560
               7          8
     1  C   -0.035876   0.000354
     2  C   -0.000859   0.003007
     3  H    0.002199  -0.000193
     4  H   -0.000031  -0.000029
     5  H   -0.000011   0.000233
     6  O    0.122824  -0.026560
     7  O    8.054119   0.235375
     8  H    0.235375   0.388754
 Mulliken charges:
               1
     1  C    0.099113
     2  C   -0.467184
     3  H    0.249205
     4  H    0.234430
     5  H    0.247247
     6  O   -0.384131
     7  O   -0.377740
     8  H    0.399060
 Sum of Mulliken charges =   0.00000
 Mulliken charges with hydrogens summed into heavy atoms:
               1
     1  C    0.348318
     2  C    0.014493
     6  O   -0.384131
     7  O    0.021320
 Electronic spatial extent (au):  <R**2>=            327.0781
 Charge=              0.0000 electrons
 Dipole moment (field-independent basis, Debye):
    X=              2.7994    Y=             -1.4039    Z=             -1.3980  Tot=              3.4296
 Quadrupole moment (field-independent basis, Debye-Ang):
   XX=            -24.4323   YY=            -24.2601   ZZ=            -21.4518
   XY=              3.0204   XZ=              0.2725   YZ=              1.0828
 Traceless Quadrupole moment (field-independent basis, Debye-Ang):
   XX=             -1.0509   YY=             -0.8787   ZZ=              1.9295
   XY=              3.0204   XZ=              0.2725   YZ=              1.0828
 Octapole moment (field-independent basis, Debye-Ang**2):
  XXX=             -3.6620  YYY=            -34.5824  ZZZ=             12.0295  XYY=              1.5067
  XXY=            -13.8208  XXZ=              8.8333  XZZ=             -7.9778  YZZ=            -10.5278
  YYZ=             10.2502  XYZ=             -1.8157
 Hexadecapole moment (field-independent basis, Debye-Ang**3):
 XXXX=           -173.5574 YYYY=           -118.2493 ZZZZ=            -58.3580 XXXY=             36.6956
 XXXZ=            -26.5559 YYYX=             41.5406 YYYZ=             29.4967 ZZZX=            -17.5119
 ZZZY=             20.8652 XXYY=            -52.6654 XXZZ=            -47.9610 YYZZ=            -37.0877
 XXYZ=             11.3182 YYXZ=            -11.4811 ZZXY=             13.2106
 N-N= 1.173086485113D+02 E-N=-7.678447867972D+02  KE= 2.256168181371D+02
 No NMR shielding tensors so no spin-rotation constants.
 Leave Link  601 at Fri Apr 12 15:12:15 2019, MaxMem=   134217728 cpu:         0.1
 (Enter /cm/shared/c3ddb/gaussian/09.d01/g09/l9999.exe)
 1\1\GINC-NODE029\FOpt\RHF\3-21G\C2H4O2\MATTSJ\12-Apr-2019\0\\#p hf 3-2
 1g scf=tight NoSymmetry guess=read opt=(tight,modredundant)\\Geometry 
 optimization at the 2D-PES\\0,1\C,0.7287086279,0.6350837157,0.03263249
 4\C,1.3754002731,-0.5026343272,-0.0207645348\H,1.1890359391,1.59967600
 72,0.061984605\H,2.4457417904,-0.5263843804,0.0013444265\H,0.849506857
 3,-1.4358854814,-0.0523428397\O,-0.6816245069,0.6544745668,0.049687112
 6\O,-1.1215241556,1.1947744269,-1.2473464988\H,-0.7434558253,0.5545694
 725,-1.8793037648\\Version=AS64L-G09RevD.01\HF=-226.3892969\RMSD=8.607
 e-09\RMSF=2.212e-03\Dipole=1.1013791,-0.5523286,-0.5500204\Quadrupole=
 -0.7812886,-0.6532823,1.4345709,2.2456162,0.2025935,0.8050611\PG=C01 [
 X(C2H4O2)]\\@


 Everywhere is walking distance if you have the time.
                                    -- Steven Wright
 Job cpu time:       0 days  0 hours  0 minutes 14.3 seconds.
 File lengths (MBytes):  RWF=      5 Int=      0 D2E=      0 Chk=      1 Scr=      1
 Normal termination of Gaussian 09 at Fri Apr 12 15:12:15 2019.
