 Entering Gaussian System, Link 0=/cm/shared/c3ddb/gaussian/09.d01/g09/g09
 Initial command:
 /cm/shared/c3ddb/gaussian/09.d01/g09/l1.exe "/scratch/users/mattsj/g09/S02-7952157/Gau-43585.inp" -scrdir="/scratch/users/mattsj/g09/S02-7952157/"
 Entering Link 1 = /cm/shared/c3ddb/gaussian/09.d01/g09/l1.exe PID=     43586.
  
 Copyright (c) 1988,1990,1992,1993,1995,1998,2003,2009,2013,
            Gaussian, Inc.  All Rights Reserved.
  
 This is part of the Gaussian(R) 09 program.  It is based on
 the Gaussian(R) 03 system (copyright 2003, Gaussian, Inc.),
 the Gaussian(R) 98 system (copyright 1998, Gaussian, Inc.),
 the Gaussian(R) 94 system (copyright 1995, Gaussian, Inc.),
 the Gaussian 92(TM) system (copyright 1992, Gaussian, Inc.),
 the Gaussian 90(TM) system (copyright 1990, Gaussian, Inc.),
 the Gaussian 88(TM) system (copyright 1988, Gaussian, Inc.),
 the Gaussian 86(TM) system (copyright 1986, Carnegie Mellon
 University), and the Gaussian 82(TM) system (copyright 1983,
 Carnegie Mellon University). Gaussian is a federally registered
 trademark of Gaussian, Inc.
  
 This software contains proprietary and confidential information,
 including trade secrets, belonging to Gaussian, Inc.
  
 This software is provided under written license and may be
 used, copied, transmitted, or stored only in accord with that
 written license.
  
 The following legend is applicable only to US Government
 contracts under FAR:
  
                    RESTRICTED RIGHTS LEGEND
  
 Use, reproduction and disclosure by the US Government is
 subject to restrictions as set forth in subparagraphs (a)
 and (c) of the Commercial Computer Software - Restricted
 Rights clause in FAR 52.227-19.
  
 Gaussian, Inc.
 340 Quinnipiac St., Bldg. 40, Wallingford CT 06492
  
  
 ---------------------------------------------------------------
 Warning -- This program may not be used in any manner that
 competes with the business of Gaussian, Inc. or will provide
 assistance to any competitor of Gaussian, Inc.  The licensee
 of this program is prohibited from giving any competitor of
 Gaussian, Inc. access to this program.  By using this program,
 the user acknowledges that Gaussian, Inc. is engaged in the
 business of creating and licensing software in the field of
 computational chemistry and represents and warrants to the
 licensee that it is not a competitor of Gaussian, Inc. and that
 it will not use this program in any manner prohibited above.
 ---------------------------------------------------------------
  

 Cite this work as:
 Gaussian 09, Revision D.01,
 M. J. Frisch, G. W. Trucks, H. B. Schlegel, G. E. Scuseria, 
 M. A. Robb, J. R. Cheeseman, G. Scalmani, V. Barone, B. Mennucci, 
 G. A. Petersson, H. Nakatsuji, M. Caricato, X. Li, H. P. Hratchian, 
 A. F. Izmaylov, J. Bloino, G. Zheng, J. L. Sonnenberg, M. Hada, 
 M. Ehara, K. Toyota, R. Fukuda, J. Hasegawa, M. Ishida, T. Nakajima, 
 Y. Honda, O. Kitao, H. Nakai, T. Vreven, J. A. Montgomery, Jr., 
 J. E. Peralta, F. Ogliaro, M. Bearpark, J. J. Heyd, E. Brothers, 
 K. N. Kudin, V. N. Staroverov, T. Keith, R. Kobayashi, J. Normand, 
 K. Raghavachari, A. Rendell, J. C. Burant, S. S. Iyengar, J. Tomasi, 
 M. Cossi, N. Rega, J. M. Millam, M. Klene, J. E. Knox, J. B. Cross, 
 V. Bakken, C. Adamo, J. Jaramillo, R. Gomperts, R. E. Stratmann, 
 O. Yazyev, A. J. Austin, R. Cammi, C. Pomelli, J. W. Ochterski, 
 R. L. Martin, K. Morokuma, V. G. Zakrzewski, G. A. Voth, 
 P. Salvador, J. J. Dannenberg, S. Dapprich, A. D. Daniels, 
 O. Farkas, J. B. Foresman, J. V. Ortiz, J. Cioslowski, 
 and D. J. Fox, Gaussian, Inc., Wallingford CT, 2013.
 
 ******************************************
 Gaussian 09:  AS64L-G09RevD.01 24-Apr-2013
                12-Apr-2019 
 ******************************************
 %nproc=1
 Will use up to    1 processors via shared memory.
 %mem=1GB
 %chk=TMP_CALCS/scangeom_S02_140_170.chk
 --------------------------------------------------------------------
 #p hf 3-21g scf=tight NoSymmetry guess=read opt=(tight,modredundant)
 --------------------------------------------------------------------
 1/7=10,18=120,19=15,38=1/1,3;
 2/9=110,12=2,15=1,17=6,18=5,40=1/2;
 3/5=5,11=9,16=1,25=1,30=1,71=1,116=-2/1,2,3;
 4/5=1/1;
 5/5=2,32=2,38=6/2;
 6/7=2,8=2,9=2,10=2,28=1/1;
 7/30=1/1,2,3,16;
 1/7=10,18=20,19=15/3(2);
 2/9=110,15=1/2;
 99//99;
 2/9=110,15=1/2;
 3/5=5,11=9,16=1,25=1,30=1,71=1/1,2,3;
 4/5=5,16=3,69=1/1;
 5/5=2,32=2,38=5/2;
 7/30=1/1,2,3,16;
 1/7=10,18=20,19=15/3(-5);
 2/9=110,15=1/2;
 6/7=2,8=2,9=2,10=2,19=2,28=1/1;
 99/9=1/99;
 Leave Link    1 at Fri Apr 12 16:01:10 2019, MaxMem=   134217728 cpu:         0.1
 (Enter /cm/shared/c3ddb/gaussian/09.d01/g09/l101.exe)
 -----------------------------------
 Geometry optimization at the 2D-PES
 -----------------------------------
 Symbolic Z-matrix:
 Charge =  0 Multiplicity = 1
 C                     0.72427   0.63436   0.05437 
 C                     1.36762  -0.50426   0.00313 
 H                     1.18159   1.59787   0.12016 
 H                     2.43765  -0.52347  -0.01557 
 H                     0.84294  -1.4367   -0.03856 
 O                    -0.67282   0.6704   -0.02107 
 O                    -1.09189   1.69479   0.95052 
 H                    -2.03042   1.76155   0.70781 
 
 The following ModRedundant input section has been read:
 D       2       1       6       7 F                                           
 D       1       6       7       8 F                                           
 
 NAtoms=      8 NQM=        8 NQMF=       0 NMMI=      0 NMMIF=      0
                NMic=       0 NMicF=      0.
                    Isotopes and Nuclear Properties:
 (Nuclear quadrupole moments (NQMom) in fm**2, nuclear magnetic moments (NMagM)
  in nuclear magnetons)

  Atom         1           2           3           4           5           6           7           8
 IAtWgt=          12          12           1           1           1          16          16           1
 AtmWgt=  12.0000000  12.0000000   1.0078250   1.0078250   1.0078250  15.9949146  15.9949146   1.0078250
 NucSpn=           0           0           1           1           1           0           0           1
 AtZEff=   0.0000000   0.0000000   0.0000000   0.0000000   0.0000000   0.0000000   0.0000000   0.0000000
 NQMom=    0.0000000   0.0000000   0.0000000   0.0000000   0.0000000   0.0000000   0.0000000   0.0000000
 NMagM=    0.0000000   0.0000000   2.7928460   2.7928460   2.7928460   0.0000000   0.0000000   2.7928460
 AtZNuc=   6.0000000   6.0000000   1.0000000   1.0000000   1.0000000   8.0000000   8.0000000   1.0000000
 Leave Link  101 at Fri Apr 12 16:01:11 2019, MaxMem=   134217728 cpu:         0.3
 (Enter /cm/shared/c3ddb/gaussian/09.d01/g09/l103.exe)

 GradGradGradGradGradGradGradGradGradGradGradGradGradGradGradGradGradGrad
 Berny optimization.
 Initialization pass.
                           ----------------------------
                           !    Initial Parameters    !
                           ! (Angstroms and Degrees)  !
 --------------------------                            --------------------------
 ! Name  Definition              Value          Derivative Info.                !
 --------------------------------------------------------------------------------
 ! R1    R(1,2)                  1.3088         estimate D2E/DX2                !
 ! R2    R(1,3)                  1.0686         estimate D2E/DX2                !
 ! R3    R(1,6)                  1.3996         estimate D2E/DX2                !
 ! R4    R(2,4)                  1.0704         estimate D2E/DX2                !
 ! R5    R(2,5)                  1.0707         estimate D2E/DX2                !
 ! R6    R(6,7)                  1.4728         estimate D2E/DX2                !
 ! R7    R(7,8)                  0.9717         estimate D2E/DX2                !
 ! A1    A(2,1,3)              125.2023         estimate D2E/DX2                !
 ! A2    A(2,1,6)              120.7286         estimate D2E/DX2                !
 ! A3    A(3,1,6)              114.0366         estimate D2E/DX2                !
 ! A4    A(1,2,4)              120.511          estimate D2E/DX2                !
 ! A5    A(1,2,5)              121.2153         estimate D2E/DX2                !
 ! A6    A(4,2,5)              118.265          estimate D2E/DX2                !
 ! A7    A(1,6,7)              105.4496         estimate D2E/DX2                !
 ! A8    A(6,7,8)               99.0814         estimate D2E/DX2                !
 ! D1    D(3,1,2,4)             -2.5778         estimate D2E/DX2                !
 ! D2    D(3,1,2,5)            178.5125         estimate D2E/DX2                !
 ! D3    D(6,1,2,4)            175.2239         estimate D2E/DX2                !
 ! D4    D(6,1,2,5)             -3.6858         estimate D2E/DX2                !
 ! D5    D(2,1,6,7)            140.0            Frozen                          !
 ! D6    D(3,1,6,7)            -41.9667         estimate D2E/DX2                !
 ! D7    D(1,6,7,8)            170.0            Frozen                          !
 --------------------------------------------------------------------------------
 Trust Radius=3.00D-01 FncErr=1.00D-07 GrdErr=1.00D-07
 Number of steps in this run=     32 maximum allowed number of steps=    100.
 GradGradGradGradGradGradGradGradGradGradGradGradGradGradGradGradGradGrad

 Leave Link  103 at Fri Apr 12 16:01:11 2019, MaxMem=   134217728 cpu:         0.0
 (Enter /cm/shared/c3ddb/gaussian/09.d01/g09/l202.exe)
                          Input orientation:                          
 ---------------------------------------------------------------------
 Center     Atomic      Atomic             Coordinates (Angstroms)
 Number     Number       Type             X           Y           Z
 ---------------------------------------------------------------------
      1          6           0        0.724265    0.634359    0.054371
      2          6           0        1.367620   -0.504258    0.003134
      3          1           0        1.181594    1.597867    0.120161
      4          1           0        2.437646   -0.523471   -0.015566
      5          1           0        0.842942   -1.436701   -0.038557
      6          8           0       -0.672819    0.670399   -0.021073
      7          8           0       -1.091890    1.694789    0.950524
      8          1           0       -2.030418    1.761549    0.707810
 ---------------------------------------------------------------------
                    Distance matrix (angstroms):
                    1          2          3          4          5
     1  C    0.000000
     2  C    1.308808   0.000000
     3  H    1.068562   2.113582   0.000000
     4  H    2.069091   1.070362   2.469041   0.000000
     5  H    2.076538   1.070736   3.057528   1.837824   0.000000
     6  O    1.399584   2.354527   2.078218   3.331719   2.595709
     7  O    2.286049   3.432571   2.422318   4.279209   3.811573
     8  H    3.047264   4.144528   3.269426   5.070324   4.363721
                    6          7          8
     6  O    0.000000
     7  O    1.472751   0.000000
     8  H    1.888109   0.971700   0.000000
 Symmetry turned off by external request.
 Stoichiometry    C2H4O2
 Framework group  C1[X(C2H4O2)]
 Deg. of freedom    18
 Full point group                 C1      NOp   1
 Rotational constants (GHZ):     36.4656498      4.6490571      4.3622962
 Leave Link  202 at Fri Apr 12 16:01:11 2019, MaxMem=   134217728 cpu:         0.0
 (Enter /cm/shared/c3ddb/gaussian/09.d01/g09/l301.exe)
 Standard basis: 3-21G (6D, 7F)
 Ernie: Thresh=  0.10000D-02 Tol=  0.10000D-05 Strict=F.
    44 basis functions,    72 primitive gaussians,    44 cartesian basis functions
    16 alpha electrons       16 beta electrons
       nuclear repulsion energy       116.7237062790 Hartrees.
 IExCor=    0 DFT=F Ex=HF Corr=None ExCW=0 ScaHFX=  1.000000
 ScaDFX=  1.000000  1.000000  1.000000  1.000000 ScalE2=  1.000000  1.000000
 IRadAn=      0 IRanWt=     -1 IRanGd=            0 ICorTp=0 IEmpDi=  4
 NAtoms=    8 NActive=    8 NUniq=    8 SFac= 1.00D+00 NAtFMM=   60 NAOKFM=F Big=F
 Integral buffers will be    131072 words long.
 Raffenetti 1 integral format.
 Two-electron integral symmetry is turned off.
 Leave Link  301 at Fri Apr 12 16:01:11 2019, MaxMem=   134217728 cpu:         0.1
 (Enter /cm/shared/c3ddb/gaussian/09.d01/g09/l302.exe)
 NPDir=0 NMtPBC=     1 NCelOv=     1 NCel=       1 NClECP=     1 NCelD=      1
         NCelK=      1 NCelE2=     1 NClLst=     1 CellRange=     0.0.
 One-electron integrals computed using PRISM.
 NBasis=    44 RedAO= T EigKep=  1.15D-02  NBF=    44
 NBsUse=    44 1.00D-06 EigRej= -1.00D+00 NBFU=    44
 Leave Link  302 at Fri Apr 12 16:01:11 2019, MaxMem=   134217728 cpu:         0.2
 (Enter /cm/shared/c3ddb/gaussian/09.d01/g09/l303.exe)
 DipDrv:  MaxL=1.
 Leave Link  303 at Fri Apr 12 16:01:12 2019, MaxMem=   134217728 cpu:         0.1
 (Enter /cm/shared/c3ddb/gaussian/09.d01/g09/l401.exe)
 Initial guess from the checkpoint file:  "TMP_CALCS/scangeom_S02_140_170.chk"
 B after Tr=    -0.001771    0.007898   -0.008609
         Rot=    0.999991   -0.000589    0.003345    0.002657 Ang=  -0.49 deg.
 Guess basis will be translated and rotated to current coordinates.
 JPrj=2 DoOrth=T DoCkMO=T.
 Leave Link  401 at Fri Apr 12 16:01:12 2019, MaxMem=   134217728 cpu:         0.6
 (Enter /cm/shared/c3ddb/gaussian/09.d01/g09/l502.exe)
 Closed shell SCF:
 Using DIIS extrapolation, IDIIS=  1040.
 Two-electron integral symmetry not used.
 Keep R1 ints in memory in canonical form, NReq=1327205.
 IVT=       24902 IEndB=       24902 NGot=   134217728 MDV=   133702282
 LenX=   133702282 LenY=   133699905
 Requested convergence on RMS density matrix=1.00D-08 within 128 cycles.
 Requested convergence on MAX density matrix=1.00D-06.
 Requested convergence on             energy=1.00D-06.
 No special actions if energy rises.
 FoFCou: FMM=F IPFlag=           0 FMFlag=           0 FMFlg1=           0
         NFxFlg=           0 DoJE=F BraDBF=F KetDBF=F FulRan=T
         wScrn=  0.000000 ICntrl=     600 IOpCl=  0 I1Cent=           0 NGrid=           0
         NMat0=    1 NMatS0=    990 NMatT0=    0 NMatD0=    1 NMtDS0=    0 NMtDT0=    0
 Symmetry not used in FoFCou.

 Cycle   1  Pass 1  IDiag  1:
 E= -226.392732333178    
 DIIS: error= 7.81D-03 at cycle   1 NSaved=   1.
 NSaved= 1 IEnMin= 1 EnMin= -226.392732333178     IErMin= 1 ErrMin= 7.81D-03
 ErrMax= 7.81D-03  0.00D+00 EMaxC= 1.00D-01 BMatC= 1.83D-03 BMatP= 1.83D-03
 IDIUse=3 WtCom= 9.22D-01 WtEn= 7.81D-02
 Coeff-Com:  0.100D+01
 Coeff-En:   0.100D+01
 Coeff:      0.100D+01
 Gap=     0.540 Goal=   None    Shift=    0.000
 GapD=    0.540 DampG=2.000 DampE=1.000 DampFc=2.0000 IDamp=-1.
 RMSDP=1.10D-03 MaxDP=1.24D-02              OVMax= 1.29D-02

 Cycle   2  Pass 1  IDiag  1:
 E= -226.395604869804     Delta-E=       -0.002872536626 Rises=F Damp=F
 DIIS: error= 3.36D-03 at cycle   2 NSaved=   2.
 NSaved= 2 IEnMin= 2 EnMin= -226.395604869804     IErMin= 2 ErrMin= 3.36D-03
 ErrMax= 3.36D-03  0.00D+00 EMaxC= 1.00D-01 BMatC= 1.81D-04 BMatP= 1.83D-03
 IDIUse=3 WtCom= 9.66D-01 WtEn= 3.36D-02
 Coeff-Com: -0.340D+00 0.134D+01
 Coeff-En:   0.000D+00 0.100D+01
 Coeff:     -0.328D+00 0.133D+01
 Gap=     0.540 Goal=   None    Shift=    0.000
 RMSDP=5.83D-04 MaxDP=4.79D-03 DE=-2.87D-03 OVMax= 9.46D-03

 Cycle   3  Pass 1  IDiag  1:
 E= -226.396088511347     Delta-E=       -0.000483641542 Rises=F Damp=F
 DIIS: error= 1.02D-03 at cycle   3 NSaved=   3.
 NSaved= 3 IEnMin= 3 EnMin= -226.396088511347     IErMin= 3 ErrMin= 1.02D-03
 ErrMax= 1.02D-03  0.00D+00 EMaxC= 1.00D-01 BMatC= 1.62D-05 BMatP= 1.81D-04
 IDIUse=3 WtCom= 9.90D-01 WtEn= 1.02D-02
 Coeff-Com:  0.702D-01-0.423D+00 0.135D+01
 Coeff-En:   0.000D+00 0.000D+00 0.100D+01
 Coeff:      0.695D-01-0.418D+00 0.135D+01
 Gap=     0.540 Goal=   None    Shift=    0.000
 RMSDP=2.34D-04 MaxDP=2.77D-03 DE=-4.84D-04 OVMax= 4.23D-03

 Cycle   4  Pass 1  IDiag  1:
 E= -226.396142205629     Delta-E=       -0.000053694283 Rises=F Damp=F
 DIIS: error= 2.71D-04 at cycle   4 NSaved=   4.
 NSaved= 4 IEnMin= 4 EnMin= -226.396142205629     IErMin= 4 ErrMin= 2.71D-04
 ErrMax= 2.71D-04  0.00D+00 EMaxC= 1.00D-01 BMatC= 3.70D-06 BMatP= 1.62D-05
 IDIUse=3 WtCom= 9.97D-01 WtEn= 2.71D-03
 Coeff-Com:  0.838D-01-0.376D+00 0.427D+00 0.865D+00
 Coeff-En:   0.000D+00 0.000D+00 0.000D+00 0.100D+01
 Coeff:      0.835D-01-0.375D+00 0.426D+00 0.865D+00
 Gap=     0.540 Goal=   None    Shift=    0.000
 RMSDP=8.64D-05 MaxDP=1.05D-03 DE=-5.37D-05 OVMax= 1.50D-03

 Cycle   5  Pass 1  IDiag  1:
 E= -226.396149061996     Delta-E=       -0.000006856367 Rises=F Damp=F
 DIIS: error= 8.37D-05 at cycle   5 NSaved=   5.
 NSaved= 5 IEnMin= 5 EnMin= -226.396149061996     IErMin= 5 ErrMin= 8.37D-05
 ErrMax= 8.37D-05  0.00D+00 EMaxC= 1.00D-01 BMatC= 1.91D-07 BMatP= 3.70D-06
 IDIUse=1 WtCom= 1.00D+00 WtEn= 0.00D+00
 Coeff-Com: -0.565D-03 0.135D-01-0.995D-01 0.767D-01 0.101D+01
 Coeff:     -0.565D-03 0.135D-01-0.995D-01 0.767D-01 0.101D+01
 Gap=     0.540 Goal=   None    Shift=    0.000
 RMSDP=1.95D-05 MaxDP=1.87D-04 DE=-6.86D-06 OVMax= 3.96D-04

 Cycle   6  Pass 1  IDiag  1:
 E= -226.396149502068     Delta-E=       -0.000000440072 Rises=F Damp=F
 DIIS: error= 4.71D-05 at cycle   6 NSaved=   6.
 NSaved= 6 IEnMin= 6 EnMin= -226.396149502068     IErMin= 6 ErrMin= 4.71D-05
 ErrMax= 4.71D-05  0.00D+00 EMaxC= 1.00D-01 BMatC= 3.01D-08 BMatP= 1.91D-07
 IDIUse=1 WtCom= 1.00D+00 WtEn= 0.00D+00
 Coeff-Com: -0.688D-02 0.321D-01-0.441D-01-0.632D-01 0.892D-01 0.993D+00
 Coeff:     -0.688D-02 0.321D-01-0.441D-01-0.632D-01 0.892D-01 0.993D+00
 Gap=     0.540 Goal=   None    Shift=    0.000
 RMSDP=7.13D-06 MaxDP=6.84D-05 DE=-4.40D-07 OVMax= 1.65D-04

 Cycle   7  Pass 1  IDiag  1:
 E= -226.396149598569     Delta-E=       -0.000000096500 Rises=F Damp=F
 DIIS: error= 3.11D-05 at cycle   7 NSaved=   7.
 NSaved= 7 IEnMin= 7 EnMin= -226.396149598569     IErMin= 7 ErrMin= 3.11D-05
 ErrMax= 3.11D-05  0.00D+00 EMaxC= 1.00D-01 BMatC= 8.67D-09 BMatP= 3.01D-08
 IDIUse=1 WtCom= 1.00D+00 WtEn= 0.00D+00
 Coeff-Com:  0.396D-02-0.216D-01 0.545D-01 0.733D-02-0.361D+00-0.501D+00
 Coeff-Com:  0.182D+01
 Coeff:      0.396D-02-0.216D-01 0.545D-01 0.733D-02-0.361D+00-0.501D+00
 Coeff:      0.182D+01
 Gap=     0.540 Goal=   None    Shift=    0.000
 RMSDP=8.99D-06 MaxDP=7.50D-05 DE=-9.65D-08 OVMax= 2.15D-04

 Cycle   8  Pass 1  IDiag  1:
 E= -226.396149653690     Delta-E=       -0.000000055121 Rises=F Damp=F
 DIIS: error= 7.08D-06 at cycle   8 NSaved=   8.
 NSaved= 8 IEnMin= 8 EnMin= -226.396149653690     IErMin= 8 ErrMin= 7.08D-06
 ErrMax= 7.08D-06  0.00D+00 EMaxC= 1.00D-01 BMatC= 5.30D-10 BMatP= 8.67D-09
 IDIUse=1 WtCom= 1.00D+00 WtEn= 0.00D+00
 Coeff-Com: -0.582D-04 0.812D-03-0.482D-02 0.444D-02 0.499D-01-0.197D-01
 Coeff-Com: -0.313D+00 0.128D+01
 Coeff:     -0.582D-04 0.812D-03-0.482D-02 0.444D-02 0.499D-01-0.197D-01
 Coeff:     -0.313D+00 0.128D+01
 Gap=     0.540 Goal=   None    Shift=    0.000
 RMSDP=2.26D-06 MaxDP=1.82D-05 DE=-5.51D-08 OVMax= 5.25D-05

 Cycle   9  Pass 1  IDiag  1:
 E= -226.396149656900     Delta-E=       -0.000000003211 Rises=F Damp=F
 DIIS: error= 1.81D-06 at cycle   9 NSaved=   9.
 NSaved= 9 IEnMin= 9 EnMin= -226.396149656900     IErMin= 9 ErrMin= 1.81D-06
 ErrMax= 1.81D-06  0.00D+00 EMaxC= 1.00D-01 BMatC= 6.44D-11 BMatP= 5.30D-10
 IDIUse=1 WtCom= 1.00D+00 WtEn= 0.00D+00
 Coeff-Com: -0.445D-03 0.241D-02-0.583D-02-0.119D-02 0.377D-01 0.600D-01
 Coeff-Com: -0.202D+00-0.354D-01 0.114D+01
 Coeff:     -0.445D-03 0.241D-02-0.583D-02-0.119D-02 0.377D-01 0.600D-01
 Coeff:     -0.202D+00-0.354D-01 0.114D+01
 Gap=     0.540 Goal=   None    Shift=    0.000
 RMSDP=6.07D-07 MaxDP=4.56D-06 DE=-3.21D-09 OVMax= 1.22D-05

 Cycle  10  Pass 1  IDiag  1:
 E= -226.396149657186     Delta-E=       -0.000000000285 Rises=F Damp=F
 DIIS: error= 8.18D-07 at cycle  10 NSaved=  10.
 NSaved=10 IEnMin=10 EnMin= -226.396149657186     IErMin=10 ErrMin= 8.18D-07
 ErrMax= 8.18D-07  0.00D+00 EMaxC= 1.00D-01 BMatC= 1.05D-11 BMatP= 6.44D-11
 IDIUse=1 WtCom= 1.00D+00 WtEn= 0.00D+00
 Coeff-Com:  0.183D-03-0.107D-02 0.308D-02-0.345D-03-0.234D-01-0.197D-01
 Coeff-Com:  0.133D+00-0.198D+00-0.392D+00 0.150D+01
 Coeff:      0.183D-03-0.107D-02 0.308D-02-0.345D-03-0.234D-01-0.197D-01
 Coeff:      0.133D+00-0.198D+00-0.392D+00 0.150D+01
 Gap=     0.540 Goal=   None    Shift=    0.000
 RMSDP=2.21D-07 MaxDP=1.97D-06 DE=-2.85D-10 OVMax= 3.66D-06

 Cycle  11  Pass 1  IDiag  1:
 E= -226.396149657231     Delta-E=       -0.000000000045 Rises=F Damp=F
 DIIS: error= 2.05D-07 at cycle  11 NSaved=  11.
 NSaved=11 IEnMin=11 EnMin= -226.396149657231     IErMin=11 ErrMin= 2.05D-07
 ErrMax= 2.05D-07  0.00D+00 EMaxC= 1.00D-01 BMatC= 8.24D-13 BMatP= 1.05D-11
 IDIUse=1 WtCom= 1.00D+00 WtEn= 0.00D+00
 Coeff-Com:  0.599D-04-0.337D-03 0.879D-03 0.856D-04-0.623D-02-0.822D-02
 Coeff-Com:  0.353D-01-0.214D-01-0.149D+00 0.194D+00 0.956D+00
 Coeff:      0.599D-04-0.337D-03 0.879D-03 0.856D-04-0.623D-02-0.822D-02
 Coeff:      0.353D-01-0.214D-01-0.149D+00 0.194D+00 0.956D+00
 Gap=     0.540 Goal=   None    Shift=    0.000
 RMSDP=3.90D-08 MaxDP=3.28D-07 DE=-4.48D-11 OVMax= 7.02D-07

 Cycle  12  Pass 1  IDiag  1:
 E= -226.396149657233     Delta-E=       -0.000000000002 Rises=F Damp=F
 DIIS: error= 5.37D-08 at cycle  12 NSaved=  12.
 NSaved=12 IEnMin=12 EnMin= -226.396149657233     IErMin=12 ErrMin= 5.37D-08
 ErrMax= 5.37D-08  0.00D+00 EMaxC= 1.00D-01 BMatC= 1.02D-13 BMatP= 8.24D-13
 IDIUse=1 WtCom= 1.00D+00 WtEn= 0.00D+00
 Coeff-Com: -0.270D-04 0.157D-03-0.447D-03 0.629D-04 0.335D-02 0.248D-02
 Coeff-Com: -0.188D-01 0.293D-01 0.512D-01-0.222D+00 0.678D-01 0.109D+01
 Coeff:     -0.270D-04 0.157D-03-0.447D-03 0.629D-04 0.335D-02 0.248D-02
 Coeff:     -0.188D-01 0.293D-01 0.512D-01-0.222D+00 0.678D-01 0.109D+01
 Gap=     0.540 Goal=   None    Shift=    0.000
 RMSDP=1.59D-08 MaxDP=1.28D-07 DE=-1.93D-12 OVMax= 2.42D-07

 Cycle  13  Pass 1  IDiag  1:
 E= -226.396149657233     Delta-E=        0.000000000000 Rises=F Damp=F
 DIIS: error= 9.27D-09 at cycle  13 NSaved=  13.
 NSaved=13 IEnMin=13 EnMin= -226.396149657233     IErMin=13 ErrMin= 9.27D-09
 ErrMax= 9.27D-09  0.00D+00 EMaxC= 1.00D-01 BMatC= 3.60D-15 BMatP= 1.02D-13
 IDIUse=1 WtCom= 1.00D+00 WtEn= 0.00D+00
 Coeff-Com:  0.568D-05-0.335D-04 0.995D-04-0.253D-04-0.771D-03-0.372D-03
 Coeff-Com:  0.424D-02-0.853D-02-0.888D-02 0.612D-01-0.697D-01-0.347D+00
 Coeff-Com:  0.137D+01
 Coeff:      0.568D-05-0.335D-04 0.995D-04-0.253D-04-0.771D-03-0.372D-03
 Coeff:      0.424D-02-0.853D-02-0.888D-02 0.612D-01-0.697D-01-0.347D+00
 Coeff:      0.137D+01
 Gap=     0.540 Goal=   None    Shift=    0.000
 RMSDP=3.88D-09 MaxDP=2.67D-08 DE=-1.14D-13 OVMax= 5.05D-08

 SCF Done:  E(RHF) =  -226.396149657     A.U. after   13 cycles
            NFock= 13  Conv=0.39D-08     -V/T= 2.0034
 KE= 2.256228202180D+02 PE=-7.668811229416D+02 EE= 1.981384467874D+02
 Leave Link  502 at Fri Apr 12 16:01:13 2019, MaxMem=   134217728 cpu:         0.3
 (Enter /cm/shared/c3ddb/gaussian/09.d01/g09/l601.exe)
 Copying SCF densities to generalized density rwf, IOpCl= 0 IROHF=0.

 **********************************************************************

            Population analysis using the SCF density.

 **********************************************************************

 Alpha  occ. eigenvalues --  -20.53159 -20.52179 -11.24007 -11.16800  -1.47065
 Alpha  occ. eigenvalues --   -1.23731  -1.02715  -0.79560  -0.69662  -0.68074
 Alpha  occ. eigenvalues --   -0.64278  -0.57871  -0.55636  -0.51267  -0.46589
 Alpha  occ. eigenvalues --   -0.36478
 Alpha virt. eigenvalues --    0.17491   0.25319   0.28330   0.31918   0.32989
 Alpha virt. eigenvalues --    0.36142   0.49810   0.57445   0.90077   0.97397
 Alpha virt. eigenvalues --    1.00104   1.07023   1.10820   1.12264   1.23670
 Alpha virt. eigenvalues --    1.32617   1.37573   1.57260   1.60078   1.72867
 Alpha virt. eigenvalues --    1.81877   1.93148   1.95977   2.01472   2.07605
 Alpha virt. eigenvalues --    2.27966   3.06302   3.49917
          Condensed to atoms (all electrons):
               1          2          3          4          5          6
     1  C    4.853421   0.524386   0.367447  -0.045645  -0.050062   0.214220
     2  C    0.524386   5.299121  -0.050804   0.381410   0.388368  -0.052255
     3  H    0.367447  -0.050804   0.463392   0.000194   0.002272  -0.038182
     4  H   -0.045645   0.381410   0.000194   0.451788  -0.015312   0.001478
     5  H   -0.050062   0.388368   0.002272  -0.015312   0.434926  -0.000529
     6  O    0.214220  -0.052255  -0.038182   0.001478  -0.000529   8.204002
     7  O   -0.032299   0.001472   0.003717  -0.000028  -0.000017   0.112764
     8  H    0.001678  -0.000142   0.000009   0.000002  -0.000001  -0.020923
               7          8
     1  C   -0.032299   0.001678
     2  C    0.001472  -0.000142
     3  H    0.003717   0.000009
     4  H   -0.000028   0.000002
     5  H   -0.000017  -0.000001
     6  O    0.112764  -0.020923
     7  O    8.063532   0.244126
     8  H    0.244126   0.355131
 Mulliken charges:
               1
     1  C    0.166854
     2  C   -0.491557
     3  H    0.251955
     4  H    0.226114
     5  H    0.240357
     6  O   -0.420576
     7  O   -0.393267
     8  H    0.420120
 Sum of Mulliken charges =   0.00000
 Mulliken charges with hydrogens summed into heavy atoms:
               1
     1  C    0.418810
     2  C   -0.025086
     6  O   -0.420576
     7  O    0.026852
 Electronic spatial extent (au):  <R**2>=            354.9232
 Charge=              0.0000 electrons
 Dipole moment (field-independent basis, Debye):
    X=             -0.1647    Y=              0.3368    Z=             -0.2858  Tot=              0.4714
 Quadrupole moment (field-independent basis, Debye-Ang):
   XX=            -16.4925   YY=            -21.3215   ZZ=            -26.6129
   XY=             -2.6018   XZ=             -1.0016   YZ=             -0.3926
 Traceless Quadrupole moment (field-independent basis, Debye-Ang):
   XX=              4.9831   YY=              0.1541   ZZ=             -5.1373
   XY=             -2.6018   XZ=             -1.0016   YZ=             -0.3926
 Octapole moment (field-independent basis, Debye-Ang**2):
  XXX=            -21.6790  YYY=            -39.8862  ZZZ=            -18.7324  XYY=             -8.2255
  XXY=             -2.1903  XXZ=             -1.5803  XZZ=             -5.8460  YZZ=            -15.2583
  YYZ=             -6.6699  XYZ=             -1.5978
 Hexadecapole moment (field-independent basis, Debye-Ang**3):
 XXXX=           -141.1063 YYYY=           -166.8799 ZZZZ=            -54.4172 XXXY=             17.6953
 XXXZ=              6.9026 YYYX=             37.0846 YYYZ=            -29.3940 ZZZX=             18.2242
 ZZZY=            -30.4285 XXYY=            -37.6558 XXZZ=            -41.5481 YYZZ=            -40.4746
 XXYZ=             -1.5649 YYXZ=              2.2952 ZZXY=             15.6961
 N-N= 1.167237062790D+02 E-N=-7.668811230829D+02  KE= 2.256228202180D+02
 No NMR shielding tensors so no spin-rotation constants.
 Leave Link  601 at Fri Apr 12 16:01:13 2019, MaxMem=   134217728 cpu:         0.2
 (Enter /cm/shared/c3ddb/gaussian/09.d01/g09/l701.exe)
 Compute integral first derivatives.
 ... and contract with generalized density number  0.
 Leave Link  701 at Fri Apr 12 16:01:13 2019, MaxMem=   134217728 cpu:         0.2
 (Enter /cm/shared/c3ddb/gaussian/09.d01/g09/l702.exe)
 L702 exits ... SP integral derivatives will be done elsewhere.
 Leave Link  702 at Fri Apr 12 16:01:14 2019, MaxMem=   134217728 cpu:         0.1
 (Enter /cm/shared/c3ddb/gaussian/09.d01/g09/l703.exe)
 Compute integral first derivatives, UseDBF=F ICtDFT=           0.
 Integral derivatives from FoFJK, PRISM(SPDF).
 Calling FoFJK, ICntrl=      2127 FMM=F ISym2X=0 I1Cent= 0 IOpClX= 0 NMat=1 NMatS=1 NMatT=0.
 FoFJK:  IHMeth= 1 ICntrl=    2127 DoSepK=F KAlg= 0 I1Cent=   0 FoldK=F
 IRaf=         0 NMat=   1 IRICut=       1 DoRegI=T DoRafI=F ISym2E= 0.
 FoFCou: FMM=F IPFlag=           0 FMFlag=      100000 FMFlg1=         800
         NFxFlg=           0 DoJE=F BraDBF=F KetDBF=F FulRan=T
         wScrn=  0.000000 ICntrl=    2127 IOpCl=  0 I1Cent=           0 NGrid=           0
         NMat0=    1 NMatS0=      1 NMatT0=    0 NMatD0=    1 NMtDS0=    0 NMtDT0=    0
 Symmetry not used in FoFCou.
 Leave Link  703 at Fri Apr 12 16:01:14 2019, MaxMem=   134217728 cpu:         0.2
 (Enter /cm/shared/c3ddb/gaussian/09.d01/g09/l716.exe)
 Dipole        =-6.47943623D-02 1.32491161D-01-1.12429953D-01
 -------------------------------------------------------------------
 Center     Atomic                   Forces (Hartrees/Bohr)
 Number     Number              X              Y              Z
 -------------------------------------------------------------------
      1        6           0.000135515    0.000134555    0.000551243
      2        6          -0.000000101    0.000026042   -0.000719582
      3        1          -0.000038132   -0.000015438    0.000067531
      4        1           0.000000809    0.000014907   -0.000002056
      5        1          -0.000016646    0.000026326    0.000072891
      6        8          -0.000026448   -0.000351619    0.000647030
      7        8          -0.000110995   -0.000141785   -0.000459022
      8        1           0.000056000    0.000307012   -0.000158035
 -------------------------------------------------------------------
 Cartesian Forces:  Max     0.000719582 RMS     0.000272340
 Leave Link  716 at Fri Apr 12 16:01:14 2019, MaxMem=   134217728 cpu:         0.1
 (Enter /cm/shared/c3ddb/gaussian/09.d01/g09/l103.exe)

 GradGradGradGradGradGradGradGradGradGradGradGradGradGradGradGradGradGrad
 Berny optimization.
 FormGI is forming the generalized inverse of G from B-inverse, IUseBI=4.
 Internal  Forces:  Max     0.000872530 RMS     0.000284088
 Search for a local minimum.
 Step number   1 out of a maximum of   32
 All quantities printed in internal units (Hartrees-Bohrs-Radians)
 RMS Force = .10442D-03 SwitMx=.10000D-02 MixMth= 2
 Mixed Optimization -- En-DIIS/RFO-DIIS
 Second derivative matrix not updated -- first step.
 ITU=  0
     Eigenvalues ---    0.02587   0.03295   0.03296   0.15994   0.16000
     Eigenvalues ---    0.16000   0.16000   0.22001   0.25000   0.35413
     Eigenvalues ---    0.37137   0.37184   0.37412   0.45690   0.53031
     Eigenvalues ---    0.648051000.000001000.000001000.000001000.00000
     Eigenvalues --- 1000.000001000.00000
 RFO step:  Lambda=-1.09289286D-06 EMin= 2.58718836D-02
 Linear search not attempted -- first point.
 Iteration  1 RMS(Cart)=  0.00082633 RMS(Int)=  0.00000057
 Iteration  2 RMS(Cart)=  0.00000061 RMS(Int)=  0.00000018
 Iteration  1 RMS(Cart)=  0.00000002 RMS(Int)=  0.00000001
 ITry= 1 IFail=0 DXMaxC= 1.67D-03 DCOld= 1.00D+10 DXMaxT= 3.00D-01 DXLimC= 3.00D+00 Rises=F
 Variable       Old X    -DE/DX   Delta X   Delta X   Delta X     New X
                                 (Linear)    (Quad)   (Total)
    R1        2.47329  -0.00004   0.00000  -0.00006  -0.00006   2.47323
    R2        2.01929  -0.00003   0.00000  -0.00007  -0.00007   2.01922
    R3        2.64483   0.00007   0.00000   0.00016   0.00016   2.64499
    R4        2.02269   0.00000   0.00000   0.00000   0.00000   2.02269
    R5        2.02340  -0.00002   0.00000  -0.00005  -0.00005   2.02335
    R6        2.78310  -0.00028   0.00000  -0.00078  -0.00078   2.78232
    R7        1.83625   0.00001   0.00000   0.00001   0.00001   1.83626
    A1        2.18519   0.00004   0.00000   0.00032   0.00032   2.18552
    A2        2.10711  -0.00006   0.00000  -0.00026  -0.00026   2.10685
    A3        1.99031   0.00001   0.00000  -0.00003  -0.00003   1.99029
    A4        2.10331   0.00000   0.00000   0.00001   0.00001   2.10332
    A5        2.11561  -0.00003   0.00000  -0.00017  -0.00017   2.11543
    A6        2.06411   0.00003   0.00000   0.00019   0.00019   2.06431
    A7        1.84044   0.00029   0.00000   0.00117   0.00117   1.84162
    A8        1.72930   0.00017   0.00000   0.00107   0.00107   1.73037
    D1       -0.04499   0.00020   0.00000  -0.00061  -0.00061  -0.04560
    D2        3.11563   0.00014   0.00000  -0.00241  -0.00241   3.11322
    D3        3.05823  -0.00021   0.00000   0.00046   0.00046   3.05869
    D4       -0.06433  -0.00026   0.00000  -0.00134  -0.00134  -0.06567
    D5        2.44346   0.00087   0.00000   0.00000   0.00000   2.44346
    D6       -0.73246   0.00051   0.00000   0.00097   0.00097  -0.73149
    D7        2.96706  -0.00061   0.00000   0.00000   0.00000   2.96706
         Item               Value     Threshold  Converged?
 Maximum Force            0.000293     0.000015     NO 
 RMS     Force            0.000104     0.000010     NO 
 Maximum Displacement     0.001665     0.000060     NO 
 RMS     Displacement     0.000826     0.000040     NO 
 Predicted change in Energy=-5.463739D-07
 Lowest energy point so far.  Saving SCF results.
 GradGradGradGradGradGradGradGradGradGradGradGradGradGradGradGradGradGrad

 Leave Link  103 at Fri Apr 12 16:01:14 2019, MaxMem=   134217728 cpu:         0.0
 (Enter /cm/shared/c3ddb/gaussian/09.d01/g09/l202.exe)
                          Input orientation:                          
 ---------------------------------------------------------------------
 Center     Atomic      Atomic             Coordinates (Angstroms)
 Number     Number       Type             X           Y           Z
 ---------------------------------------------------------------------
      1          6           0        0.724813    0.634546    0.054091
      2          6           0        1.367716   -0.504275    0.002583
      3          1           0        1.182169    1.597948    0.120639
      4          1           0        2.437736   -0.523899   -0.016127
      5          1           0        0.842535   -1.436469   -0.037676
      6          8           0       -0.672383    0.670727   -0.020818
      7          8           0       -1.092514    1.694590    0.950251
      8          1           0       -2.031131    1.761364    0.707861
 ---------------------------------------------------------------------
                    Distance matrix (angstroms):
                    1          2          3          4          5
     1  C    0.000000
     2  C    1.308775   0.000000
     3  H    1.068526   2.113695   0.000000
     4  H    2.069065   1.070363   2.469288   0.000000
     5  H    2.076387   1.070711   3.057466   1.837910   0.000000
     6  O    1.399670   2.354397   2.078248   3.331665   2.595291
     7  O    2.286803   3.433047   2.423175   4.279981   3.811029
     8  H    3.048337   4.145202   3.270601   5.071228   4.363475
                    6          7          8
     6  O    0.000000
     7  O    1.472338   0.000000
     8  H    1.888560   0.971707   0.000000
 Symmetry turned off by external request.
 Stoichiometry    C2H4O2
 Framework group  C1[X(C2H4O2)]
 Deg. of freedom    18
 Full point group                 C1      NOp   1
 Rotational constants (GHZ):     36.4989670      4.6477141      4.3615619
 Leave Link  202 at Fri Apr 12 16:01:14 2019, MaxMem=   134217728 cpu:         0.0
 (Enter /cm/shared/c3ddb/gaussian/09.d01/g09/l301.exe)
 Standard basis: 3-21G (6D, 7F)
 Ernie: Thresh=  0.10000D-02 Tol=  0.10000D-05 Strict=F.
    44 basis functions,    72 primitive gaussians,    44 cartesian basis functions
    16 alpha electrons       16 beta electrons
       nuclear repulsion energy       116.7239897253 Hartrees.
 IExCor=    0 DFT=F Ex=HF Corr=None ExCW=0 ScaHFX=  1.000000
 ScaDFX=  1.000000  1.000000  1.000000  1.000000 ScalE2=  1.000000  1.000000
 IRadAn=      0 IRanWt=     -1 IRanGd=            0 ICorTp=0 IEmpDi=  4
 NAtoms=    8 NActive=    8 NUniq=    8 SFac= 1.00D+00 NAtFMM=   60 NAOKFM=F Big=F
 Integral buffers will be    131072 words long.
 Raffenetti 1 integral format.
 Two-electron integral symmetry is turned off.
 Leave Link  301 at Fri Apr 12 16:01:14 2019, MaxMem=   134217728 cpu:         0.2
 (Enter /cm/shared/c3ddb/gaussian/09.d01/g09/l302.exe)
 NPDir=0 NMtPBC=     1 NCelOv=     1 NCel=       1 NClECP=     1 NCelD=      1
         NCelK=      1 NCelE2=     1 NClLst=     1 CellRange=     0.0.
 One-electron integrals computed using PRISM.
 NBasis=    44 RedAO= T EigKep=  1.15D-02  NBF=    44
 NBsUse=    44 1.00D-06 EigRej= -1.00D+00 NBFU=    44
 Leave Link  302 at Fri Apr 12 16:01:15 2019, MaxMem=   134217728 cpu:         0.2
 (Enter /cm/shared/c3ddb/gaussian/09.d01/g09/l303.exe)
 DipDrv:  MaxL=1.
 Leave Link  303 at Fri Apr 12 16:01:15 2019, MaxMem=   134217728 cpu:         0.1
 (Enter /cm/shared/c3ddb/gaussian/09.d01/g09/l401.exe)
 Initial guess from the checkpoint file:  "TMP_CALCS/scangeom_S02_140_170.chk"
 B after Tr=     0.000223    0.000186   -0.000467
         Rot=    1.000000   -0.000084    0.000050   -0.000024 Ang=  -0.01 deg.
 Guess basis will be translated and rotated to current coordinates.
 JPrj=2 DoOrth=T DoCkMO=T.
 Leave Link  401 at Fri Apr 12 16:01:15 2019, MaxMem=   134217728 cpu:         0.2
 (Enter /cm/shared/c3ddb/gaussian/09.d01/g09/l502.exe)
 Closed shell SCF:
 Using DIIS extrapolation, IDIIS=  1040.
 Two-electron integral symmetry not used.
 Keep R1 ints in memory in canonical form, NReq=1327205.
 IVT=       24902 IEndB=       24902 NGot=   134217728 MDV=   133702282
 LenX=   133702282 LenY=   133699905
 Requested convergence on RMS density matrix=1.00D-08 within 128 cycles.
 Requested convergence on MAX density matrix=1.00D-06.
 Requested convergence on             energy=1.00D-06.
 No special actions if energy rises.
 FoFCou: FMM=F IPFlag=           0 FMFlag=           0 FMFlg1=           0
         NFxFlg=           0 DoJE=F BraDBF=F KetDBF=F FulRan=T
         wScrn=  0.000000 ICntrl=     600 IOpCl=  0 I1Cent=           0 NGrid=           0
         NMat0=    1 NMatS0=    990 NMatT0=    0 NMatD0=    1 NMtDS0=    0 NMtDT0=    0
 Symmetry not used in FoFCou.

 Cycle   1  Pass 1  IDiag  1:
 E= -226.396149457882    
 DIIS: error= 6.71D-05 at cycle   1 NSaved=   1.
 NSaved= 1 IEnMin= 1 EnMin= -226.396149457882     IErMin= 1 ErrMin= 6.71D-05
 ErrMax= 6.71D-05  0.00D+00 EMaxC= 1.00D-01 BMatC= 4.41D-07 BMatP= 4.41D-07
 IDIUse=1 WtCom= 1.00D+00 WtEn= 0.00D+00
 Coeff-Com:  0.100D+01
 Coeff:      0.100D+01
 Gap=     0.949 Goal=   None    Shift=    0.000
 RMSDP=1.39D-05 MaxDP=9.08D-05              OVMax= 1.26D-04

 Cycle   2  Pass 1  IDiag  1:
 E= -226.396150013068     Delta-E=       -0.000000555187 Rises=F Damp=F
 DIIS: error= 2.50D-05 at cycle   2 NSaved=   2.
 NSaved= 2 IEnMin= 2 EnMin= -226.396150013068     IErMin= 2 ErrMin= 2.50D-05
 ErrMax= 2.50D-05  0.00D+00 EMaxC= 1.00D-01 BMatC= 2.67D-08 BMatP= 4.41D-07
 IDIUse=1 WtCom= 1.00D+00 WtEn= 0.00D+00
 Coeff-Com: -0.188D+00 0.119D+01
 Coeff:     -0.188D+00 0.119D+01
 Gap=     0.540 Goal=   None    Shift=    0.000
 RMSDP=5.95D-06 MaxDP=3.07D-05 DE=-5.55D-07 OVMax= 8.53D-05

 Cycle   3  Pass 1  IDiag  1:
 E= -226.396150084106     Delta-E=       -0.000000071038 Rises=F Damp=F
 DIIS: error= 8.51D-06 at cycle   3 NSaved=   3.
 NSaved= 3 IEnMin= 3 EnMin= -226.396150084106     IErMin= 3 ErrMin= 8.51D-06
 ErrMax= 8.51D-06  0.00D+00 EMaxC= 1.00D-01 BMatC= 2.58D-09 BMatP= 2.67D-08
 IDIUse=1 WtCom= 1.00D+00 WtEn= 0.00D+00
 Coeff-Com:  0.140D-01-0.289D+00 0.128D+01
 Coeff:      0.140D-01-0.289D+00 0.128D+01
 Gap=     0.540 Goal=   None    Shift=    0.000
 RMSDP=2.33D-06 MaxDP=1.25D-05 DE=-7.10D-08 OVMax= 3.67D-05

 Cycle   4  Pass 1  IDiag  1:
 E= -226.396150092260     Delta-E=       -0.000000008154 Rises=F Damp=F
 DIIS: error= 3.43D-06 at cycle   4 NSaved=   4.
 NSaved= 4 IEnMin= 4 EnMin= -226.396150092260     IErMin= 4 ErrMin= 3.43D-06
 ErrMax= 3.43D-06  0.00D+00 EMaxC= 1.00D-01 BMatC= 5.67D-10 BMatP= 2.58D-09
 IDIUse=1 WtCom= 1.00D+00 WtEn= 0.00D+00
 Coeff-Com:  0.227D-01-0.202D+00 0.379D+00 0.801D+00
 Coeff:      0.227D-01-0.202D+00 0.379D+00 0.801D+00
 Gap=     0.540 Goal=   None    Shift=    0.000
 RMSDP=6.52D-07 MaxDP=5.07D-06 DE=-8.15D-09 OVMax= 9.31D-06

 Cycle   5  Pass 1  IDiag  1:
 E= -226.396150093144     Delta-E=       -0.000000000884 Rises=F Damp=F
 DIIS: error= 1.24D-06 at cycle   5 NSaved=   5.
 NSaved= 5 IEnMin= 5 EnMin= -226.396150093144     IErMin= 5 ErrMin= 1.24D-06
 ErrMax= 1.24D-06  0.00D+00 EMaxC= 1.00D-01 BMatC= 5.58D-11 BMatP= 5.67D-10
 IDIUse=1 WtCom= 1.00D+00 WtEn= 0.00D+00
 Coeff-Com: -0.235D-02 0.508D-01-0.220D+00 0.178D-02 0.117D+01
 Coeff:     -0.235D-02 0.508D-01-0.220D+00 0.178D-02 0.117D+01
 Gap=     0.540 Goal=   None    Shift=    0.000
 RMSDP=3.33D-07 MaxDP=2.15D-06 DE=-8.84D-10 OVMax= 5.11D-06

 Cycle   6  Pass 1  IDiag  1:
 E= -226.396150093301     Delta-E=       -0.000000000157 Rises=F Damp=F
 DIIS: error= 6.46D-07 at cycle   6 NSaved=   6.
 NSaved= 6 IEnMin= 6 EnMin= -226.396150093301     IErMin= 6 ErrMin= 6.46D-07
 ErrMax= 6.46D-07  0.00D+00 EMaxC= 1.00D-01 BMatC= 5.40D-12 BMatP= 5.58D-11
 IDIUse=1 WtCom= 1.00D+00 WtEn= 0.00D+00
 Coeff-Com: -0.165D-02 0.147D-01-0.269D-01-0.585D-01 0.228D-03 0.107D+01
 Coeff:     -0.165D-02 0.147D-01-0.269D-01-0.585D-01 0.228D-03 0.107D+01
 Gap=     0.540 Goal=   None    Shift=    0.000
 RMSDP=1.12D-07 MaxDP=9.06D-07 DE=-1.57D-10 OVMax= 2.24D-06

 Cycle   7  Pass 1  IDiag  1:
 E= -226.396150093321     Delta-E=       -0.000000000020 Rises=F Damp=F
 DIIS: error= 3.93D-07 at cycle   7 NSaved=   7.
 NSaved= 7 IEnMin= 7 EnMin= -226.396150093321     IErMin= 7 ErrMin= 3.93D-07
 ErrMax= 3.93D-07  0.00D+00 EMaxC= 1.00D-01 BMatC= 1.45D-12 BMatP= 5.40D-12
 IDIUse=1 WtCom= 1.00D+00 WtEn= 0.00D+00
 Coeff-Com:  0.988D-03-0.150D-01 0.538D-01 0.174D-01-0.240D+00-0.344D+00
 Coeff-Com:  0.153D+01
 Coeff:      0.988D-03-0.150D-01 0.538D-01 0.174D-01-0.240D+00-0.344D+00
 Coeff:      0.153D+01
 Gap=     0.540 Goal=   None    Shift=    0.000
 RMSDP=9.47D-08 MaxDP=7.95D-07 DE=-2.00D-11 OVMax= 2.22D-06

 Cycle   8  Pass 1  IDiag  1:
 E= -226.396150093330     Delta-E=       -0.000000000009 Rises=F Damp=F
 DIIS: error= 1.55D-07 at cycle   8 NSaved=   8.
 NSaved= 8 IEnMin= 8 EnMin= -226.396150093330     IErMin= 8 ErrMin= 1.55D-07
 ErrMax= 1.55D-07  0.00D+00 EMaxC= 1.00D-01 BMatC= 2.29D-13 BMatP= 1.45D-12
 IDIUse=1 WtCom= 1.00D+00 WtEn= 0.00D+00
 Coeff-Com:  0.942D-04 0.525D-03-0.649D-02 0.656D-02 0.488D-01-0.102D+00
 Coeff-Com: -0.360D+00 0.141D+01
 Coeff:      0.942D-04 0.525D-03-0.649D-02 0.656D-02 0.488D-01-0.102D+00
 Coeff:     -0.360D+00 0.141D+01
 Gap=     0.540 Goal=   None    Shift=    0.000
 RMSDP=4.36D-08 MaxDP=3.60D-07 DE=-9.09D-12 OVMax= 1.01D-06

 Cycle   9  Pass 1  IDiag  1:
 E= -226.396150093331     Delta-E=       -0.000000000001 Rises=F Damp=F
 DIIS: error= 4.08D-08 at cycle   9 NSaved=   9.
 NSaved= 9 IEnMin= 9 EnMin= -226.396150093331     IErMin= 9 ErrMin= 4.08D-08
 ErrMax= 4.08D-08  0.00D+00 EMaxC= 1.00D-01 BMatC= 3.04D-14 BMatP= 2.29D-13
 IDIUse=1 WtCom= 1.00D+00 WtEn= 0.00D+00
 Coeff-Com: -0.167D-03 0.289D-02-0.113D-01-0.168D-02 0.545D-01 0.450D-01
 Coeff-Com: -0.353D+00 0.263D+00 0.100D+01
 Coeff:     -0.167D-03 0.289D-02-0.113D-01-0.168D-02 0.545D-01 0.450D-01
 Coeff:     -0.353D+00 0.263D+00 0.100D+01
 Gap=     0.540 Goal=   None    Shift=    0.000
 RMSDP=1.35D-08 MaxDP=1.06D-07 DE=-6.25D-13 OVMax= 3.02D-07

 Cycle  10  Pass 1  IDiag  1:
 E= -226.396150093331     Delta-E=       -0.000000000001 Rises=F Damp=F
 DIIS: error= 6.71D-09 at cycle  10 NSaved=  10.
 NSaved=10 IEnMin=10 EnMin= -226.396150093331     IErMin=10 ErrMin= 6.71D-09
 ErrMax= 6.71D-09  0.00D+00 EMaxC= 1.00D-01 BMatC= 1.51D-15 BMatP= 3.04D-14
 IDIUse=1 WtCom= 1.00D+00 WtEn= 0.00D+00
 Coeff-Com:  0.315D-04-0.705D-03 0.307D-02-0.552D-04-0.161D-01-0.276D-02
 Coeff-Com:  0.106D+00-0.156D+00-0.264D+00 0.133D+01
 Coeff:      0.315D-04-0.705D-03 0.307D-02-0.552D-04-0.161D-01-0.276D-02
 Coeff:      0.106D+00-0.156D+00-0.264D+00 0.133D+01
 Gap=     0.540 Goal=   None    Shift=    0.000
 RMSDP=2.89D-09 MaxDP=1.71D-08 DE=-8.53D-13 OVMax= 5.63D-08

 SCF Done:  E(RHF) =  -226.396150093     A.U. after   10 cycles
            NFock= 10  Conv=0.29D-08     -V/T= 2.0034
 KE= 2.256231198244D+02 PE=-7.668823335550D+02 EE= 1.981390739119D+02
 Leave Link  502 at Fri Apr 12 16:01:16 2019, MaxMem=   134217728 cpu:         0.3
 (Enter /cm/shared/c3ddb/gaussian/09.d01/g09/l701.exe)
 Compute integral first derivatives.
 ... and contract with generalized density number  0.
 Leave Link  701 at Fri Apr 12 16:01:16 2019, MaxMem=   134217728 cpu:         0.2
 (Enter /cm/shared/c3ddb/gaussian/09.d01/g09/l702.exe)
 L702 exits ... SP integral derivatives will be done elsewhere.
 Leave Link  702 at Fri Apr 12 16:01:16 2019, MaxMem=   134217728 cpu:         0.1
 (Enter /cm/shared/c3ddb/gaussian/09.d01/g09/l703.exe)
 Compute integral first derivatives, UseDBF=F ICtDFT=           0.
 Integral derivatives from FoFJK, PRISM(SPDF).
 Calling FoFJK, ICntrl=      2127 FMM=F ISym2X=0 I1Cent= 0 IOpClX= 0 NMat=1 NMatS=1 NMatT=0.
 FoFJK:  IHMeth= 1 ICntrl=    2127 DoSepK=F KAlg= 0 I1Cent=   0 FoldK=F
 IRaf=         0 NMat=   1 IRICut=       1 DoRegI=T DoRafI=F ISym2E= 0.
 FoFCou: FMM=F IPFlag=           0 FMFlag=      100000 FMFlg1=         800
         NFxFlg=           0 DoJE=F BraDBF=F KetDBF=F FulRan=T
         wScrn=  0.000000 ICntrl=    2127 IOpCl=  0 I1Cent=           0 NGrid=           0
         NMat0=    1 NMatS0=      1 NMatT0=    0 NMatD0=    1 NMtDS0=    0 NMtDT0=    0
 Symmetry not used in FoFCou.
 Leave Link  703 at Fri Apr 12 16:01:16 2019, MaxMem=   134217728 cpu:         0.2
 (Enter /cm/shared/c3ddb/gaussian/09.d01/g09/l716.exe)
 Dipole        =-6.47166842D-02 1.32230526D-01-1.11625171D-01
 -------------------------------------------------------------------
 Center     Atomic                   Forces (Hartrees/Bohr)
 Number     Number              X              Y              Z
 -------------------------------------------------------------------
      1        6          -0.000039547    0.000247455    0.000723837
      2        6           0.000030701    0.000024896   -0.000594059
      3        1          -0.000006270    0.000010692   -0.000006466
      4        1          -0.000003727    0.000005463   -0.000029718
      5        1          -0.000010539    0.000008893   -0.000018830
      6        8          -0.000093668   -0.000618314    0.000356296
      7        8           0.000020927    0.000115303   -0.000170877
      8        1           0.000102124    0.000205612   -0.000260182
 -------------------------------------------------------------------
 Cartesian Forces:  Max     0.000723837 RMS     0.000260147
 Leave Link  716 at Fri Apr 12 16:01:16 2019, MaxMem=   134217728 cpu:         0.1
 (Enter /cm/shared/c3ddb/gaussian/09.d01/g09/l103.exe)

 GradGradGradGradGradGradGradGradGradGradGradGradGradGradGradGradGradGrad
 Berny optimization.
 Using GEDIIS/GDIIS optimizer.
 FormGI is forming the generalized inverse of G from B-inverse, IUseBI=4.
 Internal  Forces:  Max     0.000899980 RMS     0.000276529
 Search for a local minimum.
 Step number   2 out of a maximum of   32
 All quantities printed in internal units (Hartrees-Bohrs-Radians)
 RMS Force = .43657D-04 SwitMx=.10000D-02 MixMth= 2
 Mixed Optimization -- En-DIIS/RFO-DIIS
 Swapping is turned off.
 Update second derivatives using D2CorX and points    1    2
 DE= -4.36D-07 DEPred=-5.46D-07 R= 7.98D-01
 Trust test= 7.98D-01 RLast= 3.54D-03 DXMaxT set to 3.00D-01
 ITU=  0  0
     Eigenvalues ---    0.02622   0.03096   0.03641   0.15638   0.15997
     Eigenvalues ---    0.16000   0.17792   0.21034   0.29364   0.32645
     Eigenvalues ---    0.37137   0.37187   0.37467   0.46266   0.53113
     Eigenvalues ---    0.647851000.000001000.000001000.000001000.00000
     Eigenvalues --- 1000.000001000.00000
 En-DIIS/RFO-DIIS IScMMF=        0 using points:     2    1
 RFO step:  Lambda=-1.26091250D-07.
 NNeg= 0 NP= 2 Switch=  2.50D-03 Rises=F DC=  4.36D-07 SmlDif=  1.00D-05
 RMS Error=  0.8607141789D-04 NUsed= 2 EDIIS=F
 DidBck=F Rises=F RFO-DIIS coefs:    0.83191    0.16809
 Iteration  1 RMS(Cart)=  0.00034647 RMS(Int)=  0.00000013
 Iteration  2 RMS(Cart)=  0.00000008 RMS(Int)=  0.00000011
 Iteration  1 RMS(Cart)=  0.00000008 RMS(Int)=  0.00000004
 ITry= 1 IFail=0 DXMaxC= 6.80D-04 DCOld= 1.00D+10 DXMaxT= 3.00D-01 DXLimC= 3.00D+00 Rises=F
 Variable       Old X    -DE/DX   Delta X   Delta X   Delta X     New X
                                 (Linear)    (Quad)   (Total)
    R1        2.47323   0.00000   0.00001  -0.00002  -0.00001   2.47322
    R2        2.01922   0.00001   0.00001  -0.00001   0.00001   2.01923
    R3        2.64499  -0.00003  -0.00003  -0.00001  -0.00004   2.64495
    R4        2.02269   0.00000   0.00000  -0.00001  -0.00001   2.02269
    R5        2.02335   0.00000   0.00001  -0.00002  -0.00001   2.02334
    R6        2.78232  -0.00010   0.00013  -0.00045  -0.00031   2.78200
    R7        1.83626  -0.00002   0.00000  -0.00003  -0.00003   1.83623
    A1        2.18552   0.00002  -0.00005   0.00022   0.00017   2.18568
    A2        2.10685  -0.00005   0.00004  -0.00024  -0.00020   2.10665
    A3        1.99029   0.00002   0.00000   0.00002   0.00002   1.99031
    A4        2.10332   0.00000   0.00000   0.00001   0.00001   2.10333
    A5        2.11543  -0.00001   0.00003  -0.00013  -0.00010   2.11533
    A6        2.06431   0.00001  -0.00003   0.00011   0.00008   2.06439
    A7        1.84162  -0.00011  -0.00020  -0.00003  -0.00022   1.84139
    A8        1.73037  -0.00010  -0.00018  -0.00023  -0.00041   1.72996
    D1       -0.04560   0.00020   0.00010  -0.00064  -0.00054  -0.04614
    D2        3.11322   0.00025   0.00040  -0.00007   0.00034   3.11356
    D3        3.05869  -0.00026  -0.00008  -0.00072  -0.00080   3.05790
    D4       -0.06567  -0.00021   0.00022  -0.00014   0.00008  -0.06559
    D5        2.44346   0.00090   0.00000   0.00000   0.00000   2.44346
    D6       -0.73149   0.00049  -0.00016  -0.00006  -0.00022  -0.73172
    D7        2.96706  -0.00062   0.00000   0.00000   0.00000   2.96706
         Item               Value     Threshold  Converged?
 Maximum Force            0.000107     0.000015     NO 
 RMS     Force            0.000044     0.000010     NO 
 Maximum Displacement     0.000680     0.000060     NO 
 RMS     Displacement     0.000346     0.000040     NO 
 Predicted change in Energy=-8.080148D-08
 Lowest energy point so far.  Saving SCF results.
 GradGradGradGradGradGradGradGradGradGradGradGradGradGradGradGradGradGrad

 Leave Link  103 at Fri Apr 12 16:01:16 2019, MaxMem=   134217728 cpu:         0.0
 (Enter /cm/shared/c3ddb/gaussian/09.d01/g09/l202.exe)
                          Input orientation:                          
 ---------------------------------------------------------------------
 Center     Atomic      Atomic             Coordinates (Angstroms)
 Number     Number       Type             X           Y           Z
 ---------------------------------------------------------------------
      1          6           0        0.724834    0.634664    0.054306
      2          6           0        1.367625   -0.504217    0.002836
      3          1           0        1.182125    1.598110    0.120713
      4          1           0        2.437628   -0.523935   -0.016487
      5          1           0        0.842261   -1.436295   -0.037582
      6          8           0       -0.672334    0.670717   -0.020783
      7          8           0       -1.092324    1.694460    0.950220
      8          1           0       -2.030875    1.761029    0.707581
 ---------------------------------------------------------------------
                    Distance matrix (angstroms):
                    1          2          3          4          5
     1  C    0.000000
     2  C    1.308771   0.000000
     3  H    1.068529   2.113785   0.000000
     4  H    2.069064   1.070359   2.469451   0.000000
     5  H    2.076320   1.070706   3.057480   1.837945   0.000000
     6  O    1.399648   2.354243   2.078244   3.331527   2.594953
     7  O    2.286458   3.432647   2.422908   4.279761   3.810512
     8  H    3.047852   4.144613   3.270218   5.070785   4.362690
                    6          7          8
     6  O    0.000000
     7  O    1.472171   0.000000
     8  H    1.888102   0.971691   0.000000
 Symmetry turned off by external request.
 Stoichiometry    C2H4O2
 Framework group  C1[X(C2H4O2)]
 Deg. of freedom    18
 Full point group                 C1      NOp   1
 Rotational constants (GHZ):     36.4956842      4.6487579      4.3624476
 Leave Link  202 at Fri Apr 12 16:01:16 2019, MaxMem=   134217728 cpu:         0.0
 (Enter /cm/shared/c3ddb/gaussian/09.d01/g09/l301.exe)
 Standard basis: 3-21G (6D, 7F)
 Ernie: Thresh=  0.10000D-02 Tol=  0.10000D-05 Strict=F.
    44 basis functions,    72 primitive gaussians,    44 cartesian basis functions
    16 alpha electrons       16 beta electrons
       nuclear repulsion energy       116.7317507052 Hartrees.
 IExCor=    0 DFT=F Ex=HF Corr=None ExCW=0 ScaHFX=  1.000000
 ScaDFX=  1.000000  1.000000  1.000000  1.000000 ScalE2=  1.000000  1.000000
 IRadAn=      0 IRanWt=     -1 IRanGd=            0 ICorTp=0 IEmpDi=  4
 NAtoms=    8 NActive=    8 NUniq=    8 SFac= 1.00D+00 NAtFMM=   60 NAOKFM=F Big=F
 Integral buffers will be    131072 words long.
 Raffenetti 1 integral format.
 Two-electron integral symmetry is turned off.
 Leave Link  301 at Fri Apr 12 16:01:17 2019, MaxMem=   134217728 cpu:         0.1
 (Enter /cm/shared/c3ddb/gaussian/09.d01/g09/l302.exe)
 NPDir=0 NMtPBC=     1 NCelOv=     1 NCel=       1 NClECP=     1 NCelD=      1
         NCelK=      1 NCelE2=     1 NClLst=     1 CellRange=     0.0.
 One-electron integrals computed using PRISM.
 NBasis=    44 RedAO= T EigKep=  1.15D-02  NBF=    44
 NBsUse=    44 1.00D-06 EigRej= -1.00D+00 NBFU=    44
 Leave Link  302 at Fri Apr 12 16:01:17 2019, MaxMem=   134217728 cpu:         0.2
 (Enter /cm/shared/c3ddb/gaussian/09.d01/g09/l303.exe)
 DipDrv:  MaxL=1.
 Leave Link  303 at Fri Apr 12 16:01:17 2019, MaxMem=   134217728 cpu:         0.1
 (Enter /cm/shared/c3ddb/gaussian/09.d01/g09/l401.exe)
 Initial guess from the checkpoint file:  "TMP_CALCS/scangeom_S02_140_170.chk"
 B after Tr=     0.000090   -0.000005    0.000135
         Rot=    1.000000   -0.000001    0.000019    0.000003 Ang=   0.00 deg.
 Guess basis will be translated and rotated to current coordinates.
 JPrj=2 DoOrth=T DoCkMO=T.
 Leave Link  401 at Fri Apr 12 16:01:18 2019, MaxMem=   134217728 cpu:         0.3
 (Enter /cm/shared/c3ddb/gaussian/09.d01/g09/l502.exe)
 Closed shell SCF:
 Using DIIS extrapolation, IDIIS=  1040.
 Two-electron integral symmetry not used.
 Keep R1 ints in memory in canonical form, NReq=1327205.
 IVT=       24902 IEndB=       24902 NGot=   134217728 MDV=   133702282
 LenX=   133702282 LenY=   133699905
 Requested convergence on RMS density matrix=1.00D-08 within 128 cycles.
 Requested convergence on MAX density matrix=1.00D-06.
 Requested convergence on             energy=1.00D-06.
 No special actions if energy rises.
 FoFCou: FMM=F IPFlag=           0 FMFlag=           0 FMFlg1=           0
         NFxFlg=           0 DoJE=F BraDBF=F KetDBF=F FulRan=T
         wScrn=  0.000000 ICntrl=     600 IOpCl=  0 I1Cent=           0 NGrid=           0
         NMat0=    1 NMatS0=    990 NMatT0=    0 NMatD0=    1 NMtDS0=    0 NMtDT0=    0
 Symmetry not used in FoFCou.

 Cycle   1  Pass 1  IDiag  1:
 E= -226.396150095338    
 DIIS: error= 2.07D-05 at cycle   1 NSaved=   1.
 NSaved= 1 IEnMin= 1 EnMin= -226.396150095338     IErMin= 1 ErrMin= 2.07D-05
 ErrMax= 2.07D-05  0.00D+00 EMaxC= 1.00D-01 BMatC= 4.52D-08 BMatP= 4.52D-08
 IDIUse=1 WtCom= 1.00D+00 WtEn= 0.00D+00
 Coeff-Com:  0.100D+01
 Coeff:      0.100D+01
 Gap=     0.949 Goal=   None    Shift=    0.000
 RMSDP=5.05D-06 MaxDP=3.56D-05              OVMax= 4.34D-05

 Cycle   2  Pass 1  IDiag  1:
 E= -226.396150139369     Delta-E=       -0.000000044031 Rises=F Damp=F
 DIIS: error= 4.67D-06 at cycle   2 NSaved=   2.
 NSaved= 2 IEnMin= 2 EnMin= -226.396150139369     IErMin= 2 ErrMin= 4.67D-06
 ErrMax= 4.67D-06  0.00D+00 EMaxC= 1.00D-01 BMatC= 1.89D-09 BMatP= 4.52D-08
 IDIUse=1 WtCom= 1.00D+00 WtEn= 0.00D+00
 Coeff-Com: -0.124D+00 0.112D+01
 Coeff:     -0.124D+00 0.112D+01
 Gap=     0.540 Goal=   None    Shift=    0.000
 RMSDP=1.57D-06 MaxDP=1.17D-05 DE=-4.40D-08 OVMax= 2.07D-05

 Cycle   3  Pass 1  IDiag  1:
 E= -226.396150143193     Delta-E=       -0.000000003824 Rises=F Damp=F
 DIIS: error= 1.38D-06 at cycle   3 NSaved=   3.
 NSaved= 3 IEnMin= 3 EnMin= -226.396150143193     IErMin= 3 ErrMin= 1.38D-06
 ErrMax= 1.38D-06  0.00D+00 EMaxC= 1.00D-01 BMatC= 2.13D-10 BMatP= 1.89D-09
 IDIUse=1 WtCom= 1.00D+00 WtEn= 0.00D+00
 Coeff-Com: -0.364D-01 0.101D+00 0.935D+00
 Coeff:     -0.364D-01 0.101D+00 0.935D+00
 Gap=     0.540 Goal=   None    Shift=    0.000
 RMSDP=4.89D-07 MaxDP=3.24D-06 DE=-3.82D-09 OVMax= 6.98D-06

 Cycle   4  Pass 1  IDiag  1:
 E= -226.396150143552     Delta-E=       -0.000000000359 Rises=F Damp=F
 DIIS: error= 8.65D-07 at cycle   4 NSaved=   4.
 NSaved= 4 IEnMin= 4 EnMin= -226.396150143552     IErMin= 4 ErrMin= 8.65D-07
 ErrMax= 8.65D-07  0.00D+00 EMaxC= 1.00D-01 BMatC= 3.48D-11 BMatP= 2.13D-10
 IDIUse=1 WtCom= 1.00D+00 WtEn= 0.00D+00
 Coeff-Com:  0.877D-02-0.128D+00 0.157D+00 0.962D+00
 Coeff:      0.877D-02-0.128D+00 0.157D+00 0.962D+00
 Gap=     0.540 Goal=   None    Shift=    0.000
 RMSDP=2.43D-07 MaxDP=1.77D-06 DE=-3.59D-10 OVMax= 3.87D-06

 Cycle   5  Pass 1  IDiag  1:
 E= -226.396150143625     Delta-E=       -0.000000000073 Rises=F Damp=F
 DIIS: error= 3.19D-07 at cycle   5 NSaved=   5.
 NSaved= 5 IEnMin= 5 EnMin= -226.396150143625     IErMin= 5 ErrMin= 3.19D-07
 ErrMax= 3.19D-07  0.00D+00 EMaxC= 1.00D-01 BMatC= 4.09D-12 BMatP= 3.48D-11
 IDIUse=1 WtCom= 1.00D+00 WtEn= 0.00D+00
 Coeff-Com:  0.392D-02-0.293D-01-0.369D-01 0.181D+00 0.882D+00
 Coeff:      0.392D-02-0.293D-01-0.369D-01 0.181D+00 0.882D+00
 Gap=     0.540 Goal=   None    Shift=    0.000
 RMSDP=7.10D-08 MaxDP=4.28D-07 DE=-7.29D-11 OVMax= 1.02D-06

 Cycle   6  Pass 1  IDiag  1:
 E= -226.396150143634     Delta-E=       -0.000000000009 Rises=F Damp=F
 DIIS: error= 2.04D-07 at cycle   6 NSaved=   6.
 NSaved= 6 IEnMin= 6 EnMin= -226.396150143634     IErMin= 6 ErrMin= 2.04D-07
 ErrMax= 2.04D-07  0.00D+00 EMaxC= 1.00D-01 BMatC= 7.32D-13 BMatP= 4.09D-12
 IDIUse=1 WtCom= 1.00D+00 WtEn= 0.00D+00
 Coeff-Com: -0.179D-02 0.278D-01-0.404D-01-0.207D+00 0.199D-01 0.120D+01
 Coeff:     -0.179D-02 0.278D-01-0.404D-01-0.207D+00 0.199D-01 0.120D+01
 Gap=     0.540 Goal=   None    Shift=    0.000
 RMSDP=5.52D-08 MaxDP=3.62D-07 DE=-9.15D-12 OVMax= 9.92D-07

 Cycle   7  Pass 1  IDiag  1:
 E= -226.396150143637     Delta-E=       -0.000000000003 Rises=F Damp=F
 DIIS: error= 1.02D-07 at cycle   7 NSaved=   7.
 NSaved= 7 IEnMin= 7 EnMin= -226.396150143637     IErMin= 7 ErrMin= 1.02D-07
 ErrMax= 1.02D-07  0.00D+00 EMaxC= 1.00D-01 BMatC= 1.02D-13 BMatP= 7.32D-13
 IDIUse=1 WtCom= 1.00D+00 WtEn= 0.00D+00
 Coeff-Com:  0.387D-03-0.913D-02 0.225D-01 0.708D-01-0.119D+00-0.481D+00
 Coeff-Com:  0.152D+01
 Coeff:      0.387D-03-0.913D-02 0.225D-01 0.708D-01-0.119D+00-0.481D+00
 Coeff:      0.152D+01
 Gap=     0.540 Goal=   None    Shift=    0.000
 RMSDP=2.51D-08 MaxDP=1.87D-07 DE=-2.79D-12 OVMax= 4.65D-07

 Cycle   8  Pass 1  IDiag  1:
 E= -226.396150143637     Delta-E=        0.000000000000 Rises=F Damp=F
 DIIS: error= 4.21D-08 at cycle   8 NSaved=   8.
 NSaved= 8 IEnMin= 8 EnMin= -226.396150143637     IErMin= 8 ErrMin= 4.21D-08
 ErrMax= 4.21D-08  0.00D+00 EMaxC= 1.00D-01 BMatC= 1.81D-14 BMatP= 1.02D-13
 IDIUse=1 WtCom= 1.00D+00 WtEn= 0.00D+00
 Coeff-Com:  0.308D-03-0.470D-02 0.696D-02 0.353D-01-0.106D-02-0.207D+00
 Coeff-Com:  0.832D-02 0.116D+01
 Coeff:      0.308D-03-0.470D-02 0.696D-02 0.353D-01-0.106D-02-0.207D+00
 Coeff:      0.832D-02 0.116D+01
 Gap=     0.540 Goal=   None    Shift=    0.000
 RMSDP=9.72D-09 MaxDP=7.76D-08 DE=-2.27D-13 OVMax= 2.08D-07

 SCF Done:  E(RHF) =  -226.396150144     A.U. after    8 cycles
            NFock=  8  Conv=0.97D-08     -V/T= 2.0034
 KE= 2.256237886601D+02 PE=-7.668981463834D+02 EE= 1.981464568745D+02
 Leave Link  502 at Fri Apr 12 16:01:18 2019, MaxMem=   134217728 cpu:         0.2
 (Enter /cm/shared/c3ddb/gaussian/09.d01/g09/l701.exe)
 Compute integral first derivatives.
 ... and contract with generalized density number  0.
 Leave Link  701 at Fri Apr 12 16:01:18 2019, MaxMem=   134217728 cpu:         0.2
 (Enter /cm/shared/c3ddb/gaussian/09.d01/g09/l702.exe)
 L702 exits ... SP integral derivatives will be done elsewhere.
 Leave Link  702 at Fri Apr 12 16:01:18 2019, MaxMem=   134217728 cpu:         0.1
 (Enter /cm/shared/c3ddb/gaussian/09.d01/g09/l703.exe)
 Compute integral first derivatives, UseDBF=F ICtDFT=           0.
 Integral derivatives from FoFJK, PRISM(SPDF).
 Calling FoFJK, ICntrl=      2127 FMM=F ISym2X=0 I1Cent= 0 IOpClX= 0 NMat=1 NMatS=1 NMatT=0.
 FoFJK:  IHMeth= 1 ICntrl=    2127 DoSepK=F KAlg= 0 I1Cent=   0 FoldK=F
 IRaf=         0 NMat=   1 IRICut=       1 DoRegI=T DoRafI=F ISym2E= 0.
 FoFCou: FMM=F IPFlag=           0 FMFlag=      100000 FMFlg1=         800
         NFxFlg=           0 DoJE=F BraDBF=F KetDBF=F FulRan=T
         wScrn=  0.000000 ICntrl=    2127 IOpCl=  0 I1Cent=           0 NGrid=           0
         NMat0=    1 NMatS0=      1 NMatT0=    0 NMatD0=    1 NMtDS0=    0 NMtDT0=    0
 Symmetry not used in FoFCou.
 Leave Link  703 at Fri Apr 12 16:01:18 2019, MaxMem=   134217728 cpu:         0.2
 (Enter /cm/shared/c3ddb/gaussian/09.d01/g09/l716.exe)
 Dipole        =-6.46978525D-02 1.32172270D-01-1.12045606D-01
 -------------------------------------------------------------------
 Center     Atomic                   Forces (Hartrees/Bohr)
 Number     Number              X              Y              Z
 -------------------------------------------------------------------
      1        6          -0.000031015    0.000193957    0.000670917
      2        6           0.000054661    0.000043900   -0.000656593
      3        1          -0.000004425    0.000001939   -0.000002782
      4        1           0.000000146   -0.000003922    0.000010626
      5        1          -0.000004760    0.000000979   -0.000004114
      6        8           0.000005802   -0.000673482    0.000323583
      7        8          -0.000096872    0.000177514   -0.000131808
      8        1           0.000076463    0.000259115   -0.000209828
 -------------------------------------------------------------------
 Cartesian Forces:  Max     0.000673482 RMS     0.000262880
 Leave Link  716 at Fri Apr 12 16:01:19 2019, MaxMem=   134217728 cpu:         0.1
 (Enter /cm/shared/c3ddb/gaussian/09.d01/g09/l103.exe)

 GradGradGradGradGradGradGradGradGradGradGradGradGradGradGradGradGradGrad
 Berny optimization.
 Using GEDIIS/GDIIS optimizer.
 FormGI is forming the generalized inverse of G from B-inverse, IUseBI=4.
 Internal  Forces:  Max     0.000891149 RMS     0.000272057
 Search for a local minimum.
 Step number   3 out of a maximum of   32
 All quantities printed in internal units (Hartrees-Bohrs-Radians)
 RMS Force = .22269D-04 SwitMx=.10000D-02 MixMth= 2
 Mixed Optimization -- En-DIIS/RFO-DIIS
 Swapping is turned off.
 Update second derivatives using D2CorX and points    1    2    3
 DE= -5.03D-08 DEPred=-8.08D-08 R= 6.23D-01
 Trust test= 6.23D-01 RLast= 1.22D-03 DXMaxT set to 3.00D-01
 ITU=  0  0  0
     Eigenvalues ---    0.02615   0.03366   0.03575   0.14902   0.15997
     Eigenvalues ---    0.16018   0.18317   0.21098   0.29513   0.37132
     Eigenvalues ---    0.37185   0.37419   0.43676   0.48852   0.52997
     Eigenvalues ---    0.651121000.000001000.000001000.000001000.00000
     Eigenvalues --- 1000.000001000.00000
 En-DIIS/RFO-DIIS IScMMF=        0 using points:     3    2    1
 RFO step:  Lambda=-6.63125395D-08.
 NNeg= 0 NP= 3 Switch=  2.50D-03 Rises=F DC=  4.36D-07 SmlDif=  1.00D-05
 RMS Error=  0.3484996133D-04 NUsed= 3 EDIIS=F
 DidBck=T Rises=F RFO-DIIS coefs:    0.67072    0.27387    0.05541
 Iteration  1 RMS(Cart)=  0.00010878 RMS(Int)=  0.00000011
 Iteration  2 RMS(Cart)=  0.00000001 RMS(Int)=  0.00000011
 Iteration  1 RMS(Cart)=  0.00000010 RMS(Int)=  0.00000005
 ITry= 1 IFail=0 DXMaxC= 2.59D-04 DCOld= 1.00D+10 DXMaxT= 3.00D-01 DXLimC= 3.00D+00 Rises=F
 Variable       Old X    -DE/DX   Delta X   Delta X   Delta X     New X
                                 (Linear)    (Quad)   (Total)
    R1        2.47322   0.00001   0.00001   0.00001   0.00002   2.47323
    R2        2.01923   0.00000   0.00000   0.00000   0.00000   2.01923
    R3        2.64495   0.00001   0.00000   0.00000   0.00001   2.64496
    R4        2.02269   0.00000   0.00000   0.00000   0.00000   2.02268
    R5        2.02334   0.00000   0.00001   0.00000   0.00000   2.02334
    R6        2.78200   0.00008   0.00015   0.00002   0.00017   2.78217
    R7        1.83623   0.00000   0.00001  -0.00002  -0.00001   1.83622
    A1        2.18568  -0.00001  -0.00007   0.00008   0.00001   2.18569
    A2        2.10665   0.00000   0.00008  -0.00006   0.00002   2.10667
    A3        1.99031   0.00000  -0.00001  -0.00002  -0.00003   1.99028
    A4        2.10333   0.00001   0.00000   0.00004   0.00003   2.10336
    A5        2.11533  -0.00001   0.00004  -0.00008  -0.00003   2.11530
    A6        2.06439   0.00000  -0.00004   0.00004   0.00000   2.06439
    A7        1.84139   0.00002   0.00001   0.00001   0.00002   1.84141
    A8        1.72996   0.00004   0.00007   0.00004   0.00011   1.73008
    D1       -0.04614   0.00023   0.00021  -0.00009   0.00013  -0.04602
    D2        3.11356   0.00022   0.00002   0.00008   0.00010   3.11366
    D3        3.05790  -0.00021   0.00024  -0.00003   0.00021   3.05810
    D4       -0.06559  -0.00022   0.00005   0.00013   0.00018  -0.06541
    D5        2.44346   0.00089   0.00000   0.00000   0.00000   2.44346
    D6       -0.73172   0.00050   0.00002   0.00005   0.00007  -0.73164
    D7        2.96706  -0.00062   0.00000   0.00000   0.00000   2.96706
         Item               Value     Threshold  Converged?
 Maximum Force            0.000084     0.000015     NO 
 RMS     Force            0.000022     0.000010     NO 
 Maximum Displacement     0.000259     0.000060     NO 
 RMS     Displacement     0.000109     0.000040     NO 
 Predicted change in Energy=-1.258988D-08
 Lowest energy point so far.  Saving SCF results.
 GradGradGradGradGradGradGradGradGradGradGradGradGradGradGradGradGradGrad

 Leave Link  103 at Fri Apr 12 16:01:19 2019, MaxMem=   134217728 cpu:         0.0
 (Enter /cm/shared/c3ddb/gaussian/09.d01/g09/l202.exe)
                          Input orientation:                          
 ---------------------------------------------------------------------
 Center     Atomic      Atomic             Coordinates (Angstroms)
 Number     Number       Type             X           Y           Z
 ---------------------------------------------------------------------
      1          6           0        0.724837    0.634636    0.054248
      2          6           0        1.367669   -0.504234    0.002824
      3          1           0        1.182088    1.598104    0.120650
      4          1           0        2.437674   -0.523959   -0.016350
      5          1           0        0.842302   -1.436309   -0.037682
      6          8           0       -0.672338    0.670663   -0.020788
      7          8           0       -1.092361    1.694515    0.950223
      8          1           0       -2.030931    1.761116    0.707680
 ---------------------------------------------------------------------
                    Distance matrix (angstroms):
                    1          2          3          4          5
     1  C    0.000000
     2  C    1.308779   0.000000
     3  H    1.068530   2.113799   0.000000
     4  H    2.069092   1.070359   2.469498   0.000000
     5  H    2.076310   1.070708   3.057480   1.837947   0.000000
     6  O    1.399652   2.354266   2.078231   3.331564   2.594947
     7  O    2.286552   3.432755   2.422932   4.279841   3.810634
     8  H    3.047981   4.144770   3.270270   5.070920   4.362861
                    6          7          8
     6  O    0.000000
     7  O    1.472262   0.000000
     8  H    1.888261   0.971688   0.000000
 Symmetry turned off by external request.
 Stoichiometry    C2H4O2
 Framework group  C1[X(C2H4O2)]
 Deg. of freedom    18
 Full point group                 C1      NOp   1
 Rotational constants (GHZ):     36.4948288      4.6484990      4.3621991
 Leave Link  202 at Fri Apr 12 16:01:19 2019, MaxMem=   134217728 cpu:         0.0
 (Enter /cm/shared/c3ddb/gaussian/09.d01/g09/l301.exe)
 Standard basis: 3-21G (6D, 7F)
 Ernie: Thresh=  0.10000D-02 Tol=  0.10000D-05 Strict=F.
    44 basis functions,    72 primitive gaussians,    44 cartesian basis functions
    16 alpha electrons       16 beta electrons
       nuclear repulsion energy       116.7290375354 Hartrees.
 IExCor=    0 DFT=F Ex=HF Corr=None ExCW=0 ScaHFX=  1.000000
 ScaDFX=  1.000000  1.000000  1.000000  1.000000 ScalE2=  1.000000  1.000000
 IRadAn=      0 IRanWt=     -1 IRanGd=            0 ICorTp=0 IEmpDi=  4
 NAtoms=    8 NActive=    8 NUniq=    8 SFac= 1.00D+00 NAtFMM=   60 NAOKFM=F Big=F
 Integral buffers will be    131072 words long.
 Raffenetti 1 integral format.
 Two-electron integral symmetry is turned off.
 Leave Link  301 at Fri Apr 12 16:01:19 2019, MaxMem=   134217728 cpu:         0.2
 (Enter /cm/shared/c3ddb/gaussian/09.d01/g09/l302.exe)
 NPDir=0 NMtPBC=     1 NCelOv=     1 NCel=       1 NClECP=     1 NCelD=      1
         NCelK=      1 NCelE2=     1 NClLst=     1 CellRange=     0.0.
 One-electron integrals computed using PRISM.
 NBasis=    44 RedAO= T EigKep=  1.15D-02  NBF=    44
 NBsUse=    44 1.00D-06 EigRej= -1.00D+00 NBFU=    44
 Leave Link  302 at Fri Apr 12 16:01:19 2019, MaxMem=   134217728 cpu:         0.2
 (Enter /cm/shared/c3ddb/gaussian/09.d01/g09/l303.exe)
 DipDrv:  MaxL=1.
 Leave Link  303 at Fri Apr 12 16:01:19 2019, MaxMem=   134217728 cpu:         0.1
 (Enter /cm/shared/c3ddb/gaussian/09.d01/g09/l401.exe)
 Initial guess from the checkpoint file:  "TMP_CALCS/scangeom_S02_140_170.chk"
 B after Tr=    -0.000001   -0.000027    0.000015
         Rot=    1.000000    0.000014   -0.000009   -0.000004 Ang=   0.00 deg.
 Guess basis will be translated and rotated to current coordinates.
 JPrj=2 DoOrth=T DoCkMO=T.
 Leave Link  401 at Fri Apr 12 16:01:20 2019, MaxMem=   134217728 cpu:         0.2
 (Enter /cm/shared/c3ddb/gaussian/09.d01/g09/l502.exe)
 Closed shell SCF:
 Using DIIS extrapolation, IDIIS=  1040.
 Two-electron integral symmetry not used.
 Keep R1 ints in memory in canonical form, NReq=1327205.
 IVT=       24902 IEndB=       24902 NGot=   134217728 MDV=   133702282
 LenX=   133702282 LenY=   133699905
 Requested convergence on RMS density matrix=1.00D-08 within 128 cycles.
 Requested convergence on MAX density matrix=1.00D-06.
 Requested convergence on             energy=1.00D-06.
 No special actions if energy rises.
 FoFCou: FMM=F IPFlag=           0 FMFlag=           0 FMFlg1=           0
         NFxFlg=           0 DoJE=F BraDBF=F KetDBF=F FulRan=T
         wScrn=  0.000000 ICntrl=     600 IOpCl=  0 I1Cent=           0 NGrid=           0
         NMat0=    1 NMatS0=    990 NMatT0=    0 NMatD0=    1 NMtDS0=    0 NMtDT0=    0
 Symmetry not used in FoFCou.

 Cycle   1  Pass 1  IDiag  1:
 E= -226.396150149813    
 DIIS: error= 7.72D-06 at cycle   1 NSaved=   1.
 NSaved= 1 IEnMin= 1 EnMin= -226.396150149813     IErMin= 1 ErrMin= 7.72D-06
 ErrMax= 7.72D-06  0.00D+00 EMaxC= 1.00D-01 BMatC= 5.52D-09 BMatP= 5.52D-09
 IDIUse=1 WtCom= 1.00D+00 WtEn= 0.00D+00
 Coeff-Com:  0.100D+01
 Coeff:      0.100D+01
 Gap=     0.949 Goal=   None    Shift=    0.000
 RMSDP=1.57D-06 MaxDP=1.03D-05              OVMax= 2.29D-05

 Cycle   2  Pass 1  IDiag  1:
 E= -226.396150155358     Delta-E=       -0.000000005545 Rises=F Damp=F
 DIIS: error= 2.65D-06 at cycle   2 NSaved=   2.
 NSaved= 2 IEnMin= 2 EnMin= -226.396150155358     IErMin= 2 ErrMin= 2.65D-06
 ErrMax= 2.65D-06  0.00D+00 EMaxC= 1.00D-01 BMatC= 2.81D-10 BMatP= 5.52D-09
 IDIUse=1 WtCom= 1.00D+00 WtEn= 0.00D+00
 Coeff-Com: -0.142D+00 0.114D+01
 Coeff:     -0.142D+00 0.114D+01
 Gap=     0.540 Goal=   None    Shift=    0.000
 RMSDP=5.81D-07 MaxDP=4.27D-06 DE=-5.55D-09 OVMax= 1.15D-05

 Cycle   3  Pass 1  IDiag  1:
 E= -226.396150156014     Delta-E=       -0.000000000656 Rises=F Damp=F
 DIIS: error= 9.26D-07 at cycle   3 NSaved=   3.
 NSaved= 3 IEnMin= 3 EnMin= -226.396150156014     IErMin= 3 ErrMin= 9.26D-07
 ErrMax= 9.26D-07  0.00D+00 EMaxC= 1.00D-01 BMatC= 3.95D-11 BMatP= 2.81D-10
 IDIUse=1 WtCom= 1.00D+00 WtEn= 0.00D+00
 Coeff-Com: -0.420D-01 0.857D-01 0.956D+00
 Coeff:     -0.420D-01 0.857D-01 0.956D+00
 Gap=     0.540 Goal=   None    Shift=    0.000
 RMSDP=2.09D-07 MaxDP=1.50D-06 DE=-6.56D-10 OVMax= 3.94D-06

 Cycle   4  Pass 1  IDiag  1:
 E= -226.396150156099     Delta-E=       -0.000000000086 Rises=F Damp=F
 DIIS: error= 4.96D-07 at cycle   4 NSaved=   4.
 NSaved= 4 IEnMin= 4 EnMin= -226.396150156099     IErMin= 4 ErrMin= 4.96D-07
 ErrMax= 4.96D-07  0.00D+00 EMaxC= 1.00D-01 BMatC= 8.22D-12 BMatP= 3.95D-11
 IDIUse=1 WtCom= 1.00D+00 WtEn= 0.00D+00
 Coeff-Com:  0.166D-01-0.185D+00 0.141D+00 0.103D+01
 Coeff:      0.166D-01-0.185D+00 0.141D+00 0.103D+01
 Gap=     0.540 Goal=   None    Shift=    0.000
 RMSDP=1.26D-07 MaxDP=8.79D-07 DE=-8.57D-11 OVMax= 2.42D-06

 Cycle   5  Pass 1  IDiag  1:
 E= -226.396150156121     Delta-E=       -0.000000000022 Rises=F Damp=F
 DIIS: error= 1.64D-07 at cycle   5 NSaved=   5.
 NSaved= 5 IEnMin= 5 EnMin= -226.396150156121     IErMin= 5 ErrMin= 1.64D-07
 ErrMax= 1.64D-07  0.00D+00 EMaxC= 1.00D-01 BMatC= 9.28D-13 BMatP= 8.22D-12
 IDIUse=1 WtCom= 1.00D+00 WtEn= 0.00D+00
 Coeff-Com:  0.678D-02-0.372D-01-0.768D-01 0.176D+00 0.931D+00
 Coeff:      0.678D-02-0.372D-01-0.768D-01 0.176D+00 0.931D+00
 Gap=     0.540 Goal=   None    Shift=    0.000
 RMSDP=3.70D-08 MaxDP=2.11D-07 DE=-2.16D-11 OVMax= 5.20D-07

 Cycle   6  Pass 1  IDiag  1:
 E= -226.396150156123     Delta-E=       -0.000000000002 Rises=F Damp=F
 DIIS: error= 5.87D-08 at cycle   6 NSaved=   6.
 NSaved= 6 IEnMin= 6 EnMin= -226.396150156123     IErMin= 6 ErrMin= 5.87D-08
 ErrMax= 5.87D-08  0.00D+00 EMaxC= 1.00D-01 BMatC= 9.62D-14 BMatP= 9.28D-13
 IDIUse=1 WtCom= 1.00D+00 WtEn= 0.00D+00
 Coeff-Com: -0.181D-02 0.250D-01-0.333D-01-0.140D+00 0.789D-01 0.107D+01
 Coeff:     -0.181D-02 0.250D-01-0.333D-01-0.140D+00 0.789D-01 0.107D+01
 Gap=     0.540 Goal=   None    Shift=    0.000
 RMSDP=1.69D-08 MaxDP=1.01D-07 DE=-2.39D-12 OVMax= 2.82D-07

 Cycle   7  Pass 1  IDiag  1:
 E= -226.396150156123     Delta-E=        0.000000000000 Rises=F Damp=F
 DIIS: error= 2.01D-08 at cycle   7 NSaved=   7.
 NSaved= 7 IEnMin= 6 EnMin= -226.396150156123     IErMin= 7 ErrMin= 2.01D-08
 ErrMax= 2.01D-08  0.00D+00 EMaxC= 1.00D-01 BMatC= 7.76D-15 BMatP= 9.62D-14
 IDIUse=1 WtCom= 1.00D+00 WtEn= 0.00D+00
 Coeff-Com:  0.114D-03-0.486D-02 0.146D-01 0.306D-01-0.949D-01-0.270D+00
 Coeff-Com:  0.132D+01
 Coeff:      0.114D-03-0.486D-02 0.146D-01 0.306D-01-0.949D-01-0.270D+00
 Coeff:      0.132D+01
 Gap=     0.540 Goal=   None    Shift=    0.000
 RMSDP=5.13D-09 MaxDP=3.78D-08 DE= 1.71D-13 OVMax= 8.22D-08

 SCF Done:  E(RHF) =  -226.396150156     A.U. after    7 cycles
            NFock=  7  Conv=0.51D-08     -V/T= 2.0034
 KE= 2.256235241322D+02 PE=-7.668926079071D+02 EE= 1.981438960834D+02
 Leave Link  502 at Fri Apr 12 16:01:20 2019, MaxMem=   134217728 cpu:         0.2
 (Enter /cm/shared/c3ddb/gaussian/09.d01/g09/l701.exe)
 Compute integral first derivatives.
 ... and contract with generalized density number  0.
 Leave Link  701 at Fri Apr 12 16:01:20 2019, MaxMem=   134217728 cpu:         0.1
 (Enter /cm/shared/c3ddb/gaussian/09.d01/g09/l702.exe)
 L702 exits ... SP integral derivatives will be done elsewhere.
 Leave Link  702 at Fri Apr 12 16:01:20 2019, MaxMem=   134217728 cpu:         0.0
 (Enter /cm/shared/c3ddb/gaussian/09.d01/g09/l703.exe)
 Compute integral first derivatives, UseDBF=F ICtDFT=           0.
 Integral derivatives from FoFJK, PRISM(SPDF).
 Calling FoFJK, ICntrl=      2127 FMM=F ISym2X=0 I1Cent= 0 IOpClX= 0 NMat=1 NMatS=1 NMatT=0.
 FoFJK:  IHMeth= 1 ICntrl=    2127 DoSepK=F KAlg= 0 I1Cent=   0 FoldK=F
 IRaf=         0 NMat=   1 IRICut=       1 DoRegI=T DoRafI=F ISym2E= 0.
 FoFCou: FMM=F IPFlag=           0 FMFlag=      100000 FMFlg1=         800
         NFxFlg=           0 DoJE=F BraDBF=F KetDBF=F FulRan=T
         wScrn=  0.000000 ICntrl=    2127 IOpCl=  0 I1Cent=           0 NGrid=           0
         NMat0=    1 NMatS0=      1 NMatT0=    0 NMatD0=    1 NMtDS0=    0 NMtDT0=    0
 Symmetry not used in FoFCou.
 Leave Link  703 at Fri Apr 12 16:01:21 2019, MaxMem=   134217728 cpu:         0.2
 (Enter /cm/shared/c3ddb/gaussian/09.d01/g09/l716.exe)
 Dipole        =-6.47151918D-02 1.32211736D-01-1.11999663D-01
 -------------------------------------------------------------------
 Center     Atomic                   Forces (Hartrees/Bohr)
 Number     Number              X              Y              Z
 -------------------------------------------------------------------
      1        6          -0.000026827    0.000199991    0.000688201
      2        6           0.000040556    0.000049840   -0.000656573
      3        1          -0.000001284   -0.000000573   -0.000000275
      4        1          -0.000000980   -0.000000318    0.000001717
      5        1          -0.000002279    0.000000065    0.000002279
      6        8          -0.000036030   -0.000629752    0.000353015
      7        8          -0.000048759    0.000137190   -0.000161420
      8        1           0.000075604    0.000243558   -0.000226943
 -------------------------------------------------------------------
 Cartesian Forces:  Max     0.000688201 RMS     0.000261077
 Leave Link  716 at Fri Apr 12 16:01:21 2019, MaxMem=   134217728 cpu:         0.1
 (Enter /cm/shared/c3ddb/gaussian/09.d01/g09/l103.exe)

 GradGradGradGradGradGradGradGradGradGradGradGradGradGradGradGradGradGrad
 Berny optimization.
 Using GEDIIS/GDIIS optimizer.
 FormGI is forming the generalized inverse of G from B-inverse, IUseBI=4.
 Internal  Forces:  Max     0.000893446 RMS     0.000271758
 Search for a local minimum.
 Step number   4 out of a maximum of   32
 All quantities printed in internal units (Hartrees-Bohrs-Radians)
 RMS Force = .20173D-05 SwitMx=.10000D-02 MixMth= 2
 Mixed Optimization -- En-DIIS/RFO-DIIS
 Swapping is turned off.
 Update second derivatives using D2CorX and points    1    2    3    4
 DE= -1.25D-08 DEPred=-1.26D-08 R= 9.92D-01
 Trust test= 9.92D-01 RLast= 3.89D-04 DXMaxT set to 3.00D-01
 ITU=  0  0  0  0
     Eigenvalues ---    0.02634   0.03331   0.03783   0.14376   0.15966
     Eigenvalues ---    0.16006   0.18526   0.21109   0.28769   0.37116
     Eigenvalues ---    0.37168   0.37448   0.45461   0.47809   0.53028
     Eigenvalues ---    0.649571000.000001000.000001000.000001000.00000
     Eigenvalues --- 1000.000001000.00000
 En-DIIS/RFO-DIIS IScMMF=        0 using points:     4    3    2    1
 RFO step:  Lambda=-5.15813195D-08.
 NNeg= 0 NP= 4 Switch=  2.50D-03 Rises=F DC=  4.36D-07 SmlDif=  1.00D-05
 RMS Error=  0.1018380123D-04 NUsed= 4 EDIIS=F
 DidBck=F Rises=F RFO-DIIS coefs:    0.88466    0.07102    0.03641    0.00792
 Iteration  1 RMS(Cart)=  0.00001860 RMS(Int)=  0.00000011
 Iteration  2 RMS(Cart)=  0.00000000 RMS(Int)=  0.00000011
 Iteration  1 RMS(Cart)=  0.00000011 RMS(Int)=  0.00000006
 ITry= 1 IFail=0 DXMaxC= 3.91D-05 DCOld= 1.00D+10 DXMaxT= 3.00D-01 DXLimC= 3.00D+00 Rises=F
 Variable       Old X    -DE/DX   Delta X   Delta X   Delta X     New X
                                 (Linear)    (Quad)   (Total)
    R1        2.47323   0.00000   0.00000   0.00000   0.00000   2.47324
    R2        2.01923   0.00000   0.00000   0.00000   0.00000   2.01923
    R3        2.64496   0.00000   0.00000   0.00001   0.00001   2.64497
    R4        2.02268   0.00000   0.00000   0.00000   0.00000   2.02268
    R5        2.02334   0.00000   0.00000   0.00000   0.00000   2.02335
    R6        2.78217   0.00000   0.00000   0.00001   0.00001   2.78218
    R7        1.83622   0.00000   0.00000   0.00000   0.00000   1.83622
    A1        2.18569  -0.00001  -0.00001   0.00002   0.00001   2.18570
    A2        2.10667   0.00000   0.00001  -0.00001  -0.00001   2.10666
    A3        1.99028   0.00000   0.00000  -0.00001   0.00000   1.99028
    A4        2.10336   0.00000   0.00000   0.00002   0.00001   2.10338
    A5        2.11530   0.00000   0.00001  -0.00003  -0.00002   2.11528
    A6        2.06439   0.00000  -0.00001   0.00001   0.00001   2.06439
    A7        1.84141   0.00000   0.00000  -0.00001  -0.00001   1.84140
    A8        1.73008   0.00000   0.00000  -0.00001  -0.00002   1.73006
    D1       -0.04602   0.00022   0.00001   0.00004   0.00005  -0.04597
    D2        3.11366   0.00022  -0.00001  -0.00003  -0.00004   3.11362
    D3        3.05810  -0.00022   0.00001   0.00003   0.00004   3.05814
    D4       -0.06541  -0.00022  -0.00001  -0.00004  -0.00005  -0.06546
    D5        2.44346   0.00089   0.00000   0.00000   0.00000   2.44346
    D6       -0.73164   0.00050  -0.00001  -0.00001  -0.00001  -0.73166
    D7        2.96706  -0.00062   0.00000   0.00000   0.00000   2.96706
         Item               Value     Threshold  Converged?
 Maximum Force            0.000005     0.000015     YES
 RMS     Force            0.000002     0.000010     YES
 Maximum Displacement     0.000039     0.000060     YES
 RMS     Displacement     0.000019     0.000040     YES
 Predicted change in Energy=-3.520451D-10
 Optimization completed.
    -- Stationary point found.
                           ----------------------------
                           !   Optimized Parameters   !
                           ! (Angstroms and Degrees)  !
 --------------------------                            --------------------------
 ! Name  Definition              Value          Derivative Info.                !
 --------------------------------------------------------------------------------
 ! R1    R(1,2)                  1.3088         -DE/DX =    0.0                 !
 ! R2    R(1,3)                  1.0685         -DE/DX =    0.0                 !
 ! R3    R(1,6)                  1.3997         -DE/DX =    0.0                 !
 ! R4    R(2,4)                  1.0704         -DE/DX =    0.0                 !
 ! R5    R(2,5)                  1.0707         -DE/DX =    0.0                 !
 ! R6    R(6,7)                  1.4723         -DE/DX =    0.0                 !
 ! R7    R(7,8)                  0.9717         -DE/DX =    0.0                 !
 ! A1    A(2,1,3)              125.2311         -DE/DX =    0.0                 !
 ! A2    A(2,1,6)              120.7032         -DE/DX =    0.0                 !
 ! A3    A(3,1,6)              114.0347         -DE/DX =    0.0                 !
 ! A4    A(1,2,4)              120.5139         -DE/DX =    0.0                 !
 ! A5    A(1,2,5)              121.1976         -DE/DX =    0.0                 !
 ! A6    A(4,2,5)              118.2806         -DE/DX =    0.0                 !
 ! A7    A(1,6,7)              105.5053         -DE/DX =    0.0                 !
 ! A8    A(6,7,8)               99.126          -DE/DX =    0.0                 !
 ! D1    D(3,1,2,4)             -2.6367         -DE/DX =    0.0002              !
 ! D2    D(3,1,2,5)            178.3994         -DE/DX =    0.0002              !
 ! D3    D(6,1,2,4)            175.2164         -DE/DX =   -0.0002              !
 ! D4    D(6,1,2,5)             -3.7475         -DE/DX =   -0.0002              !
 ! D5    D(2,1,6,7)            140.0            -DE/DX =    0.0009              !
 ! D6    D(3,1,6,7)            -41.9201         -DE/DX =    0.0005              !
 ! D7    D(1,6,7,8)            170.0            -DE/DX =   -0.0006              !
 --------------------------------------------------------------------------------
 Lowest energy point so far.  Saving SCF results.
 GradGradGradGradGradGradGradGradGradGradGradGradGradGradGradGradGradGrad

 Largest change from initial coordinates is atom    5       0.001 Angstoms.
 Leave Link  103 at Fri Apr 12 16:01:21 2019, MaxMem=   134217728 cpu:         0.0
 (Enter /cm/shared/c3ddb/gaussian/09.d01/g09/l202.exe)
                          Input orientation:                          
 ---------------------------------------------------------------------
 Center     Atomic      Atomic             Coordinates (Angstroms)
 Number     Number       Type             X           Y           Z
 ---------------------------------------------------------------------
      1          6           0        0.724837    0.634636    0.054248
      2          6           0        1.367669   -0.504234    0.002824
      3          1           0        1.182088    1.598104    0.120650
      4          1           0        2.437674   -0.523959   -0.016350
      5          1           0        0.842302   -1.436309   -0.037682
      6          8           0       -0.672338    0.670663   -0.020788
      7          8           0       -1.092361    1.694515    0.950223
      8          1           0       -2.030931    1.761116    0.707680
 ---------------------------------------------------------------------
                    Distance matrix (angstroms):
                    1          2          3          4          5
     1  C    0.000000
     2  C    1.308779   0.000000
     3  H    1.068530   2.113799   0.000000
     4  H    2.069092   1.070359   2.469498   0.000000
     5  H    2.076310   1.070708   3.057480   1.837947   0.000000
     6  O    1.399652   2.354266   2.078231   3.331564   2.594947
     7  O    2.286552   3.432755   2.422932   4.279841   3.810634
     8  H    3.047981   4.144770   3.270270   5.070920   4.362861
                    6          7          8
     6  O    0.000000
     7  O    1.472262   0.000000
     8  H    1.888261   0.971688   0.000000
 Symmetry turned off by external request.
 Stoichiometry    C2H4O2
 Framework group  C1[X(C2H4O2)]
 Deg. of freedom    18
 Full point group                 C1      NOp   1
 Rotational constants (GHZ):     36.4948288      4.6484990      4.3621991
 Leave Link  202 at Fri Apr 12 16:01:21 2019, MaxMem=   134217728 cpu:         0.0
 (Enter /cm/shared/c3ddb/gaussian/09.d01/g09/l601.exe)
 Copying SCF densities to generalized density rwf, IOpCl= 0 IROHF=0.

 **********************************************************************

            Population analysis using the SCF density.

 **********************************************************************

 Alpha  occ. eigenvalues --  -20.53151 -20.52172 -11.24008 -11.16799  -1.47076
 Alpha  occ. eigenvalues --   -1.23724  -1.02715  -0.79561  -0.69671  -0.68073
 Alpha  occ. eigenvalues --   -0.64282  -0.57879  -0.55641  -0.51257  -0.46582
 Alpha  occ. eigenvalues --   -0.36475
 Alpha virt. eigenvalues --    0.17497   0.25326   0.28336   0.31918   0.33003
 Alpha virt. eigenvalues --    0.36145   0.49804   0.57443   0.90069   0.97395
 Alpha virt. eigenvalues --    1.00113   1.07021   1.10818   1.12252   1.23671
 Alpha virt. eigenvalues --    1.32618   1.37571   1.57275   1.60076   1.72866
 Alpha virt. eigenvalues --    1.81871   1.93153   1.95973   2.01466   2.07611
 Alpha virt. eigenvalues --    2.28014   3.06322   3.49888
          Condensed to atoms (all electrons):
               1          2          3          4          5          6
     1  C    4.853417   0.524477   0.367418  -0.045652  -0.050090   0.214208
     2  C    0.524477   5.299015  -0.050758   0.381407   0.388372  -0.052271
     3  H    0.367418  -0.050758   0.463346   0.000196   0.002272  -0.038180
     4  H   -0.045652   0.381407   0.000196   0.451761  -0.015291   0.001478
     5  H   -0.050090   0.388372   0.002272  -0.015291   0.434865  -0.000523
     6  O    0.214208  -0.052271  -0.038180   0.001478  -0.000523   8.204190
     7  O   -0.032276   0.001471   0.003728  -0.000028  -0.000017   0.112601
     8  H    0.001679  -0.000142   0.000008   0.000002  -0.000001  -0.020941
               7          8
     1  C   -0.032276   0.001679
     2  C    0.001471  -0.000142
     3  H    0.003728   0.000008
     4  H   -0.000028   0.000002
     5  H   -0.000017  -0.000001
     6  O    0.112601  -0.020941
     7  O    8.063667   0.244178
     8  H    0.244178   0.355087
 Mulliken charges:
               1
     1  C    0.166819
     2  C   -0.491571
     3  H    0.251971
     4  H    0.226127
     5  H    0.240411
     6  O   -0.420562
     7  O   -0.393325
     8  H    0.420131
 Sum of Mulliken charges =   0.00000
 Mulliken charges with hydrogens summed into heavy atoms:
               1
     1  C    0.418789
     2  C   -0.025033
     6  O   -0.420562
     7  O    0.026806
 Electronic spatial extent (au):  <R**2>=            354.9295
 Charge=              0.0000 electrons
 Dipole moment (field-independent basis, Debye):
    X=             -0.1645    Y=              0.3360    Z=             -0.2847  Tot=              0.4701
 Quadrupole moment (field-independent basis, Debye-Ang):
   XX=            -16.4878   YY=            -21.3237   ZZ=            -26.6131
   XY=             -2.5990   XZ=             -1.0003   YZ=             -0.3945
 Traceless Quadrupole moment (field-independent basis, Debye-Ang):
   XX=              4.9870   YY=              0.1512   ZZ=             -5.1382
   XY=             -2.5990   XZ=             -1.0003   YZ=             -0.3945
 Octapole moment (field-independent basis, Debye-Ang**2):
  XXX=            -21.6988  YYY=            -39.8962  ZZZ=            -18.7242  XYY=             -8.2205
  XXY=             -2.1900  XXZ=             -1.5804  XZZ=             -5.8476  YZZ=            -15.2609
  YYZ=             -6.6668  XYZ=             -1.5942
 Hexadecapole moment (field-independent basis, Debye-Ang**3):
 XXXX=           -141.1112 YYYY=           -166.8886 ZZZZ=            -54.3987 XXXY=             17.6740
 XXXZ=              6.9038 YYYX=             37.1029 YYYZ=            -29.3965 ZZZX=             18.2414
 ZZZY=            -30.4225 XXYY=            -37.6632 XXZZ=            -41.5538 YYZZ=            -40.4734
 XXYZ=             -1.5622 YYXZ=              2.3118 ZZXY=             15.6973
 N-N= 1.167290375354D+02 E-N=-7.668926077146D+02  KE= 2.256235241322D+02
 No NMR shielding tensors so no spin-rotation constants.
 Leave Link  601 at Fri Apr 12 16:01:21 2019, MaxMem=   134217728 cpu:         0.1
 (Enter /cm/shared/c3ddb/gaussian/09.d01/g09/l9999.exe)
 1\1\GINC-NODE029\FOpt\RHF\3-21G\C2H4O2\MATTSJ\12-Apr-2019\0\\#p hf 3-2
 1g scf=tight NoSymmetry guess=read opt=(tight,modredundant)\\Geometry 
 optimization at the 2D-PES\\0,1\C,0.7248369418,0.6346364968,0.05424839
 27\C,1.3676691322,-0.5042339615,0.0028236636\H,1.1820878814,1.59810362
 72,0.1206502975\H,2.4376742669,-0.5239594671,-0.0163500462\H,0.8423016
 975,-1.4363087582,-0.0376820888\O,-0.6723380315,0.670663314,-0.0207884
 165\O,-1.0923606079,1.6945152983,0.9502225886\H,-2.0309312805,1.761116
 4506,0.7076796091\\Version=AS64L-G09RevD.01\HF=-226.3961502\RMSD=5.129
 e-09\RMSF=2.611e-04\Dipole=-0.0647152,0.1322117,-0.1119997\Quadrupole=
 3.7077491,0.1123893,-3.8201383,-1.932304,-0.7436866,-0.2932873\PG=C01 
 [X(C2H4O2)]\\@


 THE SOLUTION TO A PROBLEM CHANGES THE PROBLEM.

                                 -- JOHN PEERS
           PAUL DICKSON'S "THE OFFICIAL RULES"
 Job cpu time:       0 days  0 hours  0 minutes  9.9 seconds.
 File lengths (MBytes):  RWF=      5 Int=      0 D2E=      0 Chk=      1 Scr=      1
 Normal termination of Gaussian 09 at Fri Apr 12 16:01:21 2019.
