 Entering Gaussian System, Link 0=/cm/shared/c3ddb/gaussian/09.d01/g09/g09
 Initial command:
 /cm/shared/c3ddb/gaussian/09.d01/g09/l1.exe "/scratch/users/mattsj/g09/S02-7952157/Gau-42217.inp" -scrdir="/scratch/users/mattsj/g09/S02-7952157/"
 Entering Link 1 = /cm/shared/c3ddb/gaussian/09.d01/g09/l1.exe PID=     42218.
  
 Copyright (c) 1988,1990,1992,1993,1995,1998,2003,2009,2013,
            Gaussian, Inc.  All Rights Reserved.
  
 This is part of the Gaussian(R) 09 program.  It is based on
 the Gaussian(R) 03 system (copyright 2003, Gaussian, Inc.),
 the Gaussian(R) 98 system (copyright 1998, Gaussian, Inc.),
 the Gaussian(R) 94 system (copyright 1995, Gaussian, Inc.),
 the Gaussian 92(TM) system (copyright 1992, Gaussian, Inc.),
 the Gaussian 90(TM) system (copyright 1990, Gaussian, Inc.),
 the Gaussian 88(TM) system (copyright 1988, Gaussian, Inc.),
 the Gaussian 86(TM) system (copyright 1986, Carnegie Mellon
 University), and the Gaussian 82(TM) system (copyright 1983,
 Carnegie Mellon University). Gaussian is a federally registered
 trademark of Gaussian, Inc.
  
 This software contains proprietary and confidential information,
 including trade secrets, belonging to Gaussian, Inc.
  
 This software is provided under written license and may be
 used, copied, transmitted, or stored only in accord with that
 written license.
  
 The following legend is applicable only to US Government
 contracts under FAR:
  
                    RESTRICTED RIGHTS LEGEND
  
 Use, reproduction and disclosure by the US Government is
 subject to restrictions as set forth in subparagraphs (a)
 and (c) of the Commercial Computer Software - Restricted
 Rights clause in FAR 52.227-19.
  
 Gaussian, Inc.
 340 Quinnipiac St., Bldg. 40, Wallingford CT 06492
  
  
 ---------------------------------------------------------------
 Warning -- This program may not be used in any manner that
 competes with the business of Gaussian, Inc. or will provide
 assistance to any competitor of Gaussian, Inc.  The licensee
 of this program is prohibited from giving any competitor of
 Gaussian, Inc. access to this program.  By using this program,
 the user acknowledges that Gaussian, Inc. is engaged in the
 business of creating and licensing software in the field of
 computational chemistry and represents and warrants to the
 licensee that it is not a competitor of Gaussian, Inc. and that
 it will not use this program in any manner prohibited above.
 ---------------------------------------------------------------
  

 Cite this work as:
 Gaussian 09, Revision D.01,
 M. J. Frisch, G. W. Trucks, H. B. Schlegel, G. E. Scuseria, 
 M. A. Robb, J. R. Cheeseman, G. Scalmani, V. Barone, B. Mennucci, 
 G. A. Petersson, H. Nakatsuji, M. Caricato, X. Li, H. P. Hratchian, 
 A. F. Izmaylov, J. Bloino, G. Zheng, J. L. Sonnenberg, M. Hada, 
 M. Ehara, K. Toyota, R. Fukuda, J. Hasegawa, M. Ishida, T. Nakajima, 
 Y. Honda, O. Kitao, H. Nakai, T. Vreven, J. A. Montgomery, Jr., 
 J. E. Peralta, F. Ogliaro, M. Bearpark, J. J. Heyd, E. Brothers, 
 K. N. Kudin, V. N. Staroverov, T. Keith, R. Kobayashi, J. Normand, 
 K. Raghavachari, A. Rendell, J. C. Burant, S. S. Iyengar, J. Tomasi, 
 M. Cossi, N. Rega, J. M. Millam, M. Klene, J. E. Knox, J. B. Cross, 
 V. Bakken, C. Adamo, J. Jaramillo, R. Gomperts, R. E. Stratmann, 
 O. Yazyev, A. J. Austin, R. Cammi, C. Pomelli, J. W. Ochterski, 
 R. L. Martin, K. Morokuma, V. G. Zakrzewski, G. A. Voth, 
 P. Salvador, J. J. Dannenberg, S. Dapprich, A. D. Daniels, 
 O. Farkas, J. B. Foresman, J. V. Ortiz, J. Cioslowski, 
 and D. J. Fox, Gaussian, Inc., Wallingford CT, 2013.
 
 ******************************************
 Gaussian 09:  AS64L-G09RevD.01 24-Apr-2013
                12-Apr-2019 
 ******************************************
 %nproc=1
 Will use up to    1 processors via shared memory.
 %mem=1GB
 %chk=TMP_CALCS/scangeom_S02_200_120.chk
 --------------------------------------------------------------------
 #p hf 3-21g scf=tight NoSymmetry guess=read opt=(tight,modredundant)
 --------------------------------------------------------------------
 1/7=10,18=120,19=15,38=1/1,3;
 2/9=110,12=2,15=1,17=6,18=5,40=1/2;
 3/5=5,11=9,16=1,25=1,30=1,71=1,116=-2/1,2,3;
 4/5=1/1;
 5/5=2,32=2,38=6/2;
 6/7=2,8=2,9=2,10=2,28=1/1;
 7/30=1/1,2,3,16;
 1/7=10,18=20,19=15/3(2);
 2/9=110,15=1/2;
 99//99;
 2/9=110,15=1/2;
 3/5=5,11=9,16=1,25=1,30=1,71=1/1,2,3;
 4/5=5,16=3,69=1/1;
 5/5=2,32=2,38=5/2;
 7/30=1/1,2,3,16;
 1/7=10,18=20,19=15/3(-5);
 2/9=110,15=1/2;
 6/7=2,8=2,9=2,10=2,19=2,28=1/1;
 99/9=1/99;
 Leave Link    1 at Fri Apr 12 15:30:24 2019, MaxMem=   134217728 cpu:         0.1
 (Enter /cm/shared/c3ddb/gaussian/09.d01/g09/l101.exe)
 -----------------------------------
 Geometry optimization at the 2D-PES
 -----------------------------------
 Symbolic Z-matrix:
 Charge =  0 Multiplicity = 1
 C                     0.72512   0.63783   0.0249 
 C                     1.36756  -0.50214  -0.01953 
 H                     1.18215   1.60121   0.08189 
 H                     2.43696  -0.52059   0.01803 
 H                     0.84738  -1.43628  -0.07987 
 O                    -0.67563   0.67195   0.05033 
 O                    -1.07029   2.01473  -0.38421 
 H                    -1.59741   1.79123  -1.16973 
 
 The following ModRedundant input section has been read:
 D       2       1       6       7 F                                           
 D       1       6       7       8 F                                           
 
 NAtoms=      8 NQM=        8 NQMF=       0 NMMI=      0 NMMIF=      0
                NMic=       0 NMicF=      0.
                    Isotopes and Nuclear Properties:
 (Nuclear quadrupole moments (NQMom) in fm**2, nuclear magnetic moments (NMagM)
  in nuclear magnetons)

  Atom         1           2           3           4           5           6           7           8
 IAtWgt=          12          12           1           1           1          16          16           1
 AtmWgt=  12.0000000  12.0000000   1.0078250   1.0078250   1.0078250  15.9949146  15.9949146   1.0078250
 NucSpn=           0           0           1           1           1           0           0           1
 AtZEff=   0.0000000   0.0000000   0.0000000   0.0000000   0.0000000   0.0000000   0.0000000   0.0000000
 NQMom=    0.0000000   0.0000000   0.0000000   0.0000000   0.0000000   0.0000000   0.0000000   0.0000000
 NMagM=    0.0000000   0.0000000   2.7928460   2.7928460   2.7928460   0.0000000   0.0000000   2.7928460
 AtZNuc=   6.0000000   6.0000000   1.0000000   1.0000000   1.0000000   8.0000000   8.0000000   1.0000000
 Leave Link  101 at Fri Apr 12 15:30:24 2019, MaxMem=   134217728 cpu:         0.2
 (Enter /cm/shared/c3ddb/gaussian/09.d01/g09/l103.exe)

 GradGradGradGradGradGradGradGradGradGradGradGradGradGradGradGradGradGrad
 Berny optimization.
 Initialization pass.
                           ----------------------------
                           !    Initial Parameters    !
                           ! (Angstroms and Degrees)  !
 --------------------------                            --------------------------
 ! Name  Definition              Value          Derivative Info.                !
 --------------------------------------------------------------------------------
 ! R1    R(1,2)                  1.3093         estimate D2E/DX2                !
 ! R2    R(1,3)                  1.0678         estimate D2E/DX2                !
 ! R3    R(1,6)                  1.4014         estimate D2E/DX2                !
 ! R4    R(2,4)                  1.0702         estimate D2E/DX2                !
 ! R5    R(2,5)                  1.0709         estimate D2E/DX2                !
 ! R6    R(6,7)                  1.4655         estimate D2E/DX2                !
 ! R7    R(7,8)                  0.972          estimate D2E/DX2                !
 ! A1    A(2,1,3)              125.2628         estimate D2E/DX2                !
 ! A2    A(2,1,6)              120.815          estimate D2E/DX2                !
 ! A3    A(3,1,6)              113.8829         estimate D2E/DX2                !
 ! A4    A(1,2,4)              120.2729         estimate D2E/DX2                !
 ! A5    A(1,2,5)              121.5372         estimate D2E/DX2                !
 ! A6    A(4,2,5)              118.1843         estimate D2E/DX2                !
 ! A7    A(1,6,7)              106.6248         estimate D2E/DX2                !
 ! A8    A(6,7,8)              100.0773         estimate D2E/DX2                !
 ! D1    D(3,1,2,4)              1.0946         estimate D2E/DX2                !
 ! D2    D(3,1,2,5)           -179.7756         estimate D2E/DX2                !
 ! D3    D(6,1,2,4)           -176.4817         estimate D2E/DX2                !
 ! D4    D(6,1,2,5)              2.6482         estimate D2E/DX2                !
 ! D5    D(2,1,6,7)           -160.0            Frozen                          !
 ! D6    D(3,1,6,7)             22.1642         estimate D2E/DX2                !
 ! D7    D(1,6,7,8)            120.0            Frozen                          !
 --------------------------------------------------------------------------------
 Trust Radius=3.00D-01 FncErr=1.00D-07 GrdErr=1.00D-07
 Number of steps in this run=     32 maximum allowed number of steps=    100.
 GradGradGradGradGradGradGradGradGradGradGradGradGradGradGradGradGradGrad

 Leave Link  103 at Fri Apr 12 15:30:24 2019, MaxMem=   134217728 cpu:         0.0
 (Enter /cm/shared/c3ddb/gaussian/09.d01/g09/l202.exe)
                          Input orientation:                          
 ---------------------------------------------------------------------
 Center     Atomic      Atomic             Coordinates (Angstroms)
 Number     Number       Type             X           Y           Z
 ---------------------------------------------------------------------
      1          6           0        0.725122    0.637826    0.024899
      2          6           0        1.367562   -0.502142   -0.019528
      3          1           0        1.182145    1.601205    0.081892
      4          1           0        2.436961   -0.520587    0.018032
      5          1           0        0.847381   -1.436282   -0.079870
      6          8           0       -0.675632    0.671946    0.050330
      7          8           0       -1.070286    2.014730   -0.384205
      8          1           0       -1.597408    1.791228   -1.169735
 ---------------------------------------------------------------------
                    Distance matrix (angstroms):
                    1          2          3          4          5
     1  C    0.000000
     2  C    1.309286   0.000000
     3  H    1.067810   2.113938   0.000000
     4  H    2.066969   1.070217   2.465896   0.000000
     5  H    2.080348   1.070909   3.060157   1.837076   0.000000
     6  O    1.401400   2.357542   2.077463   3.333379   2.604063
     7  O    2.299287   3.522888   2.337027   4.346310   3.959741
     8  H    2.855106   3.920914   3.054275   4.799105   4.193044
                    6          7          8
     6  O    0.000000
     7  O    1.465483   0.000000
     8  H    1.894999   0.972043   0.000000
 Symmetry turned off by external request.
 Stoichiometry    C2H4O2
 Framework group  C1[X(C2H4O2)]
 Deg. of freedom    18
 Full point group                 C1      NOp   1
 Rotational constants (GHZ):     40.5249883      4.5809456      4.2339673
 Leave Link  202 at Fri Apr 12 15:30:24 2019, MaxMem=   134217728 cpu:         0.0
 (Enter /cm/shared/c3ddb/gaussian/09.d01/g09/l301.exe)
 Standard basis: 3-21G (6D, 7F)
 Ernie: Thresh=  0.10000D-02 Tol=  0.10000D-05 Strict=F.
    44 basis functions,    72 primitive gaussians,    44 cartesian basis functions
    16 alpha electrons       16 beta electrons
       nuclear repulsion energy       116.6704052062 Hartrees.
 IExCor=    0 DFT=F Ex=HF Corr=None ExCW=0 ScaHFX=  1.000000
 ScaDFX=  1.000000  1.000000  1.000000  1.000000 ScalE2=  1.000000  1.000000
 IRadAn=      0 IRanWt=     -1 IRanGd=            0 ICorTp=0 IEmpDi=  4
 NAtoms=    8 NActive=    8 NUniq=    8 SFac= 1.00D+00 NAtFMM=   60 NAOKFM=F Big=F
 Integral buffers will be    131072 words long.
 Raffenetti 1 integral format.
 Two-electron integral symmetry is turned off.
 Leave Link  301 at Fri Apr 12 15:30:24 2019, MaxMem=   134217728 cpu:         0.1
 (Enter /cm/shared/c3ddb/gaussian/09.d01/g09/l302.exe)
 NPDir=0 NMtPBC=     1 NCelOv=     1 NCel=       1 NClECP=     1 NCelD=      1
         NCelK=      1 NCelE2=     1 NClLst=     1 CellRange=     0.0.
 One-electron integrals computed using PRISM.
 NBasis=    44 RedAO= T EigKep=  1.13D-02  NBF=    44
 NBsUse=    44 1.00D-06 EigRej= -1.00D+00 NBFU=    44
 Leave Link  302 at Fri Apr 12 15:30:24 2019, MaxMem=   134217728 cpu:         0.1
 (Enter /cm/shared/c3ddb/gaussian/09.d01/g09/l303.exe)
 DipDrv:  MaxL=1.
 Leave Link  303 at Fri Apr 12 15:30:24 2019, MaxMem=   134217728 cpu:         0.0
 (Enter /cm/shared/c3ddb/gaussian/09.d01/g09/l401.exe)
 Initial guess from the checkpoint file:  "TMP_CALCS/scangeom_S02_200_120.chk"
 B after Tr=     0.004017   -0.001094   -0.016309
         Rot=    0.999977   -0.003250    0.006003    0.000378 Ang=  -0.78 deg.
 Guess basis will be translated and rotated to current coordinates.
 JPrj=2 DoOrth=T DoCkMO=T.
 Leave Link  401 at Fri Apr 12 15:30:25 2019, MaxMem=   134217728 cpu:         0.2
 (Enter /cm/shared/c3ddb/gaussian/09.d01/g09/l502.exe)
 Closed shell SCF:
 Using DIIS extrapolation, IDIIS=  1040.
 Two-electron integral symmetry not used.
 Keep R1 ints in memory in canonical form, NReq=1327217.
 IVT=       24902 IEndB=       24902 NGot=   134217728 MDV=   133702282
 LenX=   133702282 LenY=   133699905
 Requested convergence on RMS density matrix=1.00D-08 within 128 cycles.
 Requested convergence on MAX density matrix=1.00D-06.
 Requested convergence on             energy=1.00D-06.
 No special actions if energy rises.
 FoFCou: FMM=F IPFlag=           0 FMFlag=           0 FMFlg1=           0
         NFxFlg=           0 DoJE=F BraDBF=F KetDBF=F FulRan=T
         wScrn=  0.000000 ICntrl=     600 IOpCl=  0 I1Cent=           0 NGrid=           0
         NMat0=    1 NMatS0=    990 NMatT0=    0 NMatD0=    1 NMtDS0=    0 NMtDT0=    0
 Symmetry not used in FoFCou.

 Cycle   1  Pass 1  IDiag  1:
 E= -226.392087425135    
 DIIS: error= 7.03D-03 at cycle   1 NSaved=   1.
 NSaved= 1 IEnMin= 1 EnMin= -226.392087425135     IErMin= 1 ErrMin= 7.03D-03
 ErrMax= 7.03D-03  0.00D+00 EMaxC= 1.00D-01 BMatC= 1.78D-03 BMatP= 1.78D-03
 IDIUse=3 WtCom= 9.30D-01 WtEn= 7.03D-02
 Coeff-Com:  0.100D+01
 Coeff-En:   0.100D+01
 Coeff:      0.100D+01
 Gap=     0.551 Goal=   None    Shift=    0.000
 GapD=    0.551 DampG=2.000 DampE=1.000 DampFc=2.0000 IDamp=-1.
 RMSDP=1.10D-03 MaxDP=1.32D-02              OVMax= 1.48D-02

 Cycle   2  Pass 1  IDiag  1:
 E= -226.394878113767     Delta-E=       -0.002790688632 Rises=F Damp=F
 DIIS: error= 3.11D-03 at cycle   2 NSaved=   2.
 NSaved= 2 IEnMin= 2 EnMin= -226.394878113767     IErMin= 2 ErrMin= 3.11D-03
 ErrMax= 3.11D-03  0.00D+00 EMaxC= 1.00D-01 BMatC= 1.75D-04 BMatP= 1.78D-03
 IDIUse=3 WtCom= 9.69D-01 WtEn= 3.11D-02
 Coeff-Com: -0.334D+00 0.133D+01
 Coeff-En:   0.000D+00 0.100D+01
 Coeff:     -0.324D+00 0.132D+01
 Gap=     0.550 Goal=   None    Shift=    0.000
 RMSDP=5.77D-04 MaxDP=5.99D-03 DE=-2.79D-03 OVMax= 1.07D-02

 Cycle   3  Pass 1  IDiag  1:
 E= -226.395344752750     Delta-E=       -0.000466638983 Rises=F Damp=F
 DIIS: error= 9.95D-04 at cycle   3 NSaved=   3.
 NSaved= 3 IEnMin= 3 EnMin= -226.395344752750     IErMin= 3 ErrMin= 9.95D-04
 ErrMax= 9.95D-04  0.00D+00 EMaxC= 1.00D-01 BMatC= 1.53D-05 BMatP= 1.75D-04
 IDIUse=3 WtCom= 9.90D-01 WtEn= 9.95D-03
 Coeff-Com:  0.509D-01-0.353D+00 0.130D+01
 Coeff-En:   0.000D+00 0.000D+00 0.100D+01
 Coeff:      0.504D-01-0.349D+00 0.130D+01
 Gap=     0.550 Goal=   None    Shift=    0.000
 RMSDP=2.19D-04 MaxDP=2.89D-03 DE=-4.67D-04 OVMax= 4.47D-03

 Cycle   4  Pass 1  IDiag  1:
 E= -226.395394693629     Delta-E=       -0.000049940879 Rises=F Damp=F
 DIIS: error= 2.48D-04 at cycle   4 NSaved=   4.
 NSaved= 4 IEnMin= 4 EnMin= -226.395394693629     IErMin= 4 ErrMin= 2.48D-04
 ErrMax= 2.48D-04  0.00D+00 EMaxC= 1.00D-01 BMatC= 2.75D-06 BMatP= 1.53D-05
 IDIUse=3 WtCom= 9.98D-01 WtEn= 2.48D-03
 Coeff-Com:  0.698D-01-0.310D+00 0.269D+00 0.972D+00
 Coeff-En:   0.000D+00 0.000D+00 0.000D+00 0.100D+01
 Coeff:      0.696D-01-0.310D+00 0.268D+00 0.972D+00
 Gap=     0.550 Goal=   None    Shift=    0.000
 RMSDP=8.83D-05 MaxDP=1.25D-03 DE=-4.99D-05 OVMax= 1.76D-03

 Cycle   5  Pass 1  IDiag  1:
 E= -226.395400858293     Delta-E=       -0.000006164665 Rises=F Damp=F
 DIIS: error= 4.90D-05 at cycle   5 NSaved=   5.
 NSaved= 5 IEnMin= 5 EnMin= -226.395400858293     IErMin= 5 ErrMin= 4.90D-05
 ErrMax= 4.90D-05  0.00D+00 EMaxC= 1.00D-01 BMatC= 1.55D-07 BMatP= 2.75D-06
 IDIUse=1 WtCom= 1.00D+00 WtEn= 0.00D+00
 Coeff-Com:  0.503D-02-0.126D-01-0.667D-01 0.146D+00 0.928D+00
 Coeff:      0.503D-02-0.126D-01-0.667D-01 0.146D+00 0.928D+00
 Gap=     0.550 Goal=   None    Shift=    0.000
 RMSDP=1.48D-05 MaxDP=1.74D-04 DE=-6.16D-06 OVMax= 3.06D-04

 Cycle   6  Pass 1  IDiag  1:
 E= -226.395401111096     Delta-E=       -0.000000252803 Rises=F Damp=F
 DIIS: error= 2.68D-05 at cycle   6 NSaved=   6.
 NSaved= 6 IEnMin= 6 EnMin= -226.395401111096     IErMin= 6 ErrMin= 2.68D-05
 ErrMax= 2.68D-05  0.00D+00 EMaxC= 1.00D-01 BMatC= 2.57D-08 BMatP= 1.55D-07
 IDIUse=1 WtCom= 1.00D+00 WtEn= 0.00D+00
 Coeff-Com: -0.525D-02 0.265D-01-0.451D-01-0.508D-01 0.255D+00 0.819D+00
 Coeff:     -0.525D-02 0.265D-01-0.451D-01-0.508D-01 0.255D+00 0.819D+00
 Gap=     0.550 Goal=   None    Shift=    0.000
 RMSDP=4.48D-06 MaxDP=2.88D-05 DE=-2.53D-07 OVMax= 9.43D-05

 Cycle   7  Pass 1  IDiag  1:
 E= -226.395401155879     Delta-E=       -0.000000044783 Rises=F Damp=F
 DIIS: error= 1.68D-05 at cycle   7 NSaved=   7.
 NSaved= 7 IEnMin= 7 EnMin= -226.395401155879     IErMin= 7 ErrMin= 1.68D-05
 ErrMax= 1.68D-05  0.00D+00 EMaxC= 1.00D-01 BMatC= 3.98D-09 BMatP= 2.57D-08
 IDIUse=1 WtCom= 1.00D+00 WtEn= 0.00D+00
 Coeff-Com:  0.242D-02-0.143D-01 0.388D-01 0.528D-02-0.309D+00-0.523D+00
 Coeff-Com:  0.180D+01
 Coeff:      0.242D-02-0.143D-01 0.388D-01 0.528D-02-0.309D+00-0.523D+00
 Coeff:      0.180D+01
 Gap=     0.550 Goal=   None    Shift=    0.000
 RMSDP=4.97D-06 MaxDP=4.17D-05 DE=-4.48D-08 OVMax= 1.26D-04

 Cycle   8  Pass 1  IDiag  1:
 E= -226.395401177149     Delta-E=       -0.000000021270 Rises=F Damp=F
 DIIS: error= 4.99D-06 at cycle   8 NSaved=   8.
 NSaved= 8 IEnMin= 8 EnMin= -226.395401177149     IErMin= 8 ErrMin= 4.99D-06
 ErrMax= 4.99D-06  0.00D+00 EMaxC= 1.00D-01 BMatC= 3.04D-10 BMatP= 3.98D-09
 IDIUse=1 WtCom= 1.00D+00 WtEn= 0.00D+00
 Coeff-Com:  0.109D-03-0.194D-03-0.171D-02 0.361D-02 0.236D-01 0.626D-02
 Coeff-Com: -0.292D+00 0.126D+01
 Coeff:      0.109D-03-0.194D-03-0.171D-02 0.361D-02 0.236D-01 0.626D-02
 Coeff:     -0.292D+00 0.126D+01
 Gap=     0.550 Goal=   None    Shift=    0.000
 RMSDP=1.34D-06 MaxDP=1.06D-05 DE=-2.13D-08 OVMax= 3.46D-05

 Cycle   9  Pass 1  IDiag  1:
 E= -226.395401178699     Delta-E=       -0.000000001550 Rises=F Damp=F
 DIIS: error= 1.80D-06 at cycle   9 NSaved=   9.
 NSaved= 9 IEnMin= 9 EnMin= -226.395401178699     IErMin= 9 ErrMin= 1.80D-06
 ErrMax= 1.80D-06  0.00D+00 EMaxC= 1.00D-01 BMatC= 5.07D-11 BMatP= 3.04D-10
 IDIUse=1 WtCom= 1.00D+00 WtEn= 0.00D+00
 Coeff-Com: -0.361D-03 0.217D-02-0.596D-02-0.797D-03 0.492D-01 0.810D-01
 Coeff-Com: -0.314D+00 0.129D+00 0.106D+01
 Coeff:     -0.361D-03 0.217D-02-0.596D-02-0.797D-03 0.492D-01 0.810D-01
 Coeff:     -0.314D+00 0.129D+00 0.106D+01
 Gap=     0.550 Goal=   None    Shift=    0.000
 RMSDP=4.94D-07 MaxDP=3.08D-06 DE=-1.55D-09 OVMax= 1.20D-05

 Cycle  10  Pass 1  IDiag  1:
 E= -226.395401178900     Delta-E=       -0.000000000201 Rises=F Damp=F
 DIIS: error= 5.62D-07 at cycle  10 NSaved=  10.
 NSaved=10 IEnMin=10 EnMin= -226.395401178900     IErMin=10 ErrMin= 5.62D-07
 ErrMax= 5.62D-07  0.00D+00 EMaxC= 1.00D-01 BMatC= 7.09D-12 BMatP= 5.07D-11
 IDIUse=1 WtCom= 1.00D+00 WtEn= 0.00D+00
 Coeff-Com:  0.482D-04-0.345D-03 0.127D-02-0.516D-03-0.114D-01-0.139D-01
 Coeff-Com:  0.948D-01-0.212D+00-0.105D+00 0.125D+01
 Coeff:      0.482D-04-0.345D-03 0.127D-02-0.516D-03-0.114D-01-0.139D-01
 Coeff:      0.948D-01-0.212D+00-0.105D+00 0.125D+01
 Gap=     0.550 Goal=   None    Shift=    0.000
 RMSDP=1.64D-07 MaxDP=1.32D-06 DE=-2.01D-10 OVMax= 2.93D-06

 Cycle  11  Pass 1  IDiag  1:
 E= -226.395401178927     Delta-E=       -0.000000000026 Rises=F Damp=F
 DIIS: error= 1.98D-07 at cycle  11 NSaved=  11.
 NSaved=11 IEnMin=11 EnMin= -226.395401178927     IErMin=11 ErrMin= 1.98D-07
 ErrMax= 1.98D-07  0.00D+00 EMaxC= 1.00D-01 BMatC= 8.70D-13 BMatP= 7.09D-12
 IDIUse=1 WtCom= 1.00D+00 WtEn= 0.00D+00
 Coeff-Com:  0.467D-04-0.281D-03 0.765D-03 0.108D-03-0.632D-02-0.111D-01
 Coeff-Com:  0.421D-01-0.189D-01-0.128D+00 0.349D-02 0.112D+01
 Coeff:      0.467D-04-0.281D-03 0.765D-03 0.108D-03-0.632D-02-0.111D-01
 Coeff:      0.421D-01-0.189D-01-0.128D+00 0.349D-02 0.112D+01
 Gap=     0.550 Goal=   None    Shift=    0.000
 RMSDP=5.25D-08 MaxDP=5.19D-07 DE=-2.64D-11 OVMax= 1.06D-06

 Cycle  12  Pass 1  IDiag  1:
 E= -226.395401178930     Delta-E=       -0.000000000003 Rises=F Damp=F
 DIIS: error= 8.04D-08 at cycle  12 NSaved=  12.
 NSaved=12 IEnMin=12 EnMin= -226.395401178930     IErMin=12 ErrMin= 8.04D-08
 ErrMax= 8.04D-08  0.00D+00 EMaxC= 1.00D-01 BMatC= 1.40D-13 BMatP= 8.70D-13
 IDIUse=1 WtCom= 1.00D+00 WtEn= 0.00D+00
 Coeff-Com: -0.249D-04 0.159D-03-0.485D-03 0.553D-04 0.414D-02 0.611D-02
 Coeff-Com: -0.307D-01 0.415D-01 0.640D-01-0.220D+00-0.353D+00 0.149D+01
 Coeff:     -0.249D-04 0.159D-03-0.485D-03 0.553D-04 0.414D-02 0.611D-02
 Coeff:     -0.307D-01 0.415D-01 0.640D-01-0.220D+00-0.353D+00 0.149D+01
 Gap=     0.550 Goal=   None    Shift=    0.000
 RMSDP=2.91D-08 MaxDP=2.92D-07 DE=-2.96D-12 OVMax= 5.42D-07

 Cycle  13  Pass 1  IDiag  1:
 E= -226.395401178931     Delta-E=       -0.000000000001 Rises=F Damp=F
 DIIS: error= 2.20D-08 at cycle  13 NSaved=  13.
 NSaved=13 IEnMin=13 EnMin= -226.395401178931     IErMin=13 ErrMin= 2.20D-08
 ErrMax= 2.20D-08  0.00D+00 EMaxC= 1.00D-01 BMatC= 8.31D-15 BMatP= 1.40D-13
 IDIUse=1 WtCom= 1.00D+00 WtEn= 0.00D+00
 Coeff-Com:  0.566D-05-0.365D-04 0.117D-03-0.215D-04-0.106D-02-0.126D-02
 Coeff-Com:  0.784D-02-0.144D-01-0.130D-01 0.827D-01 0.357D-01-0.551D+00
 Coeff-Com:  0.145D+01
 Coeff:      0.566D-05-0.365D-04 0.117D-03-0.215D-04-0.106D-02-0.126D-02
 Coeff:      0.784D-02-0.144D-01-0.130D-01 0.827D-01 0.357D-01-0.551D+00
 Coeff:      0.145D+01
 Gap=     0.550 Goal=   None    Shift=    0.000
 RMSDP=7.28D-09 MaxDP=6.71D-08 DE=-9.09D-13 OVMax= 1.34D-07

 SCF Done:  E(RHF) =  -226.395401179     A.U. after   13 cycles
            NFock= 13  Conv=0.73D-08     -V/T= 2.0035
 KE= 2.256165635648D+02 PE=-7.666515432779D+02 EE= 1.979691733278D+02
 Leave Link  502 at Fri Apr 12 15:30:25 2019, MaxMem=   134217728 cpu:         0.2
 (Enter /cm/shared/c3ddb/gaussian/09.d01/g09/l601.exe)
 Copying SCF densities to generalized density rwf, IOpCl= 0 IROHF=0.

 **********************************************************************

            Population analysis using the SCF density.

 **********************************************************************

 Alpha  occ. eigenvalues --  -20.53735 -20.52892 -11.24343 -11.16623  -1.47960
 Alpha  occ. eigenvalues --   -1.24088  -1.02890  -0.79850  -0.71688  -0.66509
 Alpha  occ. eigenvalues --   -0.63948  -0.59870  -0.55278  -0.50069  -0.48745
 Alpha  occ. eigenvalues --   -0.36344
 Alpha virt. eigenvalues --    0.18656   0.23154   0.27588   0.31844   0.33790
 Alpha virt. eigenvalues --    0.35890   0.49717   0.57547   0.90262   0.96914
 Alpha virt. eigenvalues --    1.00210   1.06421   1.10785   1.12650   1.22200
 Alpha virt. eigenvalues --    1.32575   1.37200   1.58010   1.59840   1.73622
 Alpha virt. eigenvalues --    1.82288   1.89618   1.94974   2.01972   2.05129
 Alpha virt. eigenvalues --    2.27463   3.06926   3.49712
          Condensed to atoms (all electrons):
               1          2          3          4          5          6
     1  C    4.879737   0.520043   0.365930  -0.046800  -0.051088   0.204780
     2  C    0.520043   5.304356  -0.044859   0.386175   0.390081  -0.051642
     3  H    0.365930  -0.044859   0.447010  -0.000493   0.002214  -0.035193
     4  H   -0.046800   0.386175  -0.000493   0.448022  -0.015296   0.001355
     5  H   -0.051088   0.390081   0.002214  -0.015296   0.436995  -0.000559
     6  O    0.204780  -0.051642  -0.035193   0.001355  -0.000559   8.196881
     7  O   -0.029536   0.002562   0.003347  -0.000029  -0.000017   0.118285
     8  H    0.000886  -0.000245  -0.000090   0.000003   0.000003  -0.023476
               7          8
     1  C   -0.029536   0.000886
     2  C    0.002562  -0.000245
     3  H    0.003347  -0.000090
     4  H   -0.000029   0.000003
     5  H   -0.000017   0.000003
     6  O    0.118285  -0.023476
     7  O    8.045406   0.243640
     8  H    0.243640   0.361633
 Mulliken charges:
               1
     1  C    0.156049
     2  C   -0.506471
     3  H    0.262134
     4  H    0.227064
     5  H    0.237667
     6  O   -0.410431
     7  O   -0.383657
     8  H    0.417646
 Sum of Mulliken charges =   0.00000
 Mulliken charges with hydrogens summed into heavy atoms:
               1
     1  C    0.418183
     2  C   -0.041741
     6  O   -0.410431
     7  O    0.033989
 Electronic spatial extent (au):  <R**2>=            365.6137
 Charge=              0.0000 electrons
 Dipole moment (field-independent basis, Debye):
    X=              0.6197    Y=             -0.0627    Z=             -1.7761  Tot=              1.8822
 Quadrupole moment (field-independent basis, Debye-Ang):
   XX=            -20.1268   YY=            -23.4614   ZZ=            -22.9363
   XY=             -0.2369   XZ=              3.6522   YZ=             -2.8044
 Traceless Quadrupole moment (field-independent basis, Debye-Ang):
   XX=              2.0480   YY=             -1.2866   ZZ=             -0.7614
   XY=             -0.2369   XZ=              3.6522   YZ=             -2.8044
 Octapole moment (field-independent basis, Debye-Ang**2):
  XXX=            -12.9147  YYY=            -51.5025  ZZZ=              3.4416  XYY=             -3.0811
  XXY=            -10.7580  XXZ=             -3.3477  XZZ=            -10.9095  YZZ=            -10.5243
  YYZ=             -2.6070  XYZ=              6.1524
 Hexadecapole moment (field-independent basis, Debye-Ang**3):
 XXXX=           -160.4474 YYYY=           -221.1871 ZZZZ=            -25.9867 XXXY=             40.2675
 XXXZ=              2.1988 YYYX=             53.4329 YYYZ=              5.6260 ZZZX=             -2.6572
 ZZZY=              7.6968 XXYY=            -56.9990 XXZZ=            -31.8439 YYZZ=            -32.4982
 XXYZ=             -5.6728 YYXZ=              7.8984 ZZXY=              9.3480
 N-N= 1.166704052062D+02 E-N=-7.666515434142D+02  KE= 2.256165635648D+02
 No NMR shielding tensors so no spin-rotation constants.
 Leave Link  601 at Fri Apr 12 15:30:25 2019, MaxMem=   134217728 cpu:         0.1
 (Enter /cm/shared/c3ddb/gaussian/09.d01/g09/l701.exe)
 Compute integral first derivatives.
 ... and contract with generalized density number  0.
 Leave Link  701 at Fri Apr 12 15:30:25 2019, MaxMem=   134217728 cpu:         0.1
 (Enter /cm/shared/c3ddb/gaussian/09.d01/g09/l702.exe)
 L702 exits ... SP integral derivatives will be done elsewhere.
 Leave Link  702 at Fri Apr 12 15:30:25 2019, MaxMem=   134217728 cpu:         0.0
 (Enter /cm/shared/c3ddb/gaussian/09.d01/g09/l703.exe)
 Compute integral first derivatives, UseDBF=F ICtDFT=           0.
 Integral derivatives from FoFJK, PRISM(SPDF).
 Calling FoFJK, ICntrl=      2127 FMM=F ISym2X=0 I1Cent= 0 IOpClX= 0 NMat=1 NMatS=1 NMatT=0.
 FoFJK:  IHMeth= 1 ICntrl=    2127 DoSepK=F KAlg= 0 I1Cent=   0 FoldK=F
 IRaf=         0 NMat=   1 IRICut=       1 DoRegI=T DoRafI=F ISym2E= 0.
 FoFCou: FMM=F IPFlag=           0 FMFlag=      100000 FMFlg1=         800
         NFxFlg=           0 DoJE=F BraDBF=F KetDBF=F FulRan=T
         wScrn=  0.000000 ICntrl=    2127 IOpCl=  0 I1Cent=           0 NGrid=           0
         NMat0=    1 NMatS0=      1 NMatT0=    0 NMatD0=    1 NMtDS0=    0 NMtDT0=    0
 Symmetry not used in FoFCou.
 Leave Link  703 at Fri Apr 12 15:30:26 2019, MaxMem=   134217728 cpu:         0.2
 (Enter /cm/shared/c3ddb/gaussian/09.d01/g09/l716.exe)
 Dipole        = 2.43790057D-01-2.46492409D-02-6.98779245D-01
 -------------------------------------------------------------------
 Center     Atomic                   Forces (Hartrees/Bohr)
 Number     Number              X              Y              Z
 -------------------------------------------------------------------
      1        6           0.001066843   -0.000399029    0.000940152
      2        6           0.000020818    0.000037953   -0.000237284
      3        1          -0.000014952   -0.000040335    0.000144835
      4        1           0.000022744   -0.000014650   -0.000043465
      5        1          -0.000010185   -0.000029437    0.000078825
      6        8          -0.000412670    0.001143905   -0.000540854
      7        8           0.000507262   -0.001359924   -0.000399828
      8        1          -0.001179861    0.000661518    0.000057621
 -------------------------------------------------------------------
 Cartesian Forces:  Max     0.001359924 RMS     0.000582487
 Leave Link  716 at Fri Apr 12 15:30:26 2019, MaxMem=   134217728 cpu:         0.0
 (Enter /cm/shared/c3ddb/gaussian/09.d01/g09/l103.exe)

 GradGradGradGradGradGradGradGradGradGradGradGradGradGradGradGradGradGrad
 Berny optimization.
 FormGI is forming the generalized inverse of G from B-inverse, IUseBI=4.
 Internal  Forces:  Max     0.001742631 RMS     0.000669982
 Search for a local minimum.
 Step number   1 out of a maximum of   32
 All quantities printed in internal units (Hartrees-Bohrs-Radians)
 RMS Force = .57817D-03 SwitMx=.10000D-02 MixMth= 2
 Mixed Optimization -- En-DIIS/RFO-DIIS
 Second derivative matrix not updated -- first step.
 ITU=  0
     Eigenvalues ---    0.02575   0.03289   0.03289   0.15993   0.16000
     Eigenvalues ---    0.16000   0.16000   0.22002   0.25000   0.36286
     Eigenvalues ---    0.37115   0.37203   0.37508   0.45389   0.52962
     Eigenvalues ---    0.646791000.000001000.000001000.000001000.00000
     Eigenvalues --- 1000.000001000.00000
 RFO step:  Lambda=-3.01462613D-05 EMin= 2.57507217D-02
 Linear search not attempted -- first point.
 Iteration  1 RMS(Cart)=  0.00529693 RMS(Int)=  0.00001472
 Iteration  2 RMS(Cart)=  0.00001533 RMS(Int)=  0.00000040
 Iteration  3 RMS(Cart)=  0.00000000 RMS(Int)=  0.00000040
 Iteration  1 RMS(Cart)=  0.00000001 RMS(Int)=  0.00000000
 ITry= 1 IFail=0 DXMaxC= 1.41D-02 DCOld= 1.00D+10 DXMaxT= 3.00D-01 DXLimC= 3.00D+00 Rises=F
 Variable       Old X    -DE/DX   Delta X   Delta X   Delta X     New X
                                 (Linear)    (Quad)   (Total)
    R1        2.47419   0.00003   0.00000   0.00004   0.00004   2.47424
    R2        2.01787  -0.00004   0.00000  -0.00009  -0.00009   2.01777
    R3        2.64826   0.00108   0.00000   0.00238   0.00238   2.65064
    R4        2.02242   0.00002   0.00000   0.00006   0.00006   2.02248
    R5        2.02373   0.00003   0.00000   0.00007   0.00007   2.02380
    R6        2.76936  -0.00036   0.00000  -0.00098  -0.00098   2.76838
    R7        1.83690   0.00044   0.00000   0.00083   0.00083   1.83773
    A1        2.18625  -0.00001   0.00000  -0.00012  -0.00012   2.18613
    A2        2.10862   0.00003   0.00000   0.00011   0.00011   2.10873
    A3        1.98763  -0.00002   0.00000  -0.00009  -0.00009   1.98754
    A4        2.09916   0.00002   0.00000   0.00012   0.00012   2.09928
    A5        2.12122   0.00000   0.00000  -0.00003  -0.00003   2.12119
    A6        2.06271  -0.00001   0.00000  -0.00010  -0.00010   2.06261
    A7        1.86095   0.00167   0.00000   0.00666   0.00666   1.86762
    A8        1.74668   0.00155   0.00000   0.00967   0.00967   1.75635
    D1        0.01910   0.00000   0.00000  -0.00260  -0.00260   0.01650
    D2       -3.13768  -0.00003   0.00000  -0.00356  -0.00356  -3.14123
    D3       -3.08019  -0.00008   0.00000   0.00030   0.00030  -3.07989
    D4        0.04622  -0.00011   0.00000  -0.00065  -0.00065   0.04557
    D5       -2.79253   0.00031   0.00000   0.00000   0.00000  -2.79253
    D6        0.38684   0.00024   0.00000   0.00259   0.00259   0.38943
    D7        2.09439   0.00174   0.00000   0.00000   0.00000   2.09439
         Item               Value     Threshold  Converged?
 Maximum Force            0.001666     0.000015     NO 
 RMS     Force            0.000578     0.000010     NO 
 Maximum Displacement     0.014101     0.000060     NO 
 RMS     Displacement     0.005293     0.000040     NO 
 Predicted change in Energy=-1.507314D-05
 Lowest energy point so far.  Saving SCF results.
 GradGradGradGradGradGradGradGradGradGradGradGradGradGradGradGradGradGrad

 Leave Link  103 at Fri Apr 12 15:30:26 2019, MaxMem=   134217728 cpu:         0.0
 (Enter /cm/shared/c3ddb/gaussian/09.d01/g09/l202.exe)
                          Input orientation:                          
 ---------------------------------------------------------------------
 Center     Atomic      Atomic             Coordinates (Angstroms)
 Number     Number       Type             X           Y           Z
 ---------------------------------------------------------------------
      1          6           0        0.728130    0.637508    0.024414
      2          6           0        1.369293   -0.503238   -0.019171
      3          1           0        1.186268    1.600156    0.083840
      4          1           0        2.438664   -0.523045    0.019329
      5          1           0        0.848008   -1.436847   -0.078878
      6          8           0       -0.673853    0.673438    0.048991
      7          8           0       -1.075795    2.013631   -0.385105
      8          1           0       -1.604870    1.796320   -1.171604
 ---------------------------------------------------------------------
                    Distance matrix (angstroms):
                    1          2          3          4          5
     1  C    0.000000
     2  C    1.309309   0.000000
     3  H    1.067760   2.113853   0.000000
     4  H    2.067084   1.070248   2.465896   0.000000
     5  H    2.080382   1.070947   3.060111   1.837081   0.000000
     6  O    1.402659   2.358741   2.078477   3.334699   2.604940
     7  O    2.305552   3.528030   2.346870   4.353127   3.962397
     8  H    2.866391   3.932139   3.066768   4.811231   4.202860
                    6          7          8
     6  O    0.000000
     7  O    1.464962   0.000000
     8  H    1.901975   0.972484   0.000000
 Symmetry turned off by external request.
 Stoichiometry    C2H4O2
 Framework group  C1[X(C2H4O2)]
 Deg. of freedom    18
 Full point group                 C1      NOp   1
 Rotational constants (GHZ):     40.7099769      4.5657426      4.2228321
 Leave Link  202 at Fri Apr 12 15:30:26 2019, MaxMem=   134217728 cpu:         0.0
 (Enter /cm/shared/c3ddb/gaussian/09.d01/g09/l301.exe)
 Standard basis: 3-21G (6D, 7F)
 Ernie: Thresh=  0.10000D-02 Tol=  0.10000D-05 Strict=F.
    44 basis functions,    72 primitive gaussians,    44 cartesian basis functions
    16 alpha electrons       16 beta electrons
       nuclear repulsion energy       116.5859832620 Hartrees.
 IExCor=    0 DFT=F Ex=HF Corr=None ExCW=0 ScaHFX=  1.000000
 ScaDFX=  1.000000  1.000000  1.000000  1.000000 ScalE2=  1.000000  1.000000
 IRadAn=      0 IRanWt=     -1 IRanGd=            0 ICorTp=0 IEmpDi=  4
 NAtoms=    8 NActive=    8 NUniq=    8 SFac= 1.00D+00 NAtFMM=   60 NAOKFM=F Big=F
 Integral buffers will be    131072 words long.
 Raffenetti 1 integral format.
 Two-electron integral symmetry is turned off.
 Leave Link  301 at Fri Apr 12 15:30:26 2019, MaxMem=   134217728 cpu:         0.1
 (Enter /cm/shared/c3ddb/gaussian/09.d01/g09/l302.exe)
 NPDir=0 NMtPBC=     1 NCelOv=     1 NCel=       1 NClECP=     1 NCelD=      1
         NCelK=      1 NCelE2=     1 NClLst=     1 CellRange=     0.0.
 One-electron integrals computed using PRISM.
 NBasis=    44 RedAO= T EigKep=  1.13D-02  NBF=    44
 NBsUse=    44 1.00D-06 EigRej= -1.00D+00 NBFU=    44
 Leave Link  302 at Fri Apr 12 15:30:26 2019, MaxMem=   134217728 cpu:         0.1
 (Enter /cm/shared/c3ddb/gaussian/09.d01/g09/l303.exe)
 DipDrv:  MaxL=1.
 Leave Link  303 at Fri Apr 12 15:30:26 2019, MaxMem=   134217728 cpu:         0.1
 (Enter /cm/shared/c3ddb/gaussian/09.d01/g09/l401.exe)
 Initial guess from the checkpoint file:  "TMP_CALCS/scangeom_S02_200_120.chk"
 B after Tr=     0.000968   -0.000218   -0.000308
         Rot=    1.000000    0.000226   -0.000117   -0.000377 Ang=   0.05 deg.
 Guess basis will be translated and rotated to current coordinates.
 JPrj=2 DoOrth=T DoCkMO=T.
 Leave Link  401 at Fri Apr 12 15:30:26 2019, MaxMem=   134217728 cpu:         0.2
 (Enter /cm/shared/c3ddb/gaussian/09.d01/g09/l502.exe)
 Closed shell SCF:
 Using DIIS extrapolation, IDIIS=  1040.
 Two-electron integral symmetry not used.
 Keep R1 ints in memory in canonical form, NReq=1327217.
 IVT=       24902 IEndB=       24902 NGot=   134217728 MDV=   133702282
 LenX=   133702282 LenY=   133699905
 Requested convergence on RMS density matrix=1.00D-08 within 128 cycles.
 Requested convergence on MAX density matrix=1.00D-06.
 Requested convergence on             energy=1.00D-06.
 No special actions if energy rises.
 FoFCou: FMM=F IPFlag=           0 FMFlag=           0 FMFlg1=           0
         NFxFlg=           0 DoJE=F BraDBF=F KetDBF=F FulRan=T
         wScrn=  0.000000 ICntrl=     600 IOpCl=  0 I1Cent=           0 NGrid=           0
         NMat0=    1 NMatS0=    990 NMatT0=    0 NMatD0=    1 NMtDS0=    0 NMtDT0=    0
 Symmetry not used in FoFCou.

 Cycle   1  Pass 1  IDiag  1:
 E= -226.395390461795    
 DIIS: error= 3.03D-04 at cycle   1 NSaved=   1.
 NSaved= 1 IEnMin= 1 EnMin= -226.395390461795     IErMin= 1 ErrMin= 3.03D-04
 ErrMax= 3.03D-04  0.00D+00 EMaxC= 1.00D-01 BMatC= 1.18D-05 BMatP= 1.18D-05
 IDIUse=3 WtCom= 9.97D-01 WtEn= 3.03D-03
 Coeff-Com:  0.100D+01
 Coeff-En:   0.100D+01
 Coeff:      0.100D+01
 Gap=     0.938 Goal=   None    Shift=    0.000
 RMSDP=8.01D-05 MaxDP=5.51D-04              OVMax= 6.89D-04

 Cycle   2  Pass 1  IDiag  1:
 E= -226.395404371712     Delta-E=       -0.000013909917 Rises=F Damp=F
 DIIS: error= 1.55D-04 at cycle   2 NSaved=   2.
 NSaved= 2 IEnMin= 2 EnMin= -226.395404371712     IErMin= 2 ErrMin= 1.55D-04
 ErrMax= 1.55D-04  0.00D+00 EMaxC= 1.00D-01 BMatC= 7.88D-07 BMatP= 1.18D-05
 IDIUse=3 WtCom= 9.98D-01 WtEn= 1.55D-03
 Coeff-Com: -0.152D+00 0.115D+01
 Coeff-En:   0.000D+00 0.100D+01
 Coeff:     -0.152D+00 0.115D+01
 Gap=     0.550 Goal=   None    Shift=    0.000
 RMSDP=3.47D-05 MaxDP=2.17D-04 DE=-1.39D-05 OVMax= 4.61D-04

 Cycle   3  Pass 1  IDiag  1:
 E= -226.395406667053     Delta-E=       -0.000002295340 Rises=F Damp=F
 DIIS: error= 9.19D-05 at cycle   3 NSaved=   3.
 NSaved= 3 IEnMin= 3 EnMin= -226.395406667053     IErMin= 3 ErrMin= 9.19D-05
 ErrMax= 9.19D-05  0.00D+00 EMaxC= 1.00D-01 BMatC= 1.52D-07 BMatP= 7.88D-07
 IDIUse=1 WtCom= 1.00D+00 WtEn= 0.00D+00
 Coeff-Com: -0.113D-01-0.191D+00 0.120D+01
 Coeff:     -0.113D-01-0.191D+00 0.120D+01
 Gap=     0.550 Goal=   None    Shift=    0.000
 RMSDP=1.80D-05 MaxDP=1.13D-04 DE=-2.30D-06 OVMax= 3.20D-04

 Cycle   4  Pass 1  IDiag  1:
 E= -226.395407205662     Delta-E=       -0.000000538610 Rises=F Damp=F
 DIIS: error= 5.49D-05 at cycle   4 NSaved=   4.
 NSaved= 4 IEnMin= 4 EnMin= -226.395407205662     IErMin= 4 ErrMin= 5.49D-05
 ErrMax= 5.49D-05  0.00D+00 EMaxC= 1.00D-01 BMatC= 4.42D-08 BMatP= 1.52D-07
 IDIUse=1 WtCom= 1.00D+00 WtEn= 0.00D+00
 Coeff-Com:  0.315D-01-0.281D+00 0.184D+00 0.107D+01
 Coeff:      0.315D-01-0.281D+00 0.184D+00 0.107D+01
 Gap=     0.550 Goal=   None    Shift=    0.000
 RMSDP=1.11D-05 MaxDP=7.46D-05 DE=-5.39D-07 OVMax= 2.11D-04

 Cycle   5  Pass 1  IDiag  1:
 E= -226.395407364897     Delta-E=       -0.000000159234 Rises=F Damp=F
 DIIS: error= 2.52D-05 at cycle   5 NSaved=   5.
 NSaved= 5 IEnMin= 5 EnMin= -226.395407364897     IErMin= 5 ErrMin= 2.52D-05
 ErrMax= 2.52D-05  0.00D+00 EMaxC= 1.00D-01 BMatC= 7.74D-09 BMatP= 4.42D-08
 IDIUse=1 WtCom= 1.00D+00 WtEn= 0.00D+00
 Coeff-Com:  0.311D-03 0.574D-01-0.244D+00-0.527D-01 0.124D+01
 Coeff:      0.311D-03 0.574D-01-0.244D+00-0.527D-01 0.124D+01
 Gap=     0.550 Goal=   None    Shift=    0.000
 RMSDP=5.64D-06 MaxDP=3.91D-05 DE=-1.59D-07 OVMax= 1.30D-04

 Cycle   6  Pass 1  IDiag  1:
 E= -226.395407397329     Delta-E=       -0.000000032432 Rises=F Damp=F
 DIIS: error= 1.01D-05 at cycle   6 NSaved=   6.
 NSaved= 6 IEnMin= 6 EnMin= -226.395407397329     IErMin= 6 ErrMin= 1.01D-05
 ErrMax= 1.01D-05  0.00D+00 EMaxC= 1.00D-01 BMatC= 1.54D-09 BMatP= 7.74D-09
 IDIUse=1 WtCom= 1.00D+00 WtEn= 0.00D+00
 Coeff-Com: -0.549D-02 0.649D-01-0.933D-01-0.210D+00 0.297D+00 0.946D+00
 Coeff:     -0.549D-02 0.649D-01-0.933D-01-0.210D+00 0.297D+00 0.946D+00
 Gap=     0.550 Goal=   None    Shift=    0.000
 RMSDP=2.23D-06 MaxDP=1.31D-05 DE=-3.24D-08 OVMax= 5.07D-05

 Cycle   7  Pass 1  IDiag  1:
 E= -226.395407402440     Delta-E=       -0.000000005111 Rises=F Damp=F
 DIIS: error= 3.74D-06 at cycle   7 NSaved=   7.
 NSaved= 7 IEnMin= 7 EnMin= -226.395407402440     IErMin= 7 ErrMin= 3.74D-06
 ErrMax= 3.74D-06  0.00D+00 EMaxC= 1.00D-01 BMatC= 2.00D-10 BMatP= 1.54D-09
 IDIUse=1 WtCom= 1.00D+00 WtEn= 0.00D+00
 Coeff-Com:  0.166D-02-0.314D-01 0.779D-01 0.700D-01-0.327D+00-0.299D+00
 Coeff-Com:  0.151D+01
 Coeff:      0.166D-02-0.314D-01 0.779D-01 0.700D-01-0.327D+00-0.299D+00
 Coeff:      0.151D+01
 Gap=     0.550 Goal=   None    Shift=    0.000
 RMSDP=1.17D-06 MaxDP=8.10D-06 DE=-5.11D-09 OVMax= 2.75D-05

 Cycle   8  Pass 1  IDiag  1:
 E= -226.395407403416     Delta-E=       -0.000000000976 Rises=F Damp=F
 DIIS: error= 5.89D-07 at cycle   8 NSaved=   8.
 NSaved= 8 IEnMin= 8 EnMin= -226.395407403416     IErMin= 8 ErrMin= 5.89D-07
 ErrMax= 5.89D-07  0.00D+00 EMaxC= 1.00D-01 BMatC= 1.21D-11 BMatP= 2.00D-10
 IDIUse=1 WtCom= 1.00D+00 WtEn= 0.00D+00
 Coeff-Com:  0.388D-03-0.446D-02 0.577D-02 0.143D-01-0.143D-01-0.784D-01
 Coeff-Com: -0.110D-02 0.108D+01
 Coeff:      0.388D-03-0.446D-02 0.577D-02 0.143D-01-0.143D-01-0.784D-01
 Coeff:     -0.110D-02 0.108D+01
 Gap=     0.550 Goal=   None    Shift=    0.000
 RMSDP=1.95D-07 MaxDP=1.54D-06 DE=-9.76D-10 OVMax= 3.82D-06

 Cycle   9  Pass 1  IDiag  1:
 E= -226.395407403455     Delta-E=       -0.000000000039 Rises=F Damp=F
 DIIS: error= 2.00D-07 at cycle   9 NSaved=   9.
 NSaved= 9 IEnMin= 9 EnMin= -226.395407403455     IErMin= 9 ErrMin= 2.00D-07
 ErrMax= 2.00D-07  0.00D+00 EMaxC= 1.00D-01 BMatC= 1.62D-12 BMatP= 1.21D-11
 IDIUse=1 WtCom= 1.00D+00 WtEn= 0.00D+00
 Coeff-Com: -0.194D-03 0.413D-02-0.107D-01-0.918D-02 0.485D-01 0.316D-01
 Coeff-Com: -0.217D+00 0.102D+00 0.105D+01
 Coeff:     -0.194D-03 0.413D-02-0.107D-01-0.918D-02 0.485D-01 0.316D-01
 Coeff:     -0.217D+00 0.102D+00 0.105D+01
 Gap=     0.550 Goal=   None    Shift=    0.000
 RMSDP=6.84D-08 MaxDP=5.41D-07 DE=-3.87D-11 OVMax= 1.07D-06

 Cycle  10  Pass 1  IDiag  1:
 E= -226.395407403459     Delta-E=       -0.000000000004 Rises=F Damp=F
 DIIS: error= 6.29D-08 at cycle  10 NSaved=  10.
 NSaved=10 IEnMin=10 EnMin= -226.395407403459     IErMin=10 ErrMin= 6.29D-08
 ErrMax= 6.29D-08  0.00D+00 EMaxC= 1.00D-01 BMatC= 1.40D-13 BMatP= 1.62D-12
 IDIUse=1 WtCom= 1.00D+00 WtEn= 0.00D+00
 Coeff-Com: -0.201D-04 0.134D-03 0.534D-04-0.718D-03-0.535D-03 0.361D-02
 Coeff-Com:  0.930D-02-0.887D-01-0.934D-02 0.109D+01
 Coeff:     -0.201D-04 0.134D-03 0.534D-04-0.718D-03-0.535D-03 0.361D-02
 Coeff:      0.930D-02-0.887D-01-0.934D-02 0.109D+01
 Gap=     0.550 Goal=   None    Shift=    0.000
 RMSDP=1.76D-08 MaxDP=1.37D-07 DE=-4.15D-12 OVMax= 2.67D-07

 Cycle  11  Pass 1  IDiag  1:
 E= -226.395407403459     Delta-E=        0.000000000000 Rises=F Damp=F
 DIIS: error= 3.43D-08 at cycle  11 NSaved=  11.
 NSaved=11 IEnMin=10 EnMin= -226.395407403459     IErMin=11 ErrMin= 3.43D-08
 ErrMax= 3.43D-08  0.00D+00 EMaxC= 1.00D-01 BMatC= 2.20D-14 BMatP= 1.40D-13
 IDIUse=1 WtCom= 1.00D+00 WtEn= 0.00D+00
 Coeff-Com:  0.325D-04-0.707D-03 0.183D-02 0.164D-02-0.828D-02-0.581D-02
 Coeff-Com:  0.376D-01-0.184D-01-0.170D+00-0.285D-01 0.119D+01
 Coeff:      0.325D-04-0.707D-03 0.183D-02 0.164D-02-0.828D-02-0.581D-02
 Coeff:      0.376D-01-0.184D-01-0.170D+00-0.285D-01 0.119D+01
 Gap=     0.550 Goal=   None    Shift=    0.000
 RMSDP=8.84D-09 MaxDP=6.73D-08 DE= 0.00D+00 OVMax= 1.38D-07

 SCF Done:  E(RHF) =  -226.395407403     A.U. after   11 cycles
            NFock= 11  Conv=0.88D-08     -V/T= 2.0035
 KE= 2.256096091056D+02 PE=-7.664833371290D+02 EE= 1.978923373580D+02
 Leave Link  502 at Fri Apr 12 15:30:27 2019, MaxMem=   134217728 cpu:         0.2
 (Enter /cm/shared/c3ddb/gaussian/09.d01/g09/l701.exe)
 Compute integral first derivatives.
 ... and contract with generalized density number  0.
 Leave Link  701 at Fri Apr 12 15:30:27 2019, MaxMem=   134217728 cpu:         0.1
 (Enter /cm/shared/c3ddb/gaussian/09.d01/g09/l702.exe)
 L702 exits ... SP integral derivatives will be done elsewhere.
 Leave Link  702 at Fri Apr 12 15:30:27 2019, MaxMem=   134217728 cpu:         0.0
 (Enter /cm/shared/c3ddb/gaussian/09.d01/g09/l703.exe)
 Compute integral first derivatives, UseDBF=F ICtDFT=           0.
 Integral derivatives from FoFJK, PRISM(SPDF).
 Calling FoFJK, ICntrl=      2127 FMM=F ISym2X=0 I1Cent= 0 IOpClX= 0 NMat=1 NMatS=1 NMatT=0.
 FoFJK:  IHMeth= 1 ICntrl=    2127 DoSepK=F KAlg= 0 I1Cent=   0 FoldK=F
 IRaf=         0 NMat=   1 IRICut=       1 DoRegI=T DoRafI=F ISym2E= 0.
 FoFCou: FMM=F IPFlag=           0 FMFlag=      100000 FMFlg1=         800
         NFxFlg=           0 DoJE=F BraDBF=F KetDBF=F FulRan=T
         wScrn=  0.000000 ICntrl=    2127 IOpCl=  0 I1Cent=           0 NGrid=           0
         NMat0=    1 NMatS0=      1 NMatT0=    0 NMatD0=    1 NMtDS0=    0 NMtDT0=    0
 Symmetry not used in FoFCou.
 Leave Link  703 at Fri Apr 12 15:30:27 2019, MaxMem=   134217728 cpu:         0.2
 (Enter /cm/shared/c3ddb/gaussian/09.d01/g09/l716.exe)
 Dipole        = 2.45317360D-01-2.43086027D-02-6.98637101D-01
 -------------------------------------------------------------------
 Center     Atomic                   Forces (Hartrees/Bohr)
 Number     Number              X              Y              Z
 -------------------------------------------------------------------
      1        6          -0.000008253    0.000589815    0.000758422
      2        6          -0.000235163    0.000018261   -0.000206640
      3        1          -0.000009870    0.000084872   -0.000033640
      4        1          -0.000008904    0.000026354    0.000014738
      5        1          -0.000000170    0.000005191   -0.000030776
      6        8          -0.000721240    0.000030469   -0.001005293
      7        8           0.001571375   -0.000170275   -0.000108910
      8        1          -0.000587774   -0.000584687    0.000612098
 -------------------------------------------------------------------
 Cartesian Forces:  Max     0.001571375 RMS     0.000505622
 Leave Link  716 at Fri Apr 12 15:30:27 2019, MaxMem=   134217728 cpu:         0.0
 (Enter /cm/shared/c3ddb/gaussian/09.d01/g09/l103.exe)

 GradGradGradGradGradGradGradGradGradGradGradGradGradGradGradGradGradGrad
 Berny optimization.
 Using GEDIIS/GDIIS optimizer.
 FormGI is forming the generalized inverse of G from B-inverse, IUseBI=4.
 Internal  Forces:  Max     0.001564742 RMS     0.000541837
 Search for a local minimum.
 Step number   2 out of a maximum of   32
 All quantities printed in internal units (Hartrees-Bohrs-Radians)
 RMS Force = .43956D-03 SwitMx=.10000D-02 MixMth= 2
 Mixed Optimization -- En-DIIS/RFO-DIIS
 Swapping is turned off.
 Update second derivatives using D2CorX and points    1    2
 DE= -6.22D-06 DEPred=-1.51D-05 R= 4.13D-01
 Trust test= 4.13D-01 RLast= 1.31D-02 DXMaxT set to 3.00D-01
 ITU=  0  0
     Eigenvalues ---    0.02567   0.03288   0.03290   0.15974   0.15999
     Eigenvalues ---    0.16000   0.18092   0.21961   0.28591   0.37114
     Eigenvalues ---    0.37201   0.37492   0.40754   0.49572   0.53103
     Eigenvalues ---    0.648501000.000001000.000001000.000001000.00000
     Eigenvalues --- 1000.000001000.00000
 En-DIIS/RFO-DIIS IScMMF=        0 using points:     2    1
 RFO step:  Lambda=-5.88529404D-06.
 NNeg= 0 NP= 2 Switch=  2.50D-03 Rises=F DC=  6.22D-06 SmlDif=  1.00D-05
 RMS Error=  0.6339117549D-03 NUsed= 2 EDIIS=F
 DidBck=T Rises=F RFO-DIIS coefs:    0.63135    0.36865
 Iteration  1 RMS(Cart)=  0.00214226 RMS(Int)=  0.00000172
 Iteration  2 RMS(Cart)=  0.00000182 RMS(Int)=  0.00000015
 Iteration  3 RMS(Cart)=  0.00000000 RMS(Int)=  0.00000015
 Iteration  1 RMS(Cart)=  0.00000003 RMS(Int)=  0.00000001
 ITry= 1 IFail=0 DXMaxC= 5.30D-03 DCOld= 1.00D+10 DXMaxT= 3.00D-01 DXLimC= 3.00D+00 Rises=F
 Variable       Old X    -DE/DX   Delta X   Delta X   Delta X     New X
                                 (Linear)    (Quad)   (Total)
    R1        2.47424  -0.00016  -0.00002  -0.00013  -0.00015   2.47409
    R2        2.01777   0.00007   0.00003   0.00008   0.00011   2.01789
    R3        2.65064  -0.00029  -0.00088   0.00066  -0.00022   2.65042
    R4        2.02248  -0.00001  -0.00002   0.00001  -0.00001   2.02246
    R5        2.02380   0.00000  -0.00003   0.00003   0.00000   2.02380
    R6        2.76838  -0.00111   0.00036  -0.00237  -0.00201   2.76637
    R7        1.83773  -0.00004  -0.00031   0.00032   0.00001   1.83774
    A1        2.18613   0.00018   0.00004   0.00049   0.00053   2.18666
    A2        2.10873  -0.00025  -0.00004  -0.00066  -0.00070   2.10803
    A3        1.98754   0.00008   0.00003   0.00014   0.00017   1.98772
    A4        2.09928  -0.00003  -0.00004  -0.00008  -0.00013   2.09915
    A5        2.12119   0.00001   0.00001   0.00004   0.00006   2.12125
    A6        2.06261   0.00002   0.00004   0.00004   0.00007   2.06268
    A7        1.86762  -0.00117  -0.00246   0.00002  -0.00244   1.86518
    A8        1.75635  -0.00102  -0.00357   0.00029  -0.00328   1.75307
    D1        0.01650   0.00009   0.00096  -0.00079   0.00017   0.01667
    D2       -3.14123   0.00011   0.00131  -0.00093   0.00038  -3.14085
    D3       -3.07989  -0.00007  -0.00011   0.00021   0.00010  -3.07978
    D4        0.04557  -0.00005   0.00024   0.00007   0.00031   0.04588
    D5       -2.79253   0.00031   0.00000   0.00000   0.00000  -2.79253
    D6        0.38943   0.00016  -0.00096   0.00088  -0.00007   0.38936
    D7        2.09439   0.00156   0.00000   0.00000   0.00000   2.09439
         Item               Value     Threshold  Converged?
 Maximum Force            0.001171     0.000015     NO 
 RMS     Force            0.000440     0.000010     NO 
 Maximum Displacement     0.005296     0.000060     NO 
 RMS     Displacement     0.002142     0.000040     NO 
 Predicted change in Energy=-4.419093D-06
 Lowest energy point so far.  Saving SCF results.
 GradGradGradGradGradGradGradGradGradGradGradGradGradGradGradGradGradGrad

 Leave Link  103 at Fri Apr 12 15:30:27 2019, MaxMem=   134217728 cpu:         0.0
 (Enter /cm/shared/c3ddb/gaussian/09.d01/g09/l202.exe)
                          Input orientation:                          
 ---------------------------------------------------------------------
 Center     Atomic      Atomic             Coordinates (Angstroms)
 Number     Number       Type             X           Y           Z
 ---------------------------------------------------------------------
      1          6           0        0.727437    0.638121    0.024373
      2          6           0        1.368415   -0.502629   -0.019476
      3          1           0        1.185219    1.601010    0.083675
      4          1           0        2.437788   -0.522433    0.018812
      5          1           0        0.847063   -1.436188   -0.079378
      6          8           0       -0.674446    0.673227    0.049333
      7          8           0       -1.073565    2.013150   -0.384618
      8          1           0       -1.602067    1.793667   -1.170906
 ---------------------------------------------------------------------
                    Distance matrix (angstroms):
                    1          2          3          4          5
     1  C    0.000000
     2  C    1.309231   0.000000
     3  H    1.067819   2.114119   0.000000
     4  H    2.066935   1.070242   2.466201   0.000000
     5  H    2.080344   1.070947   3.060312   1.837116   0.000000
     6  O    1.402544   2.358103   2.078536   3.334147   2.604071
     7  O    2.302517   3.525016   2.343344   4.349889   3.959787
     8  H    2.861917   3.927153   3.062688   4.806265   4.197813
                    6          7          8
     6  O    0.000000
     7  O    1.463900   0.000000
     8  H    1.898645   0.972490   0.000000
 Symmetry turned off by external request.
 Stoichiometry    C2H4O2
 Framework group  C1[X(C2H4O2)]
 Deg. of freedom    18
 Full point group                 C1      NOp   1
 Rotational constants (GHZ):     40.6467667      4.5737311      4.2290557
 Leave Link  202 at Fri Apr 12 15:30:27 2019, MaxMem=   134217728 cpu:         0.0
 (Enter /cm/shared/c3ddb/gaussian/09.d01/g09/l301.exe)
 Standard basis: 3-21G (6D, 7F)
 Ernie: Thresh=  0.10000D-02 Tol=  0.10000D-05 Strict=F.
    44 basis functions,    72 primitive gaussians,    44 cartesian basis functions
    16 alpha electrons       16 beta electrons
       nuclear repulsion energy       116.6404262164 Hartrees.
 IExCor=    0 DFT=F Ex=HF Corr=None ExCW=0 ScaHFX=  1.000000
 ScaDFX=  1.000000  1.000000  1.000000  1.000000 ScalE2=  1.000000  1.000000
 IRadAn=      0 IRanWt=     -1 IRanGd=            0 ICorTp=0 IEmpDi=  4
 NAtoms=    8 NActive=    8 NUniq=    8 SFac= 1.00D+00 NAtFMM=   60 NAOKFM=F Big=F
 Integral buffers will be    131072 words long.
 Raffenetti 1 integral format.
 Two-electron integral symmetry is turned off.
 Leave Link  301 at Fri Apr 12 15:30:28 2019, MaxMem=   134217728 cpu:         0.1
 (Enter /cm/shared/c3ddb/gaussian/09.d01/g09/l302.exe)
 NPDir=0 NMtPBC=     1 NCelOv=     1 NCel=       1 NClECP=     1 NCelD=      1
         NCelK=      1 NCelE2=     1 NClLst=     1 CellRange=     0.0.
 One-electron integrals computed using PRISM.
 NBasis=    44 RedAO= T EigKep=  1.13D-02  NBF=    44
 NBsUse=    44 1.00D-06 EigRej= -1.00D+00 NBFU=    44
 Leave Link  302 at Fri Apr 12 15:30:28 2019, MaxMem=   134217728 cpu:         0.1
 (Enter /cm/shared/c3ddb/gaussian/09.d01/g09/l303.exe)
 DipDrv:  MaxL=1.
 Leave Link  303 at Fri Apr 12 15:30:28 2019, MaxMem=   134217728 cpu:         0.0
 (Enter /cm/shared/c3ddb/gaussian/09.d01/g09/l401.exe)
 Initial guess from the checkpoint file:  "TMP_CALCS/scangeom_S02_200_120.chk"
 B after Tr=    -0.000083    0.000067    0.000083
         Rot=    1.000000   -0.000056    0.000001    0.000105 Ang=  -0.01 deg.
 Guess basis will be translated and rotated to current coordinates.
 JPrj=2 DoOrth=T DoCkMO=T.
 Leave Link  401 at Fri Apr 12 15:30:28 2019, MaxMem=   134217728 cpu:         0.2
 (Enter /cm/shared/c3ddb/gaussian/09.d01/g09/l502.exe)
 Closed shell SCF:
 Using DIIS extrapolation, IDIIS=  1040.
 Two-electron integral symmetry not used.
 Keep R1 ints in memory in canonical form, NReq=1327217.
 IVT=       24902 IEndB=       24902 NGot=   134217728 MDV=   133702282
 LenX=   133702282 LenY=   133699905
 Requested convergence on RMS density matrix=1.00D-08 within 128 cycles.
 Requested convergence on MAX density matrix=1.00D-06.
 Requested convergence on             energy=1.00D-06.
 No special actions if energy rises.
 FoFCou: FMM=F IPFlag=           0 FMFlag=           0 FMFlg1=           0
         NFxFlg=           0 DoJE=F BraDBF=F KetDBF=F FulRan=T
         wScrn=  0.000000 ICntrl=     600 IOpCl=  0 I1Cent=           0 NGrid=           0
         NMat0=    1 NMatS0=    990 NMatT0=    0 NMatD0=    1 NMtDS0=    0 NMtDT0=    0
 Symmetry not used in FoFCou.

 Cycle   1  Pass 1  IDiag  1:
 E= -226.395409898561    
 DIIS: error= 1.56D-04 at cycle   1 NSaved=   1.
 NSaved= 1 IEnMin= 1 EnMin= -226.395409898561     IErMin= 1 ErrMin= 1.56D-04
 ErrMax= 1.56D-04  0.00D+00 EMaxC= 1.00D-01 BMatC= 1.75D-06 BMatP= 1.75D-06
 IDIUse=3 WtCom= 9.98D-01 WtEn= 1.56D-03
 Coeff-Com:  0.100D+01
 Coeff-En:   0.100D+01
 Coeff:      0.100D+01
 Gap=     0.938 Goal=   None    Shift=    0.000
 RMSDP=2.92D-05 MaxDP=2.13D-04              OVMax= 2.46D-04

 Cycle   2  Pass 1  IDiag  1:
 E= -226.395411303959     Delta-E=       -0.000001405398 Rises=F Damp=F
 DIIS: error= 5.73D-05 at cycle   2 NSaved=   2.
 NSaved= 2 IEnMin= 2 EnMin= -226.395411303959     IErMin= 2 ErrMin= 5.73D-05
 ErrMax= 5.73D-05  0.00D+00 EMaxC= 1.00D-01 BMatC= 8.32D-08 BMatP= 1.75D-06
 IDIUse=1 WtCom= 1.00D+00 WtEn= 0.00D+00
 Coeff-Com: -0.847D-01 0.108D+01
 Coeff:     -0.847D-01 0.108D+01
 Gap=     0.550 Goal=   None    Shift=    0.000
 RMSDP=1.10D-05 MaxDP=6.56D-05 DE=-1.41D-06 OVMax= 1.72D-04

 Cycle   3  Pass 1  IDiag  1:
 E= -226.395411536626     Delta-E=       -0.000000232667 Rises=F Damp=F
 DIIS: error= 3.60D-05 at cycle   3 NSaved=   3.
 NSaved= 3 IEnMin= 3 EnMin= -226.395411536626     IErMin= 3 ErrMin= 3.60D-05
 ErrMax= 3.60D-05  0.00D+00 EMaxC= 1.00D-01 BMatC= 2.04D-08 BMatP= 8.32D-08
 IDIUse=1 WtCom= 1.00D+00 WtEn= 0.00D+00
 Coeff-Com: -0.212D-01-0.924D-01 0.111D+01
 Coeff:     -0.212D-01-0.924D-01 0.111D+01
 Gap=     0.550 Goal=   None    Shift=    0.000
 RMSDP=6.08D-06 MaxDP=3.94D-05 DE=-2.33D-07 OVMax= 1.19D-04

 Cycle   4  Pass 1  IDiag  1:
 E= -226.395411605630     Delta-E=       -0.000000069004 Rises=F Damp=F
 DIIS: error= 2.25D-05 at cycle   4 NSaved=   4.
 NSaved= 4 IEnMin= 4 EnMin= -226.395411605630     IErMin= 4 ErrMin= 2.25D-05
 ErrMax= 2.25D-05  0.00D+00 EMaxC= 1.00D-01 BMatC= 6.25D-09 BMatP= 2.04D-08
 IDIUse=1 WtCom= 1.00D+00 WtEn= 0.00D+00
 Coeff-Com:  0.246D-01-0.304D+00-0.246D-01 0.130D+01
 Coeff:      0.246D-01-0.304D+00-0.246D-01 0.130D+01
 Gap=     0.550 Goal=   None    Shift=    0.000
 RMSDP=5.28D-06 MaxDP=3.68D-05 DE=-6.90D-08 OVMax= 1.12D-04

 Cycle   5  Pass 1  IDiag  1:
 E= -226.395411634373     Delta-E=       -0.000000028743 Rises=F Damp=F
 DIIS: error= 8.49D-06 at cycle   5 NSaved=   5.
 NSaved= 5 IEnMin= 5 EnMin= -226.395411634373     IErMin= 5 ErrMin= 8.49D-06
 ErrMax= 8.49D-06  0.00D+00 EMaxC= 1.00D-01 BMatC= 7.62D-10 BMatP= 6.25D-09
 IDIUse=1 WtCom= 1.00D+00 WtEn= 0.00D+00
 Coeff-Com: -0.239D-02 0.907D-01-0.157D+00-0.323D+00 0.139D+01
 Coeff:     -0.239D-02 0.907D-01-0.157D+00-0.323D+00 0.139D+01
 Gap=     0.550 Goal=   None    Shift=    0.000
 RMSDP=2.11D-06 MaxDP=1.41D-05 DE=-2.87D-08 OVMax= 5.05D-05

 Cycle   6  Pass 1  IDiag  1:
 E= -226.395411638077     Delta-E=       -0.000000003704 Rises=F Damp=F
 DIIS: error= 2.71D-06 at cycle   6 NSaved=   6.
 NSaved= 6 IEnMin= 6 EnMin= -226.395411638077     IErMin= 6 ErrMin= 2.71D-06
 ErrMax= 2.71D-06  0.00D+00 EMaxC= 1.00D-01 BMatC= 1.50D-10 BMatP= 7.62D-10
 IDIUse=1 WtCom= 1.00D+00 WtEn= 0.00D+00
 Coeff-Com: -0.365D-02 0.636D-01-0.419D-01-0.262D+00 0.421D+00 0.823D+00
 Coeff:     -0.365D-02 0.636D-01-0.419D-01-0.262D+00 0.421D+00 0.823D+00
 Gap=     0.550 Goal=   None    Shift=    0.000
 RMSDP=5.51D-07 MaxDP=3.45D-06 DE=-3.70D-09 OVMax= 1.22D-05

 Cycle   7  Pass 1  IDiag  1:
 E= -226.395411638447     Delta-E=       -0.000000000371 Rises=F Damp=F
 DIIS: error= 1.08D-06 at cycle   7 NSaved=   7.
 NSaved= 7 IEnMin= 7 EnMin= -226.395411638447     IErMin= 7 ErrMin= 1.08D-06
 ErrMax= 1.08D-06  0.00D+00 EMaxC= 1.00D-01 BMatC= 2.07D-11 BMatP= 1.50D-10
 IDIUse=1 WtCom= 1.00D+00 WtEn= 0.00D+00
 Coeff-Com:  0.112D-02-0.305D-01 0.441D-01 0.110D+00-0.382D+00-0.151D+00
 Coeff-Com:  0.141D+01
 Coeff:      0.112D-02-0.305D-01 0.441D-01 0.110D+00-0.382D+00-0.151D+00
 Coeff:      0.141D+01
 Gap=     0.550 Goal=   None    Shift=    0.000
 RMSDP=3.49D-07 MaxDP=2.58D-06 DE=-3.71D-10 OVMax= 7.68D-06

 Cycle   8  Pass 1  IDiag  1:
 E= -226.395411638539     Delta-E=       -0.000000000092 Rises=F Damp=F
 DIIS: error= 1.90D-07 at cycle   8 NSaved=   8.
 NSaved= 8 IEnMin= 8 EnMin= -226.395411638539     IErMin= 8 ErrMin= 1.90D-07
 ErrMax= 1.90D-07  0.00D+00 EMaxC= 1.00D-01 BMatC= 1.48D-12 BMatP= 2.07D-11
 IDIUse=1 WtCom= 1.00D+00 WtEn= 0.00D+00
 Coeff-Com:  0.304D-03-0.517D-02 0.223D-02 0.237D-01-0.327D-01-0.881D-01
 Coeff-Com:  0.216D-01 0.108D+01
 Coeff:      0.304D-03-0.517D-02 0.223D-02 0.237D-01-0.327D-01-0.881D-01
 Coeff:      0.216D-01 0.108D+01
 Gap=     0.550 Goal=   None    Shift=    0.000
 RMSDP=6.70D-08 MaxDP=5.46D-07 DE=-9.17D-11 OVMax= 1.13D-06

 Cycle   9  Pass 1  IDiag  1:
 E= -226.395411638544     Delta-E=       -0.000000000005 Rises=F Damp=F
 DIIS: error= 7.42D-08 at cycle   9 NSaved=   9.
 NSaved= 9 IEnMin= 9 EnMin= -226.395411638544     IErMin= 9 ErrMin= 7.42D-08
 ErrMax= 7.42D-08  0.00D+00 EMaxC= 1.00D-01 BMatC= 1.54D-13 BMatP= 1.48D-12
 IDIUse=1 WtCom= 1.00D+00 WtEn= 0.00D+00
 Coeff-Com: -0.162D-03 0.447D-02-0.641D-02-0.160D-01 0.552D-01 0.180D-01
 Coeff-Com: -0.181D+00-0.600D-01 0.119D+01
 Coeff:     -0.162D-03 0.447D-02-0.641D-02-0.160D-01 0.552D-01 0.180D-01
 Coeff:     -0.181D+00-0.600D-01 0.119D+01
 Gap=     0.550 Goal=   None    Shift=    0.000
 RMSDP=2.37D-08 MaxDP=1.84D-07 DE=-4.89D-12 OVMax= 4.08D-07

 Cycle  10  Pass 1  IDiag  1:
 E= -226.395411638544     Delta-E=        0.000000000000 Rises=F Damp=F
 DIIS: error= 2.14D-08 at cycle  10 NSaved=  10.
 NSaved=10 IEnMin= 9 EnMin= -226.395411638544     IErMin=10 ErrMin= 2.14D-08
 ErrMax= 2.14D-08  0.00D+00 EMaxC= 1.00D-01 BMatC= 1.52D-14 BMatP= 1.54D-13
 IDIUse=1 WtCom= 1.00D+00 WtEn= 0.00D+00
 Coeff-Com: -0.270D-04 0.513D-03-0.364D-03-0.219D-02 0.432D-02 0.642D-02
 Coeff-Com: -0.803D-02-0.816D-01 0.624D-01 0.102D+01
 Coeff:     -0.270D-04 0.513D-03-0.364D-03-0.219D-02 0.432D-02 0.642D-02
 Coeff:     -0.803D-02-0.816D-01 0.624D-01 0.102D+01
 Gap=     0.550 Goal=   None    Shift=    0.000
 RMSDP=5.57D-09 MaxDP=3.90D-08 DE= 0.00D+00 OVMax= 7.76D-08

 SCF Done:  E(RHF) =  -226.395411639     A.U. after   10 cycles
            NFock= 10  Conv=0.56D-08     -V/T= 2.0035
 KE= 2.256140026772D+02 PE=-7.665937735033D+02 EE= 1.979439329711D+02
 Leave Link  502 at Fri Apr 12 15:30:29 2019, MaxMem=   134217728 cpu:         0.2
 (Enter /cm/shared/c3ddb/gaussian/09.d01/g09/l701.exe)
 Compute integral first derivatives.
 ... and contract with generalized density number  0.
 Leave Link  701 at Fri Apr 12 15:30:29 2019, MaxMem=   134217728 cpu:         0.1
 (Enter /cm/shared/c3ddb/gaussian/09.d01/g09/l702.exe)
 L702 exits ... SP integral derivatives will be done elsewhere.
 Leave Link  702 at Fri Apr 12 15:30:29 2019, MaxMem=   134217728 cpu:         0.0
 (Enter /cm/shared/c3ddb/gaussian/09.d01/g09/l703.exe)
 Compute integral first derivatives, UseDBF=F ICtDFT=           0.
 Integral derivatives from FoFJK, PRISM(SPDF).
 Calling FoFJK, ICntrl=      2127 FMM=F ISym2X=0 I1Cent= 0 IOpClX= 0 NMat=1 NMatS=1 NMatT=0.
 FoFJK:  IHMeth= 1 ICntrl=    2127 DoSepK=F KAlg= 0 I1Cent=   0 FoldK=F
 IRaf=         0 NMat=   1 IRICut=       1 DoRegI=T DoRafI=F ISym2E= 0.
 FoFCou: FMM=F IPFlag=           0 FMFlag=      100000 FMFlg1=         800
         NFxFlg=           0 DoJE=F BraDBF=F KetDBF=F FulRan=T
         wScrn=  0.000000 ICntrl=    2127 IOpCl=  0 I1Cent=           0 NGrid=           0
         NMat0=    1 NMatS0=      1 NMatT0=    0 NMatD0=    1 NMtDS0=    0 NMtDT0=    0
 Symmetry not used in FoFCou.
 Leave Link  703 at Fri Apr 12 15:30:29 2019, MaxMem=   134217728 cpu:         0.2
 (Enter /cm/shared/c3ddb/gaussian/09.d01/g09/l716.exe)
 Dipole        = 2.45515719D-01-2.50614196D-02-6.98317501D-01
 -------------------------------------------------------------------
 Center     Atomic                   Forces (Hartrees/Bohr)
 Number     Number              X              Y              Z
 -------------------------------------------------------------------
      1        6           0.000093356    0.000149850    0.000927664
      2        6          -0.000015029    0.000004380   -0.000221909
      3        1          -0.000044958    0.000008356   -0.000018860
      4        1           0.000005581   -0.000008260   -0.000007427
      5        1          -0.000003015    0.000013621   -0.000007639
      6        8          -0.000077577   -0.000320412   -0.000548947
      7        8           0.000749026    0.000180289   -0.000673180
      8        1          -0.000707384   -0.000027824    0.000550299
 -------------------------------------------------------------------
 Cartesian Forces:  Max     0.000927664 RMS     0.000365423
 Leave Link  716 at Fri Apr 12 15:30:29 2019, MaxMem=   134217728 cpu:         0.0
 (Enter /cm/shared/c3ddb/gaussian/09.d01/g09/l103.exe)

 GradGradGradGradGradGradGradGradGradGradGradGradGradGradGradGradGradGrad
 Berny optimization.
 Using GEDIIS/GDIIS optimizer.
 FormGI is forming the generalized inverse of G from B-inverse, IUseBI=4.
 Internal  Forces:  Max     0.001617359 RMS     0.000357603
 Search for a local minimum.
 Step number   3 out of a maximum of   32
 All quantities printed in internal units (Hartrees-Bohrs-Radians)
 RMS Force = .42910D-04 SwitMx=.10000D-02 MixMth= 2
 Mixed Optimization -- En-DIIS/RFO-DIIS
 Swapping is turned off.
 Update second derivatives using D2CorX and points    1    2    3
 DE= -4.24D-06 DEPred=-4.42D-06 R= 9.58D-01
 TightC=F SS=  1.41D+00  RLast= 4.68D-03 DXNew= 5.0454D-01 1.4048D-02
 Trust test= 9.58D-01 RLast= 4.68D-03 DXMaxT set to 3.00D-01
 ITU=  1  0  0
     Eigenvalues ---    0.02587   0.03286   0.03293   0.15860   0.16000
     Eigenvalues ---    0.16006   0.18082   0.21942   0.29004   0.37115
     Eigenvalues ---    0.37197   0.37490   0.42121   0.52664   0.53055
     Eigenvalues ---    0.648021000.000001000.000001000.000001000.00000
     Eigenvalues --- 1000.000001000.00000
 En-DIIS/RFO-DIIS IScMMF=        0 using points:     3    2    1
 RFO step:  Lambda=-1.50570828D-07.
 NNeg= 0 NP= 3 Switch=  2.50D-03 Rises=F DC=  6.22D-06 SmlDif=  1.00D-05
 RMS Error=  0.7590401441D-04 NUsed= 3 EDIIS=F
 DidBck=F Rises=F RFO-DIIS coefs:    0.84353    0.09606    0.06041
 Iteration  1 RMS(Cart)=  0.00023136 RMS(Int)=  0.00000006
 Iteration  2 RMS(Cart)=  0.00000006 RMS(Int)=  0.00000002
 Iteration  1 RMS(Cart)=  0.00000002 RMS(Int)=  0.00000001
 ITry= 1 IFail=0 DXMaxC= 5.99D-04 DCOld= 1.00D+10 DXMaxT= 3.00D-01 DXLimC= 3.00D+00 Rises=F
 Variable       Old X    -DE/DX   Delta X   Delta X   Delta X     New X
                                 (Linear)    (Quad)   (Total)
    R1        2.47409  -0.00001   0.00002  -0.00003  -0.00001   2.47408
    R2        2.01789  -0.00001  -0.00001  -0.00002  -0.00003   2.01786
    R3        2.65042   0.00002  -0.00011   0.00012   0.00001   2.65044
    R4        2.02246   0.00001   0.00000   0.00001   0.00001   2.02248
    R5        2.02380  -0.00001   0.00000  -0.00002  -0.00002   2.02377
    R6        2.76637   0.00016   0.00037   0.00000   0.00037   2.76674
    R7        1.83774  -0.00005  -0.00005  -0.00004  -0.00009   1.83765
    A1        2.18666   0.00005  -0.00008   0.00033   0.00026   2.18692
    A2        2.10803   0.00000   0.00010  -0.00012  -0.00002   2.10801
    A3        1.98772  -0.00004  -0.00002  -0.00020  -0.00022   1.98750
    A4        2.09915   0.00002   0.00001   0.00008   0.00009   2.09924
    A5        2.12125  -0.00002  -0.00001  -0.00009  -0.00009   2.12115
    A6        2.06268   0.00000  -0.00001   0.00001   0.00001   2.06269
    A7        1.86518  -0.00001  -0.00002  -0.00009  -0.00011   1.86507
    A8        1.75307   0.00003  -0.00007   0.00010   0.00003   1.75310
    D1        0.01667   0.00008   0.00013   0.00001   0.00014   0.01682
    D2       -3.14085   0.00009   0.00016   0.00034   0.00050  -3.14036
    D3       -3.07978  -0.00009  -0.00003  -0.00041  -0.00044  -3.08022
    D4        0.04588  -0.00008  -0.00001  -0.00008  -0.00009   0.04579
    D5       -2.79253   0.00032   0.00000   0.00000   0.00000  -2.79253
    D6        0.38936   0.00016  -0.00015  -0.00039  -0.00053   0.38883
    D7        2.09439   0.00162   0.00000   0.00000   0.00000   2.09439
         Item               Value     Threshold  Converged?
 Maximum Force            0.000165     0.000015     NO 
 RMS     Force            0.000043     0.000010     NO 
 Maximum Displacement     0.000599     0.000060     NO 
 RMS     Displacement     0.000231     0.000040     NO 
 Predicted change in Energy=-6.172174D-08
 Lowest energy point so far.  Saving SCF results.
 GradGradGradGradGradGradGradGradGradGradGradGradGradGradGradGradGradGrad

 Leave Link  103 at Fri Apr 12 15:30:29 2019, MaxMem=   134217728 cpu:         0.0
 (Enter /cm/shared/c3ddb/gaussian/09.d01/g09/l202.exe)
                          Input orientation:                          
 ---------------------------------------------------------------------
 Center     Atomic      Atomic             Coordinates (Angstroms)
 Number     Number       Type             X           Y           Z
 ---------------------------------------------------------------------
      1          6           0        0.727425    0.638049    0.024545
      2          6           0        1.368473   -0.502654   -0.019349
      3          1           0        1.184902    1.601089    0.083496
      4          1           0        2.437863   -0.522475    0.018653
      5          1           0        0.847100   -1.436181   -0.079332
      6          8           0       -0.674470    0.673043    0.049341
      7          8           0       -1.073542    2.013203   -0.384591
      8          1           0       -1.601906    1.793850   -1.170948
 ---------------------------------------------------------------------
                    Distance matrix (angstroms):
                    1          2          3          4          5
     1  C    0.000000
     2  C    1.309225   0.000000
     3  H    1.067805   2.114240   0.000000
     4  H    2.066990   1.070249   2.466503   0.000000
     5  H    2.080275   1.070935   3.060332   1.837114   0.000000
     6  O    1.402552   2.358092   2.078389   3.334190   2.603951
     7  O    2.302590   3.525106   2.342971   4.349969   3.959835
     8  H    2.861969   3.927246   3.062203   4.806271   4.197899
                    6          7          8
     6  O    0.000000
     7  O    1.464097   0.000000
     8  H    1.898802   0.972441   0.000000
 Symmetry turned off by external request.
 Stoichiometry    C2H4O2
 Framework group  C1[X(C2H4O2)]
 Deg. of freedom    18
 Full point group                 C1      NOp   1
 Rotational constants (GHZ):     40.6414952      4.5735820      4.2288566
 Leave Link  202 at Fri Apr 12 15:30:29 2019, MaxMem=   134217728 cpu:         0.0
 (Enter /cm/shared/c3ddb/gaussian/09.d01/g09/l301.exe)
 Standard basis: 3-21G (6D, 7F)
 Ernie: Thresh=  0.10000D-02 Tol=  0.10000D-05 Strict=F.
    44 basis functions,    72 primitive gaussians,    44 cartesian basis functions
    16 alpha electrons       16 beta electrons
       nuclear repulsion energy       116.6372186595 Hartrees.
 IExCor=    0 DFT=F Ex=HF Corr=None ExCW=0 ScaHFX=  1.000000
 ScaDFX=  1.000000  1.000000  1.000000  1.000000 ScalE2=  1.000000  1.000000
 IRadAn=      0 IRanWt=     -1 IRanGd=            0 ICorTp=0 IEmpDi=  4
 NAtoms=    8 NActive=    8 NUniq=    8 SFac= 1.00D+00 NAtFMM=   60 NAOKFM=F Big=F
 Integral buffers will be    131072 words long.
 Raffenetti 1 integral format.
 Two-electron integral symmetry is turned off.
 Leave Link  301 at Fri Apr 12 15:30:29 2019, MaxMem=   134217728 cpu:         0.1
 (Enter /cm/shared/c3ddb/gaussian/09.d01/g09/l302.exe)
 NPDir=0 NMtPBC=     1 NCelOv=     1 NCel=       1 NClECP=     1 NCelD=      1
         NCelK=      1 NCelE2=     1 NClLst=     1 CellRange=     0.0.
 One-electron integrals computed using PRISM.
 NBasis=    44 RedAO= T EigKep=  1.13D-02  NBF=    44
 NBsUse=    44 1.00D-06 EigRej= -1.00D+00 NBFU=    44
 Leave Link  302 at Fri Apr 12 15:30:29 2019, MaxMem=   134217728 cpu:         0.1
 (Enter /cm/shared/c3ddb/gaussian/09.d01/g09/l303.exe)
 DipDrv:  MaxL=1.
 Leave Link  303 at Fri Apr 12 15:30:30 2019, MaxMem=   134217728 cpu:         0.0
 (Enter /cm/shared/c3ddb/gaussian/09.d01/g09/l401.exe)
 Initial guess from the checkpoint file:  "TMP_CALCS/scangeom_S02_200_120.chk"
 B after Tr=     0.000015   -0.000094    0.000035
         Rot=    1.000000   -0.000022    0.000031   -0.000006 Ang=   0.00 deg.
 Guess basis will be translated and rotated to current coordinates.
 JPrj=2 DoOrth=T DoCkMO=T.
 Leave Link  401 at Fri Apr 12 15:30:30 2019, MaxMem=   134217728 cpu:         0.2
 (Enter /cm/shared/c3ddb/gaussian/09.d01/g09/l502.exe)
 Closed shell SCF:
 Using DIIS extrapolation, IDIIS=  1040.
 Two-electron integral symmetry not used.
 Keep R1 ints in memory in canonical form, NReq=1327217.
 IVT=       24902 IEndB=       24902 NGot=   134217728 MDV=   133702282
 LenX=   133702282 LenY=   133699905
 Requested convergence on RMS density matrix=1.00D-08 within 128 cycles.
 Requested convergence on MAX density matrix=1.00D-06.
 Requested convergence on             energy=1.00D-06.
 No special actions if energy rises.
 FoFCou: FMM=F IPFlag=           0 FMFlag=           0 FMFlg1=           0
         NFxFlg=           0 DoJE=F BraDBF=F KetDBF=F FulRan=T
         wScrn=  0.000000 ICntrl=     600 IOpCl=  0 I1Cent=           0 NGrid=           0
         NMat0=    1 NMatS0=    990 NMatT0=    0 NMatD0=    1 NMtDS0=    0 NMtDT0=    0
 Symmetry not used in FoFCou.

 Cycle   1  Pass 1  IDiag  1:
 E= -226.395411647944    
 DIIS: error= 2.03D-05 at cycle   1 NSaved=   1.
 NSaved= 1 IEnMin= 1 EnMin= -226.395411647944     IErMin= 1 ErrMin= 2.03D-05
 ErrMax= 2.03D-05  0.00D+00 EMaxC= 1.00D-01 BMatC= 3.54D-08 BMatP= 3.54D-08
 IDIUse=1 WtCom= 1.00D+00 WtEn= 0.00D+00
 Coeff-Com:  0.100D+01
 Coeff:      0.100D+01
 Gap=     0.938 Goal=   None    Shift=    0.000
 RMSDP=4.64D-06 MaxDP=2.46D-05              OVMax= 4.24D-05

 Cycle   2  Pass 1  IDiag  1:
 E= -226.395411691438     Delta-E=       -0.000000043494 Rises=F Damp=F
 DIIS: error= 7.51D-06 at cycle   2 NSaved=   2.
 NSaved= 2 IEnMin= 2 EnMin= -226.395411691438     IErMin= 2 ErrMin= 7.51D-06
 ErrMax= 7.51D-06  0.00D+00 EMaxC= 1.00D-01 BMatC= 2.27D-09 BMatP= 3.54D-08
 IDIUse=1 WtCom= 1.00D+00 WtEn= 0.00D+00
 Coeff-Com: -0.174D+00 0.117D+01
 Coeff:     -0.174D+00 0.117D+01
 Gap=     0.550 Goal=   None    Shift=    0.000
 RMSDP=1.80D-06 MaxDP=1.35D-05 DE=-4.35D-08 OVMax= 2.69D-05

 Cycle   3  Pass 1  IDiag  1:
 E= -226.395411696595     Delta-E=       -0.000000005156 Rises=F Damp=F
 DIIS: error= 2.53D-06 at cycle   3 NSaved=   3.
 NSaved= 3 IEnMin= 3 EnMin= -226.395411696595     IErMin= 3 ErrMin= 2.53D-06
 ErrMax= 2.53D-06  0.00D+00 EMaxC= 1.00D-01 BMatC= 4.00D-10 BMatP= 2.27D-09
 IDIUse=1 WtCom= 1.00D+00 WtEn= 0.00D+00
 Coeff-Com: -0.701D-01 0.232D+00 0.838D+00
 Coeff:     -0.701D-01 0.232D+00 0.838D+00
 Gap=     0.550 Goal=   None    Shift=    0.000
 RMSDP=5.58D-07 MaxDP=3.70D-06 DE=-5.16D-09 OVMax= 7.29D-06

 Cycle   4  Pass 1  IDiag  1:
 E= -226.395411697222     Delta-E=       -0.000000000627 Rises=F Damp=F
 DIIS: error= 1.40D-06 at cycle   4 NSaved=   4.
 NSaved= 4 IEnMin= 4 EnMin= -226.395411697222     IErMin= 4 ErrMin= 1.40D-06
 ErrMax= 1.40D-06  0.00D+00 EMaxC= 1.00D-01 BMatC= 7.61D-11 BMatP= 4.00D-10
 IDIUse=1 WtCom= 1.00D+00 WtEn= 0.00D+00
 Coeff-Com:  0.268D-01-0.221D+00 0.120D+00 0.107D+01
 Coeff:      0.268D-01-0.221D+00 0.120D+00 0.107D+01
 Gap=     0.550 Goal=   None    Shift=    0.000
 RMSDP=3.89D-07 MaxDP=2.18D-06 DE=-6.27D-10 OVMax= 6.44D-06

 Cycle   5  Pass 1  IDiag  1:
 E= -226.395411697408     Delta-E=       -0.000000000186 Rises=F Damp=F
 DIIS: error= 3.39D-07 at cycle   5 NSaved=   5.
 NSaved= 5 IEnMin= 5 EnMin= -226.395411697408     IErMin= 5 ErrMin= 3.39D-07
 ErrMax= 3.39D-07  0.00D+00 EMaxC= 1.00D-01 BMatC= 4.90D-12 BMatP= 7.61D-11
 IDIUse=1 WtCom= 1.00D+00 WtEn= 0.00D+00
 Coeff-Com:  0.280D-02 0.412D-02-0.797D-01-0.906D-01 0.116D+01
 Coeff:      0.280D-02 0.412D-02-0.797D-01-0.906D-01 0.116D+01
 Gap=     0.550 Goal=   None    Shift=    0.000
 RMSDP=1.17D-07 MaxDP=6.89D-07 DE=-1.86D-10 OVMax= 1.72D-06

 Cycle   6  Pass 1  IDiag  1:
 E= -226.395411697424     Delta-E=       -0.000000000016 Rises=F Damp=F
 DIIS: error= 1.70D-07 at cycle   6 NSaved=   6.
 NSaved= 6 IEnMin= 6 EnMin= -226.395411697424     IErMin= 6 ErrMin= 1.70D-07
 ErrMax= 1.70D-07  0.00D+00 EMaxC= 1.00D-01 BMatC= 7.89D-13 BMatP= 4.90D-12
 IDIUse=1 WtCom= 1.00D+00 WtEn= 0.00D+00
 Coeff-Com: -0.305D-02 0.303D-01-0.336D-01-0.160D+00 0.213D+00 0.954D+00
 Coeff:     -0.305D-02 0.303D-01-0.336D-01-0.160D+00 0.213D+00 0.954D+00
 Gap=     0.550 Goal=   None    Shift=    0.000
 RMSDP=4.27D-08 MaxDP=2.62D-07 DE=-1.64D-11 OVMax= 6.02D-07

 Cycle   7  Pass 1  IDiag  1:
 E= -226.395411697426     Delta-E=       -0.000000000002 Rises=F Damp=F
 DIIS: error= 9.68D-08 at cycle   7 NSaved=   7.
 NSaved= 7 IEnMin= 7 EnMin= -226.395411697426     IErMin= 7 ErrMin= 9.68D-08
 ErrMax= 9.68D-08  0.00D+00 EMaxC= 1.00D-01 BMatC= 9.28D-14 BMatP= 7.89D-13
 IDIUse=1 WtCom= 1.00D+00 WtEn= 0.00D+00
 Coeff-Com:  0.866D-03-0.120D-01 0.206D-01 0.741D-01-0.207D+00-0.354D+00
 Coeff-Com:  0.148D+01
 Coeff:      0.866D-03-0.120D-01 0.206D-01 0.741D-01-0.207D+00-0.354D+00
 Coeff:      0.148D+01
 Gap=     0.550 Goal=   None    Shift=    0.000
 RMSDP=2.17D-08 MaxDP=1.18D-07 DE=-1.76D-12 OVMax= 4.56D-07

 Cycle   8  Pass 1  IDiag  1:
 E= -226.395411697427     Delta-E=       -0.000000000001 Rises=F Damp=F
 DIIS: error= 3.91D-08 at cycle   8 NSaved=   8.
 NSaved= 8 IEnMin= 8 EnMin= -226.395411697427     IErMin= 8 ErrMin= 3.91D-08
 ErrMax= 3.91D-08  0.00D+00 EMaxC= 1.00D-01 BMatC= 1.58D-14 BMatP= 9.28D-14
 IDIUse=1 WtCom= 1.00D+00 WtEn= 0.00D+00
 Coeff-Com:  0.296D-03-0.255D-02 0.202D-02 0.123D-01-0.612D-02-0.880D-01
 Coeff-Com: -0.153D+00 0.124D+01
 Coeff:      0.296D-03-0.255D-02 0.202D-02 0.123D-01-0.612D-02-0.880D-01
 Coeff:     -0.153D+00 0.124D+01
 Gap=     0.550 Goal=   None    Shift=    0.000
 RMSDP=8.52D-09 MaxDP=5.18D-08 DE=-5.68D-13 OVMax= 2.09D-07

 SCF Done:  E(RHF) =  -226.395411697     A.U. after    8 cycles
            NFock=  8  Conv=0.85D-08     -V/T= 2.0035
 KE= 2.256137402502D+02 PE=-7.665872504310D+02 EE= 1.979408798238D+02
 Leave Link  502 at Fri Apr 12 15:30:30 2019, MaxMem=   134217728 cpu:         0.2
 (Enter /cm/shared/c3ddb/gaussian/09.d01/g09/l701.exe)
 Compute integral first derivatives.
 ... and contract with generalized density number  0.
 Leave Link  701 at Fri Apr 12 15:30:30 2019, MaxMem=   134217728 cpu:         0.1
 (Enter /cm/shared/c3ddb/gaussian/09.d01/g09/l702.exe)
 L702 exits ... SP integral derivatives will be done elsewhere.
 Leave Link  702 at Fri Apr 12 15:30:30 2019, MaxMem=   134217728 cpu:         0.0
 (Enter /cm/shared/c3ddb/gaussian/09.d01/g09/l703.exe)
 Compute integral first derivatives, UseDBF=F ICtDFT=           0.
 Integral derivatives from FoFJK, PRISM(SPDF).
 Calling FoFJK, ICntrl=      2127 FMM=F ISym2X=0 I1Cent= 0 IOpClX= 0 NMat=1 NMatS=1 NMatT=0.
 FoFJK:  IHMeth= 1 ICntrl=    2127 DoSepK=F KAlg= 0 I1Cent=   0 FoldK=F
 IRaf=         0 NMat=   1 IRICut=       1 DoRegI=T DoRafI=F ISym2E= 0.
 FoFCou: FMM=F IPFlag=           0 FMFlag=      100000 FMFlg1=         800
         NFxFlg=           0 DoJE=F BraDBF=F KetDBF=F FulRan=T
         wScrn=  0.000000 ICntrl=    2127 IOpCl=  0 I1Cent=           0 NGrid=           0
         NMat0=    1 NMatS0=      1 NMatT0=    0 NMatD0=    1 NMtDS0=    0 NMtDT0=    0
 Symmetry not used in FoFCou.
 Leave Link  703 at Fri Apr 12 15:30:31 2019, MaxMem=   134217728 cpu:         0.2
 (Enter /cm/shared/c3ddb/gaussian/09.d01/g09/l716.exe)
 Dipole        = 2.45595640D-01-2.48762255D-02-6.98552848D-01
 -------------------------------------------------------------------
 Center     Atomic                   Forces (Hartrees/Bohr)
 Number     Number              X              Y              Z
[...]
 Coeff-Com:  0.100D+01
 Coeff:      0.100D+01
 Gap=     0.938 Goal=   None    Shift=    0.000
 RMSDP=1.66D-06 MaxDP=1.17D-05              OVMax= 1.56D-05

 Cycle   2  Pass 1  IDiag  1:
 E= -226.395411701600     Delta-E=       -0.000000005621 Rises=F Damp=F
 DIIS: error= 1.70D-06 at cycle   2 NSaved=   2.
 NSaved= 2 IEnMin= 2 EnMin= -226.395411701600     IErMin= 2 ErrMin= 1.70D-06
 ErrMax= 1.70D-06  0.00D+00 EMaxC= 1.00D-01 BMatC= 3.20D-10 BMatP= 4.37D-09
 IDIUse=1 WtCom= 1.00D+00 WtEn= 0.00D+00
 Coeff-Com: -0.130D+00 0.113D+01
 Coeff:     -0.130D+00 0.113D+01
 Gap=     0.550 Goal=   None    Shift=    0.000
 RMSDP=6.30D-07 MaxDP=3.54D-06 DE=-5.62D-09 OVMax= 8.05D-06

 Cycle   3  Pass 1  IDiag  1:
 E= -226.395411702187     Delta-E=       -0.000000000587 Rises=F Damp=F
 DIIS: error= 9.42D-07 at cycle   3 NSaved=   3.
 NSaved= 3 IEnMin= 3 EnMin= -226.395411702187     IErMin= 3 ErrMin= 9.42D-07
 ErrMax= 9.42D-07  0.00D+00 EMaxC= 1.00D-01 BMatC= 8.13D-11 BMatP= 3.20D-10
 IDIUse=1 WtCom= 1.00D+00 WtEn= 0.00D+00
 Coeff-Com: -0.946D-01 0.343D+00 0.751D+00
 Coeff:     -0.946D-01 0.343D+00 0.751D+00
 Gap=     0.550 Goal=   None    Shift=    0.000
 RMSDP=2.18D-07 MaxDP=1.27D-06 DE=-5.87D-10 OVMax= 2.81D-06

 Cycle   4  Pass 1  IDiag  1:
 E= -226.395411702282     Delta-E=       -0.000000000095 Rises=F Damp=F
 DIIS: error= 3.88D-07 at cycle   4 NSaved=   4.
 NSaved= 4 IEnMin= 4 EnMin= -226.395411702282     IErMin= 4 ErrMin= 3.88D-07
 ErrMax= 3.88D-07  0.00D+00 EMaxC= 1.00D-01 BMatC= 7.59D-12 BMatP= 8.13D-11
 IDIUse=1 WtCom= 1.00D+00 WtEn= 0.00D+00
 Coeff-Com:  0.198D-01-0.169D+00 0.165D-01 0.113D+01
 Coeff:      0.198D-01-0.169D+00 0.165D-01 0.113D+01
 Gap=     0.550 Goal=   None    Shift=    0.000
 RMSDP=1.39D-07 MaxDP=8.07D-07 DE=-9.52D-11 OVMax= 1.96D-06

 Cycle   5  Pass 1  IDiag  1:
 E= -226.395411702301     Delta-E=       -0.000000000019 Rises=F Damp=F
 DIIS: error= 1.16D-07 at cycle   5 NSaved=   5.
 NSaved= 5 IEnMin= 5 EnMin= -226.395411702301     IErMin= 5 ErrMin= 1.16D-07
 ErrMax= 1.16D-07  0.00D+00 EMaxC= 1.00D-01 BMatC= 5.94D-13 BMatP= 7.59D-12
 IDIUse=1 WtCom= 1.00D+00 WtEn= 0.00D+00
 Coeff-Com:  0.607D-02-0.202D-01-0.463D-01-0.554D-01 0.112D+01
 Coeff:      0.607D-02-0.202D-01-0.463D-01-0.554D-01 0.112D+01
 Gap=     0.550 Goal=   None    Shift=    0.000
 RMSDP=4.36D-08 MaxDP=2.88D-07 DE=-1.92D-11 OVMax= 6.92D-07

 Cycle   6  Pass 1  IDiag  1:
 E= -226.395411702303     Delta-E=       -0.000000000002 Rises=F Damp=F
 DIIS: error= 6.38D-08 at cycle   6 NSaved=   6.
 NSaved= 6 IEnMin= 6 EnMin= -226.395411702303     IErMin= 6 ErrMin= 6.38D-08
 ErrMax= 6.38D-08  0.00D+00 EMaxC= 1.00D-01 BMatC= 1.04D-13 BMatP= 5.94D-13
 IDIUse=1 WtCom= 1.00D+00 WtEn= 0.00D+00
 Coeff-Com: -0.294D-02 0.278D-01-0.403D-02-0.211D+00 0.116D+00 0.107D+01
 Coeff:     -0.294D-02 0.278D-01-0.403D-02-0.211D+00 0.116D+00 0.107D+01
 Gap=     0.550 Goal=   None    Shift=    0.000
 RMSDP=1.95D-08 MaxDP=1.35D-07 DE=-2.05D-12 OVMax= 3.11D-07

 Cycle   7  Pass 1  IDiag  1:
 E= -226.395411702304     Delta-E=        0.000000000000 Rises=F Damp=F
 DIIS: error= 3.01D-08 at cycle   7 NSaved=   7.
 NSaved= 7 IEnMin= 7 EnMin= -226.395411702304     IErMin= 7 ErrMin= 3.01D-08
 ErrMax= 3.01D-08  0.00D+00 EMaxC= 1.00D-01 BMatC= 9.27D-15 BMatP= 1.04D-13
 IDIUse=1 WtCom= 1.00D+00 WtEn= 0.00D+00
 Coeff-Com:  0.893D-03-0.114D-01 0.667D-02 0.101D+00-0.140D+00-0.500D+00
 Coeff-Com:  0.154D+01
 Coeff:      0.893D-03-0.114D-01 0.667D-02 0.101D+00-0.140D+00-0.500D+00
 Coeff:      0.154D+01
 Gap=     0.550 Goal=   None    Shift=    0.000
 RMSDP=7.18D-09 MaxDP=3.87D-08 DE=-4.55D-13 OVMax= 1.56D-07

 SCF Done:  E(RHF) =  -226.395411702     A.U. after    7 cycles
            NFock=  7  Conv=0.72D-08     -V/T= 2.0035
 KE= 2.256136620765D+02 PE=-7.665851215037D+02 EE= 1.979399157671D+02
 Leave Link  502 at Fri Apr 12 15:30:32 2019, MaxMem=   134217728 cpu:         0.2
 (Enter /cm/shared/c3ddb/gaussian/09.d01/g09/l701.exe)
 Compute integral first derivatives.
 ... and contract with generalized density number  0.
 Leave Link  701 at Fri Apr 12 15:30:32 2019, MaxMem=   134217728 cpu:         0.1
 (Enter /cm/shared/c3ddb/gaussian/09.d01/g09/l702.exe)
 L702 exits ... SP integral derivatives will be done elsewhere.
 Leave Link  702 at Fri Apr 12 15:30:32 2019, MaxMem=   134217728 cpu:         0.0
 (Enter /cm/shared/c3ddb/gaussian/09.d01/g09/l703.exe)
 Compute integral first derivatives, UseDBF=F ICtDFT=           0.
 Integral derivatives from FoFJK, PRISM(SPDF).
 Calling FoFJK, ICntrl=      2127 FMM=F ISym2X=0 I1Cent= 0 IOpClX= 0 NMat=1 NMatS=1 NMatT=0.
 FoFJK:  IHMeth= 1 ICntrl=    2127 DoSepK=F KAlg= 0 I1Cent=   0 FoldK=F
 IRaf=         0 NMat=   1 IRICut=       1 DoRegI=T DoRafI=F ISym2E= 0.
 FoFCou: FMM=F IPFlag=           0 FMFlag=      100000 FMFlg1=         800
         NFxFlg=           0 DoJE=F BraDBF=F KetDBF=F FulRan=T
         wScrn=  0.000000 ICntrl=    2127 IOpCl=  0 I1Cent=           0 NGrid=           0
         NMat0=    1 NMatS0=      1 NMatT0=    0 NMatD0=    1 NMtDS0=    0 NMtDT0=    0
 Symmetry not used in FoFCou.
 Leave Link  703 at Fri Apr 12 15:30:32 2019, MaxMem=   134217728 cpu:         0.2
 (Enter /cm/shared/c3ddb/gaussian/09.d01/g09/l716.exe)
 Dipole        = 2.45651733D-01-2.49790141D-02-6.98452471D-01
 -------------------------------------------------------------------
 Center     Atomic                   Forces (Hartrees/Bohr)
 Number     Number              X              Y              Z
 -------------------------------------------------------------------
      1        6           0.000035584    0.000175530    0.000891291
      2        6          -0.000005246    0.000008188   -0.000223105
      3        1          -0.000000508    0.000000562   -0.000000258
      4        1          -0.000000842    0.000000087   -0.000003112
      5        1          -0.000001357   -0.000001042   -0.000001380
      6        8          -0.000118943   -0.000180302   -0.000598403
      7        8           0.000828910    0.000051397   -0.000571106
      8        1          -0.000737598   -0.000054421    0.000506072
 -------------------------------------------------------------------
 Cartesian Forces:  Max     0.000891291 RMS     0.000359405
 Leave Link  716 at Fri Apr 12 15:30:32 2019, MaxMem=   134217728 cpu:         0.0
 (Enter /cm/shared/c3ddb/gaussian/09.d01/g09/l103.exe)

 GradGradGradGradGradGradGradGradGradGradGradGradGradGradGradGradGradGrad
 Berny optimization.
 Using GEDIIS/GDIIS optimizer.
 FormGI is forming the generalized inverse of G from B-inverse, IUseBI=4.
 Internal  Forces:  Max     0.001619541 RMS     0.000355193
 Search for a local minimum.
 Step number   5 out of a maximum of   32
 All quantities printed in internal units (Hartrees-Bohrs-Radians)
 RMS Force = .37924D-05 SwitMx=.10000D-02 MixMth= 2
 Mixed Optimization -- En-DIIS/RFO-DIIS
 Swapping is turned off.
 Update second derivatives using D2CorX and points    1    2    3    4    5
 DE= -4.88D-09 DEPred=-4.88D-09 R= 1.00D+00
 Trust test= 1.00D+00 RLast= 3.49D-04 DXMaxT set to 3.00D-01
 ITU=  0  0  1  0  0
     Eigenvalues ---    0.02785   0.03292   0.04491   0.11787   0.15989
     Eigenvalues ---    0.16005   0.18606   0.21338   0.28592   0.37147
     Eigenvalues ---    0.37202   0.37427   0.40306   0.50642   0.53999
     Eigenvalues ---    0.647401000.000001000.000001000.000001000.00000
     Eigenvalues --- 1000.000001000.00000
 En-DIIS/RFO-DIIS IScMMF=        0 using points:     5    4    3    2    1
 RFO step:  Lambda=-8.83417717D-08.
 NNeg= 0 NP= 5 Switch=  2.50D-03 Rises=F DC=  6.22D-06 SmlDif=  1.00D-05
 RMS Error=  0.1379657963D-04 NUsed= 5 EDIIS=F
 DidBck=F Rises=F RFO-DIIS coefs:    0.98495    0.12984   -0.08538   -0.01770   -0.01170
 Iteration  1 RMS(Cart)=  0.00002789 RMS(Int)=  0.00000004
 Iteration  2 RMS(Cart)=  0.00000000 RMS(Int)=  0.00000004
 Iteration  1 RMS(Cart)=  0.00000004 RMS(Int)=  0.00000002
 ITry= 1 IFail=0 DXMaxC= 5.79D-05 DCOld= 1.00D+10 DXMaxT= 3.00D-01 DXLimC= 3.00D+00 Rises=F
 Variable       Old X    -DE/DX   Delta X   Delta X   Delta X     New X
                                 (Linear)    (Quad)   (Total)
    R1        2.47407   0.00000   0.00000   0.00000  -0.00001   2.47406
    R2        2.01784   0.00000   0.00000   0.00000   0.00000   2.01784
    R3        2.65053   0.00001   0.00002   0.00002   0.00004   2.65057
    R4        2.02247   0.00000   0.00000   0.00000   0.00000   2.02247
    R5        2.02377   0.00000   0.00000   0.00001   0.00000   2.02378
    R6        2.76678  -0.00001  -0.00003   0.00001  -0.00002   2.76676
    R7        1.83763   0.00000   0.00000   0.00001   0.00001   1.83764
    A1        2.18703   0.00001   0.00004  -0.00001   0.00003   2.18706
    A2        2.10797   0.00000  -0.00002  -0.00001  -0.00003   2.10794
    A3        1.98743   0.00000  -0.00002   0.00002   0.00000   1.98742
    A4        2.09929   0.00000   0.00001   0.00000   0.00001   2.09930
    A5        2.12110   0.00000  -0.00001   0.00000  -0.00001   2.12109
    A6        2.06269   0.00000   0.00000   0.00000   0.00000   2.06270
    A7        1.86506   0.00000  -0.00001   0.00000  -0.00001   1.86505
    A8        1.75307   0.00000   0.00002  -0.00001   0.00001   1.75308
    D1        0.01690   0.00008  -0.00001  -0.00004  -0.00005   0.01686
    D2       -3.14048   0.00008   0.00003   0.00001   0.00004  -3.14044
    D3       -3.08000  -0.00008  -0.00005  -0.00002  -0.00007  -3.08007
    D4        0.04581  -0.00008  -0.00001   0.00002   0.00001   0.04582
    D5       -2.79253   0.00031   0.00000   0.00000   0.00000  -2.79253
    D6        0.38895   0.00017  -0.00003   0.00001  -0.00002   0.38892
    D7        2.09439   0.00162   0.00000   0.00000   0.00000   2.09439
         Item               Value     Threshold  Converged?
 Maximum Force            0.000011     0.000015     YES
 RMS     Force            0.000004     0.000010     YES
 Maximum Displacement     0.000058     0.000060     YES
 RMS     Displacement     0.000028     0.000040     YES
 Predicted change in Energy=-7.055549D-10
 Optimization completed.
    -- Stationary point found.
                           ----------------------------
                           !   Optimized Parameters   !
                           ! (Angstroms and Degrees)  !
 --------------------------                            --------------------------
 ! Name  Definition              Value          Derivative Info.                !
 --------------------------------------------------------------------------------
 ! R1    R(1,2)                  1.3092         -DE/DX =    0.0                 !
 ! R2    R(1,3)                  1.0678         -DE/DX =    0.0                 !
 ! R3    R(1,6)                  1.4026         -DE/DX =    0.0                 !
 ! R4    R(2,4)                  1.0702         -DE/DX =    0.0                 !
 ! R5    R(2,5)                  1.0709         -DE/DX =    0.0                 !
 ! R6    R(6,7)                  1.4641         -DE/DX =    0.0                 !
 ! R7    R(7,8)                  0.9724         -DE/DX =    0.0                 !
 ! A1    A(2,1,3)              125.3073         -DE/DX =    0.0                 !
 ! A2    A(2,1,6)              120.7777         -DE/DX =    0.0                 !
 ! A3    A(3,1,6)              113.8711         -DE/DX =    0.0                 !
 ! A4    A(1,2,4)              120.2802         -DE/DX =    0.0                 !
 ! A5    A(1,2,5)              121.5302         -DE/DX =    0.0                 !
 ! A6    A(4,2,5)              118.1836         -DE/DX =    0.0                 !
 ! A7    A(1,6,7)              106.86           -DE/DX =    0.0                 !
 ! A8    A(6,7,8)              100.4434         -DE/DX =    0.0                 !
 ! D1    D(3,1,2,4)              0.9686         -DE/DX =    0.0001              !
 ! D2    D(3,1,2,5)           -179.936          -DE/DX =    0.0001              !
 ! D3    D(6,1,2,4)           -176.4708         -DE/DX =   -0.0001              !
 ! D4    D(6,1,2,5)              2.6246         -DE/DX =   -0.0001              !
 ! D5    D(2,1,6,7)           -160.0            -DE/DX =    0.0003              !
 ! D6    D(3,1,6,7)             22.2849         -DE/DX =    0.0002              !
 ! D7    D(1,6,7,8)            120.0            -DE/DX =    0.0016              !
 --------------------------------------------------------------------------------
 Lowest energy point so far.  Saving SCF results.
 GradGradGradGradGradGradGradGradGradGradGradGradGradGradGradGradGradGrad

 Largest change from initial coordinates is atom    8       0.005 Angstoms.
 Leave Link  103 at Fri Apr 12 15:30:32 2019, MaxMem=   134217728 cpu:         0.0
 (Enter /cm/shared/c3ddb/gaussian/09.d01/g09/l202.exe)
                          Input orientation:                          
 ---------------------------------------------------------------------
 Center     Atomic      Atomic             Coordinates (Angstroms)
 Number     Number       Type             X           Y           Z
 ---------------------------------------------------------------------
      1          6           0        0.727487    0.638067    0.024488
      2          6           0        1.368500   -0.502649   -0.019408
      3          1           0        1.184882    1.601133    0.083510
      4          1           0        2.437881   -0.522556    0.018747
      5          1           0        0.847051   -1.436137   -0.079356
      6          8           0       -0.674455    0.673046    0.049353
      7          8           0       -1.073555    2.013210   -0.384601
      8          1           0       -1.601946    1.793811   -1.170918
 ---------------------------------------------------------------------
                    Distance matrix (angstroms):
                    1          2          3          4          5
     1  C    0.000000
     2  C    1.309220   0.000000
     3  H    1.067797   2.114286   0.000000
     4  H    2.067009   1.070247   2.466628   0.000000
     5  H    2.080240   1.070935   3.060337   1.837116   0.000000
     6  O    1.402599   2.358103   2.078375   3.334222   2.603881
     7  O    2.302635   3.525130   2.342963   4.350055   3.959784
     8  H    2.861992   3.927245   3.062209   4.806357   4.197815
                    6          7          8
     6  O    0.000000
     7  O    1.464116   0.000000
     8  H    1.898793   0.972434   0.000000
 Symmetry turned off by external request.
 Stoichiometry    C2H4O2
 Framework group  C1[X(C2H4O2)]
 Deg. of freedom    18
 Full point group                 C1      NOp   1
 Rotational constants (GHZ):     40.6402654      4.5735088      4.2287856
 Leave Link  202 at Fri Apr 12 15:30:32 2019, MaxMem=   134217728 cpu:         0.0
 (Enter /cm/shared/c3ddb/gaussian/09.d01/g09/l601.exe)
 Copying SCF densities to generalized density rwf, IOpCl= 0 IROHF=0.

 **********************************************************************

            Population analysis using the SCF density.

 **********************************************************************

 Alpha  occ. eigenvalues --  -20.53703 -20.52852 -11.24356 -11.16641  -1.47929
 Alpha  occ. eigenvalues --   -1.24024  -1.02900  -0.79837  -0.71701  -0.66477
 Alpha  occ. eigenvalues --   -0.63925  -0.59900  -0.55284  -0.50011  -0.48685
 Alpha  occ. eigenvalues --   -0.36356
 Alpha virt. eigenvalues --    0.18641   0.23185   0.27610   0.31830   0.33819
 Alpha virt. eigenvalues --    0.35891   0.49673   0.57532   0.90213   0.96913
 Alpha virt. eigenvalues --    1.00177   1.06416   1.10775   1.12608   1.22114
 Alpha virt. eigenvalues --    1.32562   1.37195   1.58026   1.59824   1.73634
 Alpha virt. eigenvalues --    1.82260   1.89657   1.94934   2.02048   2.05150
 Alpha virt. eigenvalues --    2.27641   3.06891   3.49525
          Condensed to atoms (all electrons):
               1          2          3          4          5          6
     1  C    4.879725   0.520115   0.365872  -0.046798  -0.051076   0.205041
     2  C    0.520115   5.303976  -0.044845   0.386147   0.390043  -0.051520
     3  H    0.365872  -0.044845   0.447138  -0.000488   0.002213  -0.035140
     4  H   -0.046798   0.386147  -0.000488   0.447908  -0.015280   0.001350
     5  H   -0.051076   0.390043   0.002213  -0.015280   0.436773  -0.000542
     6  O    0.205041  -0.051520  -0.035140   0.001350  -0.000542   8.196024
     7  O   -0.029327   0.002537   0.003366  -0.000028  -0.000017   0.118022
     8  H    0.000898  -0.000237  -0.000100   0.000002   0.000003  -0.023418
               7          8
     1  C   -0.029327   0.000898
     2  C    0.002537  -0.000237
     3  H    0.003366  -0.000100
     4  H   -0.000028   0.000002
     5  H   -0.000017   0.000003
     6  O    0.118022  -0.023418
     7  O    8.045849   0.243643
     8  H    0.243643   0.361737
 Mulliken charges:
               1
     1  C    0.155549
     2  C   -0.506216
     3  H    0.261984
     4  H    0.227187
     5  H    0.237885
     6  O   -0.409817
     7  O   -0.384044
     8  H    0.417471
 Sum of Mulliken charges =   0.00000
 Mulliken charges with hydrogens summed into heavy atoms:
               1
     1  C    0.417534
     2  C   -0.041143
     6  O   -0.409817
     7  O    0.033427
 Electronic spatial extent (au):  <R**2>=            365.8922
 Charge=              0.0000 electrons
 Dipole moment (field-independent basis, Debye):
    X=              0.6244    Y=             -0.0635    Z=             -1.7753  Tot=              1.8830
 Quadrupole moment (field-independent basis, Debye-Ang):
   XX=            -20.1001   YY=            -23.4487   ZZ=            -22.9316
   XY=             -0.2446   XZ=              3.6664   YZ=             -2.8110
 Traceless Quadrupole moment (field-independent basis, Debye-Ang):
   XX=              2.0600   YY=             -1.2886   ZZ=             -0.7715
   XY=             -0.2446   XZ=              3.6664   YZ=             -2.8110
 Octapole moment (field-independent basis, Debye-Ang**2):
  XXX=            -12.9621  YYY=            -51.4650  ZZZ=              3.4569  XYY=             -3.1026
  XXY=            -10.7216  XXZ=             -3.3674  XZZ=            -10.9342  YZZ=            -10.5083
  YYZ=             -2.6158  XYZ=              6.1834
 Hexadecapole moment (field-independent basis, Debye-Ang**3):
 XXXX=           -160.7171 YYYY=           -221.0319 ZZZZ=            -25.9870 XXXY=             40.2343
 XXXZ=              2.2478 YYYX=             53.4603 YYYZ=              5.6025 ZZZX=             -2.6825
 ZZZY=              7.6971 XXYY=            -56.9534 XXZZ=            -31.8673 YYZZ=            -32.4518
 XXYZ=             -5.7427 YYXZ=              7.9575 ZZXY=              9.3313
 N-N= 1.166361319577D+02 E-N=-7.665851214877D+02  KE= 2.256136620765D+02
 No NMR shielding tensors so no spin-rotation constants.
 Leave Link  601 at Fri Apr 12 15:30:32 2019, MaxMem=   134217728 cpu:         0.1
 (Enter /cm/shared/c3ddb/gaussian/09.d01/g09/l9999.exe)
 1\1\GINC-NODE029\FOpt\RHF\3-21G\C2H4O2\MATTSJ\12-Apr-2019\0\\#p hf 3-2
 1g scf=tight NoSymmetry guess=read opt=(tight,modredundant)\\Geometry 
 optimization at the 2D-PES\\0,1\C,0.7274872229,0.6380666041,0.02448811
 99\C,1.3684997397,-0.5026491721,-0.0194077374\H,1.1848820306,1.6011327
 656,0.0835099857\H,2.4378813055,-0.5225558845,0.0187468319\H,0.8470505
 532,-1.4361368339,-0.0793561287\O,-0.6744545602,0.6730459837,0.0493531
 706\O,-1.0735549716,2.0132098874,-0.3846012872\H,-1.6019463201,1.79381
 06497,-1.1709179548\\Version=AS64L-G09RevD.01\HF=-226.3954117\RMSD=7.1
 82e-09\RMSF=3.594e-04\Dipole=0.2456517,-0.024979,-0.6984525\Quadrupole
 =1.5315934,-0.9580173,-0.573576,-0.1818389,2.7258573,-2.0899213\PG=C01
  [X(C2H4O2)]\\@


 IT TAKES GREATER CHARACTER TO CARRY OFF GOOD FORTUNE THAN BAD.
                     FRENCH PROVERB.
 Job cpu time:       0 days  0 hours  0 minutes  7.9 seconds.
 File lengths (MBytes):  RWF=      5 Int=      0 D2E=      0 Chk=      1 Scr=      1
 Normal termination of Gaussian 09 at Fri Apr 12 15:30:33 2019.
