 Entering Gaussian System, Link 0=/cm/shared/c3ddb/gaussian/09.d01/g09/g09
 Initial command:
 /cm/shared/c3ddb/gaussian/09.d01/g09/l1.exe "/scratch/users/mattsj/g09/S02-7952157/Gau-46212.inp" -scrdir="/scratch/users/mattsj/g09/S02-7952157/"
 Entering Link 1 = /cm/shared/c3ddb/gaussian/09.d01/g09/l1.exe PID=     46213.
  
 Copyright (c) 1988,1990,1992,1993,1995,1998,2003,2009,2013,
            Gaussian, Inc.  All Rights Reserved.
  
 This is part of the Gaussian(R) 09 program.  It is based on
 the Gaussian(R) 03 system (copyright 2003, Gaussian, Inc.),
 the Gaussian(R) 98 system (copyright 1998, Gaussian, Inc.),
 the Gaussian(R) 94 system (copyright 1995, Gaussian, Inc.),
 the Gaussian 92(TM) system (copyright 1992, Gaussian, Inc.),
 the Gaussian 90(TM) system (copyright 1990, Gaussian, Inc.),
 the Gaussian 88(TM) system (copyright 1988, Gaussian, Inc.),
 the Gaussian 86(TM) system (copyright 1986, Carnegie Mellon
 University), and the Gaussian 82(TM) system (copyright 1983,
 Carnegie Mellon University). Gaussian is a federally registered
 trademark of Gaussian, Inc.
  
 This software contains proprietary and confidential information,
 including trade secrets, belonging to Gaussian, Inc.
  
 This software is provided under written license and may be
 used, copied, transmitted, or stored only in accord with that
 written license.
  
 The following legend is applicable only to US Government
 contracts under FAR:
  
                    RESTRICTED RIGHTS LEGEND
  
 Use, reproduction and disclosure by the US Government is
 subject to restrictions as set forth in subparagraphs (a)
 and (c) of the Commercial Computer Software - Restricted
 Rights clause in FAR 52.227-19.
  
 Gaussian, Inc.
 340 Quinnipiac St., Bldg. 40, Wallingford CT 06492
  
  
 ---------------------------------------------------------------
 Warning -- This program may not be used in any manner that
 competes with the business of Gaussian, Inc. or will provide
 assistance to any competitor of Gaussian, Inc.  The licensee
 of this program is prohibited from giving any competitor of
 Gaussian, Inc. access to this program.  By using this program,
 the user acknowledges that Gaussian, Inc. is engaged in the
 business of creating and licensing software in the field of
 computational chemistry and represents and warrants to the
 licensee that it is not a competitor of Gaussian, Inc. and that
 it will not use this program in any manner prohibited above.
 ---------------------------------------------------------------
  

 Cite this work as:
 Gaussian 09, Revision D.01,
 M. J. Frisch, G. W. Trucks, H. B. Schlegel, G. E. Scuseria, 
 M. A. Robb, J. R. Cheeseman, G. Scalmani, V. Barone, B. Mennucci, 
 G. A. Petersson, H. Nakatsuji, M. Caricato, X. Li, H. P. Hratchian, 
 A. F. Izmaylov, J. Bloino, G. Zheng, J. L. Sonnenberg, M. Hada, 
 M. Ehara, K. Toyota, R. Fukuda, J. Hasegawa, M. Ishida, T. Nakajima, 
 Y. Honda, O. Kitao, H. Nakai, T. Vreven, J. A. Montgomery, Jr., 
 J. E. Peralta, F. Ogliaro, M. Bearpark, J. J. Heyd, E. Brothers, 
 K. N. Kudin, V. N. Staroverov, T. Keith, R. Kobayashi, J. Normand, 
 K. Raghavachari, A. Rendell, J. C. Burant, S. S. Iyengar, J. Tomasi, 
 M. Cossi, N. Rega, J. M. Millam, M. Klene, J. E. Knox, J. B. Cross, 
 V. Bakken, C. Adamo, J. Jaramillo, R. Gomperts, R. E. Stratmann, 
 O. Yazyev, A. J. Austin, R. Cammi, C. Pomelli, J. W. Ochterski, 
 R. L. Martin, K. Morokuma, V. G. Zakrzewski, G. A. Voth, 
 P. Salvador, J. J. Dannenberg, S. Dapprich, A. D. Daniels, 
 O. Farkas, J. B. Foresman, J. V. Ortiz, J. Cioslowski, 
 and D. J. Fox, Gaussian, Inc., Wallingford CT, 2013.
 
 ******************************************
 Gaussian 09:  AS64L-G09RevD.01 24-Apr-2013
                12-Apr-2019 
 ******************************************
 %nproc=1
 Will use up to    1 processors via shared memory.
 %mem=1GB
 %chk=TMP_CALCS/scangeom_S02_050_170.chk
 --------------------------------------------------------------------
 #p hf 3-21g scf=tight NoSymmetry guess=read opt=(tight,modredundant)
 --------------------------------------------------------------------
 1/7=10,18=120,19=15,38=1/1,3;
 2/9=110,12=2,15=1,17=6,18=5,40=1/2;
 3/5=5,11=9,16=1,25=1,30=1,71=1,116=-2/1,2,3;
 4/5=1/1;
 5/5=2,32=2,38=6/2;
 6/7=2,8=2,9=2,10=2,28=1/1;
 7/30=1/1,2,3,16;
 1/7=10,18=20,19=15/3(2);
 2/9=110,15=1/2;
 99//99;
 2/9=110,15=1/2;
 3/5=5,11=9,16=1,25=1,30=1,71=1/1,2,3;
 4/5=5,16=3,69=1/1;
 5/5=2,32=2,38=5/2;
 7/30=1/1,2,3,16;
 1/7=10,18=20,19=15/3(-5);
 2/9=110,15=1/2;
 6/7=2,8=2,9=2,10=2,19=2,28=1/1;
 99/9=1/99;
 Leave Link    1 at Fri Apr 12 17:09:57 2019, MaxMem=   134217728 cpu:         0.1
 (Enter /cm/shared/c3ddb/gaussian/09.d01/g09/l101.exe)
 -----------------------------------
 Geometry optimization at the 2D-PES
 -----------------------------------
 Symbolic Z-matrix:
 Charge =  0 Multiplicity = 1
 C                     0.7326    0.59803   0.0568 
 C                     1.3941   -0.52735  -0.02448 
 H                     1.19188   1.56424   0.09303 
 H                     2.46473  -0.52544  -0.02598 
 H                     0.88932  -1.47034  -0.05462 
 O                    -0.66625   0.70275   0.02167 
 O                    -1.22098  -0.25386   0.99427 
 H                    -2.1477    0.04064   0.98319 
 
 The following ModRedundant input section has been read:
 D       2       1       6       7 F                                           
 D       1       6       7       8 F                                           
 
 NAtoms=      8 NQM=        8 NQMF=       0 NMMI=      0 NMMIF=      0
                NMic=       0 NMicF=      0.
                    Isotopes and Nuclear Properties:
 (Nuclear quadrupole moments (NQMom) in fm**2, nuclear magnetic moments (NMagM)
  in nuclear magnetons)

  Atom         1           2           3           4           5           6           7           8
 IAtWgt=          12          12           1           1           1          16          16           1
 AtmWgt=  12.0000000  12.0000000   1.0078250   1.0078250   1.0078250  15.9949146  15.9949146   1.0078250
 NucSpn=           0           0           1           1           1           0           0           1
 AtZEff=   0.0000000   0.0000000   0.0000000   0.0000000   0.0000000   0.0000000   0.0000000   0.0000000
 NQMom=    0.0000000   0.0000000   0.0000000   0.0000000   0.0000000   0.0000000   0.0000000   0.0000000
 NMagM=    0.0000000   0.0000000   2.7928460   2.7928460   2.7928460   0.0000000   0.0000000   2.7928460
 AtZNuc=   6.0000000   6.0000000   1.0000000   1.0000000   1.0000000   8.0000000   8.0000000   1.0000000
 Leave Link  101 at Fri Apr 12 17:09:57 2019, MaxMem=   134217728 cpu:         0.2
 (Enter /cm/shared/c3ddb/gaussian/09.d01/g09/l103.exe)

 GradGradGradGradGradGradGradGradGradGradGradGradGradGradGradGradGradGrad
 Berny optimization.
 Initialization pass.
                           ----------------------------
                           !    Initial Parameters    !
                           ! (Angstroms and Degrees)  !
 --------------------------                            --------------------------
 ! Name  Definition              Value          Derivative Info.                !
 --------------------------------------------------------------------------------
 ! R1    R(1,2)                  1.3079         estimate D2E/DX2                !
 ! R2    R(1,3)                  1.0704         estimate D2E/DX2                !
 ! R3    R(1,6)                  1.4032         estimate D2E/DX2                !
 ! R4    R(2,4)                  1.0706         estimate D2E/DX2                !
 ! R5    R(2,5)                  1.07           estimate D2E/DX2                !
 ! R6    R(6,7)                  1.4727         estimate D2E/DX2                !
 ! R7    R(7,8)                  0.9724         estimate D2E/DX2                !
 ! A1    A(2,1,3)              124.1778         estimate D2E/DX2                !
 ! A2    A(2,1,6)              124.531          estimate D2E/DX2                !
 ! A3    A(3,1,6)              111.1746         estimate D2E/DX2                !
 ! A4    A(1,2,4)              120.2859         estimate D2E/DX2                !
 ! A5    A(1,2,5)              121.4288         estimate D2E/DX2                !
 ! A6    A(4,2,5)              118.2474         estimate D2E/DX2                !
 ! A7    A(1,6,7)              108.0896         estimate D2E/DX2                !
 ! A8    A(6,7,8)               98.901          estimate D2E/DX2                !
 ! D1    D(3,1,2,4)              2.0643         estimate D2E/DX2                !
 ! D2    D(3,1,2,5)            179.7885         estimate D2E/DX2                !
 ! D3    D(6,1,2,4)            177.7876         estimate D2E/DX2                !
 ! D4    D(6,1,2,5)             -4.4881         estimate D2E/DX2                !
 ! D5    D(2,1,6,7)             50.0            Frozen                          !
 ! D6    D(3,1,6,7)           -133.7935         estimate D2E/DX2                !
 ! D7    D(1,6,7,8)            170.0            Frozen                          !
 --------------------------------------------------------------------------------
 Trust Radius=3.00D-01 FncErr=1.00D-07 GrdErr=1.00D-07
 Number of steps in this run=     32 maximum allowed number of steps=    100.
 GradGradGradGradGradGradGradGradGradGradGradGradGradGradGradGradGradGrad

 Leave Link  103 at Fri Apr 12 17:09:57 2019, MaxMem=   134217728 cpu:         0.0
 (Enter /cm/shared/c3ddb/gaussian/09.d01/g09/l202.exe)
                          Input orientation:                          
 ---------------------------------------------------------------------
 Center     Atomic      Atomic             Coordinates (Angstroms)
 Number     Number       Type             X           Y           Z
 ---------------------------------------------------------------------
      1          6           0        0.732602    0.598026    0.056801
      2          6           0        1.394100   -0.527347   -0.024477
      3          1           0        1.191879    1.564244    0.093034
      4          1           0        2.464731   -0.525438   -0.025978
      5          1           0        0.889317   -1.470340   -0.054616
      6          8           0       -0.666249    0.702745    0.021670
      7          8           0       -1.220983   -0.253864    0.994266
      8          1           0       -2.147698    0.040638    0.983190
 ---------------------------------------------------------------------
                    Distance matrix (angstroms):
                    1          2          3          4          5
     1  C    0.000000
     2  C    1.307918   0.000000
     3  H    1.070432   2.104627   0.000000
     4  H    2.066227   1.070634   2.449712   0.000000
     5  H    2.077285   1.070023   3.053202   1.837278   0.000000
     6  O    1.403205   2.400061   2.049369   3.363590   2.673556
     7  O    2.328315   2.819803   3.152719   3.833945   2.652043
     8  H    3.076525   3.725900   3.777106   4.755351   3.547331
                    6          7          8
     6  O    0.000000
     7  O    1.472676   0.000000
     8  H    1.886159   0.972448   0.000000
 Symmetry turned off by external request.
 Stoichiometry    C2H4O2
 Framework group  C1[X(C2H4O2)]
 Deg. of freedom    18
 Full point group                 C1      NOp   1
 Rotational constants (GHZ):     19.9557638      6.0902153      4.8923961
 Leave Link  202 at Fri Apr 12 17:09:57 2019, MaxMem=   134217728 cpu:         0.0
 (Enter /cm/shared/c3ddb/gaussian/09.d01/g09/l301.exe)
 Standard basis: 3-21G (6D, 7F)
 Ernie: Thresh=  0.10000D-02 Tol=  0.10000D-05 Strict=F.
    44 basis functions,    72 primitive gaussians,    44 cartesian basis functions
    16 alpha electrons       16 beta electrons
       nuclear repulsion energy       118.1486210398 Hartrees.
 IExCor=    0 DFT=F Ex=HF Corr=None ExCW=0 ScaHFX=  1.000000
 ScaDFX=  1.000000  1.000000  1.000000  1.000000 ScalE2=  1.000000  1.000000
 IRadAn=      0 IRanWt=     -1 IRanGd=            0 ICorTp=0 IEmpDi=  4
 NAtoms=    8 NActive=    8 NUniq=    8 SFac= 1.00D+00 NAtFMM=   60 NAOKFM=F Big=F
 Integral buffers will be    131072 words long.
 Raffenetti 1 integral format.
 Two-electron integral symmetry is turned off.
 Leave Link  301 at Fri Apr 12 17:09:57 2019, MaxMem=   134217728 cpu:         0.1
 (Enter /cm/shared/c3ddb/gaussian/09.d01/g09/l302.exe)
 NPDir=0 NMtPBC=     1 NCelOv=     1 NCel=       1 NClECP=     1 NCelD=      1
         NCelK=      1 NCelE2=     1 NClLst=     1 CellRange=     0.0.
 One-electron integrals computed using PRISM.
 NBasis=    44 RedAO= T EigKep=  1.19D-02  NBF=    44
 NBsUse=    44 1.00D-06 EigRej= -1.00D+00 NBFU=    44
 Leave Link  302 at Fri Apr 12 17:09:57 2019, MaxMem=   134217728 cpu:         0.1
 (Enter /cm/shared/c3ddb/gaussian/09.d01/g09/l303.exe)
 DipDrv:  MaxL=1.
 Leave Link  303 at Fri Apr 12 17:09:57 2019, MaxMem=   134217728 cpu:         0.1
 (Enter /cm/shared/c3ddb/gaussian/09.d01/g09/l401.exe)
 Initial guess from the checkpoint file:  "TMP_CALCS/scangeom_S02_050_170.chk"
 B after Tr=     0.001680   -0.004089   -0.008179
         Rot=    0.999992   -0.001695    0.003265   -0.001686 Ang=  -0.46 deg.
 Guess basis will be translated and rotated to current coordinates.
 JPrj=2 DoOrth=T DoCkMO=T.
 Leave Link  401 at Fri Apr 12 17:09:58 2019, MaxMem=   134217728 cpu:         0.2
 (Enter /cm/shared/c3ddb/gaussian/09.d01/g09/l502.exe)
 Closed shell SCF:
 Using DIIS extrapolation, IDIIS=  1040.
 Two-electron integral symmetry not used.
 Keep R1 ints in memory in canonical form, NReq=1327390.
 IVT=       24902 IEndB=       24902 NGot=   134217728 MDV=   133702282
 LenX=   133702282 LenY=   133699905
 Requested convergence on RMS density matrix=1.00D-08 within 128 cycles.
 Requested convergence on MAX density matrix=1.00D-06.
 Requested convergence on             energy=1.00D-06.
 No special actions if energy rises.
 FoFCou: FMM=F IPFlag=           0 FMFlag=           0 FMFlg1=           0
         NFxFlg=           0 DoJE=F BraDBF=F KetDBF=F FulRan=T
         wScrn=  0.000000 ICntrl=     600 IOpCl=  0 I1Cent=           0 NGrid=           0
         NMat0=    1 NMatS0=    990 NMatT0=    0 NMatD0=    1 NMtDS0=    0 NMtDT0=    0
 Symmetry not used in FoFCou.

 Cycle   1  Pass 1  IDiag  1:
 E= -226.390068830846    
 DIIS: error= 7.78D-03 at cycle   1 NSaved=   1.
 NSaved= 1 IEnMin= 1 EnMin= -226.390068830846     IErMin= 1 ErrMin= 7.78D-03
 ErrMax= 7.78D-03  0.00D+00 EMaxC= 1.00D-01 BMatC= 1.90D-03 BMatP= 1.90D-03
 IDIUse=3 WtCom= 9.22D-01 WtEn= 7.78D-02
 Coeff-Com:  0.100D+01
 Coeff-En:   0.100D+01
 Coeff:      0.100D+01
 Gap=     0.534 Goal=   None    Shift=    0.000
 GapD=    0.534 DampG=2.000 DampE=1.000 DampFc=2.0000 IDamp=-1.
 RMSDP=1.12D-03 MaxDP=1.33D-02              OVMax= 1.27D-02

 Cycle   2  Pass 1  IDiag  1:
 E= -226.393039709907     Delta-E=       -0.002970879061 Rises=F Damp=F
 DIIS: error= 3.38D-03 at cycle   2 NSaved=   2.
 NSaved= 2 IEnMin= 2 EnMin= -226.393039709907     IErMin= 2 ErrMin= 3.38D-03
 ErrMax= 3.38D-03  0.00D+00 EMaxC= 1.00D-01 BMatC= 1.87D-04 BMatP= 1.90D-03
 IDIUse=3 WtCom= 9.66D-01 WtEn= 3.38D-02
 Coeff-Com: -0.338D+00 0.134D+01
 Coeff-En:   0.000D+00 0.100D+01
 Coeff:     -0.327D+00 0.133D+01
 Gap=     0.534 Goal=   None    Shift=    0.000
 RMSDP=5.92D-04 MaxDP=5.08D-03 DE=-2.97D-03 OVMax= 9.40D-03

 Cycle   3  Pass 1  IDiag  1:
 E= -226.393539133918     Delta-E=       -0.000499424012 Rises=F Damp=F
 DIIS: error= 1.02D-03 at cycle   3 NSaved=   3.
 NSaved= 3 IEnMin= 3 EnMin= -226.393539133918     IErMin= 3 ErrMin= 1.02D-03
 ErrMax= 1.02D-03  0.00D+00 EMaxC= 1.00D-01 BMatC= 1.66D-05 BMatP= 1.87D-04
 IDIUse=3 WtCom= 9.90D-01 WtEn= 1.02D-02
 Coeff-Com:  0.749D-01-0.445D+00 0.137D+01
 Coeff-En:   0.000D+00 0.000D+00 0.100D+01
 Coeff:      0.742D-01-0.440D+00 0.137D+01
 Gap=     0.534 Goal=   None    Shift=    0.000
 RMSDP=2.42D-04 MaxDP=3.08D-03 DE=-4.99D-04 OVMax= 4.26D-03

 Cycle   4  Pass 1  IDiag  1:
 E= -226.393594783168     Delta-E=       -0.000055649250 Rises=F Damp=F
 DIIS: error= 2.86D-04 at cycle   4 NSaved=   4.
 NSaved= 4 IEnMin= 4 EnMin= -226.393594783168     IErMin= 4 ErrMin= 2.86D-04
 ErrMax= 2.86D-04  0.00D+00 EMaxC= 1.00D-01 BMatC= 3.54D-06 BMatP= 1.66D-05
 IDIUse=3 WtCom= 9.97D-01 WtEn= 2.86D-03
 Coeff-Com:  0.811D-01-0.366D+00 0.421D+00 0.864D+00
 Coeff-En:   0.000D+00 0.000D+00 0.000D+00 0.100D+01
 Coeff:      0.808D-01-0.365D+00 0.420D+00 0.864D+00
 Gap=     0.534 Goal=   None    Shift=    0.000
 RMSDP=8.53D-05 MaxDP=1.04D-03 DE=-5.56D-05 OVMax= 1.46D-03

 Cycle   5  Pass 1  IDiag  1:
 E= -226.393601283761     Delta-E=       -0.000006500593 Rises=F Damp=F
 DIIS: error= 7.67D-05 at cycle   5 NSaved=   5.
 NSaved= 5 IEnMin= 5 EnMin= -226.393601283761     IErMin= 5 ErrMin= 7.67D-05
 ErrMax= 7.67D-05  0.00D+00 EMaxC= 1.00D-01 BMatC= 1.82D-07 BMatP= 3.54D-06
 IDIUse=1 WtCom= 1.00D+00 WtEn= 0.00D+00
 Coeff-Com: -0.984D-03 0.153D-01-0.101D+00 0.848D-01 0.100D+01
 Coeff:     -0.984D-03 0.153D-01-0.101D+00 0.848D-01 0.100D+01
 Gap=     0.534 Goal=   None    Shift=    0.000
 RMSDP=1.91D-05 MaxDP=2.04D-04 DE=-6.50D-06 OVMax= 3.70D-04

 Cycle   6  Pass 1  IDiag  1:
 E= -226.393601671335     Delta-E=       -0.000000387574 Rises=F Damp=F
 DIIS: error= 4.21D-05 at cycle   6 NSaved=   6.
 NSaved= 6 IEnMin= 6 EnMin= -226.393601671335     IErMin= 6 ErrMin= 4.21D-05
 ErrMax= 4.21D-05  0.00D+00 EMaxC= 1.00D-01 BMatC= 2.66D-08 BMatP= 1.82D-07
 IDIUse=1 WtCom= 1.00D+00 WtEn= 0.00D+00
 Coeff-Com: -0.580D-02 0.280D-01-0.455D-01-0.456D-01 0.148D+00 0.921D+00
 Coeff:     -0.580D-02 0.280D-01-0.455D-01-0.456D-01 0.148D+00 0.921D+00
 Gap=     0.534 Goal=   None    Shift=    0.000
 RMSDP=6.26D-06 MaxDP=5.14D-05 DE=-3.88D-07 OVMax= 1.39D-04

 Cycle   7  Pass 1  IDiag  1:
 E= -226.393601747972     Delta-E=       -0.000000076637 Rises=F Damp=F
 DIIS: error= 2.99D-05 at cycle   7 NSaved=   7.
 NSaved= 7 IEnMin= 7 EnMin= -226.393601747972     IErMin= 7 ErrMin= 2.99D-05
 ErrMax= 2.99D-05  0.00D+00 EMaxC= 1.00D-01 BMatC= 7.98D-09 BMatP= 2.66D-08
 IDIUse=1 WtCom= 1.00D+00 WtEn= 0.00D+00
 Coeff-Com:  0.333D-02-0.190D-01 0.530D-01-0.140D-02-0.382D+00-0.466D+00
 Coeff-Com:  0.181D+01
 Coeff:      0.333D-02-0.190D-01 0.530D-01-0.140D-02-0.382D+00-0.466D+00
 Coeff:      0.181D+01
 Gap=     0.534 Goal=   None    Shift=    0.000
 RMSDP=8.40D-06 MaxDP=6.69D-05 DE=-7.66D-08 OVMax= 1.98D-04

 Cycle   8  Pass 1  IDiag  1:
 E= -226.393601798853     Delta-E=       -0.000000050881 Rises=F Damp=F
 DIIS: error= 7.95D-06 at cycle   8 NSaved=   8.
 NSaved= 8 IEnMin= 8 EnMin= -226.393601798853     IErMin= 8 ErrMin= 7.95D-06
 ErrMax= 7.95D-06  0.00D+00 EMaxC= 1.00D-01 BMatC= 7.42D-10 BMatP= 7.98D-09
 IDIUse=1 WtCom= 1.00D+00 WtEn= 0.00D+00
 Coeff-Com:  0.846D-03-0.413D-02 0.784D-02 0.514D-02-0.312D-01-0.145D+00
 Coeff-Com:  0.519D-01 0.111D+01
 Coeff:      0.846D-03-0.413D-02 0.784D-02 0.514D-02-0.312D-01-0.145D+00
 Coeff:      0.519D-01 0.111D+01
 Gap=     0.534 Goal=   None    Shift=    0.000
 RMSDP=2.42D-06 MaxDP=1.88D-05 DE=-5.09D-08 OVMax= 5.65D-05

 Cycle   9  Pass 1  IDiag  1:
 E= -226.393601802886     Delta-E=       -0.000000004033 Rises=F Damp=F
 DIIS: error= 2.34D-06 at cycle   9 NSaved=   9.
 NSaved= 9 IEnMin= 9 EnMin= -226.393601802886     IErMin= 9 ErrMin= 2.34D-06
 ErrMax= 2.34D-06  0.00D+00 EMaxC= 1.00D-01 BMatC= 9.84D-11 BMatP= 7.42D-10
 IDIUse=1 WtCom= 1.00D+00 WtEn= 0.00D+00
 Coeff-Com: -0.485D-03 0.280D-02-0.771D-02 0.165D-03 0.579D-01 0.626D-01
 Coeff-Com: -0.292D+00 0.785D-01 0.110D+01
 Coeff:     -0.485D-03 0.280D-02-0.771D-02 0.165D-03 0.579D-01 0.626D-01
 Coeff:     -0.292D+00 0.785D-01 0.110D+01
 Gap=     0.534 Goal=   None    Shift=    0.000
 RMSDP=8.62D-07 MaxDP=6.45D-06 DE=-4.03D-09 OVMax= 1.89D-05

 Cycle  10  Pass 1  IDiag  1:
 E= -226.393601803323     Delta-E=       -0.000000000437 Rises=F Damp=F
 DIIS: error= 7.56D-07 at cycle  10 NSaved=  10.
 NSaved=10 IEnMin=10 EnMin= -226.393601803323     IErMin=10 ErrMin= 7.56D-07
 ErrMax= 7.56D-07  0.00D+00 EMaxC= 1.00D-01 BMatC= 1.11D-11 BMatP= 9.84D-11
 IDIUse=1 WtCom= 1.00D+00 WtEn= 0.00D+00
 Coeff-Com:  0.604D-04-0.420D-03 0.155D-02-0.810D-03-0.141D-01-0.140D-02
 Coeff-Com:  0.785D-01-0.139D+00-0.269D+00 0.134D+01
 Coeff:      0.604D-04-0.420D-03 0.155D-02-0.810D-03-0.141D-01-0.140D-02
 Coeff:      0.785D-01-0.139D+00-0.269D+00 0.134D+01
 Gap=     0.534 Goal=   None    Shift=    0.000
 RMSDP=2.02D-07 MaxDP=1.54D-06 DE=-4.37D-10 OVMax= 3.22D-06

 Cycle  11  Pass 1  IDiag  1:
 E= -226.393601803366     Delta-E=       -0.000000000043 Rises=F Damp=F
 DIIS: error= 2.94D-07 at cycle  11 NSaved=  11.
 NSaved=11 IEnMin=11 EnMin= -226.393601803366     IErMin=11 ErrMin= 2.94D-07
 ErrMax= 2.94D-07  0.00D+00 EMaxC= 1.00D-01 BMatC= 1.42D-12 BMatP= 1.11D-11
 IDIUse=1 WtCom= 1.00D+00 WtEn= 0.00D+00
 Coeff-Com:  0.766D-04-0.449D-03 0.125D-02-0.266D-04-0.959D-02-0.109D-01
 Coeff-Com:  0.496D-01-0.127D-01-0.180D+00 0.281D-01 0.113D+01
 Coeff:      0.766D-04-0.449D-03 0.125D-02-0.266D-04-0.959D-02-0.109D-01
 Coeff:      0.496D-01-0.127D-01-0.180D+00 0.281D-01 0.113D+01
 Gap=     0.534 Goal=   None    Shift=    0.000
 RMSDP=6.52D-08 MaxDP=5.35D-07 DE=-4.30D-11 OVMax= 1.17D-06

 Cycle  12  Pass 1  IDiag  1:
 E= -226.393601803370     Delta-E=       -0.000000000005 Rises=F Damp=F
 DIIS: error= 7.70D-08 at cycle  12 NSaved=  12.
 NSaved=12 IEnMin=12 EnMin= -226.393601803370     IErMin=12 ErrMin= 7.70D-08
 ErrMax= 7.70D-08  0.00D+00 EMaxC= 1.00D-01 BMatC= 1.03D-13 BMatP= 1.42D-12
 IDIUse=1 WtCom= 1.00D+00 WtEn= 0.00D+00
 Coeff-Com: -0.256D-04 0.153D-03-0.460D-03 0.116D-03 0.362D-02 0.213D-02
 Coeff-Com: -0.187D-01 0.167D-01 0.677D-01-0.147D+00-0.236D+00 0.131D+01
 Coeff:     -0.256D-04 0.153D-03-0.460D-03 0.116D-03 0.362D-02 0.213D-02
 Coeff:     -0.187D-01 0.167D-01 0.677D-01-0.147D+00-0.236D+00 0.131D+01
 Gap=     0.534 Goal=   None    Shift=    0.000
 RMSDP=1.98D-08 MaxDP=1.53D-07 DE=-4.77D-12 OVMax= 3.13D-07

 Cycle  13  Pass 1  IDiag  1:
 E= -226.393601803371     Delta-E=       -0.000000000001 Rises=F Damp=F
 DIIS: error= 1.11D-08 at cycle  13 NSaved=  13.
 NSaved=13 IEnMin=13 EnMin= -226.393601803371     IErMin=13 ErrMin= 1.11D-08
 ErrMax= 1.11D-08  0.00D+00 EMaxC= 1.00D-01 BMatC= 3.85D-15 BMatP= 1.03D-13
 IDIUse=1 WtCom= 1.00D+00 WtEn= 0.00D+00
 Coeff-Com:  0.541D-05-0.330D-04 0.103D-03-0.363D-04-0.832D-03-0.360D-03
 Coeff-Com:  0.444D-02-0.569D-02-0.147D-01 0.473D-01 0.309D-01-0.440D+00
 Coeff-Com:  0.138D+01
 Coeff:      0.541D-05-0.330D-04 0.103D-03-0.363D-04-0.832D-03-0.360D-03
 Coeff:      0.444D-02-0.569D-02-0.147D-01 0.473D-01 0.309D-01-0.440D+00
 Coeff:      0.138D+01
 Gap=     0.534 Goal=   None    Shift=    0.000
 RMSDP=4.22D-09 MaxDP=2.96D-08 DE=-8.53D-13 OVMax= 6.26D-08

 SCF Done:  E(RHF) =  -226.393601803     A.U. after   13 cycles
            NFock= 13  Conv=0.42D-08     -V/T= 2.0034
 KE= 2.256177101797D+02 PE=-7.698180107813D+02 EE= 1.996580777584D+02
 Leave Link  502 at Fri Apr 12 17:09:58 2019, MaxMem=   134217728 cpu:         0.2
 (Enter /cm/shared/c3ddb/gaussian/09.d01/g09/l601.exe)
 Copying SCF densities to generalized density rwf, IOpCl= 0 IROHF=0.

 **********************************************************************

            Population analysis using the SCF density.

 **********************************************************************

 Alpha  occ. eigenvalues --  -20.52606 -20.51967 -11.23712 -11.16692  -1.46476
 Alpha  occ. eigenvalues --   -1.23241  -1.02842  -0.78842  -0.70906  -0.65350
 Alpha  occ. eigenvalues --   -0.64419  -0.59775  -0.54242  -0.50900  -0.45658
 Alpha  occ. eigenvalues --   -0.36578
 Alpha virt. eigenvalues --    0.16783   0.25922   0.29273   0.30581   0.32921
 Alpha virt. eigenvalues --    0.37240   0.50283   0.57674   0.89114   0.97651
 Alpha virt. eigenvalues --    0.99670   1.07270   1.10685   1.12458   1.23963
 Alpha virt. eigenvalues --    1.32868   1.37487   1.57505   1.60856   1.73000
 Alpha virt. eigenvalues --    1.83062   1.91950   1.97360   2.01849   2.06337
 Alpha virt. eigenvalues --    2.29852   3.07282   3.49921
          Condensed to atoms (all electrons):
               1          2          3          4          5          6
     1  C    4.895642   0.466007   0.392355  -0.041264  -0.051623   0.237020
     2  C    0.466007   5.352670  -0.060032   0.375512   0.392446  -0.057512
     3  H    0.392355  -0.060032   0.453647   0.000376   0.001808  -0.035977
     4  H   -0.041264   0.375512   0.000376   0.456981  -0.015804   0.001390
     5  H   -0.051623   0.392446   0.001808  -0.015804   0.422416  -0.003813
     6  O    0.237020  -0.057512  -0.035977   0.001390  -0.003813   8.186660
     7  O   -0.043999   0.001373   0.001444   0.000066   0.004087   0.117605
     8  H    0.002837  -0.000028  -0.000093  -0.000003  -0.000131  -0.021648
               7          8
     1  C   -0.043999   0.002837
     2  C    0.001373  -0.000028
     3  H    0.001444  -0.000093
     4  H    0.000066  -0.000003
     5  H    0.004087  -0.000131
     6  O    0.117605  -0.021648
     7  O    8.063138   0.243244
     8  H    0.243244   0.357559
 Mulliken charges:
               1
     1  C    0.143026
     2  C   -0.470436
     3  H    0.246470
     4  H    0.222745
     5  H    0.250614
     6  O   -0.423724
     7  O   -0.386959
     8  H    0.418264
 Sum of Mulliken charges =   0.00000
 Mulliken charges with hydrogens summed into heavy atoms:
               1
     1  C    0.389496
     2  C    0.002923
     6  O   -0.423724
     7  O    0.031306
 Electronic spatial extent (au):  <R**2>=            281.0478
 Charge=              0.0000 electrons
 Dipole moment (field-independent basis, Debye):
    X=             -0.1014    Y=              0.2815    Z=              0.2483  Tot=              0.3888
 Quadrupole moment (field-independent basis, Debye-Ang):
   XX=            -15.9918   YY=            -22.4865   ZZ=            -25.7028
   XY=              0.5253   XZ=             -2.0663   YZ=              0.9056
 Traceless Quadrupole moment (field-independent basis, Debye-Ang):
   XX=              5.4019   YY=             -1.0928   ZZ=             -4.3091
   XY=              0.5253   XZ=             -2.0663   YZ=              0.9056
 Octapole moment (field-independent basis, Debye-Ang**2):
  XXX=            -22.4016  YYY=             -6.8825  ZZZ=            -18.7307  XYY=              0.1248
  XXY=             -1.6581  XXZ=              0.9765  XZZ=             -7.3612  YZZ=             -1.5378
  YYZ=             -6.2582  XYZ=             -0.6661
 Hexadecapole moment (field-independent basis, Debye-Ang**3):
 XXXX=           -147.4578 YYYY=            -69.5427 ZZZZ=            -57.0230 XXXY=              6.4471
 XXXZ=              4.2604 YYYX=             12.3781 YYYZ=              2.6630 ZZZX=             20.5348
 ZZZY=              2.6142 XXYY=            -45.5862 XXZZ=            -39.7791 YYZZ=            -22.3127
 XXYZ=              2.1691 YYXZ=              7.5130 ZZXY=              2.9899
 N-N= 1.181486210398D+02 E-N=-7.698180109312D+02  KE= 2.256177101797D+02
 No NMR shielding tensors so no spin-rotation constants.
 Leave Link  601 at Fri Apr 12 17:09:58 2019, MaxMem=   134217728 cpu:         0.1
 (Enter /cm/shared/c3ddb/gaussian/09.d01/g09/l701.exe)
 Compute integral first derivatives.
 ... and contract with generalized density number  0.
 Leave Link  701 at Fri Apr 12 17:09:58 2019, MaxMem=   134217728 cpu:         0.2
 (Enter /cm/shared/c3ddb/gaussian/09.d01/g09/l702.exe)
 L702 exits ... SP integral derivatives will be done elsewhere.
 Leave Link  702 at Fri Apr 12 17:09:59 2019, MaxMem=   134217728 cpu:         0.0
 (Enter /cm/shared/c3ddb/gaussian/09.d01/g09/l703.exe)
 Compute integral first derivatives, UseDBF=F ICtDFT=           0.
 Integral derivatives from FoFJK, PRISM(SPDF).
 Calling FoFJK, ICntrl=      2127 FMM=F ISym2X=0 I1Cent= 0 IOpClX= 0 NMat=1 NMatS=1 NMatT=0.
 FoFJK:  IHMeth= 1 ICntrl=    2127 DoSepK=F KAlg= 0 I1Cent=   0 FoldK=F
 IRaf=         0 NMat=   1 IRICut=       1 DoRegI=T DoRafI=F ISym2E= 0.
 FoFCou: FMM=F IPFlag=           0 FMFlag=      100000 FMFlg1=         800
         NFxFlg=           0 DoJE=F BraDBF=F KetDBF=F FulRan=T
         wScrn=  0.000000 ICntrl=    2127 IOpCl=  0 I1Cent=           0 NGrid=           0
         NMat0=    1 NMatS0=      1 NMatT0=    0 NMatD0=    1 NMtDS0=    0 NMtDT0=    0
 Symmetry not used in FoFCou.
 Leave Link  703 at Fri Apr 12 17:09:59 2019, MaxMem=   134217728 cpu:         0.2
 (Enter /cm/shared/c3ddb/gaussian/09.d01/g09/l716.exe)
 Dipole        =-3.98932146D-02 1.10731734D-01 9.76754041D-02
 -------------------------------------------------------------------
 Center     Atomic                   Forces (Hartrees/Bohr)
 Number     Number              X              Y              Z
 -------------------------------------------------------------------
      1        6          -0.000267884   -0.000457169   -0.005432236
      2        6          -0.000086566   -0.000437032    0.003026335
      3        1          -0.000122882   -0.000055612    0.000081412
      4        1          -0.000019071   -0.000009496   -0.000021729
      5        1           0.000015402    0.000044042    0.000099460
      6        8           0.000097606    0.002871248    0.003872365
      7        8           0.000428605   -0.001785474   -0.000996746
      8        1          -0.000045211   -0.000170506   -0.000628862
 -------------------------------------------------------------------
 Cartesian Forces:  Max     0.005432236 RMS     0.001673637
 Leave Link  716 at Fri Apr 12 17:09:59 2019, MaxMem=   134217728 cpu:         0.1
 (Enter /cm/shared/c3ddb/gaussian/09.d01/g09/l103.exe)

 GradGradGradGradGradGradGradGradGradGradGradGradGradGradGradGradGradGrad
 Berny optimization.
 FormGI is forming the generalized inverse of G from B-inverse, IUseBI=4.
 Internal  Forces:  Max     0.004115058 RMS     0.001147016
 Search for a local minimum.
 Step number   1 out of a maximum of   32
 All quantities printed in internal units (Hartrees-Bohrs-Radians)
 RMS Force = .26604D-03 SwitMx=.10000D-02 MixMth= 2
 Mixed Optimization -- En-DIIS/RFO-DIIS
 Second derivative matrix not updated -- first step.
 ITU=  0
     Eigenvalues ---    0.02585   0.03307   0.03311   0.15981   0.16000
     Eigenvalues ---    0.16000   0.16000   0.22005   0.25000   0.35422
     Eigenvalues ---    0.37150   0.37176   0.37227   0.45093   0.52880
     Eigenvalues ---    0.650411000.000001000.000001000.000001000.00000
     Eigenvalues --- 1000.000001000.00000
 RFO step:  Lambda=-6.32478271D-06 EMin= 2.58546406D-02
 Linear search not attempted -- first point.
 Iteration  1 RMS(Cart)=  0.00273867 RMS(Int)=  0.00000270
 Iteration  2 RMS(Cart)=  0.00000295 RMS(Int)=  0.00000021
 Iteration  3 RMS(Cart)=  0.00000000 RMS(Int)=  0.00000021
 Iteration  1 RMS(Cart)=  0.00000003 RMS(Int)=  0.00000002
 ITry= 1 IFail=0 DXMaxC= 6.96D-03 DCOld= 1.00D+10 DXMaxT= 3.00D-01 DXLimC= 3.00D+00 Rises=F
 Variable       Old X    -DE/DX   Delta X   Delta X   Delta X     New X
                                 (Linear)    (Quad)   (Total)
    R1        2.47161   0.00011   0.00000   0.00017   0.00017   2.47177
    R2        2.02282  -0.00010   0.00000  -0.00027  -0.00027   2.02255
    R3        2.65167  -0.00047   0.00000  -0.00104  -0.00104   2.65064
    R4        2.02320  -0.00002   0.00000  -0.00005  -0.00005   2.02315
    R5        2.02205  -0.00005   0.00000  -0.00013  -0.00013   2.02192
    R6        2.78295   0.00005   0.00000   0.00015   0.00015   2.78310
    R7        1.83766   0.00000   0.00000   0.00000   0.00000   1.83766
    A1        2.16731   0.00025   0.00000   0.00072   0.00072   2.16803
    A2        2.17348  -0.00003   0.00000  -0.00025  -0.00025   2.17323
    A3        1.94036  -0.00010   0.00000  -0.00043  -0.00043   1.93993
    A4        2.09939   0.00002   0.00000   0.00012   0.00012   2.09951
    A5        2.11933  -0.00003   0.00000  -0.00017  -0.00018   2.11916
    A6        2.06381   0.00000   0.00000  -0.00002  -0.00002   2.06379
    A7        1.88652  -0.00092   0.00000  -0.00368  -0.00368   1.88284
    A8        1.72615  -0.00053   0.00000  -0.00334  -0.00334   1.72281
    D1        0.03603  -0.00105   0.00000  -0.00093  -0.00093   0.03509
    D2        3.13790  -0.00111   0.00000  -0.00292  -0.00292   3.13498
    D3        3.10298   0.00101   0.00000  -0.00018  -0.00018   3.10280
    D4       -0.07833   0.00094   0.00000  -0.00217  -0.00217  -0.08050
    D5        0.87266  -0.00412   0.00000   0.00000   0.00000   0.87266
    D6       -2.33514  -0.00228   0.00000   0.00071   0.00071  -2.33442
    D7        2.96706   0.00106   0.00000   0.00000   0.00000   2.96706
         Item               Value     Threshold  Converged?
 Maximum Force            0.000920     0.000015     NO 
 RMS     Force            0.000266     0.000010     NO 
 Maximum Displacement     0.006964     0.000060     NO 
 RMS     Displacement     0.002740     0.000040     NO 
 Predicted change in Energy=-3.163019D-06
 Lowest energy point so far.  Saving SCF results.
 GradGradGradGradGradGradGradGradGradGradGradGradGradGradGradGradGradGrad

 Leave Link  103 at Fri Apr 12 17:09:59 2019, MaxMem=   134217728 cpu:         0.0
 (Enter /cm/shared/c3ddb/gaussian/09.d01/g09/l202.exe)
                          Input orientation:                          
 ---------------------------------------------------------------------
 Center     Atomic      Atomic             Coordinates (Angstroms)
 Number     Number       Type             X           Y           Z
 ---------------------------------------------------------------------
      1          6           0        0.731687    0.598495    0.056592
      2          6           0        1.392646   -0.527308   -0.024517
      3          1           0        1.190754    1.564605    0.094141
      4          1           0        2.463252   -0.526131   -0.025394
      5          1           0        0.887285   -1.469955   -0.053311
      6          8           0       -0.666555    0.703638    0.020431
      7          8           0       -1.217358   -0.254677    0.993700
      8          1           0       -2.144013    0.039996    0.982249
 ---------------------------------------------------------------------
                    Distance matrix (angstroms):
                    1          2          3          4          5
     1  C    0.000000
     2  C    1.308006   0.000000
     3  H    1.070290   2.104981   0.000000
     4  H    2.066355   1.070607   2.450453   0.000000
     5  H    2.077204   1.069954   3.053259   1.837186   0.000000
     6  O    1.402656   2.399492   2.048486   3.363053   2.672895
     7  O    2.324834   2.814821   3.149285   3.828724   2.646253
     8  H    3.072200   3.720668   3.772775   4.750024   3.541342
                    6          7          8
     6  O    0.000000
     7  O    1.472754   0.000000
     8  H    1.883718   0.972446   0.000000
 Symmetry turned off by external request.
 Stoichiometry    C2H4O2
 Framework group  C1[X(C2H4O2)]
 Deg. of freedom    18
 Full point group                 C1      NOp   1
 Rotational constants (GHZ):     19.9141316      6.1082351      4.9021694
 Leave Link  202 at Fri Apr 12 17:09:59 2019, MaxMem=   134217728 cpu:         0.0
 (Enter /cm/shared/c3ddb/gaussian/09.d01/g09/l301.exe)
 Standard basis: 3-21G (6D, 7F)
 Ernie: Thresh=  0.10000D-02 Tol=  0.10000D-05 Strict=F.
    44 basis functions,    72 primitive gaussians,    44 cartesian basis functions
    16 alpha electrons       16 beta electrons
       nuclear repulsion energy       118.2026592227 Hartrees.
 IExCor=    0 DFT=F Ex=HF Corr=None ExCW=0 ScaHFX=  1.000000
 ScaDFX=  1.000000  1.000000  1.000000  1.000000 ScalE2=  1.000000  1.000000
 IRadAn=      0 IRanWt=     -1 IRanGd=            0 ICorTp=0 IEmpDi=  4
 NAtoms=    8 NActive=    8 NUniq=    8 SFac= 1.00D+00 NAtFMM=   60 NAOKFM=F Big=F
 Integral buffers will be    131072 words long.
 Raffenetti 1 integral format.
 Two-electron integral symmetry is turned off.
 Leave Link  301 at Fri Apr 12 17:09:59 2019, MaxMem=   134217728 cpu:         0.1
 (Enter /cm/shared/c3ddb/gaussian/09.d01/g09/l302.exe)
 NPDir=0 NMtPBC=     1 NCelOv=     1 NCel=       1 NClECP=     1 NCelD=      1
         NCelK=      1 NCelE2=     1 NClLst=     1 CellRange=     0.0.
 One-electron integrals computed using PRISM.
 NBasis=    44 RedAO= T EigKep=  1.18D-02  NBF=    44
 NBsUse=    44 1.00D-06 EigRej= -1.00D+00 NBFU=    44
 Leave Link  302 at Fri Apr 12 17:09:59 2019, MaxMem=   134217728 cpu:         0.1
 (Enter /cm/shared/c3ddb/gaussian/09.d01/g09/l303.exe)
 DipDrv:  MaxL=1.
 Leave Link  303 at Fri Apr 12 17:09:59 2019, MaxMem=   134217728 cpu:         0.1
 (Enter /cm/shared/c3ddb/gaussian/09.d01/g09/l401.exe)
 Initial guess from the checkpoint file:  "TMP_CALCS/scangeom_S02_050_170.chk"
 B after Tr=     0.000591    0.000139   -0.000802
         Rot=    1.000000    0.000039   -0.000121   -0.000119 Ang=   0.02 deg.
 Guess basis will be translated and rotated to current coordinates.
 JPrj=2 DoOrth=T DoCkMO=T.
 Leave Link  401 at Fri Apr 12 17:10:00 2019, MaxMem=   134217728 cpu:         0.2
 (Enter /cm/shared/c3ddb/gaussian/09.d01/g09/l502.exe)
 Closed shell SCF:
 Using DIIS extrapolation, IDIIS=  1040.
 Two-electron integral symmetry not used.
 Keep R1 ints in memory in canonical form, NReq=1327405.
 IVT=       24902 IEndB=       24902 NGot=   134217728 MDV=   133702282
 LenX=   133702282 LenY=   133699905
 Requested convergence on RMS density matrix=1.00D-08 within 128 cycles.
 Requested convergence on MAX density matrix=1.00D-06.
 Requested convergence on             energy=1.00D-06.
 No special actions if energy rises.
 FoFCou: FMM=F IPFlag=           0 FMFlag=           0 FMFlg1=           0
         NFxFlg=           0 DoJE=F BraDBF=F KetDBF=F FulRan=T
         wScrn=  0.000000 ICntrl=     600 IOpCl=  0 I1Cent=           0 NGrid=           0
         NMat0=    1 NMatS0=    990 NMatT0=    0 NMatD0=    1 NMtDS0=    0 NMtDT0=    0
 Symmetry not used in FoFCou.

 Cycle   1  Pass 1  IDiag  1:
 E= -226.393599643539    
 DIIS: error= 1.67D-04 at cycle   1 NSaved=   1.
 NSaved= 1 IEnMin= 1 EnMin= -226.393599643539     IErMin= 1 ErrMin= 1.67D-04
 ErrMax= 1.67D-04  0.00D+00 EMaxC= 1.00D-01 BMatC= 2.40D-06 BMatP= 2.40D-06
 IDIUse=3 WtCom= 9.98D-01 WtEn= 1.67D-03
 Coeff-Com:  0.100D+01
 Coeff-En:   0.100D+01
 Coeff:      0.100D+01
 Gap=     0.975 Goal=   None    Shift=    0.000
 RMSDP=3.60D-05 MaxDP=2.71D-04              OVMax= 3.43D-04

 Cycle   2  Pass 1  IDiag  1:
 E= -226.393602352013     Delta-E=       -0.000002708474 Rises=F Damp=F
 DIIS: error= 7.53D-05 at cycle   2 NSaved=   2.
 NSaved= 2 IEnMin= 2 EnMin= -226.393602352013     IErMin= 2 ErrMin= 7.53D-05
 ErrMax= 7.53D-05  0.00D+00 EMaxC= 1.00D-01 BMatC= 1.40D-07 BMatP= 2.40D-06
 IDIUse=1 WtCom= 1.00D+00 WtEn= 0.00D+00
 Coeff-Com: -0.131D+00 0.113D+01
 Coeff:     -0.131D+00 0.113D+01
 Gap=     0.534 Goal=   None    Shift=    0.000
 RMSDP=1.32D-05 MaxDP=6.63D-05 DE=-2.71D-06 OVMax= 2.70D-04

 Cycle   3  Pass 1  IDiag  1:
 E= -226.393602729239     Delta-E=       -0.000000377226 Rises=F Damp=F
 DIIS: error= 3.18D-05 at cycle   3 NSaved=   3.
 NSaved= 3 IEnMin= 3 EnMin= -226.393602729239     IErMin= 3 ErrMin= 3.18D-05
 ErrMax= 3.18D-05  0.00D+00 EMaxC= 1.00D-01 BMatC= 2.39D-08 BMatP= 1.40D-07
 IDIUse=1 WtCom= 1.00D+00 WtEn= 0.00D+00
 Coeff-Com: -0.289D-01-0.489D-01 0.108D+01
 Coeff:     -0.289D-01-0.489D-01 0.108D+01
 Gap=     0.534 Goal=   None    Shift=    0.000
 RMSDP=5.49D-06 MaxDP=2.86D-05 DE=-3.77D-07 OVMax= 1.03D-04

 Cycle   4  Pass 1  IDiag  1:
 E= -226.393602785621     Delta-E=       -0.000000056382 Rises=F Damp=F
 DIIS: error= 1.21D-05 at cycle   4 NSaved=   4.
 NSaved= 4 IEnMin= 4 EnMin= -226.393602785621     IErMin= 4 ErrMin= 1.21D-05
 ErrMax= 1.21D-05  0.00D+00 EMaxC= 1.00D-01 BMatC= 6.80D-09 BMatP= 2.39D-08
 IDIUse=1 WtCom= 1.00D+00 WtEn= 0.00D+00
 Coeff-Com:  0.198D-01-0.257D+00 0.326D+00 0.911D+00
 Coeff:      0.198D-01-0.257D+00 0.326D+00 0.911D+00
 Gap=     0.534 Goal=   None    Shift=    0.000
 RMSDP=2.72D-06 MaxDP=2.11D-05 DE=-5.64D-08 OVMax= 5.81D-05

 Cycle   5  Pass 1  IDiag  1:
 E= -226.393602797805     Delta-E=       -0.000000012184 Rises=F Damp=F
 DIIS: error= 2.64D-06 at cycle   5 NSaved=   5.
 NSaved= 5 IEnMin= 5 EnMin= -226.393602797805     IErMin= 5 ErrMin= 2.64D-06
 ErrMax= 2.64D-06  0.00D+00 EMaxC= 1.00D-01 BMatC= 3.25D-10 BMatP= 6.80D-09
 IDIUse=1 WtCom= 1.00D+00 WtEn= 0.00D+00
 Coeff-Com:  0.230D-02 0.217D-02-0.762D-01 0.869D-02 0.106D+01
 Coeff:      0.230D-02 0.217D-02-0.762D-01 0.869D-02 0.106D+01
 Gap=     0.534 Goal=   None    Shift=    0.000
 RMSDP=7.14D-07 MaxDP=5.03D-06 DE=-1.22D-08 OVMax= 1.08D-05

 Cycle   6  Pass 1  IDiag  1:
 E= -226.393602798598     Delta-E=       -0.000000000793 Rises=F Damp=F
 DIIS: error= 1.64D-06 at cycle   6 NSaved=   6.
 NSaved= 6 IEnMin= 6 EnMin= -226.393602798598     IErMin= 6 ErrMin= 1.64D-06
 ErrMax= 1.64D-06  0.00D+00 EMaxC= 1.00D-01 BMatC= 5.69D-11 BMatP= 3.25D-10
 IDIUse=1 WtCom= 1.00D+00 WtEn= 0.00D+00
 Coeff-Com: -0.226D-02 0.362D-01-0.580D-01-0.125D+00 0.171D+00 0.978D+00
 Coeff:     -0.226D-02 0.362D-01-0.580D-01-0.125D+00 0.171D+00 0.978D+00
 Gap=     0.534 Goal=   None    Shift=    0.000
 RMSDP=3.23D-07 MaxDP=2.25D-06 DE=-7.93D-10 OVMax= 6.23D-06

 Cycle   7  Pass 1  IDiag  1:
 E= -226.393602798751     Delta-E=       -0.000000000153 Rises=F Damp=F
 DIIS: error= 9.86D-07 at cycle   7 NSaved=   7.
 NSaved= 7 IEnMin= 7 EnMin= -226.393602798751     IErMin= 7 ErrMin= 9.86D-07
 ErrMax= 9.86D-07  0.00D+00 EMaxC= 1.00D-01 BMatC= 8.28D-12 BMatP= 5.69D-11
 IDIUse=1 WtCom= 1.00D+00 WtEn= 0.00D+00
 Coeff-Com:  0.718D-03-0.161D-01 0.337D-01 0.538D-01-0.186D+00-0.461D+00
 Coeff-Com:  0.157D+01
 Coeff:      0.718D-03-0.161D-01 0.337D-01 0.538D-01-0.186D+00-0.461D+00
 Coeff:      0.157D+01
 Gap=     0.534 Goal=   None    Shift=    0.000
 RMSDP=2.26D-07 MaxDP=1.68D-06 DE=-1.53D-10 OVMax= 4.89D-06

 Cycle   8  Pass 1  IDiag  1:
 E= -226.393602798798     Delta-E=       -0.000000000047 Rises=F Damp=F
 DIIS: error= 4.04D-07 at cycle   8 NSaved=   8.
 NSaved= 8 IEnMin= 8 EnMin= -226.393602798798     IErMin= 8 ErrMin= 4.04D-07
 ErrMax= 4.04D-07  0.00D+00 EMaxC= 1.00D-01 BMatC= 1.64D-12 BMatP= 8.28D-12
 IDIUse=1 WtCom= 1.00D+00 WtEn= 0.00D+00
 Coeff-Com:  0.238D-03-0.312D-02 0.330D-02 0.120D-01 0.491D-02-0.958D-01
 Coeff-Com: -0.229D+00 0.131D+01
 Coeff:      0.238D-03-0.312D-02 0.330D-02 0.120D-01 0.491D-02-0.958D-01
 Coeff:     -0.229D+00 0.131D+01
 Gap=     0.534 Goal=   None    Shift=    0.000
 RMSDP=1.02D-07 MaxDP=7.87D-07 DE=-4.72D-11 OVMax= 2.33D-06

 Cycle   9  Pass 1  IDiag  1:
 E= -226.393602798806     Delta-E=       -0.000000000008 Rises=F Damp=F
 DIIS: error= 1.52D-07 at cycle   9 NSaved=   9.
 NSaved= 9 IEnMin= 9 EnMin= -226.393602798806     IErMin= 9 ErrMin= 1.52D-07
 ErrMax= 1.52D-07  0.00D+00 EMaxC= 1.00D-01 BMatC= 3.23D-13 BMatP= 1.64D-12
 IDIUse=1 WtCom= 1.00D+00 WtEn= 0.00D+00
 Coeff-Com: -0.185D-03 0.447D-02-0.968D-02-0.147D-01 0.557D-01 0.128D+00
 Coeff-Com: -0.474D+00 0.818D-01 0.123D+01
 Coeff:     -0.185D-03 0.447D-02-0.968D-02-0.147D-01 0.557D-01 0.128D+00
 Coeff:     -0.474D+00 0.818D-01 0.123D+01
 Gap=     0.534 Goal=   None    Shift=    0.000
 RMSDP=5.38D-08 MaxDP=4.16D-07 DE=-8.13D-12 OVMax= 1.20D-06

 Cycle  10  Pass 1  IDiag  1:
 E= -226.393602798808     Delta-E=       -0.000000000002 Rises=F Damp=F
 DIIS: error= 2.52D-08 at cycle  10 NSaved=  10.
 NSaved=10 IEnMin=10 EnMin= -226.393602798808     IErMin=10 ErrMin= 2.52D-08
 ErrMax= 2.52D-08  0.00D+00 EMaxC= 1.00D-01 BMatC= 1.98D-14 BMatP= 3.23D-13
 IDIUse=1 WtCom= 1.00D+00 WtEn= 0.00D+00
 Coeff-Com: -0.730D-05-0.449D-04 0.422D-03-0.655D-04-0.507D-02 0.315D-02
 Coeff-Com:  0.517D-01-0.134D+00-0.633D-01 0.115D+01
 Coeff:     -0.730D-05-0.449D-04 0.422D-03-0.655D-04-0.507D-02 0.315D-02
 Coeff:      0.517D-01-0.134D+00-0.633D-01 0.115D+01
 Gap=     0.534 Goal=   None    Shift=    0.000
 RMSDP=9.16D-09 MaxDP=6.99D-08 DE=-2.05D-12 OVMax= 1.92D-07

 SCF Done:  E(RHF) =  -226.393602799     A.U. after   10 cycles
            NFock= 10  Conv=0.92D-08     -V/T= 2.0034
 KE= 2.256208747880D+02 PE=-7.699265816261D+02 EE= 1.997094448167D+02
 Leave Link  502 at Fri Apr 12 17:10:00 2019, MaxMem=   134217728 cpu:         0.2
 (Enter /cm/shared/c3ddb/gaussian/09.d01/g09/l701.exe)
 Compute integral first derivatives.
 ... and contract with generalized density number  0.
 Leave Link  701 at Fri Apr 12 17:10:00 2019, MaxMem=   134217728 cpu:         0.2
 (Enter /cm/shared/c3ddb/gaussian/09.d01/g09/l702.exe)
 L702 exits ... SP integral derivatives will be done elsewhere.
 Leave Link  702 at Fri Apr 12 17:10:00 2019, MaxMem=   134217728 cpu:         0.1
 (Enter /cm/shared/c3ddb/gaussian/09.d01/g09/l703.exe)
 Compute integral first derivatives, UseDBF=F ICtDFT=           0.
 Integral derivatives from FoFJK, PRISM(SPDF).
 Calling FoFJK, ICntrl=      2127 FMM=F ISym2X=0 I1Cent= 0 IOpClX= 0 NMat=1 NMatS=1 NMatT=0.
 FoFJK:  IHMeth= 1 ICntrl=    2127 DoSepK=F KAlg= 0 I1Cent=   0 FoldK=F
 IRaf=         0 NMat=   1 IRICut=       1 DoRegI=T DoRafI=F ISym2E= 0.
 FoFCou: FMM=F IPFlag=           0 FMFlag=      100000 FMFlg1=         800
         NFxFlg=           0 DoJE=F BraDBF=F KetDBF=F FulRan=T
         wScrn=  0.000000 ICntrl=    2127 IOpCl=  0 I1Cent=           0 NGrid=           0
         NMat0=    1 NMatS0=      1 NMatT0=    0 NMatD0=    1 NMtDS0=    0 NMtDT0=    0
 Symmetry not used in FoFCou.
 Leave Link  703 at Fri Apr 12 17:10:01 2019, MaxMem=   134217728 cpu:         0.2
 (Enter /cm/shared/c3ddb/gaussian/09.d01/g09/l716.exe)
 Dipole        =-4.09264997D-02 1.10378460D-01 9.91208813D-02
 -------------------------------------------------------------------
 Center     Atomic                   Forces (Hartrees/Bohr)
 Number     Number              X              Y              Z
 -------------------------------------------------------------------
      1        6           0.000261634   -0.000272938   -0.005797044
      2        6          -0.000068945   -0.000267898    0.003167084
      3        1           0.000084846   -0.000012490   -0.000015131
      4        1          -0.000000650    0.000005310    0.000003654
      5        1           0.000001818    0.000010026   -0.000034976
      6        8           0.000330994    0.002439045    0.004203911
      7        8          -0.000388995   -0.001335922   -0.001266854
      8        1          -0.000220701   -0.000565133   -0.000260645
 -------------------------------------------------------------------
 Cartesian Forces:  Max     0.005797044 RMS     0.001726906
 Leave Link  716 at Fri Apr 12 17:10:01 2019, MaxMem=   134217728 cpu:         0.0
 (Enter /cm/shared/c3ddb/gaussian/09.d01/g09/l103.exe)

 GradGradGradGradGradGradGradGradGradGradGradGradGradGradGradGradGradGrad
 Berny optimization.
 Using GEDIIS/GDIIS optimizer.
 FormGI is forming the generalized inverse of G from B-inverse, IUseBI=4.
 Internal  Forces:  Max     0.004088564 RMS     0.001131250
 Search for a local minimum.
 Step number   2 out of a maximum of   32
 All quantities printed in internal units (Hartrees-Bohrs-Radians)
 RMS Force = .21241D-03 SwitMx=.10000D-02 MixMth= 2
 Mixed Optimization -- En-DIIS/RFO-DIIS
 Swapping is turned off.
 Update second derivatives using D2CorX and points    1    2
 DE= -9.95D-07 DEPred=-3.16D-06 R= 3.15D-01
 Trust test= 3.15D-01 RLast= 6.43D-03 DXMaxT set to 3.00D-01
 ITU=  0  0
     Eigenvalues ---    0.02577   0.03293   0.03314   0.15982   0.15994
     Eigenvalues ---    0.16000   0.18262   0.22009   0.29010   0.37054
     Eigenvalues ---    0.37151   0.37219   0.40279   0.50861   0.53109
     Eigenvalues ---    0.650091000.000001000.000001000.000001000.00000
     Eigenvalues --- 1000.000001000.00000
 En-DIIS/RFO-DIIS IScMMF=        0 using points:     2    1
 RFO step:  Lambda=-2.22150830D-06.
 NNeg= 0 NP= 2 Switch=  2.50D-03 Rises=F DC=  9.95D-07 SmlDif=  1.00D-05
 RMS Error=  0.3104627567D-03 NUsed= 2 EDIIS=F
 DidBck=T Rises=F RFO-DIIS coefs:    0.59287    0.40713
 Iteration  1 RMS(Cart)=  0.00101586 RMS(Int)=  0.00000067
 Iteration  2 RMS(Cart)=  0.00000032 RMS(Int)=  0.00000056
 Iteration  1 RMS(Cart)=  0.00000033 RMS(Int)=  0.00000019
 ITry= 1 IFail=0 DXMaxC= 2.86D-03 DCOld= 1.00D+10 DXMaxT= 3.00D-01 DXLimC= 3.00D+00 Rises=F
 Variable       Old X    -DE/DX   Delta X   Delta X   Delta X     New X
                                 (Linear)    (Quad)   (Total)
    R1        2.47177  -0.00001  -0.00007   0.00007   0.00000   2.47177
    R2        2.02255   0.00002   0.00011  -0.00008   0.00003   2.02258
    R3        2.65064   0.00025   0.00042  -0.00015   0.00027   2.65091
    R4        2.02315   0.00000   0.00002  -0.00002   0.00000   2.02315
    R5        2.02192  -0.00001   0.00005  -0.00007  -0.00002   2.02190
    R6        2.78310   0.00046  -0.00006   0.00083   0.00077   2.78387
    R7        1.83766   0.00004   0.00000   0.00005   0.00005   1.83770
    A1        2.16803   0.00003  -0.00029  -0.00001  -0.00030   2.16773
    A2        2.17323   0.00005   0.00010  -0.00004   0.00006   2.17329
    A3        1.93993   0.00003   0.00018   0.00008   0.00025   1.94018
    A4        2.09951  -0.00001  -0.00005   0.00004  -0.00001   2.09950
    A5        2.11916   0.00000   0.00007  -0.00007   0.00000   2.11916
    A6        2.06379   0.00000   0.00001   0.00002   0.00002   2.06381
    A7        1.88284   0.00060   0.00150  -0.00027   0.00123   1.88407
    A8        1.72281   0.00051   0.00136   0.00034   0.00170   1.72451
    D1        0.03509  -0.00101   0.00038  -0.00045  -0.00007   0.03503
    D2        3.13498  -0.00099   0.00119  -0.00087   0.00032   3.13530
    D3        3.10280   0.00102   0.00007   0.00004   0.00011   3.10292
    D4       -0.08050   0.00105   0.00088  -0.00038   0.00050  -0.07999
    D5        0.87266  -0.00409   0.00000   0.00000   0.00000   0.87266
    D6       -2.33442  -0.00229  -0.00029   0.00043   0.00014  -2.33428
    D7        2.96706   0.00109   0.00000   0.00000   0.00000   2.96706
         Item               Value     Threshold  Converged?
 Maximum Force            0.000598     0.000015     NO 
 RMS     Force            0.000212     0.000010     NO 
 Maximum Displacement     0.002858     0.000060     NO 
 RMS     Displacement     0.001016     0.000040     NO 
 Predicted change in Energy=-1.050362D-06
 Lowest energy point so far.  Saving SCF results.
 GradGradGradGradGradGradGradGradGradGradGradGradGradGradGradGradGradGrad

 Leave Link  103 at Fri Apr 12 17:10:01 2019, MaxMem=   134217728 cpu:         0.0
 (Enter /cm/shared/c3ddb/gaussian/09.d01/g09/l202.exe)
                          Input orientation:                          
 ---------------------------------------------------------------------
 Center     Atomic      Atomic             Coordinates (Angstroms)
 Number     Number       Type             X           Y           Z
 ---------------------------------------------------------------------
      1          6           0        0.732086    0.598449    0.056449
      2          6           0        1.393158   -0.527292   -0.024593
      3          1           0        1.191354    1.564482    0.093896
      4          1           0        2.463761   -0.525987   -0.025562
      5          1           0        0.887892   -1.469971   -0.053597
      6          8           0       -0.666314    0.703521    0.020532
      7          8           0       -1.218712   -0.254405    0.993897
      8          1           0       -2.145525    0.039869    0.982868
 ---------------------------------------------------------------------
                    Distance matrix (angstroms):
                    1          2          3          4          5
     1  C    0.000000
     2  C    1.308005   0.000000
     3  H    1.070303   2.104824   0.000000
     4  H    2.066345   1.070605   2.450174   0.000000
     5  H    2.077197   1.069943   3.053154   1.837187   0.000000
     6  O    1.402802   2.399659   2.048796   3.363211   2.673035
     7  O    2.326324   2.816674   3.150678   3.830622   2.648136
     8  H    3.074233   3.722758   3.774848   4.752120   3.543373
                    6          7          8
     6  O    0.000000
     7  O    1.473162   0.000000
     8  H    1.885362   0.972471   0.000000
 Symmetry turned off by external request.
 Stoichiometry    C2H4O2
 Framework group  C1[X(C2H4O2)]
 Deg. of freedom    18
 Full point group                 C1      NOp   1
 Rotational constants (GHZ):     19.9217979      6.1015709      4.8981804
 Leave Link  202 at Fri Apr 12 17:10:01 2019, MaxMem=   134217728 cpu:         0.0
 (Enter /cm/shared/c3ddb/gaussian/09.d01/g09/l301.exe)
 Standard basis: 3-21G (6D, 7F)
 Ernie: Thresh=  0.10000D-02 Tol=  0.10000D-05 Strict=F.
    44 basis functions,    72 primitive gaussians,    44 cartesian basis functions
    16 alpha electrons       16 beta electrons
       nuclear repulsion energy       118.1747350744 Hartrees.
 IExCor=    0 DFT=F Ex=HF Corr=None ExCW=0 ScaHFX=  1.000000
 ScaDFX=  1.000000  1.000000  1.000000  1.000000 ScalE2=  1.000000  1.000000
 IRadAn=      0 IRanWt=     -1 IRanGd=            0 ICorTp=0 IEmpDi=  4
 NAtoms=    8 NActive=    8 NUniq=    8 SFac= 1.00D+00 NAtFMM=   60 NAOKFM=F Big=F
 Integral buffers will be    131072 words long.
 Raffenetti 1 integral format.
 Two-electron integral symmetry is turned off.
 Leave Link  301 at Fri Apr 12 17:10:01 2019, MaxMem=   134217728 cpu:         0.1
 (Enter /cm/shared/c3ddb/gaussian/09.d01/g09/l302.exe)
 NPDir=0 NMtPBC=     1 NCelOv=     1 NCel=       1 NClECP=     1 NCelD=      1
         NCelK=      1 NCelE2=     1 NClLst=     1 CellRange=     0.0.
 One-electron integrals computed using PRISM.
 NBasis=    44 RedAO= T EigKep=  1.19D-02  NBF=    44
 NBsUse=    44 1.00D-06 EigRej= -1.00D+00 NBFU=    44
 Leave Link  302 at Fri Apr 12 17:10:01 2019, MaxMem=   134217728 cpu:         0.2
 (Enter /cm/shared/c3ddb/gaussian/09.d01/g09/l303.exe)
 DipDrv:  MaxL=1.
 Leave Link  303 at Fri Apr 12 17:10:01 2019, MaxMem=   134217728 cpu:         0.1
 (Enter /cm/shared/c3ddb/gaussian/09.d01/g09/l401.exe)
 Initial guess from the checkpoint file:  "TMP_CALCS/scangeom_S02_050_170.chk"
 B after Tr=    -0.000157    0.000047    0.000061
         Rot=    1.000000    0.000007    0.000050    0.000047 Ang=   0.01 deg.
 Guess basis will be translated and rotated to current coordinates.
 JPrj=2 DoOrth=T DoCkMO=T.
 Leave Link  401 at Fri Apr 12 17:10:02 2019, MaxMem=   134217728 cpu:         0.2
 (Enter /cm/shared/c3ddb/gaussian/09.d01/g09/l502.exe)
 Closed shell SCF:
 Using DIIS extrapolation, IDIIS=  1040.
 Two-electron integral symmetry not used.
 Keep R1 ints in memory in canonical form, NReq=1327405.
 IVT=       24902 IEndB=       24902 NGot=   134217728 MDV=   133702282
 LenX=   133702282 LenY=   133699905
 Requested convergence on RMS density matrix=1.00D-08 within 128 cycles.
 Requested convergence on MAX density matrix=1.00D-06.
 Requested convergence on             energy=1.00D-06.
 No special actions if energy rises.
 FoFCou: FMM=F IPFlag=           0 FMFlag=           0 FMFlg1=           0
         NFxFlg=           0 DoJE=F BraDBF=F KetDBF=F FulRan=T
         wScrn=  0.000000 ICntrl=     600 IOpCl=  0 I1Cent=           0 NGrid=           0
         NMat0=    1 NMatS0=    990 NMatT0=    0 NMatD0=    1 NMtDS0=    0 NMtDT0=    0
 Symmetry not used in FoFCou.

 Cycle   1  Pass 1  IDiag  1:
 E= -226.393603494880    
 DIIS: error= 6.71D-05 at cycle   1 NSaved=   1.
 NSaved= 1 IEnMin= 1 EnMin= -226.393603494880     IErMin= 1 ErrMin= 6.71D-05
 ErrMax= 6.71D-05  0.00D+00 EMaxC= 1.00D-01 BMatC= 3.40D-07 BMatP= 3.40D-07
 IDIUse=1 WtCom= 1.00D+00 WtEn= 0.00D+00
 Coeff-Com:  0.100D+01
 Coeff:      0.100D+01
 Gap=     0.975 Goal=   None    Shift=    0.000
 RMSDP=1.37D-05 MaxDP=1.14D-04              OVMax= 1.00D-04

 Cycle   2  Pass 1  IDiag  1:
 E= -226.393603766820     Delta-E=       -0.000000271940 Rises=F Damp=F
 DIIS: error= 1.75D-05 at cycle   2 NSaved=   2.
 NSaved= 2 IEnMin= 2 EnMin= -226.393603766820     IErMin= 2 ErrMin= 1.75D-05
 ErrMax= 1.75D-05  0.00D+00 EMaxC= 1.00D-01 BMatC= 1.42D-08 BMatP= 3.40D-07
 IDIUse=1 WtCom= 1.00D+00 WtEn= 0.00D+00
 Coeff-Com: -0.724D-01 0.107D+01
 Coeff:     -0.724D-01 0.107D+01
 Gap=     0.534 Goal=   None    Shift=    0.000
 RMSDP=4.17D-06 MaxDP=2.52D-05 DE=-2.72D-07 OVMax= 7.40D-05

 Cycle   3  Pass 1  IDiag  1:
 E= -226.393603798934     Delta-E=       -0.000000032114 Rises=F Damp=F
 DIIS: error= 8.71D-06 at cycle   3 NSaved=   3.
 NSaved= 3 IEnMin= 3 EnMin= -226.393603798934     IErMin= 3 ErrMin= 8.71D-06
 ErrMax= 8.71D-06  0.00D+00 EMaxC= 1.00D-01 BMatC= 2.98D-09 BMatP= 1.42D-08
 IDIUse=1 WtCom= 1.00D+00 WtEn= 0.00D+00
 Coeff-Com: -0.357D-01 0.133D+00 0.903D+00
 Coeff:     -0.357D-01 0.133D+00 0.903D+00
 Gap=     0.534 Goal=   None    Shift=    0.000
 RMSDP=1.63D-06 MaxDP=1.02D-05 DE=-3.21D-08 OVMax= 2.52D-05

 Cycle   4  Pass 1  IDiag  1:
 E= -226.393603804574     Delta-E=       -0.000000005639 Rises=F Damp=F
 DIIS: error= 4.19D-06 at cycle   4 NSaved=   4.
 NSaved= 4 IEnMin= 4 EnMin= -226.393603804574     IErMin= 4 ErrMin= 4.19D-06
 ErrMax= 4.19D-06  0.00D+00 EMaxC= 1.00D-01 BMatC= 6.88D-10 BMatP= 2.98D-09
 IDIUse=1 WtCom= 1.00D+00 WtEn= 0.00D+00
 Coeff-Com:  0.123D-01-0.226D+00 0.941D-01 0.112D+01
 Coeff:      0.123D-01-0.226D+00 0.941D-01 0.112D+01
 Gap=     0.534 Goal=   None    Shift=    0.000
 RMSDP=1.16D-06 MaxDP=9.45D-06 DE=-5.64D-09 OVMax= 2.19D-05

 Cycle   5  Pass 1  IDiag  1:
 E= -226.393603806383     Delta-E=       -0.000000001810 Rises=F Damp=F
 DIIS: error= 1.37D-06 at cycle   5 NSaved=   5.
 NSaved= 5 IEnMin= 5 EnMin= -226.393603806383     IErMin= 5 ErrMin= 1.37D-06
 ErrMax= 1.37D-06  0.00D+00 EMaxC= 1.00D-01 BMatC= 7.28D-11 BMatP= 6.88D-10
 IDIUse=1 WtCom= 1.00D+00 WtEn= 0.00D+00
 Coeff-Com:  0.556D-02-0.545D-01-0.638D-01 0.228D+00 0.885D+00
 Coeff:      0.556D-02-0.545D-01-0.638D-01 0.228D+00 0.885D+00
 Gap=     0.534 Goal=   None    Shift=    0.000
 RMSDP=2.96D-07 MaxDP=1.97D-06 DE=-1.81D-09 OVMax= 3.90D-06

 Cycle   6  Pass 1  IDiag  1:
 E= -226.393603806537     Delta-E=       -0.000000000154 Rises=F Damp=F
 DIIS: error= 9.28D-07 at cycle   6 NSaved=   6.
 NSaved= 6 IEnMin= 6 EnMin= -226.393603806537     IErMin= 6 ErrMin= 9.28D-07
 ErrMax= 9.28D-07  0.00D+00 EMaxC= 1.00D-01 BMatC= 1.14D-11 BMatP= 7.28D-11
 IDIUse=1 WtCom= 1.00D+00 WtEn= 0.00D+00
 Coeff-Com: -0.234D-02 0.435D-01-0.181D-01-0.208D+00-0.371D-01 0.122D+01
 Coeff:     -0.234D-02 0.435D-01-0.181D-01-0.208D+00-0.371D-01 0.122D+01
 Gap=     0.534 Goal=   None    Shift=    0.000
 RMSDP=2.04D-07 MaxDP=1.71D-06 DE=-1.54D-10 OVMax= 4.22D-06

 Cycle   7  Pass 1  IDiag  1:
 E= -226.393603806584     Delta-E=       -0.000000000046 Rises=F Damp=F
 DIIS: error= 4.67D-07 at cycle   7 NSaved=   7.
 NSaved= 7 IEnMin= 7 EnMin= -226.393603806584     IErMin= 7 ErrMin= 4.67D-07
 ErrMax= 4.67D-07  0.00D+00 EMaxC= 1.00D-01 BMatC= 1.89D-12 BMatP= 1.14D-11
 IDIUse=1 WtCom= 1.00D+00 WtEn= 0.00D+00
 Coeff-Com:  0.872D-03-0.227D-01 0.190D-01 0.115D+00-0.858D-01-0.818D+00
 Coeff-Com:  0.179D+01
 Coeff:      0.872D-03-0.227D-01 0.190D-01 0.115D+00-0.858D-01-0.818D+00
 Coeff:      0.179D+01
 Gap=     0.534 Goal=   None    Shift=    0.000
 RMSDP=1.27D-07 MaxDP=9.95D-07 DE=-4.63D-11 OVMax= 2.88D-06

 Cycle   8  Pass 1  IDiag  1:
 E= -226.393603806596     Delta-E=       -0.000000000012 Rises=F Damp=F
 DIIS: error= 1.43D-07 at cycle   8 NSaved=   8.
 NSaved= 8 IEnMin= 8 EnMin= -226.393603806596     IErMin= 8 ErrMin= 1.43D-07
 ErrMax= 1.43D-07  0.00D+00 EMaxC= 1.00D-01 BMatC= 2.30D-13 BMatP= 1.89D-12
 IDIUse=1 WtCom= 1.00D+00 WtEn= 0.00D+00
 Coeff-Com:  0.139D-03-0.131D-02-0.220D-02 0.604D-02 0.278D-01-0.157D-01
 Coeff-Com: -0.360D+00 0.135D+01
 Coeff:      0.139D-03-0.131D-02-0.220D-02 0.604D-02 0.278D-01-0.157D-01
 Coeff:     -0.360D+00 0.135D+01
 Gap=     0.534 Goal=   None    Shift=    0.000
 RMSDP=4.30D-08 MaxDP=3.38D-07 DE=-1.19D-11 OVMax= 9.79D-07

 Cycle   9  Pass 1  IDiag  1:
 E= -226.393603806597     Delta-E=       -0.000000000001 Rises=F Damp=F
 DIIS: error= 3.97D-08 at cycle   9 NSaved=   9.
 NSaved= 9 IEnMin= 9 EnMin= -226.393603806597     IErMin= 9 ErrMin= 3.97D-08
 ErrMax= 3.97D-08  0.00D+00 EMaxC= 1.00D-01 BMatC= 3.04D-14 BMatP= 2.30D-13
 IDIUse=1 WtCom= 1.00D+00 WtEn= 0.00D+00
 Coeff-Com: -0.167D-03 0.437D-02-0.331D-02-0.224D-01 0.150D-01 0.156D+00
 Coeff-Com: -0.312D+00-0.888D-01 0.125D+01
 Coeff:     -0.167D-03 0.437D-02-0.331D-02-0.224D-01 0.150D-01 0.156D+00
 Coeff:     -0.312D+00-0.888D-01 0.125D+01
 Gap=     0.534 Goal=   None    Shift=    0.000
 RMSDP=1.50D-08 MaxDP=1.08D-07 DE=-1.25D-12 OVMax= 3.14D-07

 Cycle  10  Pass 1  IDiag  1:
 E= -226.393603806597     Delta-E=        0.000000000000 Rises=F Damp=F
 DIIS: error= 1.20D-08 at cycle  10 NSaved=  10.
 NSaved=10 IEnMin=10 EnMin= -226.393603806597     IErMin=10 ErrMin= 1.20D-08
 ErrMax= 1.20D-08  0.00D+00 EMaxC= 1.00D-01 BMatC= 2.27D-15 BMatP= 3.04D-14
 IDIUse=1 WtCom= 1.00D+00 WtEn= 0.00D+00
 Coeff-Com:  0.294D-04-0.956D-03 0.111D-02 0.472D-02-0.659D-02-0.347D-01
 Coeff-Com:  0.104D+00-0.939D-01-0.283D+00 0.131D+01
 Coeff:      0.294D-04-0.956D-03 0.111D-02 0.472D-02-0.659D-02-0.347D-01
 Coeff:      0.104D+00-0.939D-01-0.283D+00 0.131D+01
 Gap=     0.534 Goal=   None    Shift=    0.000
 RMSDP=2.91D-09 MaxDP=2.73D-08 DE=-1.14D-13 OVMax= 5.34D-08

 SCF Done:  E(RHF) =  -226.393603807     A.U. after   10 cycles
            NFock= 10  Conv=0.29D-08     -V/T= 2.0034
 KE= 2.256188657503D+02 PE=-7.698703139672D+02 EE= 1.996831093358D+02
 Leave Link  502 at Fri Apr 12 17:10:02 2019, MaxMem=   134217728 cpu:         0.2
 (Enter /cm/shared/c3ddb/gaussian/09.d01/g09/l701.exe)
 Compute integral first derivatives.
 ... and contract with generalized density number  0.
 Leave Link  701 at Fri Apr 12 17:10:02 2019, MaxMem=   134217728 cpu:         0.2
 (Enter /cm/shared/c3ddb/gaussian/09.d01/g09/l702.exe)
 L702 exits ... SP integral derivatives will be done elsewhere.
 Leave Link  702 at Fri Apr 12 17:10:02 2019, MaxMem=   134217728 cpu:         0.1
 (Enter /cm/shared/c3ddb/gaussian/09.d01/g09/l703.exe)
 Compute integral first derivatives, UseDBF=F ICtDFT=           0.
 Integral derivatives from FoFJK, PRISM(SPDF).
 Calling FoFJK, ICntrl=      2127 FMM=F ISym2X=0 I1Cent= 0 IOpClX= 0 NMat=1 NMatS=1 NMatT=0.
 FoFJK:  IHMeth= 1 ICntrl=    2127 DoSepK=F KAlg= 0 I1Cent=   0 FoldK=F
 IRaf=         0 NMat=   1 IRICut=       1 DoRegI=T DoRafI=F ISym2E= 0.
 FoFCou: FMM=F IPFlag=           0 FMFlag=      100000 FMFlg1=         800
         NFxFlg=           0 DoJE=F BraDBF=F KetDBF=F FulRan=T
         wScrn=  0.000000 ICntrl=    2127 IOpCl=  0 I1Cent=           0 NGrid=           0
         NMat0=    1 NMatS0=      1 NMatT0=    0 NMatD0=    1 NMtDS0=    0 NMtDT0=    0
 Symmetry not used in FoFCou.
 Leave Link  703 at Fri Apr 12 17:10:03 2019, MaxMem=   134217728 cpu:         0.2
 (Enter /cm/shared/c3ddb/gaussian/09.d01/g09/l716.exe)
 Dipole        =-4.06827102D-02 1.10223713D-01 9.90933216D-02
 -------------------------------------------------------------------
 Center     Atomic                   Forces (Hartrees/Bohr)
 Number     Number              X              Y              Z
 -------------------------------------------------------------------
      1        6           0.000110750   -0.000423096   -0.005621620
      2        6          -0.000091282   -0.000275849    0.003134447
      3        1           0.000016792    0.000003927   -0.000003471
      4        1           0.000001404    0.000002401   -0.000005145
      5        1          -0.000003890   -0.000002767   -0.000010294
      6        8           0.000009058    0.002400644    0.004299190
      7        8           0.000074256   -0.001343005   -0.001336539
      8        1          -0.000117089   -0.000362255   -0.000456568
 -------------------------------------------------------------------
 Cartesian Forces:  Max     0.005621620 RMS     0.001706588
 Leave Link  716 at Fri Apr 12 17:10:03 2019, MaxMem=   134217728 cpu:         0.0
 (Enter /cm/shared/c3ddb/gaussian/09.d01/g09/l103.exe)

 GradGradGradGradGradGradGradGradGradGradGradGradGradGradGradGradGradGrad
 Berny optimization.
 Using GEDIIS/GDIIS optimizer.
 FormGI is forming the generalized inverse of G from B-inverse, IUseBI=4.
 Internal  Forces:  Max     0.004083847 RMS     0.001111426
 Search for a local minimum.
 Step number   3 out of a maximum of   32
 All quantities printed in internal units (Hartrees-Bohrs-Radians)
 RMS Force = .18629D-04 SwitMx=.10000D-02 MixMth= 2
 Mixed Optimization -- En-DIIS/RFO-DIIS
 Swapping is turned off.
 Update second derivatives using D2CorX and points    1    2    3
 DE= -1.01D-06 DEPred=-1.05D-06 R= 9.59D-01
 TightC=F SS=  1.41D+00  RLast= 2.37D-03 DXNew= 5.0454D-01 7.1213D-03
 Trust test= 9.59D-01 RLast= 2.37D-03 DXMaxT set to 3.00D-01
 ITU=  1  0  0
     Eigenvalues ---    0.02578   0.03297   0.03333   0.15938   0.16000
     Eigenvalues ---    0.16005   0.18887   0.22014   0.29224   0.37149
     Eigenvalues ---    0.37180   0.37220   0.42654   0.51313   0.52929
     Eigenvalues ---    0.650111000.000001000.000001000.000001000.00000
     Eigenvalues --- 1000.000001000.00000
 En-DIIS/RFO-DIIS IScMMF=        0 using points:     3    2    1
 RFO step:  Lambda=-8.72249936D-07.
 NNeg= 0 NP= 3 Switch=  2.50D-03 Rises=F DC=  9.95D-07 SmlDif=  1.00D-05
 RMS Error=  0.5018696008D-04 NUsed= 3 EDIIS=F
 DidBck=F Rises=F RFO-DIIS coefs:    0.78680    0.12574    0.08746
 Iteration  1 RMS(Cart)=  0.00012754 RMS(Int)=  0.00000052
 Iteration  2 RMS(Cart)=  0.00000001 RMS(Int)=  0.00000052
 Iteration  1 RMS(Cart)=  0.00000041 RMS(Int)=  0.00000024
 ITry= 1 IFail=0 DXMaxC= 2.74D-04 DCOld= 1.00D+10 DXMaxT= 3.00D-01 DXLimC= 3.00D+00 Rises=F
 Variable       Old X    -DE/DX   Delta X   Delta X   Delta X     New X
                                 (Linear)    (Quad)   (Total)
    R1        2.47177   0.00000  -0.00001   0.00001   0.00000   2.47177
    R2        2.02258   0.00001   0.00002   0.00001   0.00002   2.02260
    R3        2.65091   0.00002   0.00003   0.00002   0.00005   2.65096
    R4        2.02315   0.00000   0.00001   0.00000   0.00000   2.02315
    R5        2.02190   0.00000   0.00002  -0.00001   0.00001   2.02191
    R6        2.78387  -0.00006  -0.00018   0.00005  -0.00013   2.78374
    R7        1.83770   0.00001  -0.00001   0.00002   0.00001   1.83772
    A1        2.16773   0.00011   0.00000  -0.00009  -0.00009   2.16764
    A2        2.17329   0.00003   0.00001   0.00002   0.00003   2.17332
    A3        1.94018  -0.00003  -0.00002   0.00007   0.00006   1.94024
    A4        2.09950   0.00000  -0.00001   0.00000  -0.00001   2.09949
    A5        2.11916   0.00000   0.00001  -0.00001   0.00000   2.11916
    A6        2.06381   0.00000   0.00000   0.00002   0.00002   2.06383
    A7        1.88407   0.00001   0.00006   0.00002   0.00008   1.88415
    A8        1.72451  -0.00004  -0.00007  -0.00010  -0.00017   1.72434
    D1        0.03503  -0.00102   0.00010  -0.00018  -0.00009   0.03494
    D2        3.13530  -0.00100   0.00019   0.00006   0.00025   3.13556
    D3        3.10292   0.00101  -0.00001  -0.00011  -0.00012   3.10279
    D4       -0.07999   0.00102   0.00008   0.00014   0.00022  -0.07978
    D5        0.87266  -0.00408   0.00000   0.00000   0.00000   0.87266
    D6       -2.33428  -0.00229  -0.00009   0.00006  -0.00003  -2.33432
    D7        2.96706   0.00108   0.00000   0.00000   0.00000   2.96706
         Item               Value     Threshold  Converged?
 Maximum Force            0.000060     0.000015     NO 
 RMS     Force            0.000019     0.000010     NO 
 Maximum Displacement     0.000274     0.000060     NO 
 RMS     Displacement     0.000128     0.000040     NO 
 Predicted change in Energy=-1.478289D-08
 Lowest energy point so far.  Saving SCF results.
 GradGradGradGradGradGradGradGradGradGradGradGradGradGradGradGradGradGrad

 Leave Link  103 at Fri Apr 12 17:10:03 2019, MaxMem=   134217728 cpu:         0.0
 (Enter /cm/shared/c3ddb/gaussian/09.d01/g09/l202.exe)
                          Input orientation:                          
 ---------------------------------------------------------------------
 Center     Atomic      Atomic             Coordinates (Angstroms)
 Number     Number       Type             X           Y           Z
 ---------------------------------------------------------------------
      1          6           0        0.732061    0.598402    0.056496
      2          6           0        1.393200   -0.527299   -0.024523
      3          1           0        1.191364    1.564436    0.093862
      4          1           0        2.463805   -0.525913   -0.025633
      5          1           0        0.887984   -1.470006   -0.053678
      6          8           0       -0.666369    0.703432    0.020618
      7          8           0       -1.218787   -0.254401    0.993961
      8          1           0       -2.145559    0.040013    0.982787
 ---------------------------------------------------------------------
                    Distance matrix (angstroms):
                    1          2          3          4          5
     1  C    0.000000
     2  C    1.308002   0.000000
     3  H    1.070316   2.104782   0.000000
     4  H    2.066341   1.070606   2.450091   0.000000
     5  H    2.077200   1.069949   3.053137   1.837202   0.000000
     6  O    1.402828   2.399700   2.048868   3.363245   2.673081
     7  O    2.326354   2.816782   3.150742   3.830767   2.648344
     8  H    3.074169   3.722813   3.774799   4.752202   3.543558
                    6          7          8
     6  O    0.000000
     7  O    1.473094   0.000000
     8  H    1.885179   0.972477   0.000000
 Symmetry turned off by external request.
 Stoichiometry    C2H4O2
 Framework group  C1[X(C2H4O2)]
 Deg. of freedom    18
 Full point group                 C1      NOp   1
 Rotational constants (GHZ):     19.9239464      6.1011502      4.8980275
 Leave Link  202 at Fri Apr 12 17:10:03 2019, MaxMem=   134217728 cpu:         0.0
 (Enter /cm/shared/c3ddb/gaussian/09.d01/g09/l301.exe)
 Standard basis: 3-21G (6D, 7F)
 Ernie: Thresh=  0.10000D-02 Tol=  0.10000D-05 Strict=F.
    44 basis functions,    72 primitive gaussians,    44 cartesian basis functions
    16 alpha electrons       16 beta electrons
       nuclear repulsion energy       118.1746845329 Hartrees.
 IExCor=    0 DFT=F Ex=HF Corr=None ExCW=0 ScaHFX=  1.000000
 ScaDFX=  1.000000  1.000000  1.000000  1.000000 ScalE2=  1.000000  1.000000
 IRadAn=      0 IRanWt=     -1 IRanGd=            0 ICorTp=0 IEmpDi=  4
 NAtoms=    8 NActive=    8 NUniq=    8 SFac= 1.00D+00 NAtFMM=   60 NAOKFM=F Big=F
 Integral buffers will be    131072 words long.
 Raffenetti 1 integral format.
 Two-electron integral symmetry is turned off.
 Leave Link  301 at Fri Apr 12 17:10:03 2019, MaxMem=   134217728 cpu:         0.2
 (Enter /cm/shared/c3ddb/gaussian/09.d01/g09/l302.exe)
 NPDir=0 NMtPBC=     1 NCelOv=     1 NCel=       1 NClECP=     1 NCelD=      1
         NCelK=      1 NCelE2=     1 NClLst=     1 CellRange=     0.0.
 One-electron integrals computed using PRISM.
 NBasis=    44 RedAO= T EigKep=  1.19D-02  NBF=    44
 NBsUse=    44 1.00D-06 EigRej= -1.00D+00 NBFU=    44
 Leave Link  302 at Fri Apr 12 17:10:03 2019, MaxMem=   134217728 cpu:         0.2
 (Enter /cm/shared/c3ddb/gaussian/09.d01/g09/l303.exe)
 DipDrv:  MaxL=1.
 Leave Link  303 at Fri Apr 12 17:10:03 2019, MaxMem=   134217728 cpu:         0.1
 (Enter /cm/shared/c3ddb/gaussian/09.d01/g09/l401.exe)
 Initial guess from the checkpoint file:  "TMP_CALCS/scangeom_S02_050_170.chk"
 B after Tr=    -0.000046   -0.000060    0.000100
         Rot=    1.000000    0.000008    0.000000   -0.000005 Ang=   0.00 deg.
 Guess basis will be translated and rotated to current coordinates.
 JPrj=2 DoOrth=T DoCkMO=T.
 Leave Link  401 at Fri Apr 12 17:10:04 2019, MaxMem=   134217728 cpu:         0.2
 (Enter /cm/shared/c3ddb/gaussian/09.d01/g09/l502.exe)
 Closed shell SCF:
 Using DIIS extrapolation, IDIIS=  1040.
 Two-electron integral symmetry not used.
 Keep R1 ints in memory in canonical form, NReq=1327405.
 IVT=       24902 IEndB=       24902 NGot=   134217728 MDV=   133702282
 LenX=   133702282 LenY=   133699905
 Requested convergence on RMS density matrix=1.00D-08 within 128 cycles.
 Requested convergence on MAX density matrix=1.00D-06.
 Requested convergence on             energy=1.00D-06.
 No special actions if energy rises.
 FoFCou: FMM=F IPFlag=           0 FMFlag=           0 FMFlg1=           0
         NFxFlg=           0 DoJE=F BraDBF=F KetDBF=F FulRan=T
         wScrn=  0.000000 ICntrl=     600 IOpCl=  0 I1Cent=           0 NGrid=           0
         NMat0=    1 NMatS0=    990 NMatT0=    0 NMatD0=    1 NMtDS0=    0 NMtDT0=    0
 Symmetry not used in FoFCou.

 Cycle   1  Pass 1  IDiag  1:
 E= -226.393603807626    
 DIIS: error= 9.74D-06 at cycle   1 NSaved=   1.
 NSaved= 1 IEnMin= 1 EnMin= -226.393603807626     IErMin= 1 ErrMin= 9.74D-06
 ErrMax= 9.74D-06  0.00D+00 EMaxC= 1.00D-01 BMatC= 8.26D-09 BMatP= 8.26D-09
 IDIUse=1 WtCom= 1.00D+00 WtEn= 0.00D+00
 Coeff-Com:  0.100D+01
 Coeff:      0.100D+01
 Gap=     0.975 Goal=   None    Shift=    0.000
 RMSDP=2.02D-06 MaxDP=1.05D-05              OVMax= 1.85D-05

 Cycle   2  Pass 1  IDiag  1:
 E= -226.393603817525     Delta-E=       -0.000000009898 Rises=F Damp=F
 DIIS: error= 3.33D-06 at cycle   2 NSaved=   2.
 NSaved= 2 IEnMin= 2 EnMin= -226.393603817525     IErMin= 2 ErrMin= 3.33D-06
 ErrMax= 3.33D-06  0.00D+00 EMaxC= 1.00D-01 BMatC= 4.86D-10 BMatP= 8.26D-09
 IDIUse=1 WtCom= 1.00D+00 WtEn= 0.00D+00
 Coeff-Com: -0.186D+00 0.119D+01
 Coeff:     -0.186D+00 0.119D+01
 Gap=     0.534 Goal=   None    Shift=    0.000
 RMSDP=7.49D-07 MaxDP=3.99D-06 DE=-9.90D-09 OVMax= 1.00D-05

 Cycle   3  Pass 1  IDiag  1:
 E= -226.393603818657     Delta-E=       -0.000000001132 Rises=F Damp=F
 DIIS: error= 1.34D-06 at cycle   3 NSaved=   3.
 NSaved= 3 IEnMin= 3 EnMin= -226.393603818657     IErMin= 3 ErrMin= 1.34D-06
 ErrMax= 1.34D-06  0.00D+00 EMaxC= 1.00D-01 BMatC= 4.93D-11 BMatP= 4.86D-10
 IDIUse=1 WtCom= 1.00D+00 WtEn= 0.00D+00
 Coeff-Com: -0.191D-01-0.686D-01 0.109D+01
 Coeff:     -0.191D-01-0.686D-01 0.109D+01
 Gap=     0.534 Goal=   None    Shift=    0.000
 RMSDP=2.52D-07 MaxDP=1.31D-06 DE=-1.13D-09 OVMax= 4.07D-06

 Cycle   4  Pass 1  IDiag  1:
 E= -226.393603818776     Delta-E=       -0.000000000120 Rises=F Damp=F
 DIIS: error= 5.06D-07 at cycle   4 NSaved=   4.
 NSaved= 4 IEnMin= 4 EnMin= -226.393603818776     IErMin= 4 ErrMin= 5.06D-07
 ErrMax= 5.06D-07  0.00D+00 EMaxC= 1.00D-01 BMatC= 1.18D-11 BMatP= 4.93D-11
 IDIUse=1 WtCom= 1.00D+00 WtEn= 0.00D+00
 Coeff-Com:  0.222D-01-0.193D+00 0.255D+00 0.915D+00
 Coeff:      0.222D-01-0.193D+00 0.255D+00 0.915D+00
 Gap=     0.534 Goal=   None    Shift=    0.000
 RMSDP=1.13D-07 MaxDP=7.61D-07 DE=-1.20D-10 OVMax= 1.67D-06

 Cycle   5  Pass 1  IDiag  1:
 E= -226.393603818800     Delta-E=       -0.000000000024 Rises=F Damp=F
 DIIS: error= 1.84D-07 at cycle   5 NSaved=   5.
 NSaved= 5 IEnMin= 5 EnMin= -226.393603818800     IErMin= 5 ErrMin= 1.84D-07
 ErrMax= 1.84D-07  0.00D+00 EMaxC= 1.00D-01 BMatC= 1.11D-12 BMatP= 1.18D-11
 IDIUse=1 WtCom= 1.00D+00 WtEn= 0.00D+00
 Coeff-Com:  0.326D-03 0.257D-01-0.149D+00-0.556D-01 0.118D+01
 Coeff:      0.326D-03 0.257D-01-0.149D+00-0.556D-01 0.118D+01
 Gap=     0.534 Goal=   None    Shift=    0.000
 RMSDP=4.58D-08 MaxDP=2.74D-07 DE=-2.36D-11 OVMax= 6.74D-07

 Cycle   6  Pass 1  IDiag  1:
 E= -226.393603818803     Delta-E=       -0.000000000003 Rises=F Damp=F
 DIIS: error= 7.22D-08 at cycle   6 NSaved=   6.
 NSaved= 6 IEnMin= 6 EnMin= -226.393603818803     IErMin= 6 ErrMin= 7.22D-08
 ErrMax= 7.22D-08  0.00D+00 EMaxC= 1.00D-01 BMatC= 1.57D-13 BMatP= 1.11D-12
 IDIUse=1 WtCom= 1.00D+00 WtEn= 0.00D+00
 Coeff-Com: -0.262D-02 0.295D-01-0.726D-01-0.118D+00 0.294D+00 0.870D+00
 Coeff:     -0.262D-02 0.295D-01-0.726D-01-0.118D+00 0.294D+00 0.870D+00
 Gap=     0.534 Goal=   None    Shift=    0.000
 RMSDP=1.54D-08 MaxDP=1.50D-07 DE=-2.73D-12 OVMax= 2.84D-07

 Cycle   7  Pass 1  IDiag  1:
 E= -226.393603818803     Delta-E=       -0.000000000001 Rises=F Damp=F
 DIIS: error= 1.76D-08 at cycle   7 NSaved=   7.
 NSaved= 7 IEnMin= 7 EnMin= -226.393603818803     IErMin= 7 ErrMin= 1.76D-08
 ErrMax= 1.76D-08  0.00D+00 EMaxC= 1.00D-01 BMatC= 1.74D-14 BMatP= 1.57D-13
 IDIUse=1 WtCom= 1.00D+00 WtEn= 0.00D+00
 Coeff-Com:  0.468D-03-0.845D-02 0.300D-01 0.355D-01-0.218D+00-0.841D-01
 Coeff-Com:  0.124D+01
 Coeff:      0.468D-03-0.845D-02 0.300D-01 0.355D-01-0.218D+00-0.841D-01
 Coeff:      0.124D+01
 Gap=     0.534 Goal=   None    Shift=    0.000
 RMSDP=6.70D-09 MaxDP=4.24D-08 DE=-6.25D-13 OVMax= 1.06D-07

 SCF Done:  E(RHF) =  -226.393603819     A.U. after    7 cycles
            NFock=  7  Conv=0.67D-08     -V/T= 2.0034
 KE= 2.256189110596D+02 PE=-7.698701666412D+02 EE= 1.996829672299D+02
 Leave Link  502 at Fri Apr 12 17:10:04 2019, MaxMem=   134217728 cpu:         0.2
 (Enter /cm/shared/c3ddb/gaussian/09.d01/g09/l701.exe)
 Compute integral first derivatives.
 ... and contract with generalized density number  0.
 Leave Link  701 at Fri Apr 12 17:10:04 2019, MaxMem=   134217728 cpu:         0.1
 (Enter /cm/shared/c3ddb/gaussian/09.d01/g09/l702.exe)
 L702 exits ... SP integral derivatives will be done elsewhere.
 Leave Link  702 at Fri Apr 12 17:10:04 2019, MaxMem=   134217728 cpu:         0.0
 (Enter /cm/shared/c3ddb/gaussian/09.d01/g09/l703.exe)
 Compute integral first derivatives, UseDBF=F ICtDFT=           0.
 Integral derivatives from FoFJK, PRISM(SPDF).
 Calling FoFJK, ICntrl=      2127 FMM=F ISym2X=0 I1Cent= 0 IOpClX= 0 NMat=1 NMatS=1 NMatT=0.
 FoFJK:  IHMeth= 1 ICntrl=    2127 DoSepK=F KAlg= 0 I1Cent=   0 FoldK=F
 IRaf=         0 NMat=   1 IRICut=       1 DoRegI=T DoRafI=F ISym2E= 0.
 FoFCou: FMM=F IPFlag=           0 FMFlag=      100000 FMFlg1=         800
         NFxFlg=           0 DoJE=F BraDBF=F KetDBF=F FulRan=T
         wScrn=  0.000000 ICntrl=    2127 IOpCl=  0 I1Cent=           0 NGrid=           0
         NMat0=    1 NMatS0=      1 NMatT0=    0 NMatD0=    1 NMtDS0=    0 NMtDT0=    0
 Symmetry not used in FoFCou.
 Leave Link  703 at Fri Apr 12 17:10:05 2019, MaxMem=   134217728 cpu:         0.2
 (Enter /cm/shared/c3ddb/gaussian/09.d01/g09/l716.exe)
 Dipole        =-4.06205892D-02 1.10321719D-01 9.88715317D-02
 -------------------------------------------------------------------
 Center     Atomic                   Forces (Hartrees/Bohr)
 Number     Number              X              Y              Z
 -------------------------------------------------------------------
      1        6           0.000106059   -0.000413143   -0.005616679
      2        6          -0.000101001   -0.000284067    0.003107676
      3        1           0.000001084    0.000000409    0.000001247
      4        1          -0.000000617    0.000000916    0.000002354
      5        1          -0.000000317   -0.000001127    0.000002451
      6        8           0.000070600    0.002436321    0.004257652
      7        8           0.000041283   -0.001357576   -0.001315256
      8        1          -0.000117090   -0.000381732   -0.000439444
 -------------------------------------------------------------------
 Cartesian Forces:  Max     0.005616679 RMS     0.001701384
 Leave Link  716 at Fri Apr 12 17:10:05 2019, MaxMem=   134217728 cpu:         0.1
 (Enter /cm/shared/c3ddb/gaussian/09.d01/g09/l103.exe)

 GradGradGradGradGradGradGradGradGradGradGradGradGradGradGradGradGradGrad
 Berny optimization.
 Using GEDIIS/GDIIS optimizer.
 FormGI is forming the generalized inverse of G from B-inverse, IUseBI=4.
 Internal  Forces:  Max     0.004086062 RMS     0.001111833
 Search for a local minimum.
 Step number   4 out of a maximum of   32
 All quantities printed in internal units (Hartrees-Bohrs-Radians)
 RMS Force = .20903D-05 SwitMx=.10000D-02 MixMth= 2
 Mixed Optimization -- En-DIIS/RFO-DIIS
 Swapping is turned off.
 Update second derivatives using D2CorX and points    1    2    3    4
 DE= -1.22D-08 DEPred=-1.48D-08 R= 8.26D-01
 Trust test= 8.26D-01 RLast= 4.50D-04 DXMaxT set to 3.00D-01
 ITU=  0  1  0  0
     Eigenvalues ---    0.02577   0.03284   0.03785   0.15789   0.15993
     Eigenvalues ---    0.16047   0.19869   0.22101   0.29691   0.37086
     Eigenvalues ---    0.37157   0.37227   0.44261   0.50760   0.52920
     Eigenvalues ---    0.650071000.000001000.000001000.000001000.00000
     Eigenvalues --- 1000.000001000.00000
 En-DIIS/RFO-DIIS IScMMF=        0 using points:     4    3    2    1
 RFO step:  Lambda=-8.60208010D-07.
 NNeg= 0 NP= 4 Switch=  2.50D-03 Rises=F DC=  9.95D-07 SmlDif=  1.00D-05
 RMS Error=  0.3558231447D-04 NUsed= 4 EDIIS=F
 DidBck=F Rises=F RFO-DIIS coefs:    0.83773    0.13818    0.01549    0.00860
 Iteration  1 RMS(Cart)=  0.00002146 RMS(Int)=  0.00000052
 Iteration  2 RMS(Cart)=  0.00000000 RMS(Int)=  0.00000052
 Iteration  1 RMS(Cart)=  0.00000045 RMS(Int)=  0.00000027
 ITry= 1 IFail=0 DXMaxC= 5.33D-05 DCOld= 1.00D+10 DXMaxT= 3.00D-01 DXLimC= 3.00D+00 Rises=F
 Variable       Old X    -DE/DX   Delta X   Delta X   Delta X     New X
                                 (Linear)    (Quad)   (Total)
    R1        2.47177   0.00000   0.00000   0.00000   0.00000   2.47177
    R2        2.02260   0.00000   0.00000   0.00000   0.00000   2.02261
    R3        2.65096  -0.00001  -0.00001  -0.00001  -0.00001   2.65095
    R4        2.02315   0.00000   0.00000   0.00000   0.00000   2.02315
    R5        2.02191   0.00000   0.00000   0.00000   0.00000   2.02191
    R6        2.78374   0.00000   0.00000   0.00000   0.00000   2.78374
    R7        1.83772   0.00000   0.00000   0.00000   0.00000   1.83772
    A1        2.16764   0.00012   0.00002  -0.00002  -0.00001   2.16763
    A2        2.17332   0.00002   0.00000   0.00000   0.00000   2.17332
    A3        1.94024  -0.00003  -0.00001   0.00002   0.00001   1.94025
    A4        2.09949   0.00000   0.00000  -0.00001  -0.00001   2.09948
    A5        2.11916   0.00000   0.00000   0.00000   0.00000   2.11917
    A6        2.06383   0.00000   0.00000   0.00001   0.00000   2.06383
    A7        1.88415   0.00000  -0.00001   0.00000  -0.00001   1.88414
    A8        1.72434   0.00000   0.00002   0.00000   0.00001   1.72435
    D1        0.03494  -0.00101   0.00002   0.00001   0.00003   0.03497
    D2        3.13556  -0.00101  -0.00002  -0.00004  -0.00007   3.13549
    D3        3.10279   0.00101   0.00002   0.00005   0.00006   3.10286
    D4       -0.07978   0.00101  -0.00003   0.00000  -0.00003  -0.07981
    D5        0.87266  -0.00409   0.00000   0.00000   0.00000   0.87266
    D6       -2.33432  -0.00228   0.00000   0.00003   0.00003  -2.33429
    D7        2.96706   0.00108   0.00000   0.00000   0.00000   2.96706
         Item               Value     Threshold  Converged?
 Maximum Force            0.000007     0.000015     YES
 RMS     Force            0.000002     0.000010     YES
 Maximum Displacement     0.000053     0.000060     YES
 RMS     Displacement     0.000021     0.000040     YES
 Predicted change in Energy=-8.213374D-10
 Optimization completed.
    -- Stationary point found.
                           ----------------------------
                           !   Optimized Parameters   !
                           ! (Angstroms and Degrees)  !
 --------------------------                            --------------------------
 ! Name  Definition              Value          Derivative Info.                !
 --------------------------------------------------------------------------------
 ! R1    R(1,2)                  1.308          -DE/DX =    0.0                 !
 ! R2    R(1,3)                  1.0703         -DE/DX =    0.0                 !
 ! R3    R(1,6)                  1.4028         -DE/DX =    0.0                 !
 ! R4    R(2,4)                  1.0706         -DE/DX =    0.0                 !
 ! R5    R(2,5)                  1.0699         -DE/DX =    0.0                 !
 ! R6    R(6,7)                  1.4731         -DE/DX =    0.0                 !
 ! R7    R(7,8)                  0.9725         -DE/DX =    0.0                 !
 ! A1    A(2,1,3)              124.1964         -DE/DX =    0.0001              !
 ! A2    A(2,1,6)              124.5221         -DE/DX =    0.0                 !
 ! A3    A(3,1,6)              111.1677         -DE/DX =    0.0                 !
 ! A4    A(1,2,4)              120.2919         -DE/DX =    0.0                 !
 ! A5    A(1,2,5)              121.4191         -DE/DX =    0.0                 !
 ! A6    A(4,2,5)              118.2487         -DE/DX =    0.0                 !
 ! A7    A(1,6,7)              107.9537         -DE/DX =    0.0                 !
 ! A8    A(6,7,8)               98.7972         -DE/DX =    0.0                 !
 ! D1    D(3,1,2,4)              2.0019         -DE/DX =   -0.001               !
 ! D2    D(3,1,2,5)            179.6541         -DE/DX =   -0.001               !
 ! D3    D(6,1,2,4)            177.777          -DE/DX =    0.001               !
 ! D4    D(6,1,2,5)             -4.5708         -DE/DX =    0.001               !
 ! D5    D(2,1,6,7)             49.9999         -DE/DX =   -0.0041              !
 ! D6    D(3,1,6,7)           -133.7466         -DE/DX =   -0.0023              !
 ! D7    D(1,6,7,8)            170.0            -DE/DX =    0.0011              !
 --------------------------------------------------------------------------------
 Lowest energy point so far.  Saving SCF results.
 GradGradGradGradGradGradGradGradGradGradGradGradGradGradGradGradGradGrad

 Largest change from initial coordinates is atom    7       0.002 Angstoms.
 Leave Link  103 at Fri Apr 12 17:10:05 2019, MaxMem=   134217728 cpu:         0.0
 (Enter /cm/shared/c3ddb/gaussian/09.d01/g09/l202.exe)
                          Input orientation:                          
 ---------------------------------------------------------------------
 Center     Atomic      Atomic             Coordinates (Angstroms)
 Number     Number       Type             X           Y           Z
 ---------------------------------------------------------------------
      1          6           0        0.732061    0.598402    0.056496
      2          6           0        1.393200   -0.527299   -0.024523
      3          1           0        1.191364    1.564436    0.093862
      4          1           0        2.463805   -0.525913   -0.025633
      5          1           0        0.887984   -1.470006   -0.053678
      6          8           0       -0.666369    0.703432    0.020618
      7          8           0       -1.218787   -0.254401    0.993961
      8          1           0       -2.145559    0.040013    0.982787
 ---------------------------------------------------------------------
                    Distance matrix (angstroms):
                    1          2          3          4          5
     1  C    0.000000
     2  C    1.308002   0.000000
     3  H    1.070316   2.104782   0.000000
     4  H    2.066341   1.070606   2.450091   0.000000
     5  H    2.077200   1.069949   3.053137   1.837202   0.000000
     6  O    1.402828   2.399700   2.048868   3.363245   2.673081
     7  O    2.326354   2.816782   3.150742   3.830767   2.648344
     8  H    3.074169   3.722813   3.774799   4.752202   3.543558
                    6          7          8
     6  O    0.000000
     7  O    1.473094   0.000000
     8  H    1.885179   0.972477   0.000000
 Symmetry turned off by external request.
 Stoichiometry    C2H4O2
 Framework group  C1[X(C2H4O2)]
 Deg. of freedom    18
 Full point group                 C1      NOp   1
 Rotational constants (GHZ):     19.9239464      6.1011502      4.8980275
 Leave Link  202 at Fri Apr 12 17:10:05 2019, MaxMem=   134217728 cpu:         0.0
 (Enter /cm/shared/c3ddb/gaussian/09.d01/g09/l601.exe)
 Copying SCF densities to generalized density rwf, IOpCl= 0 IROHF=0.

 **********************************************************************

            Population analysis using the SCF density.

 **********************************************************************

 Alpha  occ. eigenvalues --  -20.52618 -20.51978 -11.23703 -11.16687  -1.46488
 Alpha  occ. eigenvalues --   -1.23256  -1.02836  -0.78842  -0.70924  -0.65344
 Alpha  occ. eigenvalues --   -0.64411  -0.59772  -0.54242  -0.50924  -0.45665
 Alpha  occ. eigenvalues --   -0.36576
 Alpha virt. eigenvalues --    0.16781   0.25929   0.29260   0.30583   0.32931
 Alpha virt. eigenvalues --    0.37233   0.50289   0.57674   0.89125   0.97660
 Alpha virt. eigenvalues --    0.99696   1.07272   1.10682   1.12479   1.23972
 Alpha virt. eigenvalues --    1.32874   1.37496   1.57509   1.60849   1.73005
 Alpha virt. eigenvalues --    1.83082   1.91962   1.97378   2.01847   2.06335
 Alpha virt. eigenvalues --    2.29766   3.07269   3.49983
          Condensed to atoms (all electrons):
               1          2          3          4          5          6
     1  C    4.895795   0.466192   0.392373  -0.041268  -0.051654   0.236866
     2  C    0.466192   5.352380  -0.059952   0.375522   0.392467  -0.057543
     3  H    0.392373  -0.059952   0.453648   0.000375   0.001807  -0.036039
     4  H   -0.041268   0.375522   0.000375   0.457017  -0.015809   0.001391
     5  H   -0.051654   0.392467   0.001807  -0.015809   0.422398  -0.003825
     6  O    0.236866  -0.057543  -0.036039   0.001391  -0.003825   8.186907
     7  O   -0.044233   0.001333   0.001453   0.000067   0.004133   0.117682
     8  H    0.002852  -0.000025  -0.000094  -0.000003  -0.000133  -0.021670
               7          8
     1  C   -0.044233   0.002852
     2  C    0.001333  -0.000025
     3  H    0.001453  -0.000094
     4  H    0.000067  -0.000003
     5  H    0.004133  -0.000133
     6  O    0.117682  -0.021670
     7  O    8.063316   0.243176
     8  H    0.243176   0.357654
 Mulliken charges:
               1
     1  C    0.143077
     2  C   -0.470375
     3  H    0.246431
     4  H    0.222708
     5  H    0.250615
     6  O   -0.423769
     7  O   -0.386928
     8  H    0.418241
 Sum of Mulliken charges =   0.00000
 Mulliken charges with hydrogens summed into heavy atoms:
               1
     1  C    0.389508
     2  C    0.002948
     6  O   -0.423769
     7  O    0.031314
 Electronic spatial extent (au):  <R**2>=            280.7985
 Charge=              0.0000 electrons
 Dipole moment (field-independent basis, Debye):
    X=             -0.1032    Y=              0.2804    Z=              0.2513  Tot=              0.3904
 Quadrupole moment (field-independent basis, Debye-Ang):
   XX=            -16.0056   YY=            -22.4869   ZZ=            -25.7016
   XY=              0.5290   XZ=             -2.0642   YZ=              0.9039
 Traceless Quadrupole moment (field-independent basis, Debye-Ang):
   XX=              5.3924   YY=             -1.0888   ZZ=             -4.3036
   XY=              0.5290   XZ=             -2.0642   YZ=              0.9039
 Octapole moment (field-independent basis, Debye-Ang**2):
  XXX=            -22.3698  YYY=             -6.8891  ZZZ=            -18.7035  XYY=              0.1197
  XXY=             -1.6745  XXZ=              0.9778  XZZ=             -7.3626  YZZ=             -1.5424
  YYZ=             -6.2438  XYZ=             -0.6621
 Hexadecapole moment (field-independent basis, Debye-Ang**3):
 XXXX=           -147.3210 YYYY=            -69.5947 ZZZZ=            -56.9932 XXXY=              6.4568
 XXXZ=              4.2675 YYYX=             12.3746 YYYZ=              2.6828 ZZZX=             20.4793
 ZZZY=              2.6315 XXYY=            -45.5455 XXZZ=            -39.7322 YYZZ=            -22.3143
 XXYZ=              2.1686 YYXZ=              7.4997 ZZXY=              2.9930
 N-N= 1.181746845329D+02 E-N=-7.698701666004D+02  KE= 2.256189110596D+02
 No NMR shielding tensors so no spin-rotation constants.
 Leave Link  601 at Fri Apr 12 17:10:05 2019, MaxMem=   134217728 cpu:         0.2
 (Enter /cm/shared/c3ddb/gaussian/09.d01/g09/l9999.exe)
 1\1\GINC-NODE029\FOpt\RHF\3-21G\C2H4O2\MATTSJ\12-Apr-2019\0\\#p hf 3-2
 1g scf=tight NoSymmetry guess=read opt=(tight,modredundant)\\Geometry 
 optimization at the 2D-PES\\0,1\C,0.7320613715,0.5984015666,0.05649611
 58\C,1.3932001837,-0.5272988905,-0.0245233107\H,1.1913635585,1.5644360
 219,0.0938620868\H,2.4638051735,-0.5259126187,-0.0256325038\H,0.887983
 8073,-1.4700057748,-0.0536783388\O,-0.6663686165,0.7034317764,0.020617
 9575\O,-1.2187870179,-0.2544014019,0.9939606231\H,-2.1455594599,0.0400
 133211,0.9827873701\\Version=AS64L-G09RevD.01\HF=-226.3936038\RMSD=6.7
 01e-09\RMSF=1.701e-03\Dipole=-0.0406206,0.1103217,0.0988715\Quadrupole
 =4.0091387,-0.8095167,-3.199622,0.3933172,-1.5346837,0.6719961\PG=C01 
 [X(C2H4O2)]\\@


 NEVER TEACH A PIG TO SING.
 IT WASTES YOUR TIME AND ANNOYS THE PIG.
     -- SEEN ON A GREETING CARD
 Job cpu time:       0 days  0 hours  0 minutes  7.7 seconds.
 File lengths (MBytes):  RWF=      5 Int=      0 D2E=      0 Chk=      1 Scr=      1
 Normal termination of Gaussian 09 at Fri Apr 12 17:10:05 2019.
