 Entering Gaussian System, Link 0=/cm/shared/c3ddb/gaussian/09.d01/g09/g09
 Initial command:
 /cm/shared/c3ddb/gaussian/09.d01/g09/l1.exe "/scratch/users/mattsj/g09/S02-7952157/Gau-42626.inp" -scrdir="/scratch/users/mattsj/g09/S02-7952157/"
 Entering Link 1 = /cm/shared/c3ddb/gaussian/09.d01/g09/l1.exe PID=     42627.
  
 Copyright (c) 1988,1990,1992,1993,1995,1998,2003,2009,2013,
            Gaussian, Inc.  All Rights Reserved.
  
 This is part of the Gaussian(R) 09 program.  It is based on
 the Gaussian(R) 03 system (copyright 2003, Gaussian, Inc.),
 the Gaussian(R) 98 system (copyright 1998, Gaussian, Inc.),
 the Gaussian(R) 94 system (copyright 1995, Gaussian, Inc.),
 the Gaussian 92(TM) system (copyright 1992, Gaussian, Inc.),
 the Gaussian 90(TM) system (copyright 1990, Gaussian, Inc.),
 the Gaussian 88(TM) system (copyright 1988, Gaussian, Inc.),
 the Gaussian 86(TM) system (copyright 1986, Carnegie Mellon
 University), and the Gaussian 82(TM) system (copyright 1983,
 Carnegie Mellon University). Gaussian is a federally registered
 trademark of Gaussian, Inc.
  
 This software contains proprietary and confidential information,
 including trade secrets, belonging to Gaussian, Inc.
  
 This software is provided under written license and may be
 used, copied, transmitted, or stored only in accord with that
 written license.
  
 The following legend is applicable only to US Government
 contracts under FAR:
  
                    RESTRICTED RIGHTS LEGEND
  
 Use, reproduction and disclosure by the US Government is
 subject to restrictions as set forth in subparagraphs (a)
 and (c) of the Commercial Computer Software - Restricted
 Rights clause in FAR 52.227-19.
  
 Gaussian, Inc.
 340 Quinnipiac St., Bldg. 40, Wallingford CT 06492
  
  
 ---------------------------------------------------------------
 Warning -- This program may not be used in any manner that
 competes with the business of Gaussian, Inc. or will provide
 assistance to any competitor of Gaussian, Inc.  The licensee
 of this program is prohibited from giving any competitor of
 Gaussian, Inc. access to this program.  By using this program,
 the user acknowledges that Gaussian, Inc. is engaged in the
 business of creating and licensing software in the field of
 computational chemistry and represents and warrants to the
 licensee that it is not a competitor of Gaussian, Inc. and that
 it will not use this program in any manner prohibited above.
 ---------------------------------------------------------------
  

 Cite this work as:
 Gaussian 09, Revision D.01,
 M. J. Frisch, G. W. Trucks, H. B. Schlegel, G. E. Scuseria, 
 M. A. Robb, J. R. Cheeseman, G. Scalmani, V. Barone, B. Mennucci, 
 G. A. Petersson, H. Nakatsuji, M. Caricato, X. Li, H. P. Hratchian, 
 A. F. Izmaylov, J. Bloino, G. Zheng, J. L. Sonnenberg, M. Hada, 
 M. Ehara, K. Toyota, R. Fukuda, J. Hasegawa, M. Ishida, T. Nakajima, 
 Y. Honda, O. Kitao, H. Nakai, T. Vreven, J. A. Montgomery, Jr., 
 J. E. Peralta, F. Ogliaro, M. Bearpark, J. J. Heyd, E. Brothers, 
 K. N. Kudin, V. N. Staroverov, T. Keith, R. Kobayashi, J. Normand, 
 K. Raghavachari, A. Rendell, J. C. Burant, S. S. Iyengar, J. Tomasi, 
 M. Cossi, N. Rega, J. M. Millam, M. Klene, J. E. Knox, J. B. Cross, 
 V. Bakken, C. Adamo, J. Jaramillo, R. Gomperts, R. E. Stratmann, 
 O. Yazyev, A. J. Austin, R. Cammi, C. Pomelli, J. W. Ochterski, 
 R. L. Martin, K. Morokuma, V. G. Zakrzewski, G. A. Voth, 
 P. Salvador, J. J. Dannenberg, S. Dapprich, A. D. Daniels, 
 O. Farkas, J. B. Foresman, J. V. Ortiz, J. Cioslowski, 
 and D. J. Fox, Gaussian, Inc., Wallingford CT, 2013.
 
 ******************************************
 Gaussian 09:  AS64L-G09RevD.01 24-Apr-2013
                12-Apr-2019 
 ******************************************
 %nproc=1
 Will use up to    1 processors via shared memory.
 %mem=1GB
 %chk=TMP_CALCS/scangeom_S02_190_060.chk
 --------------------------------------------------------------------
 #p hf 3-21g scf=tight NoSymmetry guess=read opt=(tight,modredundant)
 --------------------------------------------------------------------
 1/7=10,18=120,19=15,38=1/1,3;
 2/9=110,12=2,15=1,17=6,18=5,40=1/2;
 3/5=5,11=9,16=1,25=1,30=1,71=1,116=-2/1,2,3;
 4/5=1/1;
 5/5=2,32=2,38=6/2;
 6/7=2,8=2,9=2,10=2,28=1/1;
 7/30=1/1,2,3,16;
 1/7=10,18=20,19=15/3(2);
 2/9=110,15=1/2;
 99//99;
 2/9=110,15=1/2;
 3/5=5,11=9,16=1,25=1,30=1,71=1/1,2,3;
 4/5=5,16=3,69=1/1;
 5/5=2,32=2,38=5/2;
 7/30=1/1,2,3,16;
 1/7=10,18=20,19=15/3(-5);
 2/9=110,15=1/2;
 6/7=2,8=2,9=2,10=2,19=2,28=1/1;
 99/9=1/99;
 Leave Link    1 at Fri Apr 12 15:34:51 2019, MaxMem=   134217728 cpu:         0.1
 (Enter /cm/shared/c3ddb/gaussian/09.d01/g09/l101.exe)
 -----------------------------------
 Geometry optimization at the 2D-PES
 -----------------------------------
 Symbolic Z-matrix:
 Charge =  0 Multiplicity = 1
 C                     0.74964   0.63504   0.0225 
 C                     1.37905  -0.51183  -0.01052 
 H                     1.2324    1.58602   0.11594 
 H                     2.44816  -0.5436    0.02629 
 H                     0.84533  -1.43826  -0.06947 
 O                    -0.65387   0.6855    0.03102 
 O                    -1.10286   2.06354  -0.16994 
 H                    -0.73223   2.30284  -1.03968 
 
 The following ModRedundant input section has been read:
 D       2       1       6       7 F                                           
 D       1       6       7       8 F                                           
 
 NAtoms=      8 NQM=        8 NQMF=       0 NMMI=      0 NMMIF=      0
                NMic=       0 NMicF=      0.
                    Isotopes and Nuclear Properties:
 (Nuclear quadrupole moments (NQMom) in fm**2, nuclear magnetic moments (NMagM)
  in nuclear magnetons)

  Atom         1           2           3           4           5           6           7           8
 IAtWgt=          12          12           1           1           1          16          16           1
 AtmWgt=  12.0000000  12.0000000   1.0078250   1.0078250   1.0078250  15.9949146  15.9949146   1.0078250
 NucSpn=           0           0           1           1           1           0           0           1
 AtZEff=   0.0000000   0.0000000   0.0000000   0.0000000   0.0000000   0.0000000   0.0000000   0.0000000
 NQMom=    0.0000000   0.0000000   0.0000000   0.0000000   0.0000000   0.0000000   0.0000000   0.0000000
 NMagM=    0.0000000   0.0000000   2.7928460   2.7928460   2.7928460   0.0000000   0.0000000   2.7928460
 AtZNuc=   6.0000000   6.0000000   1.0000000   1.0000000   1.0000000   8.0000000   8.0000000   1.0000000
 Leave Link  101 at Fri Apr 12 15:34:51 2019, MaxMem=   134217728 cpu:         0.4
 (Enter /cm/shared/c3ddb/gaussian/09.d01/g09/l103.exe)

 GradGradGradGradGradGradGradGradGradGradGradGradGradGradGradGradGradGrad
 Berny optimization.
 Initialization pass.
                           ----------------------------
                           !    Initial Parameters    !
                           ! (Angstroms and Degrees)  !
 --------------------------                            --------------------------
 ! Name  Definition              Value          Derivative Info.                !
 --------------------------------------------------------------------------------
 ! R1    R(1,2)                  1.3086         estimate D2E/DX2                !
 ! R2    R(1,3)                  1.0706         estimate D2E/DX2                !
 ! R3    R(1,6)                  1.4044         estimate D2E/DX2                !
 ! R4    R(2,4)                  1.0702         estimate D2E/DX2                !
 ! R5    R(2,5)                  1.0708         estimate D2E/DX2                !
 ! R6    R(6,7)                  1.4632         estimate D2E/DX2                !
 ! R7    R(7,8)                  0.9752         estimate D2E/DX2                !
 ! A1    A(2,1,3)              124.3183         estimate D2E/DX2                !
 ! A2    A(2,1,6)              120.8163         estimate D2E/DX2                !
 ! A3    A(3,1,6)              114.7201         estimate D2E/DX2                !
 ! A4    A(1,2,4)              120.3725         estimate D2E/DX2                !
 ! A5    A(1,2,5)              121.3241         estimate D2E/DX2                !
 ! A6    A(4,2,5)              118.3027         estimate D2E/DX2                !
 ! A7    A(1,6,7)              109.856          estimate D2E/DX2                !
 ! A8    A(6,7,8)              103.7077         estimate D2E/DX2                !
 ! D1    D(3,1,2,4)             -1.9416         estimate D2E/DX2                !
 ! D2    D(3,1,2,5)            177.7386         estimate D2E/DX2                !
 ! D3    D(6,1,2,4)           -177.3233         estimate D2E/DX2                !
 ! D4    D(6,1,2,5)              2.3568         estimate D2E/DX2                !
 ! D5    D(2,1,6,7)           -170.0            Frozen                          !
 ! D6    D(3,1,6,7)             14.1983         estimate D2E/DX2                !
 ! D7    D(1,6,7,8)             60.0001         Frozen                          !
 --------------------------------------------------------------------------------
 Trust Radius=3.00D-01 FncErr=1.00D-07 GrdErr=1.00D-07
 Number of steps in this run=     32 maximum allowed number of steps=    100.
 GradGradGradGradGradGradGradGradGradGradGradGradGradGradGradGradGradGrad

 Leave Link  103 at Fri Apr 12 15:34:51 2019, MaxMem=   134217728 cpu:         0.1
 (Enter /cm/shared/c3ddb/gaussian/09.d01/g09/l202.exe)
                          Input orientation:                          
 ---------------------------------------------------------------------
 Center     Atomic      Atomic             Coordinates (Angstroms)
 Number     Number       Type             X           Y           Z
 ---------------------------------------------------------------------
      1          6           0        0.749637    0.635039    0.022499
      2          6           0        1.379052   -0.511830   -0.010522
      3          1           0        1.232396    1.586020    0.115935
      4          1           0        2.448157   -0.543604    0.026292
      5          1           0        0.845328   -1.438256   -0.069468
      6          8           0       -0.653865    0.685500    0.031024
      7          8           0       -1.102860    2.063538   -0.169940
      8          1           0       -0.732227    2.302844   -1.039677
 ---------------------------------------------------------------------
                    Distance matrix (angstroms):
                    1          2          3          4          5
     1  C    0.000000
     2  C    1.308649   0.000000
     3  H    1.070585   2.106769   0.000000
     4  H    2.067410   1.070210   2.453856   0.000000
     5  H    2.077539   1.070795   3.054577   1.838106   0.000000
     6  O    1.404435   2.359677   2.091919   3.336654   2.601541
     7  O    2.347208   3.580199   2.400660   4.409696   4.008503
     8  H    2.470974   3.665931   2.389355   4.399250   4.174424
                    6          7          8
     6  O    0.000000
     7  O    1.463206   0.000000
     8  H    1.941222   0.975233   0.000000
 Symmetry turned off by external request.
 Stoichiometry    C2H4O2
 Framework group  C1[X(C2H4O2)]
 Deg. of freedom    18
 Full point group                 C1      NOp   1
 Rotational constants (GHZ):     42.4874928      4.5243996      4.1569970
 Leave Link  202 at Fri Apr 12 15:34:52 2019, MaxMem=   134217728 cpu:         0.0
 (Enter /cm/shared/c3ddb/gaussian/09.d01/g09/l301.exe)
 Standard basis: 3-21G (6D, 7F)
 Ernie: Thresh=  0.10000D-02 Tol=  0.10000D-05 Strict=F.
    44 basis functions,    72 primitive gaussians,    44 cartesian basis functions
    16 alpha electrons       16 beta electrons
       nuclear repulsion energy       116.4560625902 Hartrees.
 IExCor=    0 DFT=F Ex=HF Corr=None ExCW=0 ScaHFX=  1.000000
 ScaDFX=  1.000000  1.000000  1.000000  1.000000 ScalE2=  1.000000  1.000000
 IRadAn=      0 IRanWt=     -1 IRanGd=            0 ICorTp=0 IEmpDi=  4
 NAtoms=    8 NActive=    8 NUniq=    8 SFac= 1.00D+00 NAtFMM=   60 NAOKFM=F Big=F
 Integral buffers will be    131072 words long.
 Raffenetti 1 integral format.
 Two-electron integral symmetry is turned off.
 Leave Link  301 at Fri Apr 12 15:34:52 2019, MaxMem=   134217728 cpu:         0.3
 (Enter /cm/shared/c3ddb/gaussian/09.d01/g09/l302.exe)
 NPDir=0 NMtPBC=     1 NCelOv=     1 NCel=       1 NClECP=     1 NCelD=      1
         NCelK=      1 NCelE2=     1 NClLst=     1 CellRange=     0.0.
 One-electron integrals computed using PRISM.
 NBasis=    44 RedAO= T EigKep=  1.14D-02  NBF=    44
 NBsUse=    44 1.00D-06 EigRej= -1.00D+00 NBFU=    44
 Leave Link  302 at Fri Apr 12 15:34:52 2019, MaxMem=   134217728 cpu:         0.3
 (Enter /cm/shared/c3ddb/gaussian/09.d01/g09/l303.exe)
 DipDrv:  MaxL=1.
 Leave Link  303 at Fri Apr 12 15:34:53 2019, MaxMem=   134217728 cpu:         0.1
 (Enter /cm/shared/c3ddb/gaussian/09.d01/g09/l401.exe)
 Initial guess from the checkpoint file:  "TMP_CALCS/scangeom_S02_190_060.chk"
 B after Tr=    -0.002543   -0.001736    0.018679
         Rot=    0.999952    0.007507   -0.006122   -0.001231 Ang=   1.12 deg.
 Guess basis will be translated and rotated to current coordinates.
 JPrj=2 DoOrth=T DoCkMO=T.
 Leave Link  401 at Fri Apr 12 15:34:53 2019, MaxMem=   134217728 cpu:         0.4
 (Enter /cm/shared/c3ddb/gaussian/09.d01/g09/l502.exe)
 Closed shell SCF:
 Using DIIS extrapolation, IDIIS=  1040.
 Two-electron integral symmetry not used.
 Keep R1 ints in memory in canonical form, NReq=1327247.
 IVT=       24902 IEndB=       24902 NGot=   134217728 MDV=   133702282
 LenX=   133702282 LenY=   133699905
 Requested convergence on RMS density matrix=1.00D-08 within 128 cycles.
 Requested convergence on MAX density matrix=1.00D-06.
 Requested convergence on             energy=1.00D-06.
 No special actions if energy rises.
 FoFCou: FMM=F IPFlag=           0 FMFlag=           0 FMFlg1=           0
         NFxFlg=           0 DoJE=F BraDBF=F KetDBF=F FulRan=T
         wScrn=  0.000000 ICntrl=     600 IOpCl=  0 I1Cent=           0 NGrid=           0
         NMat0=    1 NMatS0=    990 NMatT0=    0 NMatD0=    1 NMtDS0=    0 NMtDT0=    0
 Symmetry not used in FoFCou.

 Cycle   1  Pass 1  IDiag  1:
 E= -226.384523545420    
 DIIS: error= 6.10D-03 at cycle   1 NSaved=   1.
 NSaved= 1 IEnMin= 1 EnMin= -226.384523545420     IErMin= 1 ErrMin= 6.10D-03
 ErrMax= 6.10D-03  0.00D+00 EMaxC= 1.00D-01 BMatC= 1.81D-03 BMatP= 1.81D-03
 IDIUse=3 WtCom= 9.39D-01 WtEn= 6.10D-02
 Coeff-Com:  0.100D+01
 Coeff-En:   0.100D+01
 Coeff:      0.100D+01
 Gap=     0.543 Goal=   None    Shift=    0.000
 GapD=    0.543 DampG=2.000 DampE=1.000 DampFc=2.0000 IDamp=-1.
 RMSDP=1.10D-03 MaxDP=1.35D-02              OVMax= 1.38D-02

 Cycle   2  Pass 1  IDiag  1:
 E= -226.387286988447     Delta-E=       -0.002763443027 Rises=F Damp=F
 DIIS: error= 2.75D-03 at cycle   2 NSaved=   2.
 NSaved= 2 IEnMin= 2 EnMin= -226.387286988447     IErMin= 2 ErrMin= 2.75D-03
 ErrMax= 2.75D-03  0.00D+00 EMaxC= 1.00D-01 BMatC= 1.69D-04 BMatP= 1.81D-03
 IDIUse=3 WtCom= 9.72D-01 WtEn= 2.75D-02
 Coeff-Com: -0.323D+00 0.132D+01
 Coeff-En:   0.000D+00 0.100D+01
 Coeff:     -0.314D+00 0.131D+01
 Gap=     0.542 Goal=   None    Shift=    0.000
 RMSDP=5.65D-04 MaxDP=5.10D-03 DE=-2.76D-03 OVMax= 9.53D-03

 Cycle   3  Pass 1  IDiag  1:
 E= -226.387735839054     Delta-E=       -0.000448850606 Rises=F Damp=F
 DIIS: error= 8.83D-04 at cycle   3 NSaved=   3.
 NSaved= 3 IEnMin= 3 EnMin= -226.387735839054     IErMin= 3 ErrMin= 8.83D-04
 ErrMax= 8.83D-04  0.00D+00 EMaxC= 1.00D-01 BMatC= 1.41D-05 BMatP= 1.69D-04
 IDIUse=3 WtCom= 9.91D-01 WtEn= 8.83D-03
 Coeff-Com:  0.903D-01-0.523D+00 0.143D+01
 Coeff-En:   0.000D+00 0.000D+00 0.100D+01
 Coeff:      0.895D-01-0.519D+00 0.143D+01
 Gap=     0.542 Goal=   None    Shift=    0.000
 RMSDP=2.39D-04 MaxDP=3.15D-03 DE=-4.49D-04 OVMax= 4.43D-03

 Cycle   4  Pass 1  IDiag  1:
 E= -226.387786047790     Delta-E=       -0.000050208737 Rises=F Damp=F
 DIIS: error= 1.88D-04 at cycle   4 NSaved=   4.
 NSaved= 4 IEnMin= 4 EnMin= -226.387786047790     IErMin= 4 ErrMin= 1.88D-04
 ErrMax= 1.88D-04  0.00D+00 EMaxC= 1.00D-01 BMatC= 1.90D-06 BMatP= 1.41D-05
 IDIUse=3 WtCom= 9.98D-01 WtEn= 1.88D-03
 Coeff-Com:  0.569D-01-0.267D+00 0.304D+00 0.907D+00
 Coeff-En:   0.000D+00 0.000D+00 0.000D+00 0.100D+01
 Coeff:      0.568D-01-0.267D+00 0.303D+00 0.907D+00
 Gap=     0.542 Goal=   None    Shift=    0.000
 RMSDP=6.75D-05 MaxDP=9.08D-04 DE=-5.02D-05 OVMax= 1.18D-03

 Cycle   5  Pass 1  IDiag  1:
 E= -226.387790036350     Delta-E=       -0.000003988560 Rises=F Damp=F
 DIIS: error= 4.89D-05 at cycle   5 NSaved=   5.
 NSaved= 5 IEnMin= 5 EnMin= -226.387790036350     IErMin= 5 ErrMin= 4.89D-05
 ErrMax= 4.89D-05  0.00D+00 EMaxC= 1.00D-01 BMatC= 1.38D-07 BMatP= 1.90D-06
 IDIUse=1 WtCom= 1.00D+00 WtEn= 0.00D+00
 Coeff-Com: -0.428D-02 0.331D-01-0.142D+00 0.123D+00 0.991D+00
 Coeff:     -0.428D-02 0.331D-01-0.142D+00 0.123D+00 0.991D+00
 Gap=     0.542 Goal=   None    Shift=    0.000
 RMSDP=1.79D-05 MaxDP=2.26D-04 DE=-3.99D-06 OVMax= 3.11D-04

 Cycle   6  Pass 1  IDiag  1:
 E= -226.387790271239     Delta-E=       -0.000000234889 Rises=F Damp=F
 DIIS: error= 1.20D-05 at cycle   6 NSaved=   6.
 NSaved= 6 IEnMin= 6 EnMin= -226.387790271239     IErMin= 6 ErrMin= 1.20D-05
 ErrMax= 1.20D-05  0.00D+00 EMaxC= 1.00D-01 BMatC= 8.30D-09 BMatP= 1.38D-07
 IDIUse=1 WtCom= 1.00D+00 WtEn= 0.00D+00
 Coeff-Com: -0.252D-02 0.155D-01-0.462D-01 0.110D-01 0.263D+00 0.759D+00
 Coeff:     -0.252D-02 0.155D-01-0.462D-01 0.110D-01 0.263D+00 0.759D+00
 Gap=     0.542 Goal=   None    Shift=    0.000
 RMSDP=2.46D-06 MaxDP=1.59D-05 DE=-2.35D-07 OVMax= 3.15D-05

 Cycle   7  Pass 1  IDiag  1:
 E= -226.387790282761     Delta-E=       -0.000000011522 Rises=F Damp=F
 DIIS: error= 7.29D-06 at cycle   7 NSaved=   7.
 NSaved= 7 IEnMin= 7 EnMin= -226.387790282761     IErMin= 7 ErrMin= 7.29D-06
 ErrMax= 7.29D-06  0.00D+00 EMaxC= 1.00D-01 BMatC= 1.30D-09 BMatP= 8.30D-09
 IDIUse=1 WtCom= 1.00D+00 WtEn= 0.00D+00
 Coeff-Com:  0.108D-02-0.812D-02 0.333D-01-0.259D-01-0.236D+00-0.906D-01
 Coeff-Com:  0.133D+01
 Coeff:      0.108D-02-0.812D-02 0.333D-01-0.259D-01-0.236D+00-0.906D-01
 Coeff:      0.133D+01
 Gap=     0.542 Goal=   None    Shift=    0.000
 RMSDP=2.14D-06 MaxDP=1.15D-05 DE=-1.15D-08 OVMax= 3.12D-05

 Cycle   8  Pass 1  IDiag  1:
 E= -226.387790287568     Delta-E=       -0.000000004807 Rises=F Damp=F
 DIIS: error= 3.87D-06 at cycle   8 NSaved=   8.
 NSaved= 8 IEnMin= 8 EnMin= -226.387790287568     IErMin= 8 ErrMin= 3.87D-06
 ErrMax= 3.87D-06  0.00D+00 EMaxC= 1.00D-01 BMatC= 1.44D-10 BMatP= 1.30D-09
 IDIUse=1 WtCom= 1.00D+00 WtEn= 0.00D+00
 Coeff-Com: -0.162D-03 0.148D-02-0.725D-02 0.751D-02 0.576D-01-0.463D-01
 Coeff-Com: -0.443D+00 0.143D+01
 Coeff:     -0.162D-03 0.148D-02-0.725D-02 0.751D-02 0.576D-01-0.463D-01
 Coeff:     -0.443D+00 0.143D+01
 Gap=     0.542 Goal=   None    Shift=    0.000
 RMSDP=8.78D-07 MaxDP=5.88D-06 DE=-4.81D-09 OVMax= 1.55D-05

 Cycle   9  Pass 1  IDiag  1:
 E= -226.387790288305     Delta-E=       -0.000000000737 Rises=F Damp=F
 DIIS: error= 1.61D-06 at cycle   9 NSaved=   9.
 NSaved= 9 IEnMin= 9 EnMin= -226.387790288305     IErMin= 9 ErrMin= 1.61D-06
 ErrMax= 1.61D-06  0.00D+00 EMaxC= 1.00D-01 BMatC= 2.79D-11 BMatP= 1.44D-10
 IDIUse=1 WtCom= 1.00D+00 WtEn= 0.00D+00
 Coeff-Com: -0.158D-03 0.125D-02-0.528D-02 0.435D-02 0.379D-01 0.108D-01
 Coeff-Com: -0.238D+00 0.945D-01 0.109D+01
 Coeff:     -0.158D-03 0.125D-02-0.528D-02 0.435D-02 0.379D-01 0.108D-01
 Coeff:     -0.238D+00 0.945D-01 0.109D+01
 Gap=     0.542 Goal=   None    Shift=    0.000
 RMSDP=3.60D-07 MaxDP=2.44D-06 DE=-7.37D-10 OVMax= 7.20D-06

 Cycle  10  Pass 1  IDiag  1:
 E= -226.387790288428     Delta-E=       -0.000000000123 Rises=F Damp=F
 DIIS: error= 6.63D-07 at cycle  10 NSaved=  10.
 NSaved=10 IEnMin=10 EnMin= -226.387790288428     IErMin=10 ErrMin= 6.63D-07
 ErrMax= 6.63D-07  0.00D+00 EMaxC= 1.00D-01 BMatC= 4.86D-12 BMatP= 2.79D-11
 IDIUse=1 WtCom= 1.00D+00 WtEn= 0.00D+00
 Coeff-Com:  0.707D-04-0.625D-03 0.295D-02-0.282D-02-0.232D-01 0.123D-01
 Coeff-Com:  0.152D+00-0.358D+00-0.204D+00 0.142D+01
 Coeff:      0.707D-04-0.625D-03 0.295D-02-0.282D-02-0.232D-01 0.123D-01
 Coeff:      0.152D+00-0.358D+00-0.204D+00 0.142D+01
 Gap=     0.542 Goal=   None    Shift=    0.000
 RMSDP=1.93D-07 MaxDP=1.27D-06 DE=-1.23D-10 OVMax= 4.12D-06

 Cycle  11  Pass 1  IDiag  1:
 E= -226.387790288451     Delta-E=       -0.000000000023 Rises=F Damp=F
 DIIS: error= 9.71D-08 at cycle  11 NSaved=  11.
 NSaved=11 IEnMin=11 EnMin= -226.387790288451     IErMin=11 ErrMin= 9.71D-08
 ErrMax= 9.71D-08  0.00D+00 EMaxC= 1.00D-01 BMatC= 2.53D-13 BMatP= 4.86D-12
 IDIUse=1 WtCom= 1.00D+00 WtEn= 0.00D+00
 Coeff-Com: -0.115D-05 0.189D-04-0.134D-03 0.186D-03 0.120D-02-0.173D-02
 Coeff-Com: -0.129D-01 0.634D-01-0.407D-01-0.260D+00 0.125D+01
 Coeff:     -0.115D-05 0.189D-04-0.134D-03 0.186D-03 0.120D-02-0.173D-02
 Coeff:     -0.129D-01 0.634D-01-0.407D-01-0.260D+00 0.125D+01
 Gap=     0.542 Goal=   None    Shift=    0.000
 RMSDP=3.15D-08 MaxDP=1.91D-07 DE=-2.29D-11 OVMax= 6.52D-07

 Cycle  12  Pass 1  IDiag  1:
 E= -226.387790288452     Delta-E=       -0.000000000001 Rises=F Damp=F
 DIIS: error= 2.22D-08 at cycle  12 NSaved=  12.
 NSaved=12 IEnMin=12 EnMin= -226.387790288452     IErMin=12 ErrMin= 2.22D-08
 ErrMax= 2.22D-08  0.00D+00 EMaxC= 1.00D-01 BMatC= 2.46D-14 BMatP= 2.53D-13
 IDIUse=1 WtCom= 1.00D+00 WtEn= 0.00D+00
 Coeff-Com: -0.709D-05 0.632D-04-0.299D-03 0.290D-03 0.234D-02-0.101D-02
 Coeff-Com: -0.166D-01 0.400D-01 0.177D-01-0.158D+00 0.456D-01 0.107D+01
 Coeff:     -0.709D-05 0.632D-04-0.299D-03 0.290D-03 0.234D-02-0.101D-02
 Coeff:     -0.166D-01 0.400D-01 0.177D-01-0.158D+00 0.456D-01 0.107D+01
 Gap=     0.542 Goal=   None    Shift=    0.000
 RMSDP=9.41D-09 MaxDP=5.42D-08 DE=-1.02D-12 OVMax= 1.70D-07

 SCF Done:  E(RHF) =  -226.387790288     A.U. after   12 cycles
            NFock= 12  Conv=0.94D-08     -V/T= 2.0035
 KE= 2.255906507798D+02 PE=-7.660369472566D+02 EE= 1.976024435982D+02
 Leave Link  502 at Fri Apr 12 15:34:54 2019, MaxMem=   134217728 cpu:         0.4
 (Enter /cm/shared/c3ddb/gaussian/09.d01/g09/l601.exe)
 Copying SCF densities to generalized density rwf, IOpCl= 0 IROHF=0.

 **********************************************************************

            Population analysis using the SCF density.

 **********************************************************************

 Alpha  occ. eigenvalues --  -20.54098 -20.53340 -11.25134 -11.17389  -1.48197
 Alpha  occ. eigenvalues --   -1.24351  -1.03725  -0.80951  -0.72328  -0.66048
 Alpha  occ. eigenvalues --   -0.65359  -0.58081  -0.54765  -0.53019  -0.48493
 Alpha  occ. eigenvalues --   -0.36793
 Alpha virt. eigenvalues --    0.17375   0.22477   0.26453   0.31368   0.33327
 Alpha virt. eigenvalues --    0.35461   0.49590   0.56801   0.89128   0.96483
 Alpha virt. eigenvalues --    0.98969   1.06149   1.09896   1.10623   1.24878
 Alpha virt. eigenvalues --    1.31658   1.35946   1.56763   1.59175   1.75078
 Alpha virt. eigenvalues --    1.78981   1.90988   1.94380   1.98418   2.06961
 Alpha virt. eigenvalues --    2.28485   3.02274   3.51991
          Condensed to atoms (all electrons):
               1          2          3          4          5          6
     1  C    4.926644   0.508196   0.359835  -0.046359  -0.051608   0.206744
     2  C    0.508196   5.307094  -0.044766   0.386272   0.389866  -0.051968
     3  H    0.359835  -0.044766   0.466078  -0.000708   0.002345  -0.035381
     4  H   -0.046359   0.386272  -0.000708   0.444068  -0.014696   0.001275
     5  H   -0.051608   0.389866   0.002345  -0.014696   0.428446  -0.000543
     6  O    0.206744  -0.051968  -0.035381   0.001275  -0.000543   8.167053
     7  O   -0.024469   0.002722   0.001991  -0.000022  -0.000017   0.125220
     8  H   -0.002093  -0.000057   0.001119   0.000002   0.000013  -0.025372
               7          8
     1  C   -0.024469  -0.002093
     2  C    0.002722  -0.000057
     3  H    0.001991   0.001119
     4  H   -0.000022   0.000002
     5  H   -0.000017   0.000013
     6  O    0.125220  -0.025372
     7  O    8.024558   0.237349
     8  H    0.237349   0.386277
 Mulliken charges:
               1
     1  C    0.123110
     2  C   -0.497358
     3  H    0.249486
     4  H    0.230168
     5  H    0.246195
     6  O   -0.387028
     7  O   -0.367332
     8  H    0.402761
 Sum of Mulliken charges =   0.00000
 Mulliken charges with hydrogens summed into heavy atoms:
               1
     1  C    0.372595
     2  C   -0.020995
     6  O   -0.387028
     7  O    0.035428
 Electronic spatial extent (au):  <R**2>=            371.6748
 Charge=              0.0000 electrons
 Dipole moment (field-independent basis, Debye):
    X=              2.5277    Y=              0.7172    Z=             -1.7875  Tot=              3.1778
 Quadrupole moment (field-independent basis, Debye-Ang):
   XX=            -24.5045   YY=            -19.5501   ZZ=            -23.3928
   XY=              2.3856   XZ=              1.4656   YZ=             -4.2177
 Traceless Quadrupole moment (field-independent basis, Debye-Ang):
   XX=             -2.0221   YY=              2.9324   ZZ=             -0.9103
   XY=              2.3856   XZ=              1.4656   YZ=             -4.2177
 Octapole moment (field-independent basis, Debye-Ang**2):
  XXX=             -5.6848  YYY=            -40.9142  ZZZ=              1.0289  XYY=             -0.1924
  XXY=            -19.3213  XXZ=              0.9072  XZZ=             -8.5601  YZZ=            -10.6740
  YYZ=             -9.3419  XYZ=              3.2299
 Hexadecapole moment (field-independent basis, Debye-Ang**3):
 XXXX=           -173.2377 YYYY=           -198.8444 ZZZZ=            -23.1083 XXXY=             55.3906
 XXXZ=             -3.1222 YYYX=             55.8020 YYYZ=            -17.2163 ZZZX=             -2.3071
 ZZZY=              2.2503 XXYY=            -72.0758 XXZZ=            -37.2076 YYZZ=            -30.6373
 XXYZ=              1.1426 YYXZ=              6.2357 ZZXY=             13.7879
 N-N= 1.164560625902D+02 E-N=-7.660369478285D+02  KE= 2.255906507798D+02
 No NMR shielding tensors so no spin-rotation constants.
 Leave Link  601 at Fri Apr 12 15:34:54 2019, MaxMem=   134217728 cpu:         0.2
 (Enter /cm/shared/c3ddb/gaussian/09.d01/g09/l701.exe)
 Compute integral first derivatives.
 ... and contract with generalized density number  0.
 Leave Link  701 at Fri Apr 12 15:34:54 2019, MaxMem=   134217728 cpu:         0.3
 (Enter /cm/shared/c3ddb/gaussian/09.d01/g09/l702.exe)
 L702 exits ... SP integral derivatives will be done elsewhere.
 Leave Link  702 at Fri Apr 12 15:34:55 2019, MaxMem=   134217728 cpu:         0.2
 (Enter /cm/shared/c3ddb/gaussian/09.d01/g09/l703.exe)
 Compute integral first derivatives, UseDBF=F ICtDFT=           0.
 Integral derivatives from FoFJK, PRISM(SPDF).
 Calling FoFJK, ICntrl=      2127 FMM=F ISym2X=0 I1Cent= 0 IOpClX= 0 NMat=1 NMatS=1 NMatT=0.
 FoFJK:  IHMeth= 1 ICntrl=    2127 DoSepK=F KAlg= 0 I1Cent=   0 FoldK=F
 IRaf=         0 NMat=   1 IRICut=       1 DoRegI=T DoRafI=F ISym2E= 0.
 FoFCou: FMM=F IPFlag=           0 FMFlag=      100000 FMFlg1=         800
         NFxFlg=           0 DoJE=F BraDBF=F KetDBF=F FulRan=T
         wScrn=  0.000000 ICntrl=    2127 IOpCl=  0 I1Cent=           0 NGrid=           0
         NMat0=    1 NMatS0=      1 NMatT0=    0 NMatD0=    1 NMtDS0=    0 NMtDT0=    0
 Symmetry not used in FoFCou.
 Leave Link  703 at Fri Apr 12 15:34:55 2019, MaxMem=   134217728 cpu:         0.3
 (Enter /cm/shared/c3ddb/gaussian/09.d01/g09/l716.exe)
 Dipole        = 9.94467881D-01 2.82152428D-01-7.03247484D-01
 -------------------------------------------------------------------
 Center     Atomic                   Forces (Hartrees/Bohr)
 Number     Number              X              Y              Z
 -------------------------------------------------------------------
      1        6           0.000757479    0.002421914    0.007867160
      2        6          -0.000454682   -0.000292990   -0.002542013
      3        1          -0.000726656    0.000028444   -0.000331996
      4        1          -0.000028753    0.000040078    0.000075981
      5        1           0.000073315   -0.000126408   -0.000044965
      6        8          -0.002258073   -0.000503145   -0.006314784
      7        8           0.007521396    0.001936632    0.004461213
      8        1          -0.004884026   -0.003504527   -0.003170597
 -------------------------------------------------------------------
 Cartesian Forces:  Max     0.007867160 RMS     0.003210645
 Leave Link  716 at Fri Apr 12 15:34:55 2019, MaxMem=   134217728 cpu:         0.1
 (Enter /cm/shared/c3ddb/gaussian/09.d01/g09/l103.exe)

 GradGradGradGradGradGradGradGradGradGradGradGradGradGradGradGradGradGrad
 Berny optimization.
 FormGI is forming the generalized inverse of G from B-inverse, IUseBI=4.
 Internal  Forces:  Max     0.011892608 RMS     0.002940116
 Search for a local minimum.
 Step number   1 out of a maximum of   32
 All quantities printed in internal units (Hartrees-Bohrs-Radians)
 RMS Force = .12766D-02 SwitMx=.10000D-02 MixMth= 1
 Mixed Optimization -- RFO/linear search
 Second derivative matrix not updated -- first step.
 ITU=  0
     Eigenvalues ---    0.02555   0.03297   0.03297   0.15974   0.16000
     Eigenvalues ---    0.16000   0.16000   0.22006   0.25000   0.36566
     Eigenvalues ---    0.37130   0.37156   0.37204   0.44893   0.52322
     Eigenvalues ---    0.648471000.000001000.000001000.000001000.00000
     Eigenvalues --- 1000.000001000.00000
 RFO step:  Lambda=-1.43434509D-04 EMin= 2.55530479D-02
 Linear search not attempted -- first point.
 Iteration  1 RMS(Cart)=  0.01612174 RMS(Int)=  0.00011860
 Iteration  2 RMS(Cart)=  0.00012244 RMS(Int)=  0.00000623
 Iteration  3 RMS(Cart)=  0.00000001 RMS(Int)=  0.00000623
 Iteration  1 RMS(Cart)=  0.00000403 RMS(Int)=  0.00000173
 Iteration  2 RMS(Cart)=  0.00000143 RMS(Int)=  0.00000192
 Iteration  3 RMS(Cart)=  0.00000051 RMS(Int)=  0.00000207
 ITry= 1 IFail=0 DXMaxC= 4.47D-02 DCOld= 1.00D+10 DXMaxT= 3.00D-01 DXLimC= 3.00D+00 Rises=F
 Variable       Old X    -DE/DX   Delta X   Delta X   Delta X     New X
                                 (Linear)    (Quad)   (Total)
    R1        2.47299   0.00020   0.00000   0.00031   0.00031   2.47329
    R2        2.02311  -0.00033   0.00000  -0.00089  -0.00089   2.02222
    R3        2.65400  -0.00048   0.00000  -0.00108  -0.00108   2.65292
    R4        2.02240  -0.00003   0.00000  -0.00007  -0.00007   2.02233
    R5        2.02351   0.00008   0.00000   0.00020   0.00020   2.02371
    R6        2.76506  -0.00246   0.00000  -0.00673  -0.00673   2.75832
    R7        1.84292   0.00011   0.00000   0.00021   0.00021   1.84314
    A1        2.16976   0.00092   0.00000   0.00501   0.00501   2.17477
    A2        2.10864  -0.00024   0.00000  -0.00108  -0.00109   2.10755
    A3        2.00224  -0.00057   0.00000  -0.00338  -0.00339   1.99885
    A4        2.10090  -0.00014   0.00000  -0.00090  -0.00090   2.10000
    A5        2.11750   0.00020   0.00000   0.00124   0.00124   2.11875
    A6        2.06477  -0.00006   0.00000  -0.00035  -0.00035   2.06442
    A7        1.91735  -0.00424   0.00000  -0.01695  -0.01695   1.90040
    A8        1.81004  -0.00264   0.00000  -0.01650  -0.01650   1.79354
    D1       -0.03389   0.00096   0.00000   0.00629   0.00630  -0.02759
    D2        3.10212   0.00094   0.00000   0.00540   0.00541   3.10754
    D3       -3.09488  -0.00083   0.00000  -0.00235  -0.00236  -3.09724
    D4        0.04113  -0.00086   0.00000  -0.00324  -0.00325   0.03789
    D5       -2.96706   0.00323   0.00000   0.00000   0.00000  -2.96706
    D6        0.24781   0.00153   0.00000  -0.00822  -0.00820   0.23961
    D7        1.04720   0.01189   0.00000   0.00000   0.00000   1.04720
         Item               Value     Threshold  Converged?
 Maximum Force            0.004240     0.000015     NO 
 RMS     Force            0.001277     0.000010     NO 
 Maximum Displacement     0.044659     0.000060     NO 
 RMS     Displacement     0.016118     0.000040     NO 
 Predicted change in Energy=-7.183556D-05
 Lowest energy point so far.  Saving SCF results.
 GradGradGradGradGradGradGradGradGradGradGradGradGradGradGradGradGradGrad

 Leave Link  103 at Fri Apr 12 15:34:55 2019, MaxMem=   134217728 cpu:         0.0
 (Enter /cm/shared/c3ddb/gaussian/09.d01/g09/l202.exe)
                          Input orientation:                          
 ---------------------------------------------------------------------
 Center     Atomic      Atomic             Coordinates (Angstroms)
 Number     Number       Type             X           Y           Z
 ---------------------------------------------------------------------
      1          6           0        0.742460    0.637315    0.023653
      2          6           0        1.375240   -0.507793   -0.012448
      3          1           0        1.217988    1.591937    0.111467
      4          1           0        2.444506   -0.535510    0.021750
      5          1           0        0.845182   -1.436499   -0.070521
      6          8           0       -0.660658    0.682164    0.032793
      7          8           0       -1.090505    2.062919   -0.165464
      8          1           0       -0.708595    2.284719   -1.035089
 ---------------------------------------------------------------------
                    Distance matrix (angstroms):
                    1          2          3          4          5
     1  C    0.000000
     2  C    1.308811   0.000000
     3  H    1.070113   2.109253   0.000000
     4  H    2.066999   1.070172   2.457321   0.000000
     5  H    2.078491   1.070902   3.056719   1.837971   0.000000
     6  O    1.403864   2.358586   2.088824   3.335401   2.601339
     7  O    2.329779   3.565371   2.372267   4.391262   4.000228
     8  H    2.437300   3.631292   2.346541   4.360349   4.146333
                    6          7          8
     6  O    0.000000
     7  O    1.459643   0.000000
     8  H    1.926357   0.975345   0.000000
 Symmetry turned off by external request.
 Stoichiometry    C2H4O2
 Framework group  C1[X(C2H4O2)]
 Deg. of freedom    18
 Full point group                 C1      NOp   1
 Rotational constants (GHZ):     42.0347564      4.5656266      4.1871575
 Leave Link  202 at Fri Apr 12 15:34:55 2019, MaxMem=   134217728 cpu:         0.0
 (Enter /cm/shared/c3ddb/gaussian/09.d01/g09/l301.exe)
 Standard basis: 3-21G (6D, 7F)
 Ernie: Thresh=  0.10000D-02 Tol=  0.10000D-05 Strict=F.
    44 basis functions,    72 primitive gaussians,    44 cartesian basis functions
    16 alpha electrons       16 beta electrons
       nuclear repulsion energy       116.7113375176 Hartrees.
 IExCor=    0 DFT=F Ex=HF Corr=None ExCW=0 ScaHFX=  1.000000
 ScaDFX=  1.000000  1.000000  1.000000  1.000000 ScalE2=  1.000000  1.000000
 IRadAn=      0 IRanWt=     -1 IRanGd=            0 ICorTp=0 IEmpDi=  4
 NAtoms=    8 NActive=    8 NUniq=    8 SFac= 1.00D+00 NAtFMM=   60 NAOKFM=F Big=F
 Integral buffers will be    131072 words long.
 Raffenetti 1 integral format.
 Two-electron integral symmetry is turned off.
 Leave Link  301 at Fri Apr 12 15:34:56 2019, MaxMem=   134217728 cpu:         0.2
 (Enter /cm/shared/c3ddb/gaussian/09.d01/g09/l302.exe)
 NPDir=0 NMtPBC=     1 NCelOv=     1 NCel=       1 NClECP=     1 NCelD=      1
         NCelK=      1 NCelE2=     1 NClLst=     1 CellRange=     0.0.
 One-electron integrals computed using PRISM.
 NBasis=    44 RedAO= T EigKep=  1.13D-02  NBF=    44
 NBsUse=    44 1.00D-06 EigRej= -1.00D+00 NBFU=    44
 Leave Link  302 at Fri Apr 12 15:34:56 2019, MaxMem=   134217728 cpu:         0.3
 (Enter /cm/shared/c3ddb/gaussian/09.d01/g09/l303.exe)
 DipDrv:  MaxL=1.
 Leave Link  303 at Fri Apr 12 15:34:56 2019, MaxMem=   134217728 cpu:         0.1
 (Enter /cm/shared/c3ddb/gaussian/09.d01/g09/l401.exe)
 Initial guess from the checkpoint file:  "TMP_CALCS/scangeom_S02_190_060.chk"
 B after Tr=    -0.002744    0.000267    0.000538
         Rot=    1.000000   -0.000633   -0.000084    0.000625 Ang=  -0.10 deg.
 Guess basis will be translated and rotated to current coordinates.
 JPrj=2 DoOrth=T DoCkMO=T.
 Generating alternative initial guess.
 ExpMin= 1.83D-01 ExpMax= 3.22D+02 ExpMxC= 3.22D+02 IAcc=1 IRadAn=         1 AccDes= 0.00D+00
 Harris functional with IExCor=  205 and IRadAn=       1 diagonalized for initial guess.
 HarFok:  IExCor=  205 AccDes= 0.00D+00 IRadAn=         1 IDoV= 1 UseB2=F ITyADJ=14
 ICtDFT=  3500011 ScaDFX=  1.000000  1.000000  1.000000  1.000000
 FoFCou: FMM=F IPFlag=           0 FMFlag=      100000 FMFlg1=           0
         NFxFlg=           0 DoJE=T BraDBF=F KetDBF=T FulRan=T
         wScrn=  0.000000 ICntrl=     500 IOpCl=  0 I1Cent=   200000004 NGrid=           0
         NMat0=    1 NMatS0=      1 NMatT0=    0 NMatD0=    1 NMtDS0=    0 NMtDT0=    0
 Symmetry not used in FoFCou.
 Harris En= -226.624969749007    
 Leave Link  401 at Fri Apr 12 15:34:57 2019, MaxMem=   134217728 cpu:         0.6
 (Enter /cm/shared/c3ddb/gaussian/09.d01/g09/l502.exe)
 Closed shell SCF:
 Using DIIS extrapolation, IDIIS=  1040.
 Two-electron integral symmetry not used.
 Keep R1 ints in memory in canonical form, NReq=1327274.
 IVT=       24902 IEndB=       24902 NGot=   134217728 MDV=   133702282
 LenX=   133702282 LenY=   133699905
 Requested convergence on RMS density matrix=1.00D-08 within 128 cycles.
 Requested convergence on MAX density matrix=1.00D-06.
 Requested convergence on             energy=1.00D-06.
 No special actions if energy rises.
 FoFCou: FMM=F IPFlag=           0 FMFlag=           0 FMFlg1=           0
         NFxFlg=           0 DoJE=F BraDBF=F KetDBF=F FulRan=T
         wScrn=  0.000000 ICntrl=     600 IOpCl=  0 I1Cent=           0 NGrid=           0
         NMat0=    1 NMatS0=    990 NMatT0=    0 NMatD0=    1 NMtDS0=    0 NMtDT0=    0
 Symmetry not used in FoFCou.

 Cycle   1  Pass 1  IDiag  1:
 E= -226.387676970487    
 DIIS: error= 8.72D-04 at cycle   1 NSaved=   1.
 NSaved= 1 IEnMin= 1 EnMin= -226.387676970487     IErMin= 1 ErrMin= 8.72D-04
 ErrMax= 8.72D-04  0.00D+00 EMaxC= 1.00D-01 BMatC= 8.63D-05 BMatP= 8.63D-05
 IDIUse=3 WtCom= 9.91D-01 WtEn= 8.72D-03
 Coeff-Com:  0.100D+01
 Coeff-En:   0.100D+01
 Coeff:      0.100D+01
 Gap=     0.934 Goal=   None    Shift=    0.000
 RMSDP=2.22D-04 MaxDP=1.33D-03              OVMax= 1.58D-03

 Cycle   2  Pass 1  IDiag  1:
 E= -226.387788339185     Delta-E=       -0.000111368699 Rises=F Damp=F
 DIIS: error= 4.58D-04 at cycle   2 NSaved=   2.
 NSaved= 2 IEnMin= 2 EnMin= -226.387788339185     IErMin= 2 ErrMin= 4.58D-04
 ErrMax= 4.58D-04  0.00D+00 EMaxC= 1.00D-01 BMatC= 6.75D-06 BMatP= 8.63D-05
 IDIUse=3 WtCom= 9.95D-01 WtEn= 4.58D-03
 Coeff-Com: -0.177D+00 0.118D+01
 Coeff-En:   0.000D+00 0.100D+01
 Coeff:     -0.177D+00 0.118D+01
 Gap=     0.542 Goal=   None    Shift=    0.000
 RMSDP=1.00D-04 MaxDP=7.82D-04 DE=-1.11D-04 OVMax= 1.29D-03

 Cycle   3  Pass 1  IDiag  1:
 E= -226.387808163194     Delta-E=       -0.000019824008 Rises=F Damp=F
 DIIS: error= 2.50D-04 at cycle   3 NSaved=   3.
 NSaved= 3 IEnMin= 3 EnMin= -226.387808163194     IErMin= 3 ErrMin= 2.50D-04
 ErrMax= 2.50D-04  0.00D+00 EMaxC= 1.00D-01 BMatC= 1.24D-06 BMatP= 6.75D-06
 IDIUse=3 WtCom= 9.97D-01 WtEn= 2.50D-03
 Coeff-Com: -0.144D-01-0.206D+00 0.122D+01
 Coeff-En:   0.000D+00 0.000D+00 0.100D+01
 Coeff:     -0.144D-01-0.206D+00 0.122D+01
 Gap=     0.542 Goal=   None    Shift=    0.000
 RMSDP=5.16D-05 MaxDP=4.52D-04 DE=-1.98D-05 OVMax= 8.21D-04

 Cycle   4  Pass 1  IDiag  1:
 E= -226.387812336545     Delta-E=       -0.000004173351 Rises=F Damp=F
 DIIS: error= 1.26D-04 at cycle   4 NSaved=   4.
 NSaved= 4 IEnMin= 4 EnMin= -226.387812336545     IErMin= 4 ErrMin= 1.26D-04
 ErrMax= 1.26D-04  0.00D+00 EMaxC= 1.00D-01 BMatC= 3.69D-07 BMatP= 1.24D-06
 IDIUse=3 WtCom= 9.99D-01 WtEn= 1.26D-03
 Coeff-Com:  0.345D-01-0.305D+00 0.324D+00 0.947D+00
 Coeff-En:   0.000D+00 0.000D+00 0.000D+00 0.100D+01
 Coeff:      0.345D-01-0.305D+00 0.323D+00 0.947D+00
 Gap=     0.542 Goal=   None    Shift=    0.000
 RMSDP=2.63D-05 MaxDP=2.48D-04 DE=-4.17D-06 OVMax= 4.04D-04

 Cycle   5  Pass 1  IDiag  1:
 E= -226.387813329574     Delta-E=       -0.000000993030 Rises=F Damp=F
 DIIS: error= 5.30D-05 at cycle   5 NSaved=   5.
 NSaved= 5 IEnMin= 5 EnMin= -226.387813329574     IErMin= 5 ErrMin= 5.30D-05
 ErrMax= 5.30D-05  0.00D+00 EMaxC= 1.00D-01 BMatC= 4.20D-08 BMatP= 3.69D-07
 IDIUse=1 WtCom= 1.00D+00 WtEn= 0.00D+00
 Coeff-Com: -0.201D-02 0.789D-01-0.247D+00-0.166D+00 0.134D+01
 Coeff:     -0.201D-02 0.789D-01-0.247D+00-0.166D+00 0.134D+01
 Gap=     0.542 Goal=   None    Shift=    0.000
 RMSDP=1.36D-05 MaxDP=1.21D-04 DE=-9.93D-07 OVMax= 2.34D-04

 Cycle   6  Pass 1  IDiag  1:
 E= -226.387813502248     Delta-E=       -0.000000172673 Rises=F Damp=F
 DIIS: error= 1.36D-05 at cycle   6 NSaved=   6.
 NSaved= 6 IEnMin= 6 EnMin= -226.387813502248     IErMin= 6 ErrMin= 1.36D-05
 ErrMax= 1.36D-05  0.00D+00 EMaxC= 1.00D-01 BMatC= 6.28D-09 BMatP= 4.20D-08
 IDIUse=1 WtCom= 1.00D+00 WtEn= 0.00D+00
 Coeff-Com: -0.440D-02 0.545D-01-0.955D-01-0.154D+00 0.322D+00 0.877D+00
 Coeff:     -0.440D-02 0.545D-01-0.955D-01-0.154D+00 0.322D+00 0.877D+00
 Gap=     0.542 Goal=   None    Shift=    0.000
 RMSDP=3.59D-06 MaxDP=2.74D-05 DE=-1.73D-07 OVMax= 7.63D-05

 Cycle   7  Pass 1  IDiag  1:
 E= -226.387813518315     Delta-E=       -0.000000016068 Rises=F Damp=F
 DIIS: error= 6.25D-06 at cycle   7 NSaved=   7.
 NSaved= 7 IEnMin= 7 EnMin= -226.387813518315     IErMin= 7 ErrMin= 6.25D-06
 ErrMax= 6.25D-06  0.00D+00 EMaxC= 1.00D-01 BMatC= 8.29D-10 BMatP= 6.28D-09
 IDIUse=1 WtCom= 1.00D+00 WtEn= 0.00D+00
 Coeff-Com:  0.150D-02-0.268D-01 0.643D-01 0.696D-01-0.322D+00-0.181D+00
 Coeff-Com:  0.139D+01
 Coeff:      0.150D-02-0.268D-01 0.643D-01 0.696D-01-0.322D+00-0.181D+00
 Coeff:      0.139D+01
 Gap=     0.542 Goal=   None    Shift=    0.000
 RMSDP=2.00D-06 MaxDP=1.27D-05 DE=-1.61D-08 OVMax= 4.80D-05

 Cycle   8  Pass 1  IDiag  1:
 E= -226.387813521778     Delta-E=       -0.000000003463 Rises=F Damp=F
 DIIS: error= 2.31D-06 at cycle   8 NSaved=   8.
 NSaved= 8 IEnMin= 8 EnMin= -226.387813521778     IErMin= 8 ErrMin= 2.31D-06
 ErrMax= 2.31D-06  0.00D+00 EMaxC= 1.00D-01 BMatC= 7.38D-11 BMatP= 8.29D-10
 IDIUse=1 WtCom= 1.00D+00 WtEn= 0.00D+00
 Coeff-Com:  0.148D-03-0.494D-03-0.233D-02 0.576D-02 0.115D-01-0.333D-01
 Coeff-Com: -0.190D+00 0.121D+01
 Coeff:      0.148D-03-0.494D-03-0.233D-02 0.576D-02 0.115D-01-0.333D-01
 Coeff:     -0.190D+00 0.121D+01
 Gap=     0.542 Goal=   None    Shift=    0.000
 RMSDP=5.20D-07 MaxDP=2.93D-06 DE=-3.46D-09 OVMax= 1.24D-05

 Cycle   9  Pass 1  IDiag  1:
 E= -226.387813522059     Delta-E=       -0.000000000280 Rises=F Damp=F
 DIIS: error= 1.01D-06 at cycle   9 NSaved=   9.
 NSaved= 9 IEnMin= 9 EnMin= -226.387813522059     IErMin= 9 ErrMin= 1.01D-06
 ErrMax= 1.01D-06  0.00D+00 EMaxC= 1.00D-01 BMatC= 1.66D-11 BMatP= 7.38D-11
 IDIUse=1 WtCom= 1.00D+00 WtEn= 0.00D+00
 Coeff-Com: -0.307D-03 0.582D-02-0.149D-01-0.130D-01 0.704D-01 0.387D-01
 Coeff-Com: -0.330D+00 0.180D+00 0.106D+01
 Coeff:     -0.307D-03 0.582D-02-0.149D-01-0.130D-01 0.704D-01 0.387D-01
 Coeff:     -0.330D+00 0.180D+00 0.106D+01
 Gap=     0.542 Goal=   None    Shift=    0.000
 RMSDP=2.50D-07 MaxDP=1.53D-06 DE=-2.80D-10 OVMax= 4.95D-06

 Cycle  10  Pass 1  IDiag  1:
 E= -226.387813522113     Delta-E=       -0.000000000055 Rises=F Damp=F
 DIIS: error= 3.77D-07 at cycle  10 NSaved=  10.
 NSaved=10 IEnMin=10 EnMin= -226.387813522113     IErMin=10 ErrMin= 3.77D-07
 ErrMax= 3.77D-07  0.00D+00 EMaxC= 1.00D-01 BMatC= 1.77D-12 BMatP= 1.66D-11
 IDIUse=1 WtCom= 1.00D+00 WtEn= 0.00D+00
 Coeff-Com:  0.114D-03-0.253D-02 0.690D-02 0.559D-02-0.338D-01-0.129D-01
 Coeff-Com:  0.174D+00-0.241D+00-0.468D+00 0.157D+01
 Coeff:      0.114D-03-0.253D-02 0.690D-02 0.559D-02-0.338D-01-0.129D-01
 Coeff:      0.174D+00-0.241D+00-0.468D+00 0.157D+01
 Gap=     0.542 Goal=   None    Shift=    0.000
 RMSDP=1.09D-07 MaxDP=9.57D-07 DE=-5.46D-11 OVMax= 1.87D-06

 Cycle  11  Pass 1  IDiag  1:
 E= -226.387813522123     Delta-E=       -0.000000000010 Rises=F Damp=F
 DIIS: error= 9.37D-08 at cycle  11 NSaved=  11.
 NSaved=11 IEnMin=11 EnMin= -226.387813522123     IErMin=11 ErrMin= 9.37D-08
 ErrMax= 9.37D-08  0.00D+00 EMaxC= 1.00D-01 BMatC= 1.58D-13 BMatP= 1.77D-12
 IDIUse=1 WtCom= 1.00D+00 WtEn= 0.00D+00
 Coeff-Com: -0.198D-04 0.518D-03-0.148D-02-0.117D-02 0.757D-02 0.145D-02
 Coeff-Com: -0.408D-01 0.837D-01 0.888D-01-0.640D+00 0.150D+01
 Coeff:     -0.198D-04 0.518D-03-0.148D-02-0.117D-02 0.757D-02 0.145D-02
 Coeff:     -0.408D-01 0.837D-01 0.888D-01-0.640D+00 0.150D+01
 Gap=     0.542 Goal=   None    Shift=    0.000
 RMSDP=3.17D-08 MaxDP=2.99D-07 DE=-9.66D-12 OVMax= 5.76D-07

 Cycle  12  Pass 1  IDiag  1:
 E= -226.387813522123     Delta-E=       -0.000000000001 Rises=F Damp=F
 DIIS: error= 1.86D-08 at cycle  12 NSaved=  12.
 NSaved=12 IEnMin=12 EnMin= -226.387813522123     IErMin=12 ErrMin= 1.86D-08
 ErrMax= 1.86D-08  0.00D+00 EMaxC= 1.00D-01 BMatC= 1.42D-14 BMatP= 1.58D-13
 IDIUse=1 WtCom= 1.00D+00 WtEn= 0.00D+00
 Coeff-Com: -0.143D-04 0.329D-03-0.887D-03-0.790D-03 0.446D-02 0.173D-02
 Coeff-Com: -0.227D-01 0.318D-01 0.606D-01-0.212D+00 0.388D-01 0.110D+01
 Coeff:     -0.143D-04 0.329D-03-0.887D-03-0.790D-03 0.446D-02 0.173D-02
 Coeff:     -0.227D-01 0.318D-01 0.606D-01-0.212D+00 0.388D-01 0.110D+01
 Gap=     0.542 Goal=   None    Shift=    0.000
 RMSDP=8.07D-09 MaxDP=7.15D-08 DE=-5.12D-13 OVMax= 1.38D-07

 SCF Done:  E(RHF) =  -226.387813522     A.U. after   12 cycles
            NFock= 12  Conv=0.81D-08     -V/T= 2.0035
 KE= 2.256078919333D+02 PE=-7.665452415880D+02 EE= 1.978381986150D+02
 Leave Link  502 at Fri Apr 12 15:34:57 2019, MaxMem=   134217728 cpu:         0.4
 (Enter /cm/shared/c3ddb/gaussian/09.d01/g09/l701.exe)
 Compute integral first derivatives.
 ... and contract with generalized density number  0.
 Leave Link  701 at Fri Apr 12 15:34:58 2019, MaxMem=   134217728 cpu:         0.2
 (Enter /cm/shared/c3ddb/gaussian/09.d01/g09/l702.exe)
 L702 exits ... SP integral derivatives will be done elsewhere.
 Leave Link  702 at Fri Apr 12 15:34:58 2019, MaxMem=   134217728 cpu:         0.1
 (Enter /cm/shared/c3ddb/gaussian/09.d01/g09/l703.exe)
 Compute integral first derivatives, UseDBF=F ICtDFT=           0.
 Integral derivatives from FoFJK, PRISM(SPDF).
 Calling FoFJK, ICntrl=      2127 FMM=F ISym2X=0 I1Cent= 0 IOpClX= 0 NMat=1 NMatS=1 NMatT=0.
 FoFJK:  IHMeth= 1 ICntrl=    2127 DoSepK=F KAlg= 0 I1Cent=   0 FoldK=F
 IRaf=         0 NMat=   1 IRICut=       1 DoRegI=T DoRafI=F ISym2E= 0.
 FoFCou: FMM=F IPFlag=           0 FMFlag=      100000 FMFlg1=         800
         NFxFlg=           0 DoJE=F BraDBF=F KetDBF=F FulRan=T
         wScrn=  0.000000 ICntrl=    2127 IOpCl=  0 I1Cent=           0 NGrid=           0
         NMat0=    1 NMatS0=      1 NMatT0=    0 NMatD0=    1 NMtDS0=    0 NMtDT0=    0
 Symmetry not used in FoFCou.
 Leave Link  703 at Fri Apr 12 15:34:58 2019, MaxMem=   134217728 cpu:         0.3
 (Enter /cm/shared/c3ddb/gaussian/09.d01/g09/l716.exe)
 Dipole        = 1.00050126D+00 2.68650362D-01-7.01167516D-01
 -------------------------------------------------------------------
 Center     Atomic                   Forces (Hartrees/Bohr)
 Number     Number              X              Y              Z
 -------------------------------------------------------------------
      1        6           0.001159376   -0.000756397    0.007618672
      2        6           0.000193017    0.000257615   -0.002268376
      3        1          -0.000137927   -0.000128576    0.000168602
      4        1           0.000062334   -0.000072986   -0.000040245
      5        1           0.000002701    0.000065219    0.000058105
      6        8          -0.000861008   -0.001915806   -0.004654791
      7        8           0.005937128    0.003789388    0.002132562
      8        1          -0.006355621   -0.001238457   -0.003014529
 -------------------------------------------------------------------
 Cartesian Forces:  Max     0.007618672 RMS     0.002861691
 Leave Link  716 at Fri Apr 12 15:34:58 2019, MaxMem=   134217728 cpu:         0.1
 (Enter /cm/shared/c3ddb/gaussian/09.d01/g09/l103.exe)

 GradGradGradGradGradGradGradGradGradGradGradGradGradGradGradGradGradGrad
 Berny optimization.
 Using GEDIIS/GDIIS optimizer.
 FormGI is forming the generalized inverse of G from B-inverse, IUseBI=4.
 Internal  Forces:  Max     0.012669073 RMS     0.002984530
 Search for a local minimum.
 Step number   2 out of a maximum of   32
 All quantities printed in internal units (Hartrees-Bohrs-Radians)
 RMS Force = .99439D-03 SwitMx=.10000D-02 MixMth= 2
 Mixed Optimization -- En-DIIS/RFO-DIIS
 Update second derivatives using D2CorX and points    1    2
 DE= -2.32D-05 DEPred=-7.18D-05 R= 3.23D-01
 Trust test= 3.23D-01 RLast= 2.83D-02 DXMaxT set to 3.00D-01
 ITU=  0  0
 Use linear search instead of GDIIS.
     Eigenvalues ---    0.02569   0.03297   0.03301   0.15632   0.16000
     Eigenvalues ---    0.16000   0.17891   0.22024   0.28455   0.37089
     Eigenvalues ---    0.37130   0.37203   0.42633   0.51861   0.52558
     Eigenvalues ---    0.648451000.000001000.000001000.000001000.00000
     Eigenvalues --- 1000.000001000.00000
 RFO step:  Lambda=-3.82859296D-06 EMin= 2.56942867D-02
 Quartic linear search produced a step of -0.40235.
 Iteration  1 RMS(Cart)=  0.00593000 RMS(Int)=  0.00001663
 Iteration  2 RMS(Cart)=  0.00001695 RMS(Int)=  0.00000248
 Iteration  3 RMS(Cart)=  0.00000000 RMS(Int)=  0.00000248
 Iteration  1 RMS(Cart)=  0.00000158 RMS(Int)=  0.00000068
 Iteration  2 RMS(Cart)=  0.00000056 RMS(Int)=  0.00000075
 ITry= 1 IFail=0 DXMaxC= 1.60D-02 DCOld= 1.00D+10 DXMaxT= 3.00D-01 DXLimC= 3.00D+00 Rises=F
 Variable       Old X    -DE/DX   Delta X   Delta X   Delta X     New X
                                 (Linear)    (Quad)   (Total)
    R1        2.47329  -0.00003  -0.00012   0.00010  -0.00002   2.47327
    R2        2.02222  -0.00016   0.00036  -0.00065  -0.00029   2.02193
    R3        2.65292   0.00126   0.00043   0.00122   0.00165   2.65457
    R4        2.02233   0.00006   0.00003   0.00007   0.00010   2.02243
    R5        2.02371  -0.00006  -0.00008  -0.00001  -0.00009   2.02362
    R6        2.75832   0.00266   0.00271   0.00142   0.00413   2.76246
    R7        1.84314  -0.00008  -0.00009   0.00000  -0.00009   1.84305
    A1        2.17477  -0.00006  -0.00201   0.00180  -0.00021   2.17456
    A2        2.10755   0.00047   0.00044   0.00072   0.00116   2.10871
    A3        1.99885  -0.00033   0.00136  -0.00242  -0.00105   1.99780
    A4        2.10000   0.00012   0.00036   0.00005   0.00041   2.10041
    A5        2.11875  -0.00009  -0.00050   0.00021  -0.00029   2.11846
    A6        2.06442  -0.00003   0.00014  -0.00027  -0.00012   2.06430
    A7        1.90040   0.00248   0.00682  -0.00144   0.00538   1.90578
    A8        1.79354   0.00213   0.00664   0.00071   0.00735   1.80089
    D1       -0.02759   0.00070  -0.00253   0.00118  -0.00136  -0.02895
    D2        3.10754   0.00068  -0.00218   0.00050  -0.00168   3.10586
    D3       -3.09724  -0.00077   0.00095  -0.00050   0.00046  -3.09678
    D4        0.03789  -0.00078   0.00131  -0.00117   0.00014   0.03803
    D5       -2.96706   0.00318   0.00000   0.00000   0.00000  -2.96706
    D6        0.23961   0.00185   0.00330  -0.00166   0.00163   0.24124
    D7        1.04720   0.01267   0.00000   0.00000   0.00000   1.04720
         Item               Value     Threshold  Converged?
 Maximum Force            0.002656     0.000015     NO 
 RMS     Force            0.000994     0.000010     NO 
 Maximum Displacement     0.016015     0.000060     NO 
 RMS     Displacement     0.005936     0.000040     NO 
 Predicted change in Energy=-2.203826D-05
 Lowest energy point so far.  Saving SCF results.
 GradGradGradGradGradGradGradGradGradGradGradGradGradGradGradGradGradGrad

 Leave Link  103 at Fri Apr 12 15:34:58 2019, MaxMem=   134217728 cpu:         0.0
 (Enter /cm/shared/c3ddb/gaussian/09.d01/g09/l202.exe)
                          Input orientation:                          
 ---------------------------------------------------------------------
 Center     Atomic      Atomic             Coordinates (Angstroms)
 Number     Number       Type             X           Y           Z
 ---------------------------------------------------------------------
      1          6           0        0.744970    0.635671    0.023373
      2          6           0        1.377135   -0.509795   -0.011707
      3          1           0        1.221030    1.589764    0.112194
      4          1           0        2.446404   -0.538527    0.023201
      5          1           0        0.846348   -1.438056   -0.069356
      6          8           0       -0.658944    0.682941    0.032153
      7          8           0       -1.094550    2.064059   -0.167120
      8          1           0       -0.716774    2.293193   -1.036597
 ---------------------------------------------------------------------
                    Distance matrix (angstroms):
                    1          2          3          4          5
     1  C    0.000000
     2  C    1.308800   0.000000
     3  H    1.069960   2.108997   0.000000
     4  H    2.067273   1.070224   2.457454   0.000000
     5  H    2.078274   1.070853   3.056312   1.837906   0.000000
     6  O    1.404737   2.360120   2.088789   3.336952   2.602852
     7  O    2.336752   3.571849   2.380102   4.398639   4.005178
     8  H    2.451043   3.645765   2.360004   4.375786   4.159462
                    6          7          8
     6  O    0.000000
     7  O    1.461830   0.000000
     8  H    1.933516   0.975299   0.000000
 Symmetry turned off by external request.
 Stoichiometry    C2H4O2
 Framework group  C1[X(C2H4O2)]
 Deg. of freedom    18
 Full point group                 C1      NOp   1
 Rotational constants (GHZ):     42.1596449      4.5477547      4.1732997
 Leave Link  202 at Fri Apr 12 15:34:58 2019, MaxMem=   134217728 cpu:         0.0
 (Enter /cm/shared/c3ddb/gaussian/09.d01/g09/l301.exe)
 Standard basis: 3-21G (6D, 7F)
 Ernie: Thresh=  0.10000D-02 Tol=  0.10000D-05 Strict=F.
    44 basis functions,    72 primitive gaussians,    44 cartesian basis functions
    16 alpha electrons       16 beta electrons
       nuclear repulsion energy       116.5824872169 Hartrees.
 IExCor=    0 DFT=F Ex=HF Corr=None ExCW=0 ScaHFX=  1.000000
 ScaDFX=  1.000000  1.000000  1.000000  1.000000 ScalE2=  1.000000  1.000000
 IRadAn=      0 IRanWt=     -1 IRanGd=            0 ICorTp=0 IEmpDi=  4
 NAtoms=    8 NActive=    8 NUniq=    8 SFac= 1.00D+00 NAtFMM=   60 NAOKFM=F Big=F
 Integral buffers will be    131072 words long.
 Raffenetti 1 integral format.
 Two-electron integral symmetry is turned off.
 Leave Link  301 at Fri Apr 12 15:34:59 2019, MaxMem=   134217728 cpu:         0.2
 (Enter /cm/shared/c3ddb/gaussian/09.d01/g09/l302.exe)
 NPDir=0 NMtPBC=     1 NCelOv=     1 NCel=       1 NClECP=     1 NCelD=      1
         NCelK=      1 NCelE2=     1 NClLst=     1 CellRange=     0.0.
 One-electron integrals computed using PRISM.
 NBasis=    44 RedAO= T EigKep=  1.13D-02  NBF=    44
 NBsUse=    44 1.00D-06 EigRej= -1.00D+00 NBFU=    44
 Leave Link  302 at Fri Apr 12 15:34:59 2019, MaxMem=   134217728 cpu:         0.2
 (Enter /cm/shared/c3ddb/gaussian/09.d01/g09/l303.exe)
 DipDrv:  MaxL=1.
 Leave Link  303 at Fri Apr 12 15:34:59 2019, MaxMem=   134217728 cpu:         0.1
 (Enter /cm/shared/c3ddb/gaussian/09.d01/g09/l401.exe)
 Initial guess from the checkpoint file:  "TMP_CALCS/scangeom_S02_190_060.chk"
 B after Tr=     0.000724   -0.000281   -0.000290
         Rot=    1.000000    0.000187    0.000077   -0.000139 Ang=   0.03 deg.
 Guess basis will be translated and rotated to current coordinates.
 JPrj=2 DoOrth=T DoCkMO=T.
 Leave Link  401 at Fri Apr 12 15:35:00 2019, MaxMem=   134217728 cpu:         0.3
 (Enter /cm/shared/c3ddb/gaussian/09.d01/g09/l502.exe)
 Closed shell SCF:
 Using DIIS extrapolation, IDIIS=  1040.
 Two-electron integral symmetry not used.
 Keep R1 ints in memory in canonical form, NReq=1327247.
 IVT=       24902 IEndB=       24902 NGot=   134217728 MDV=   133702282
 LenX=   133702282 LenY=   133699905
 Requested convergence on RMS density matrix=1.00D-08 within 128 cycles.
 Requested convergence on MAX density matrix=1.00D-06.
 Requested convergence on             energy=1.00D-06.
 No special actions if energy rises.
 FoFCou: FMM=F IPFlag=           0 FMFlag=           0 FMFlg1=           0
         NFxFlg=           0 DoJE=F BraDBF=F KetDBF=F FulRan=T
         wScrn=  0.000000 ICntrl=     600 IOpCl=  0 I1Cent=           0 NGrid=           0
         NMat0=    1 NMatS0=    990 NMatT0=    0 NMatD0=    1 NMtDS0=    0 NMtDT0=    0
 Symmetry not used in FoFCou.

 Cycle   1  Pass 1  IDiag  1:
 E= -226.387819907304    
 DIIS: error= 3.40D-04 at cycle   1 NSaved=   1.
 NSaved= 1 IEnMin= 1 EnMin= -226.387819907304     IErMin= 1 ErrMin= 3.40D-04
 ErrMax= 3.40D-04  0.00D+00 EMaxC= 1.00D-01 BMatC= 1.19D-05 BMatP= 1.19D-05
 IDIUse=3 WtCom= 9.97D-01 WtEn= 3.40D-03
 Coeff-Com:  0.100D+01
 Coeff-En:   0.100D+01
 Coeff:      0.100D+01
 Gap=     0.934 Goal=   None    Shift=    0.000
 RMSDP=8.02D-05 MaxDP=5.20D-04              OVMax= 5.27D-04

 Cycle   2  Pass 1  IDiag  1:
 E= -226.387832523531     Delta-E=       -0.000012616227 Rises=F Damp=F
 DIIS: error= 1.72D-04 at cycle   2 NSaved=   2.
 NSaved= 2 IEnMin= 2 EnMin= -226.387832523531     IErMin= 2 ErrMin= 1.72D-04
 ErrMax= 1.72D-04  0.00D+00 EMaxC= 1.00D-01 BMatC= 7.59D-07 BMatP= 1.19D-05
 IDIUse=3 WtCom= 9.98D-01 WtEn= 1.72D-03
 Coeff-Com: -0.139D+00 0.114D+01
 Coeff-En:   0.000D+00 0.100D+01
 Coeff:     -0.139D+00 0.114D+01
 Gap=     0.542 Goal=   None    Shift=    0.000
 RMSDP=3.25D-05 MaxDP=2.58D-04 DE=-1.26D-05 OVMax= 4.99D-04

 Cycle   3  Pass 1  IDiag  1:
 E= -226.387834636312     Delta-E=       -0.000002112781 Rises=F Damp=F
 DIIS: error= 9.56D-05 at cycle   3 NSaved=   3.
 NSaved= 3 IEnMin= 3 EnMin= -226.387834636312     IErMin= 3 ErrMin= 9.56D-05
 ErrMax= 9.56D-05  0.00D+00 EMaxC= 1.00D-01 BMatC= 1.45D-07 BMatP= 7.59D-07
 IDIUse=1 WtCom= 1.00D+00 WtEn= 0.00D+00
 Coeff-Com: -0.184D-01-0.180D+00 0.120D+01
 Coeff:     -0.184D-01-0.180D+00 0.120D+01
 Gap=     0.542 Goal=   None    Shift=    0.000
 RMSDP=1.76D-05 MaxDP=1.53D-04 DE=-2.11D-06 OVMax= 2.90D-04

 Cycle   4  Pass 1  IDiag  1:
 E= -226.387835125688     Delta-E=       -0.000000489377 Rises=F Damp=F
 DIIS: error= 4.87D-05 at cycle   4 NSaved=   4.
 NSaved= 4 IEnMin= 4 EnMin= -226.387835125688     IErMin= 4 ErrMin= 4.87D-05
 ErrMax= 4.87D-05  0.00D+00 EMaxC= 1.00D-01 BMatC= 3.77D-08 BMatP= 1.45D-07
 IDIUse=1 WtCom= 1.00D+00 WtEn= 0.00D+00
 Coeff-Com:  0.273D-01-0.271D+00 0.175D+00 0.107D+01
 Coeff:      0.273D-01-0.271D+00 0.175D+00 0.107D+01
 Gap=     0.542 Goal=   None    Shift=    0.000
 RMSDP=1.01D-05 MaxDP=9.16D-05 DE=-4.89D-07 OVMax= 1.80D-04

 Cycle   5  Pass 1  IDiag  1:
 E= -226.387835252586     Delta-E=       -0.000000126898 Rises=F Damp=F
 DIIS: error= 1.84D-05 at cycle   5 NSaved=   5.
 NSaved= 5 IEnMin= 5 EnMin= -226.387835252586     IErMin= 5 ErrMin= 1.84D-05
 ErrMax= 1.84D-05  0.00D+00 EMaxC= 1.00D-01 BMatC= 4.84D-09 BMatP= 3.77D-08
 IDIUse=1 WtCom= 1.00D+00 WtEn= 0.00D+00
 Coeff-Com: -0.313D-03 0.623D-01-0.203D+00-0.129D+00 0.127D+01
 Coeff:     -0.313D-03 0.623D-01-0.203D+00-0.129D+00 0.127D+01
 Gap=     0.542 Goal=   None    Shift=    0.000
 RMSDP=4.24D-06 MaxDP=3.73D-05 DE=-1.27D-07 OVMax= 7.52D-05

 Cycle   6  Pass 1  IDiag  1:
 E= -226.387835270689     Delta-E=       -0.000000018103 Rises=F Damp=F
 DIIS: error= 5.12D-06 at cycle   6 NSaved=   6.
 NSaved= 6 IEnMin= 6 EnMin= -226.387835270689     IErMin= 6 ErrMin= 5.12D-06
 ErrMax= 5.12D-06  0.00D+00 EMaxC= 1.00D-01 BMatC= 8.89D-10 BMatP= 4.84D-09
 IDIUse=1 WtCom= 1.00D+00 WtEn= 0.00D+00
 Coeff-Com: -0.371D-02 0.555D-01-0.855D-01-0.190D+00 0.388D+00 0.835D+00
 Coeff:     -0.371D-02 0.555D-01-0.855D-01-0.190D+00 0.388D+00 0.835D+00
 Gap=     0.542 Goal=   None    Shift=    0.000
 RMSDP=1.27D-06 MaxDP=9.39D-06 DE=-1.81D-08 OVMax= 2.15D-05

 Cycle   7  Pass 1  IDiag  1:
 E= -226.387835272620     Delta-E=       -0.000000001931 Rises=F Damp=F
 DIIS: error= 1.83D-06 at cycle   7 NSaved=   7.
 NSaved= 7 IEnMin= 7 EnMin= -226.387835272620     IErMin= 7 ErrMin= 1.83D-06
 ErrMax= 1.83D-06  0.00D+00 EMaxC= 1.00D-01 BMatC= 8.06D-11 BMatP= 8.89D-10
 IDIUse=1 WtCom= 1.00D+00 WtEn= 0.00D+00
 Coeff-Com:  0.850D-03-0.198D-01 0.470D-01 0.510D-01-0.255D+00-0.177D+00
 Coeff-Com:  0.135D+01
 Coeff:      0.850D-03-0.198D-01 0.470D-01 0.510D-01-0.255D+00-0.177D+00
 Coeff:      0.135D+01
 Gap=     0.542 Goal=   None    Shift=    0.000
 RMSDP=5.87D-07 MaxDP=3.60D-06 DE=-1.93D-09 OVMax= 1.39D-05

 Cycle   8  Pass 1  IDiag  1:
 E= -226.387835272943     Delta-E=       -0.000000000323 Rises=F Damp=F
 DIIS: error= 6.99D-07 at cycle   8 NSaved=   8.
 NSaved= 8 IEnMin= 8 EnMin= -226.387835272943     IErMin= 8 ErrMin= 6.99D-07
 ErrMax= 6.99D-07  0.00D+00 EMaxC= 1.00D-01 BMatC= 9.44D-12 BMatP= 8.06D-11
 IDIUse=1 WtCom= 1.00D+00 WtEn= 0.00D+00
 Coeff-Com:  0.395D-03-0.617D-02 0.105D-01 0.203D-01-0.485D-01-0.103D+00
 Coeff-Com:  0.115D+00 0.101D+01
 Coeff:      0.395D-03-0.617D-02 0.105D-01 0.203D-01-0.485D-01-0.103D+00
 Coeff:      0.115D+00 0.101D+01
 Gap=     0.542 Goal=   None    Shift=    0.000
 RMSDP=1.50D-07 MaxDP=8.27D-07 DE=-3.23D-10 OVMax= 3.50D-06

 Cycle   9  Pass 1  IDiag  1:
 E= -226.387835272972     Delta-E=       -0.000000000028 Rises=F Damp=F
 DIIS: error= 3.68D-07 at cycle   9 NSaved=   9.
 NSaved= 9 IEnMin= 9 EnMin= -226.387835272972     IErMin= 9 ErrMin= 3.68D-07
 ErrMax= 3.68D-07  0.00D+00 EMaxC= 1.00D-01 BMatC= 1.75D-12 BMatP= 9.44D-12
 IDIUse=1 WtCom= 1.00D+00 WtEn= 0.00D+00
 Coeff-Com: -0.210D-03 0.471D-02-0.109D-01-0.127D-01 0.596D-01 0.342D-01
 Coeff-Com: -0.263D+00-0.112D+00 0.130D+01
 Coeff:     -0.210D-03 0.471D-02-0.109D-01-0.127D-01 0.596D-01 0.342D-01
 Coeff:     -0.263D+00-0.112D+00 0.130D+01
 Gap=     0.542 Goal=   None    Shift=    0.000
 RMSDP=9.33D-08 MaxDP=4.99D-07 DE=-2.81D-11 OVMax= 1.96D-06

 Cycle  10  Pass 1  IDiag  1:
 E= -226.387835272979     Delta-E=       -0.000000000007 Rises=F Damp=F
 DIIS: error= 1.35D-07 at cycle  10 NSaved=  10.
 NSaved=10 IEnMin=10 EnMin= -226.387835272979     IErMin=10 ErrMin= 1.35D-07
 ErrMax= 1.35D-07  0.00D+00 EMaxC= 1.00D-01 BMatC= 2.33D-13 BMatP= 1.75D-12
 IDIUse=1 WtCom= 1.00D+00 WtEn= 0.00D+00
 Coeff-Com: -0.338D-04 0.412D-03-0.474D-03-0.156D-02 0.217D-02 0.729D-02
 Coeff-Com:  0.926D-02-0.128D+00-0.572D-01 0.117D+01
 Coeff:     -0.338D-04 0.412D-03-0.474D-03-0.156D-02 0.217D-02 0.729D-02
 Coeff:      0.926D-02-0.128D+00-0.572D-01 0.117D+01
 Gap=     0.542 Goal=   None    Shift=    0.000
 RMSDP=3.06D-08 MaxDP=2.37D-07 DE=-7.33D-12 OVMax= 5.48D-07

 Cycle  11  Pass 1  IDiag  1:
 E= -226.387835272980     Delta-E=       -0.000000000001 Rises=F Damp=F
 DIIS: error= 5.51D-08 at cycle  11 NSaved=  11.
 NSaved=11 IEnMin=11 EnMin= -226.387835272980     IErMin=11 ErrMin= 5.51D-08
 ErrMax= 5.51D-08  0.00D+00 EMaxC= 1.00D-01 BMatC= 4.02D-14 BMatP= 2.33D-13
 IDIUse=1 WtCom= 1.00D+00 WtEn= 0.00D+00
 Coeff-Com:  0.434D-04-0.987D-03 0.226D-02 0.275D-02-0.124D-01-0.805D-02
 Coeff-Com:  0.549D-01 0.305D-01-0.266D+00-0.706D-01 0.127D+01
 Coeff:      0.434D-04-0.987D-03 0.226D-02 0.275D-02-0.124D-01-0.805D-02
 Coeff:      0.549D-01 0.305D-01-0.266D+00-0.706D-01 0.127D+01
 Gap=     0.542 Goal=   None    Shift=    0.000
 RMSDP=1.53D-08 MaxDP=1.38D-07 DE=-1.25D-12 OVMax= 2.75D-07

 Cycle  12  Pass 1  IDiag  1:
 E= -226.387835272980     Delta-E=        0.000000000000 Rises=F Damp=F
 DIIS: error= 1.45D-08 at cycle  12 NSaved=  12.
 NSaved=12 IEnMin=12 EnMin= -226.387835272980     IErMin=12 ErrMin= 1.45D-08
 ErrMax= 1.45D-08  0.00D+00 EMaxC= 1.00D-01 BMatC= 4.19D-15 BMatP= 4.02D-14
 IDIUse=1 WtCom= 1.00D+00 WtEn= 0.00D+00
 Coeff-Com: -0.184D-04 0.469D-03-0.113D-02-0.127D-02 0.614D-02 0.376D-02
 Coeff-Com: -0.309D-01 0.324D-02 0.141D+00-0.107D+00-0.665D+00 0.165D+01
 Coeff:     -0.184D-04 0.469D-03-0.113D-02-0.127D-02 0.614D-02 0.376D-02
 Coeff:     -0.309D-01 0.324D-02 0.141D+00-0.107D+00-0.665D+00 0.165D+01
 Gap=     0.542 Goal=   None    Shift=    0.000
 RMSDP=5.68D-09 MaxDP=5.19D-08 DE=-3.41D-13 OVMax= 1.02D-07

 SCF Done:  E(RHF) =  -226.387835273     A.U. after   12 cycles
            NFock= 12  Conv=0.57D-08     -V/T= 2.0035
 KE= 2.255983536933D+02 PE=-7.662874296451D+02 EE= 1.977187534619D+02
 Leave Link  502 at Fri Apr 12 15:35:00 2019, MaxMem=   134217728 cpu:         0.3
 (Enter /cm/shared/c3ddb/gaussian/09.d01/g09/l701.exe)
 Compute integral first derivatives.
 ... and contract with generalized density number  0.
 Leave Link  701 at Fri Apr 12 15:35:00 2019, MaxMem=   134217728 cpu:         0.2
 (Enter /cm/shared/c3ddb/gaussian/09.d01/g09/l702.exe)
 L702 exits ... SP integral derivatives will be done elsewhere.
 Leave Link  702 at Fri Apr 12 15:35:01 2019, MaxMem=   134217728 cpu:         0.1
 (Enter /cm/shared/c3ddb/gaussian/09.d01/g09/l703.exe)
 Compute integral first derivatives, UseDBF=F ICtDFT=           0.
 Integral derivatives from FoFJK, PRISM(SPDF).
 Calling FoFJK, ICntrl=      2127 FMM=F ISym2X=0 I1Cent= 0 IOpClX= 0 NMat=1 NMatS=1 NMatT=0.
 FoFJK:  IHMeth= 1 ICntrl=    2127 DoSepK=F KAlg= 0 I1Cent=   0 FoldK=F
 IRaf=         0 NMat=   1 IRICut=       1 DoRegI=T DoRafI=F ISym2E= 0.
 FoFCou: FMM=F IPFlag=           0 FMFlag=      100000 FMFlg1=         800
         NFxFlg=           0 DoJE=F BraDBF=F KetDBF=F FulRan=T
         wScrn=  0.000000 ICntrl=    2127 IOpCl=  0 I1Cent=           0 NGrid=           0
         NMat0=    1 NMatS0=      1 NMatT0=    0 NMatD0=    1 NMtDS0=    0 NMtDT0=    0
 Symmetry not used in FoFCou.
 Leave Link  703 at Fri Apr 12 15:35:01 2019, MaxMem=   134217728 cpu:         0.2
 (Enter /cm/shared/c3ddb/gaussian/09.d01/g09/l716.exe)
 Dipole        = 9.99360755D-01 2.72951650D-01-7.01909785D-01
 -------------------------------------------------------------------
 Center     Atomic                   Forces (Hartrees/Bohr)
 Number     Number              X              Y              Z
 -------------------------------------------------------------------
      1        6           0.000466871    0.000405636    0.007541365
      2        6          -0.000115172    0.000164781   -0.002270191
      3        1          -0.000018771    0.000007254    0.000051455
      4        1           0.000003063    0.000001786   -0.000004724
      5        1           0.000002788    0.000003305   -0.000001857
      6        8          -0.001186464   -0.000838611   -0.005488281
      7        8           0.006565206    0.002554555    0.003263770
      8        1          -0.005717521   -0.002298705   -0.003091538
 -------------------------------------------------------------------
 Cartesian Forces:  Max     0.007541365 RMS     0.002904707
 Leave Link  716 at Fri Apr 12 15:35:01 2019, MaxMem=   134217728 cpu:         0.1
 (Enter /cm/shared/c3ddb/gaussian/09.d01/g09/l103.exe)

 GradGradGradGradGradGradGradGradGradGradGradGradGradGradGradGradGradGrad
 Berny optimization.
 Using GEDIIS/GDIIS optimizer.
 FormGI is forming the generalized inverse of G from B-inverse, IUseBI=4.
 Internal  Forces:  Max     0.012371381 RMS     0.002768911
 Search for a local minimum.
 Step number   3 out of a maximum of   32
 All quantities printed in internal units (Hartrees-Bohrs-Radians)
 RMS Force = .77333D-04 SwitMx=.10000D-02 MixMth= 2
 Mixed Optimization -- En-DIIS/RFO-DIIS
 Swapping is turned off.
 Update second derivatives using D2CorX and points    1    2    3
 DE= -2.18D-05 DEPred=-2.20D-05 R= 9.87D-01
 TightC=F SS=  1.41D+00  RLast= 1.06D-02 DXNew= 5.0454D-01 3.1915D-02
 Trust test= 9.87D-01 RLast= 1.06D-02 DXMaxT set to 3.00D-01
 ITU=  1  0  0
     Eigenvalues ---    0.02575   0.03297   0.03301   0.15506   0.16000
     Eigenvalues ---    0.16000   0.18326   0.22141   0.28549   0.37076
     Eigenvalues ---    0.37130   0.37203   0.43317   0.49897   0.52380
     Eigenvalues ---    0.650261000.000001000.000001000.000001000.00000
     Eigenvalues --- 1000.000001000.00000
 En-DIIS/RFO-DIIS IScMMF=        0 using points:     3    2
 RFO step:  Lambda=-5.53475997D-06.
 NNeg= 0 NP= 2 Switch=  2.50D-03 Rises=F DC=  2.18D-05 SmlDif=  1.00D-05
 RMS Error=  0.1665662198D-03 NUsed= 2 EDIIS=F
 DidBck=F Rises=F RFO-DIIS coefs:    1.00108   -0.00108
 Iteration  1 RMS(Cart)=  0.00058734 RMS(Int)=  0.00000055
 Iteration  2 RMS(Cart)=  0.00000032 RMS(Int)=  0.00000047
 Iteration  1 RMS(Cart)=  0.00000057 RMS(Int)=  0.00000024
 ITry= 1 IFail=0 DXMaxC= 1.23D-03 DCOld= 1.00D+10 DXMaxT= 3.00D-01 DXLimC= 3.00D+00 Rises=F
 Variable       Old X    -DE/DX   Delta X   Delta X   Delta X     New X
                                 (Linear)    (Quad)   (Total)
    R1        2.47327  -0.00014   0.00000  -0.00022  -0.00022   2.47306
    R2        2.02193   0.00000   0.00000   0.00000   0.00000   2.02193
    R3        2.65457   0.00029   0.00000   0.00066   0.00066   2.65523
    R4        2.02243   0.00000   0.00000   0.00001   0.00001   2.02244
    R5        2.02362   0.00000   0.00000  -0.00001  -0.00001   2.02361
    R6        2.76246  -0.00003   0.00000  -0.00005  -0.00005   2.76241
    R7        1.84305   0.00000   0.00000   0.00000   0.00000   1.84305
    A1        2.17456   0.00014   0.00000   0.00019   0.00019   2.17475
    A2        2.10871  -0.00002   0.00000  -0.00018  -0.00017   2.10854
    A3        1.99780  -0.00003   0.00000  -0.00012  -0.00012   1.99768
    A4        2.10041   0.00000   0.00000  -0.00001  -0.00001   2.10040
    A5        2.11846   0.00000   0.00000   0.00001   0.00001   2.11847
    A6        2.06430   0.00000   0.00000   0.00000   0.00000   2.06429
    A7        1.90578   0.00005   0.00001   0.00021   0.00021   1.90599
    A8        1.80089  -0.00009   0.00001  -0.00051  -0.00050   1.80039
    D1       -0.02895   0.00076   0.00000  -0.00102  -0.00103  -0.02998
    D2        3.10586   0.00076   0.00000  -0.00085  -0.00085   3.10500
    D3       -3.09678  -0.00077   0.00000   0.00077   0.00077  -3.09601
    D4        0.03803  -0.00076   0.00000   0.00094   0.00094   0.03897
    D5       -2.96706   0.00316   0.00000   0.00000   0.00000  -2.96706
    D6        0.24124   0.00178   0.00000   0.00161   0.00161   0.24285
    D7        1.04720   0.01237   0.00000   0.00000   0.00000   1.04720
         Item               Value     Threshold  Converged?
 Maximum Force            0.000286     0.000015     NO 
 RMS     Force            0.000077     0.000010     NO 
 Maximum Displacement     0.001228     0.000060     NO 
 RMS     Displacement     0.000587     0.000040     NO 
 Predicted change in Energy=-2.203528D-07
 Lowest energy point so far.  Saving SCF results.
 GradGradGradGradGradGradGradGradGradGradGradGradGradGradGradGradGradGrad

 Leave Link  103 at Fri Apr 12 15:35:01 2019, MaxMem=   134217728 cpu:         0.0
 (Enter /cm/shared/c3ddb/gaussian/09.d01/g09/l202.exe)
                          Input orientation:                          
 ---------------------------------------------------------------------
 Center     Atomic      Atomic             Coordinates (Angstroms)
 Number     Number       Type             X           Y           Z
 ---------------------------------------------------------------------
      1          6           0        0.745363    0.635811    0.023077
      2          6           0        1.377142   -0.509744   -0.011805
      3          1           0        1.221450    1.589800    0.112844
      4          1           0        2.446400   -0.538776    0.023332
      5          1           0        0.846113   -1.437846   -0.069677
      6          8           0       -0.658894    0.683239    0.032480
      7          8           0       -1.094739    2.064201   -0.167158
      8          1           0       -0.717218    2.292567   -1.036950
 ---------------------------------------------------------------------
                    Distance matrix (angstroms):
                    1          2          3          4          5
     1  C    0.000000
     2  C    1.308686   0.000000
     3  H    1.069958   2.108996   0.000000
     4  H    2.067167   1.070229   2.457509   0.000000
     5  H    2.078174   1.070847   3.056277   1.837905   0.000000
     6  O    1.405089   2.360214   2.089019   3.337102   2.602783
     7  O    2.337191   3.572048   2.380795   4.399027   4.005090
     8  H    2.451048   3.645574   2.361004   4.375977   4.158798
                    6          7          8
     6  O    0.000000
     7  O    1.461805   0.000000
     8  H    1.933136   0.975300   0.000000
 Symmetry turned off by external request.
 Stoichiometry    C2H4O2
 Framework group  C1[X(C2H4O2)]
 Deg. of freedom    18
 Full point group                 C1      NOp   1
 Rotational constants (GHZ):     42.1580879      4.5470636      4.1728038
 Leave Link  202 at Fri Apr 12 15:35:01 2019, MaxMem=   134217728 cpu:         0.0
 (Enter /cm/shared/c3ddb/gaussian/09.d01/g09/l301.exe)
 Standard basis: 3-21G (6D, 7F)
 Ernie: Thresh=  0.10000D-02 Tol=  0.10000D-05 Strict=F.
    44 basis functions,    72 primitive gaussians,    44 cartesian basis functions
    16 alpha electrons       16 beta electrons
       nuclear repulsion energy       116.5764959373 Hartrees.
 IExCor=    0 DFT=F Ex=HF Corr=None ExCW=0 ScaHFX=  1.000000
 ScaDFX=  1.000000  1.000000  1.000000  1.000000 ScalE2=  1.000000  1.000000
 IRadAn=      0 IRanWt=     -1 IRanGd=            0 ICorTp=0 IEmpDi=  4
 NAtoms=    8 NActive=    8 NUniq=    8 SFac= 1.00D+00 NAtFMM=   60 NAOKFM=F Big=F
 Integral buffers will be    131072 words long.
 Raffenetti 1 integral format.
 Two-electron integral symmetry is turned off.
 Leave Link  301 at Fri Apr 12 15:35:02 2019, MaxMem=   134217728 cpu:         0.3
 (Enter /cm/shared/c3ddb/gaussian/09.d01/g09/l302.exe)
 NPDir=0 NMtPBC=     1 NCelOv=     1 NCel=       1 NClECP=     1 NCelD=      1
         NCelK=      1 NCelE2=     1 NClLst=     1 CellRange=     0.0.
 One-electron integrals computed using PRISM.
 NBasis=    44 RedAO= T EigKep=  1.13D-02  NBF=    44
 NBsUse=    44 1.00D-06 EigRej= -1.00D+00 NBFU=    44
 Leave Link  302 at Fri Apr 12 15:35:02 2019, MaxMem=   134217728 cpu:         0.3
 (Enter /cm/shared/c3ddb/gaussian/09.d01/g09/l303.exe)
 DipDrv:  MaxL=1.
 Leave Link  303 at Fri Apr 12 15:35:02 2019, MaxMem=   134217728 cpu:         0.1
 (Enter /cm/shared/c3ddb/gaussian/09.d01/g09/l401.exe)
 Initial guess from the checkpoint file:  "TMP_CALCS/scangeom_S02_190_060.chk"
 B after Tr=     0.000067    0.000259    0.000271
         Rot=    1.000000    0.000082   -0.000104    0.000006 Ang=   0.02 deg.
 Guess basis will be translated and rotated to current coordinates.
 JPrj=2 DoOrth=T DoCkMO=T.
 Leave Link  401 at Fri Apr 12 15:35:03 2019, MaxMem=   134217728 cpu:         0.4
 (Enter /cm/shared/c3ddb/gaussian/09.d01/g09/l502.exe)
 Closed shell SCF:
 Using DIIS extrapolation, IDIIS=  1040.
 Two-electron integral symmetry not used.
 Keep R1 ints in memory in canonical form, NReq=1327247.
 IVT=       24902 IEndB=       24902 NGot=   134217728 MDV=   133702282
 LenX=   133702282 LenY=   133699905
 Requested convergence on RMS density matrix=1.00D-08 within 128 cycles.
 Requested convergence on MAX density matrix=1.00D-06.
 Requested convergence on             energy=1.00D-06.
 No special actions if energy rises.
 FoFCou: FMM=F IPFlag=           0 FMFlag=           0 FMFlg1=           0
         NFxFlg=           0 DoJE=F BraDBF=F KetDBF=F FulRan=T
         wScrn=  0.000000 ICntrl=     600 IOpCl=  0 I1Cent=           0 NGrid=           0
         NMat0=    1 NMatS0=    990 NMatT0=    0 NMatD0=    1 NMtDS0=    0 NMtDT0=    0
 Symmetry not used in FoFCou.

 Cycle   1  Pass 1  IDiag  1:
 E= -226.387835126304    
 DIIS: error= 3.67D-05 at cycle   1 NSaved=   1.
 NSaved= 1 IEnMin= 1 EnMin= -226.387835126304     IErMin= 1 ErrMin= 3.67D-05
 ErrMax= 3.67D-05  0.00D+00 EMaxC= 1.00D-01 BMatC= 2.26D-07 BMatP= 2.26D-07
 IDIUse=1 WtCom= 1.00D+00 WtEn= 0.00D+00
 Coeff-Com:  0.100D+01
 Coeff:      0.100D+01
 Gap=     0.934 Goal=   None    Shift=    0.000
 RMSDP=1.24D-05 MaxDP=7.67D-05              OVMax= 9.35D-05

 Cycle   2  Pass 1  IDiag  1:
 E= -226.387835426823     Delta-E=       -0.000000300519 Rises=F Damp=F
 DIIS: error= 1.76D-05 at cycle   2 NSaved=   2.
 NSaved= 2 IEnMin= 2 EnMin= -226.387835426823     IErMin= 2 ErrMin= 1.76D-05
 ErrMax= 1.76D-05  0.00D+00 EMaxC= 1.00D-01 BMatC= 1.67D-08 BMatP= 2.26D-07
 IDIUse=1 WtCom= 1.00D+00 WtEn= 0.00D+00
 Coeff-Com: -0.157D+00 0.116D+01
 Coeff:     -0.157D+00 0.116D+01
 Gap=     0.542 Goal=   None    Shift=    0.000
 RMSDP=4.90D-06 MaxDP=3.48D-05 DE=-3.01D-07 OVMax= 6.48D-05

 Cycle   3  Pass 1  IDiag  1:
 E= -226.387835465510     Delta-E=       -0.000000038687 Rises=F Damp=F
 DIIS: error= 7.38D-06 at cycle   3 NSaved=   3.
 NSaved= 3 IEnMin= 3 EnMin= -226.387835465510     IErMin= 3 ErrMin= 7.38D-06
 ErrMax= 7.38D-06  0.00D+00 EMaxC= 1.00D-01 BMatC= 3.82D-09 BMatP= 1.67D-08
 IDIUse=1 WtCom= 1.00D+00 WtEn= 0.00D+00
 Coeff-Com: -0.896D-01 0.282D+00 0.808D+00
 Coeff:     -0.896D-01 0.282D+00 0.808D+00
 Gap=     0.542 Goal=   None    Shift=    0.000
 RMSDP=1.76D-06 MaxDP=1.01D-05 DE=-3.87D-08 OVMax= 2.13D-05

 Cycle   4  Pass 1  IDiag  1:
 E= -226.387835471609     Delta-E=       -0.000000006099 Rises=F Damp=F
 DIIS: error= 3.48D-06 at cycle   4 NSaved=   4.
 NSaved= 4 IEnMin= 4 EnMin= -226.387835471609     IErMin= 4 ErrMin= 3.48D-06
 ErrMax= 3.48D-06  0.00D+00 EMaxC= 1.00D-01 BMatC= 6.32D-10 BMatP= 3.82D-09
 IDIUse=1 WtCom= 1.00D+00 WtEn= 0.00D+00
 Coeff-Com:  0.285D-01-0.223D+00 0.352D-01 0.116D+01
 Coeff:      0.285D-01-0.223D+00 0.352D-01 0.116D+01
 Gap=     0.542 Goal=   None    Shift=    0.000
 RMSDP=1.32D-06 MaxDP=6.65D-06 DE=-6.10D-09 OVMax= 1.98D-05

 Cycle   5  Pass 1  IDiag  1:
 E= -226.387835473548     Delta-E=       -0.000000001939 Rises=F Damp=F
 DIIS: error= 1.24D-06 at cycle   5 NSaved=   5.
 NSaved= 5 IEnMin= 5 EnMin= -226.387835473548     IErMin= 5 ErrMin= 1.24D-06
 ErrMax= 1.24D-06  0.00D+00 EMaxC= 1.00D-01 BMatC= 6.56D-11 BMatP= 6.32D-10
 IDIUse=1 WtCom= 1.00D+00 WtEn= 0.00D+00
 Coeff-Com:  0.872D-02-0.278D-01-0.820D-01-0.187D-01 0.112D+01
 Coeff:      0.872D-02-0.278D-01-0.820D-01-0.187D-01 0.112D+01
 Gap=     0.542 Goal=   None    Shift=    0.000
 RMSDP=4.40D-07 MaxDP=2.85D-06 DE=-1.94D-09 OVMax= 7.95D-06

 Cycle   6  Pass 1  IDiag  1:
 E= -226.387835473770     Delta-E=       -0.000000000222 Rises=F Damp=F
 DIIS: error= 5.91D-07 at cycle   6 NSaved=   6.
 NSaved= 6 IEnMin= 6 EnMin= -226.387835473770     IErMin= 6 ErrMin= 5.91D-07
 ErrMax= 5.91D-07  0.00D+00 EMaxC= 1.00D-01 BMatC= 1.20D-11 BMatP= 6.56D-11
 IDIUse=1 WtCom= 1.00D+00 WtEn= 0.00D+00
 Coeff-Com: -0.408D-02 0.380D-01-0.149D-01-0.220D+00 0.155D+00 0.105D+01
 Coeff:     -0.408D-02 0.380D-01-0.149D-01-0.220D+00 0.155D+00 0.105D+01
 Gap=     0.542 Goal=   None    Shift=    0.000
 RMSDP=1.87D-07 MaxDP=1.32D-06 DE=-2.22D-10 OVMax= 3.61D-06

 Cycle   7  Pass 1  IDiag  1:
 E= -226.387835473807     Delta-E=       -0.000000000037 Rises=F Damp=F
 DIIS: error= 3.13D-07 at cycle   7 NSaved=   7.
 NSaved= 7 IEnMin= 7 EnMin= -226.387835473807     IErMin= 7 ErrMin= 3.13D-07
 ErrMax= 3.13D-07  0.00D+00 EMaxC= 1.00D-01 BMatC= 1.36D-12 BMatP= 1.20D-11
 IDIUse=1 WtCom= 1.00D+00 WtEn= 0.00D+00
 Coeff-Com:  0.131D-02-0.168D-01 0.177D-01 0.112D+00-0.189D+00-0.561D+00
 Coeff-Com:  0.164D+01
 Coeff:      0.131D-02-0.168D-01 0.177D-01 0.112D+00-0.189D+00-0.561D+00
 Coeff:      0.164D+01
 Gap=     0.542 Goal=   None    Shift=    0.000
 RMSDP=9.39D-08 MaxDP=7.77D-07 DE=-3.69D-11 OVMax= 2.12D-06

 Cycle   8  Pass 1  IDiag  1:
 E= -226.387835473814     Delta-E=       -0.000000000007 Rises=F Damp=F
 DIIS: error= 1.12D-07 at cycle   8 NSaved=   8.
[...]
 RMSDP=1.13D-06 MaxDP=6.60D-06              OVMax= 7.04D-06

 Cycle   2  Pass 1  IDiag  1:
 E= -226.387835511169     Delta-E=       -0.000000001983 Rises=F Damp=F
 DIIS: error= 1.15D-06 at cycle   2 NSaved=   2.
 NSaved= 2 IEnMin= 2 EnMin= -226.387835511169     IErMin= 2 ErrMin= 1.15D-06
 ErrMax= 1.15D-06  0.00D+00 EMaxC= 1.00D-01 BMatC= 8.81D-11 BMatP= 1.65D-09
 IDIUse=1 WtCom= 1.00D+00 WtEn= 0.00D+00
 Coeff-Com: -0.168D+00 0.117D+01
 Coeff:     -0.168D+00 0.117D+01
 Gap=     0.542 Goal=   None    Shift=    0.000
 RMSDP=3.93D-07 MaxDP=1.98D-06 DE=-1.98D-09 OVMax= 4.28D-06

 Cycle   3  Pass 1  IDiag  1:
 E= -226.387835511376     Delta-E=       -0.000000000208 Rises=F Damp=F
 DIIS: error= 5.22D-07 at cycle   3 NSaved=   3.
 NSaved= 3 IEnMin= 3 EnMin= -226.387835511376     IErMin= 3 ErrMin= 5.22D-07
 ErrMax= 5.22D-07  0.00D+00 EMaxC= 1.00D-01 BMatC= 1.04D-11 BMatP= 8.81D-11
 IDIUse=1 WtCom= 1.00D+00 WtEn= 0.00D+00
 Coeff-Com: -0.330D-01 0.138D-01 0.102D+01
 Coeff:     -0.330D-01 0.138D-01 0.102D+01
 Gap=     0.542 Goal=   None    Shift=    0.000
 RMSDP=1.38D-07 MaxDP=8.03D-07 DE=-2.08D-10 OVMax= 1.81D-06

 Cycle   4  Pass 1  IDiag  1:
 E= -226.387835511401     Delta-E=       -0.000000000025 Rises=F Damp=F
 DIIS: error= 2.67D-07 at cycle   4 NSaved=   4.
 NSaved= 4 IEnMin= 4 EnMin= -226.387835511401     IErMin= 4 ErrMin= 2.67D-07
 ErrMax= 2.67D-07  0.00D+00 EMaxC= 1.00D-01 BMatC= 2.86D-12 BMatP= 1.04D-11
 IDIUse=1 WtCom= 1.00D+00 WtEn= 0.00D+00
 Coeff-Com:  0.189D-01-0.180D+00 0.237D+00 0.924D+00
 Coeff:      0.189D-01-0.180D+00 0.237D+00 0.924D+00
 Gap=     0.542 Goal=   None    Shift=    0.000
 RMSDP=7.22D-08 MaxDP=5.07D-07 DE=-2.50D-11 OVMax= 1.11D-06

 Cycle   5  Pass 1  IDiag  1:
 E= -226.387835511409     Delta-E=       -0.000000000007 Rises=F Damp=F
 DIIS: error= 1.75D-07 at cycle   5 NSaved=   5.
 NSaved= 5 IEnMin= 5 EnMin= -226.387835511409     IErMin= 5 ErrMin= 1.75D-07
 ErrMax= 1.75D-07  0.00D+00 EMaxC= 1.00D-01 BMatC= 4.35D-13 BMatP= 2.86D-12
 IDIUse=1 WtCom= 1.00D+00 WtEn= 0.00D+00
 Coeff-Com:  0.236D-02 0.219D-01-0.197D+00-0.103D+00 0.128D+01
 Coeff:      0.236D-02 0.219D-01-0.197D+00-0.103D+00 0.128D+01
 Gap=     0.542 Goal=   None    Shift=    0.000
 RMSDP=4.29D-08 MaxDP=3.55D-07 DE=-7.16D-12 OVMax= 7.72D-07

 Cycle   6  Pass 1  IDiag  1:
 E= -226.387835511410     Delta-E=       -0.000000000001 Rises=F Damp=F
 DIIS: error= 7.03D-08 at cycle   6 NSaved=   6.
 NSaved= 6 IEnMin= 6 EnMin= -226.387835511410     IErMin= 6 ErrMin= 7.03D-08
 ErrMax= 7.03D-08  0.00D+00 EMaxC= 1.00D-01 BMatC= 7.31D-14 BMatP= 4.35D-13
 IDIUse=1 WtCom= 1.00D+00 WtEn= 0.00D+00
 Coeff-Com: -0.304D-02 0.347D-01-0.634D-01-0.179D+00 0.143D+00 0.107D+01
 Coeff:     -0.304D-02 0.347D-01-0.634D-01-0.179D+00 0.143D+00 0.107D+01
 Gap=     0.542 Goal=   None    Shift=    0.000
 RMSDP=1.73D-08 MaxDP=1.55D-07 DE=-1.14D-12 OVMax= 3.20D-07

 Cycle   7  Pass 1  IDiag  1:
 E= -226.387835511410     Delta-E=        0.000000000000 Rises=F Damp=F
 DIIS: error= 2.99D-08 at cycle   7 NSaved=   7.
 NSaved= 7 IEnMin= 7 EnMin= -226.387835511410     IErMin= 7 ErrMin= 2.99D-08
 ErrMax= 2.99D-08  0.00D+00 EMaxC= 1.00D-01 BMatC= 1.10D-14 BMatP= 7.31D-14
 IDIUse=1 WtCom= 1.00D+00 WtEn= 0.00D+00
 Coeff-Com:  0.339D-04-0.728D-02 0.355D-01 0.343D-01-0.180D+00-0.149D+00
 Coeff-Com:  0.127D+01
 Coeff:      0.339D-04-0.728D-02 0.355D-01 0.343D-01-0.180D+00-0.149D+00
 Coeff:      0.127D+01
 Gap=     0.542 Goal=   None    Shift=    0.000
 RMSDP=6.99D-09 MaxDP=5.82D-08 DE=-5.68D-14 OVMax= 1.21D-07

 SCF Done:  E(RHF) =  -226.387835511     A.U. after    7 cycles
            NFock=  7  Conv=0.70D-08     -V/T= 2.0035
 KE= 2.255979162709D+02 PE=-7.662738886403D+02 EE= 1.977128031188D+02
 Leave Link  502 at Fri Apr 12 15:35:09 2019, MaxMem=   134217728 cpu:         0.3
 (Enter /cm/shared/c3ddb/gaussian/09.d01/g09/l701.exe)
 Compute integral first derivatives.
 ... and contract with generalized density number  0.
 Leave Link  701 at Fri Apr 12 15:35:10 2019, MaxMem=   134217728 cpu:         0.3
 (Enter /cm/shared/c3ddb/gaussian/09.d01/g09/l702.exe)
 L702 exits ... SP integral derivatives will be done elsewhere.
 Leave Link  702 at Fri Apr 12 15:35:10 2019, MaxMem=   134217728 cpu:         0.1
 (Enter /cm/shared/c3ddb/gaussian/09.d01/g09/l703.exe)
 Compute integral first derivatives, UseDBF=F ICtDFT=           0.
 Integral derivatives from FoFJK, PRISM(SPDF).
 Calling FoFJK, ICntrl=      2127 FMM=F ISym2X=0 I1Cent= 0 IOpClX= 0 NMat=1 NMatS=1 NMatT=0.
 FoFJK:  IHMeth= 1 ICntrl=    2127 DoSepK=F KAlg= 0 I1Cent=   0 FoldK=F
 IRaf=         0 NMat=   1 IRICut=       1 DoRegI=T DoRafI=F ISym2E= 0.
 FoFCou: FMM=F IPFlag=           0 FMFlag=      100000 FMFlg1=         800
         NFxFlg=           0 DoJE=F BraDBF=F KetDBF=F FulRan=T
         wScrn=  0.000000 ICntrl=    2127 IOpCl=  0 I1Cent=           0 NGrid=           0
         NMat0=    1 NMatS0=      1 NMatT0=    0 NMatD0=    1 NMtDS0=    0 NMtDT0=    0
 Symmetry not used in FoFCou.
 Leave Link  703 at Fri Apr 12 15:35:10 2019, MaxMem=   134217728 cpu:         0.3
 (Enter /cm/shared/c3ddb/gaussian/09.d01/g09/l716.exe)
 Dipole        = 1.00011822D+00 2.71793991D-01-7.02009160D-01
 -------------------------------------------------------------------
 Center     Atomic                   Forces (Hartrees/Bohr)
 Number     Number              X              Y              Z
 -------------------------------------------------------------------
      1        6           0.000065612    0.000533676    0.007676762
      2        6          -0.000012441    0.000066064   -0.002325704
      3        1           0.000000706   -0.000000360   -0.000000434
      4        1          -0.000000948    0.000000102   -0.000000425
      5        1          -0.000001445    0.000000206   -0.000001502
      6        8          -0.000920546   -0.000891890   -0.005483073
      7        8           0.006608219    0.002547578    0.003219099
      8        1          -0.005739157   -0.002255375   -0.003084723
 -------------------------------------------------------------------
 Cartesian Forces:  Max     0.007676762 RMS     0.002918359
 Leave Link  716 at Fri Apr 12 15:35:10 2019, MaxMem=   134217728 cpu:         0.1
 (Enter /cm/shared/c3ddb/gaussian/09.d01/g09/l103.exe)

 GradGradGradGradGradGradGradGradGradGradGradGradGradGradGradGradGradGrad
 Berny optimization.
 Using GEDIIS/GDIIS optimizer.
 FormGI is forming the generalized inverse of G from B-inverse, IUseBI=4.
 Internal  Forces:  Max     0.012373634 RMS     0.002770846
 Search for a local minimum.
 Step number   6 out of a maximum of   32
 All quantities printed in internal units (Hartrees-Bohrs-Radians)
 RMS Force = .15775D-05 SwitMx=.10000D-02 MixMth= 2
 Mixed Optimization -- En-DIIS/RFO-DIIS
 Swapping is turned off.
 Update second derivatives using D2CorX and points    1    2    3    4    5
                                                      6
 DE= -1.85D-09 DEPred=-2.09D-09 R= 8.85D-01
 Trust test= 8.85D-01 RLast= 2.55D-04 DXMaxT set to 3.00D-01
 ITU=  0  0  0  1  0  0
     Eigenvalues ---    0.02839   0.03386   0.03702   0.12247   0.15858
     Eigenvalues ---    0.16092   0.20982   0.22889   0.29654   0.37104
     Eigenvalues ---    0.37202   0.37455   0.39784   0.49806   0.52371
     Eigenvalues ---    0.679461000.000001000.000001000.000001000.00000
     Eigenvalues --- 1000.000001000.00000
 En-DIIS/RFO-DIIS IScMMF=        0 using points:     6    5    4    3    2
 RFO step:  Lambda=-5.34139901D-06.
 NNeg= 0 NP= 5 Switch=  2.50D-03 Rises=F DC=  2.18D-05 SmlDif=  1.00D-05
 RMS Error=  0.8767890980D-04 NUsed= 5 EDIIS=F
 DidBck=F Rises=F RFO-DIIS coefs:    0.89720    0.10459   -0.00515    0.00303    0.00032
 Iteration  1 RMS(Cart)=  0.00001408 RMS(Int)=  0.00000041
 Iteration  2 RMS(Cart)=  0.00000000 RMS(Int)=  0.00000041
 Iteration  1 RMS(Cart)=  0.00000052 RMS(Int)=  0.00000022
 ITry= 1 IFail=0 DXMaxC= 2.81D-05 DCOld= 1.00D+10 DXMaxT= 3.00D-01 DXLimC= 3.00D+00 Rises=F
 Variable       Old X    -DE/DX   Delta X   Delta X   Delta X     New X
                                 (Linear)    (Quad)   (Total)
    R1        2.47304   0.00000   0.00000   0.00000   0.00000   2.47304
    R2        2.02192   0.00000   0.00000   0.00000   0.00000   2.02192
    R3        2.65549   0.00000  -0.00001   0.00000  -0.00001   2.65548
    R4        2.02245   0.00000   0.00000   0.00000   0.00000   2.02245
    R5        2.02361   0.00000   0.00000   0.00000   0.00000   2.02361
    R6        2.76244   0.00000   0.00000   0.00000   0.00000   2.76243
    R7        1.84304   0.00000   0.00000   0.00000   0.00000   1.84304
    A1        2.17509   0.00010  -0.00001   0.00001   0.00000   2.17509
    A2        2.10837   0.00002   0.00000  -0.00001  -0.00001   2.10836
    A3        1.99752  -0.00003   0.00001   0.00000   0.00001   1.99753
    A4        2.10046   0.00000   0.00000   0.00001   0.00001   2.10046
    A5        2.11844   0.00000   0.00000  -0.00001  -0.00001   2.11843
    A6        2.06427   0.00000   0.00000   0.00000   0.00001   2.06427
    A7        1.90574   0.00000   0.00000   0.00000   0.00000   1.90575
    A8        1.80058   0.00000   0.00000   0.00000   0.00001   1.80058
    D1       -0.02999   0.00079  -0.00001   0.00001  -0.00001  -0.03000
    D2        3.10510   0.00079   0.00000   0.00003   0.00003   3.10513
    D3       -3.09638  -0.00079  -0.00001   0.00000   0.00000  -3.09638
    D4        0.03872  -0.00079   0.00001   0.00002   0.00003   0.03875
    D5       -2.96706   0.00319   0.00000   0.00000   0.00000  -2.96706
    D6        0.24251   0.00176   0.00000   0.00000   0.00000   0.24251
    D7        1.04720   0.01237   0.00000   0.00000   0.00000   1.04720
         Item               Value     Threshold  Converged?
 Maximum Force            0.000004     0.000015     YES
 RMS     Force            0.000002     0.000010     YES
 Maximum Displacement     0.000028     0.000060     YES
 RMS     Displacement     0.000014     0.000040     YES
 Predicted change in Energy=-1.005114D-10
 Optimization completed.
    -- Stationary point found.
                           ----------------------------
                           !   Optimized Parameters   !
                           ! (Angstroms and Degrees)  !
 --------------------------                            --------------------------
 ! Name  Definition              Value          Derivative Info.                !
 --------------------------------------------------------------------------------
 ! R1    R(1,2)                  1.3087         -DE/DX =    0.0                 !
 ! R2    R(1,3)                  1.07           -DE/DX =    0.0                 !
 ! R3    R(1,6)                  1.4052         -DE/DX =    0.0                 !
 ! R4    R(2,4)                  1.0702         -DE/DX =    0.0                 !
 ! R5    R(2,5)                  1.0708         -DE/DX =    0.0                 !
 ! R6    R(6,7)                  1.4618         -DE/DX =    0.0                 !
 ! R7    R(7,8)                  0.9753         -DE/DX =    0.0                 !
 ! A1    A(2,1,3)              124.6236         -DE/DX =    0.0001              !
 ! A2    A(2,1,6)              120.8008         -DE/DX =    0.0                 !
 ! A3    A(3,1,6)              114.4497         -DE/DX =    0.0                 !
 ! A4    A(1,2,4)              120.3474         -DE/DX =    0.0                 !
 ! A5    A(1,2,5)              121.3779         -DE/DX =    0.0                 !
 ! A6    A(4,2,5)              118.2737         -DE/DX =    0.0                 !
 ! A7    A(1,6,7)              109.1911         -DE/DX =    0.0                 !
 ! A8    A(6,7,8)              103.1654         -DE/DX =    0.0                 !
 ! D1    D(3,1,2,4)             -1.7186         -DE/DX =    0.0008              !
 ! D2    D(3,1,2,5)            177.9093         -DE/DX =    0.0008              !
 ! D3    D(6,1,2,4)           -177.4094         -DE/DX =   -0.0008              !
 ! D4    D(6,1,2,5)              2.2184         -DE/DX =   -0.0008              !
 ! D5    D(2,1,6,7)           -170.0            -DE/DX =    0.0032              !
 ! D6    D(3,1,6,7)             13.8947         -DE/DX =    0.0018              !
 ! D7    D(1,6,7,8)             60.0001         -DE/DX =    0.0124              !
 --------------------------------------------------------------------------------
 Lowest energy point so far.  Saving SCF results.
 GradGradGradGradGradGradGradGradGradGradGradGradGradGradGradGradGradGrad

 Largest change from initial coordinates is atom    8       0.018 Angstoms.
 Leave Link  103 at Fri Apr 12 15:35:11 2019, MaxMem=   134217728 cpu:         0.0
 (Enter /cm/shared/c3ddb/gaussian/09.d01/g09/l202.exe)
                          Input orientation:                          
 ---------------------------------------------------------------------
 Center     Atomic      Atomic             Coordinates (Angstroms)
 Number     Number       Type             X           Y           Z
 ---------------------------------------------------------------------
      1          6           0        0.745416    0.635826    0.023166
      2          6           0        1.377161   -0.509738   -0.011754
      3          1           0        1.221208    1.589970    0.112770
      4          1           0        2.446429   -0.538852    0.023169
      5          1           0        0.846078   -1.437813   -0.069554
      6          8           0       -0.658985    0.683068    0.032395
      7          8           0       -1.094653    2.064109   -0.167180
      8          1           0       -0.717038    2.292682   -1.036869
 ---------------------------------------------------------------------
                    Distance matrix (angstroms):
                    1          2          3          4          5
     1  C    0.000000
     2  C    1.308678   0.000000
     3  H    1.069952   2.109171   0.000000
     4  H    2.067200   1.070234   2.457861   0.000000
     5  H    2.078151   1.070847   3.056376   1.837893   0.000000
     6  O    1.405226   2.360218   2.089033   3.337181   2.602642
     7  O    2.337109   3.571934   2.380419   4.398966   4.004926
     8  H    2.451044   3.645558   2.360566   4.375933   4.158801
                    6          7          8
     6  O    0.000000
     7  O    1.461818   0.000000
     8  H    1.933275   0.975294   0.000000
 Symmetry turned off by external request.
 Stoichiometry    C2H4O2
 Framework group  C1[X(C2H4O2)]
 Deg. of freedom    18
 Full point group                 C1      NOp   1
 Rotational constants (GHZ):     42.1466104      4.5473402      4.1729016
 Leave Link  202 at Fri Apr 12 15:35:11 2019, MaxMem=   134217728 cpu:         0.0
 (Enter /cm/shared/c3ddb/gaussian/09.d01/g09/l601.exe)
 Copying SCF densities to generalized density rwf, IOpCl= 0 IROHF=0.

 **********************************************************************

            Population analysis using the SCF density.

 **********************************************************************

 Alpha  occ. eigenvalues --  -20.54111 -20.53343 -11.25134 -11.17421  -1.48350
 Alpha  occ. eigenvalues --   -1.24284  -1.03741  -0.81028  -0.72300  -0.66125
 Alpha  occ. eigenvalues --   -0.65418  -0.58089  -0.54770  -0.53027  -0.48554
 Alpha  occ. eigenvalues --   -0.36825
 Alpha virt. eigenvalues --    0.17356   0.22603   0.26439   0.31352   0.33362
 Alpha virt. eigenvalues --    0.35409   0.49562   0.56771   0.89142   0.96485
 Alpha virt. eigenvalues --    0.99109   1.06177   1.09954   1.10678   1.24866
 Alpha virt. eigenvalues --    1.31651   1.36005   1.56710   1.59090   1.75153
 Alpha virt. eigenvalues --    1.79090   1.90983   1.94359   1.98352   2.06790
 Alpha virt. eigenvalues --    2.28275   3.02557   3.52241
          Condensed to atoms (all electrons):
               1          2          3          4          5          6
     1  C    4.929643   0.508034   0.359688  -0.046414  -0.051460   0.206416
     2  C    0.508034   5.306581  -0.044065   0.386156   0.389975  -0.051939
     3  H    0.359688  -0.044065   0.464952  -0.000706   0.002315  -0.035548
     4  H   -0.046414   0.386156  -0.000706   0.444232  -0.014711   0.001276
     5  H   -0.051460   0.389975   0.002315  -0.014711   0.427994  -0.000569
     6  O    0.206416  -0.051939  -0.035548   0.001276  -0.000569   8.168376
     7  O   -0.025712   0.002804   0.002196  -0.000023  -0.000017   0.124475
     8  H   -0.002229  -0.000069   0.001144   0.000002   0.000014  -0.025968
               7          8
     1  C   -0.025712  -0.002229
     2  C    0.002804  -0.000069
     3  H    0.002196   0.001144
     4  H   -0.000023   0.000002
     5  H   -0.000017   0.000014
     6  O    0.124475  -0.025968
     7  O    8.025870   0.237746
     8  H    0.237746   0.386732
 Mulliken charges:
               1
     1  C    0.122034
     2  C   -0.497477
     3  H    0.250025
     4  H    0.230188
     5  H    0.246459
     6  O   -0.386519
     7  O   -0.367339
     8  H    0.402628
 Sum of Mulliken charges =   0.00000
 Mulliken charges with hydrogens summed into heavy atoms:
               1
     1  C    0.372060
     2  C   -0.020830
     6  O   -0.386519
     7  O    0.035289
 Electronic spatial extent (au):  <R**2>=            370.7575
 Charge=              0.0000 electrons
 Dipole moment (field-independent basis, Debye):
    X=              2.5420    Y=              0.6908    Z=             -1.7843  Tot=              3.1817
 Quadrupole moment (field-independent basis, Debye-Ang):
   XX=            -24.5261   YY=            -19.6476   ZZ=            -23.4065
   XY=              2.4306   XZ=              1.4234   YZ=             -4.1850
 Traceless Quadrupole moment (field-independent basis, Debye-Ang):
   XX=             -1.9993   YY=              2.8791   ZZ=             -0.8798
   XY=              2.4306   XZ=              1.4234   YZ=             -4.1850
 Octapole moment (field-independent basis, Debye-Ang**2):
  XXX=             -5.6710  YYY=            -41.3017  ZZZ=              1.0087  XYY=              0.0074
  XXY=            -19.3862  XXZ=              0.9132  XZZ=             -8.4940  YZZ=            -10.7419
  YYZ=             -9.2300  XYZ=              3.1261
 Hexadecapole moment (field-independent basis, Debye-Ang**3):
 XXXX=           -172.3027 YYYY=           -199.7239 ZZZZ=            -23.0968 XXXY=             55.0684
 XXXZ=             -3.0636 YYYX=             56.0513 YYYZ=            -16.9354 ZZZX=             -2.2005
 ZZZY=              2.1922 XXYY=            -72.1025 XXZZ=            -37.0854 YYZZ=            -30.7807
 XXYZ=              1.2170 YYXZ=              5.9993 ZZXY=             13.7917
 N-N= 1.165753337393D+02 E-N=-7.662738883773D+02  KE= 2.255979162709D+02
 No NMR shielding tensors so no spin-rotation constants.
 Leave Link  601 at Fri Apr 12 15:35:11 2019, MaxMem=   134217728 cpu:         0.3
 (Enter /cm/shared/c3ddb/gaussian/09.d01/g09/l9999.exe)
 1\1\GINC-NODE029\FOpt\RHF\3-21G\C2H4O2\MATTSJ\12-Apr-2019\0\\#p hf 3-2
 1g scf=tight NoSymmetry guess=read opt=(tight,modredundant)\\Geometry 
 optimization at the 2D-PES\\0,1\C,0.7454164716,0.6358261384,0.02316559
 07\C,1.377161472,-0.5097382644,-0.011753909\H,1.2212083245,1.589970128
 6,0.1127704149\H,2.4464294654,-0.5388524857,0.0231686718\H,0.846078219
 2,-1.4378132856,-0.0695536368\O,-0.6589852162,0.6830677184,0.032394597
 1\O,-1.0946527157,2.0641093175,-0.1671796267\H,-0.7170380207,2.2926817
 329,-1.036869102\\Version=AS64L-G09RevD.01\HF=-226.3878355\RMSD=6.990e
 -09\RMSF=2.918e-03\Dipole=1.0001182,0.271794,-0.7020092\Quadrupole=-1.
 4864503,2.1405368,-0.6540864,1.8070811,1.058294,-3.1114548\PG=C01 [X(C
 2H4O2)]\\@


 LIVE PURE, SPEAK TRUE, RIGHT WRONG, FOLLOW THE KING...
 ELSE, WHEREFORE BORN......
           IDYLLS OF THE KING, TENNYSON
 Job cpu time:       0 days  0 hours  0 minutes 19.1 seconds.
 File lengths (MBytes):  RWF=      5 Int=      0 D2E=      0 Chk=      1 Scr=      1
 Normal termination of Gaussian 09 at Fri Apr 12 15:35:11 2019.
