 Entering Gaussian System, Link 0=/cm/shared/c3ddb/gaussian/09.d01/g09/g09
 Initial command:
 /cm/shared/c3ddb/gaussian/09.d01/g09/l1.exe "/scratch/users/mattsj/g09/S02-7952157/Gau-44936.inp" -scrdir="/scratch/users/mattsj/g09/S02-7952157/"
 Entering Link 1 = /cm/shared/c3ddb/gaussian/09.d01/g09/l1.exe PID=     44937.
  
 Copyright (c) 1988,1990,1992,1993,1995,1998,2003,2009,2013,
            Gaussian, Inc.  All Rights Reserved.
  
 This is part of the Gaussian(R) 09 program.  It is based on
 the Gaussian(R) 03 system (copyright 2003, Gaussian, Inc.),
 the Gaussian(R) 98 system (copyright 1998, Gaussian, Inc.),
 the Gaussian(R) 94 system (copyright 1995, Gaussian, Inc.),
 the Gaussian 92(TM) system (copyright 1992, Gaussian, Inc.),
 the Gaussian 90(TM) system (copyright 1990, Gaussian, Inc.),
 the Gaussian 88(TM) system (copyright 1988, Gaussian, Inc.),
 the Gaussian 86(TM) system (copyright 1986, Carnegie Mellon
 University), and the Gaussian 82(TM) system (copyright 1983,
 Carnegie Mellon University). Gaussian is a federally registered
 trademark of Gaussian, Inc.
  
 This software contains proprietary and confidential information,
 including trade secrets, belonging to Gaussian, Inc.
  
 This software is provided under written license and may be
 used, copied, transmitted, or stored only in accord with that
 written license.
  
 The following legend is applicable only to US Government
 contracts under FAR:
  
                    RESTRICTED RIGHTS LEGEND
  
 Use, reproduction and disclosure by the US Government is
 subject to restrictions as set forth in subparagraphs (a)
 and (c) of the Commercial Computer Software - Restricted
 Rights clause in FAR 52.227-19.
  
 Gaussian, Inc.
 340 Quinnipiac St., Bldg. 40, Wallingford CT 06492
  
  
 ---------------------------------------------------------------
 Warning -- This program may not be used in any manner that
 competes with the business of Gaussian, Inc. or will provide
 assistance to any competitor of Gaussian, Inc.  The licensee
 of this program is prohibited from giving any competitor of
 Gaussian, Inc. access to this program.  By using this program,
 the user acknowledges that Gaussian, Inc. is engaged in the
 business of creating and licensing software in the field of
 computational chemistry and represents and warrants to the
 licensee that it is not a competitor of Gaussian, Inc. and that
 it will not use this program in any manner prohibited above.
 ---------------------------------------------------------------
  

 Cite this work as:
 Gaussian 09, Revision D.01,
 M. J. Frisch, G. W. Trucks, H. B. Schlegel, G. E. Scuseria, 
 M. A. Robb, J. R. Cheeseman, G. Scalmani, V. Barone, B. Mennucci, 
 G. A. Petersson, H. Nakatsuji, M. Caricato, X. Li, H. P. Hratchian, 
 A. F. Izmaylov, J. Bloino, G. Zheng, J. L. Sonnenberg, M. Hada, 
 M. Ehara, K. Toyota, R. Fukuda, J. Hasegawa, M. Ishida, T. Nakajima, 
 Y. Honda, O. Kitao, H. Nakai, T. Vreven, J. A. Montgomery, Jr., 
 J. E. Peralta, F. Ogliaro, M. Bearpark, J. J. Heyd, E. Brothers, 
 K. N. Kudin, V. N. Staroverov, T. Keith, R. Kobayashi, J. Normand, 
 K. Raghavachari, A. Rendell, J. C. Burant, S. S. Iyengar, J. Tomasi, 
 M. Cossi, N. Rega, J. M. Millam, M. Klene, J. E. Knox, J. B. Cross, 
 V. Bakken, C. Adamo, J. Jaramillo, R. Gomperts, R. E. Stratmann, 
 O. Yazyev, A. J. Austin, R. Cammi, C. Pomelli, J. W. Ochterski, 
 R. L. Martin, K. Morokuma, V. G. Zakrzewski, G. A. Voth, 
 P. Salvador, J. J. Dannenberg, S. Dapprich, A. D. Daniels, 
 O. Farkas, J. B. Foresman, J. V. Ortiz, J. Cioslowski, 
 and D. J. Fox, Gaussian, Inc., Wallingford CT, 2013.
 
 ******************************************
 Gaussian 09:  AS64L-G09RevD.01 24-Apr-2013
                12-Apr-2019 
 ******************************************
 %nproc=1
 Will use up to    1 processors via shared memory.
 %mem=1GB
 %chk=TMP_CALCS/scangeom_S02_090_090.chk
 --------------------------------------------------------------------
 #p hf 3-21g scf=tight NoSymmetry guess=read opt=(tight,modredundant)
 --------------------------------------------------------------------
 1/7=10,18=120,19=15,38=1/1,3;
 2/9=110,12=2,15=1,17=6,18=5,40=1/2;
 3/5=5,11=9,16=1,25=1,30=1,71=1,116=-2/1,2,3;
 4/5=1/1;
 5/5=2,32=2,38=6/2;
 6/7=2,8=2,9=2,10=2,28=1/1;
 7/30=1/1,2,3,16;
 1/7=10,18=20,19=15/3(2);
 2/9=110,15=1/2;
 99//99;
 2/9=110,15=1/2;
 3/5=5,11=9,16=1,25=1,30=1,71=1/1,2,3;
 4/5=5,16=3,69=1/1;
 5/5=2,32=2,38=5/2;
 7/30=1/1,2,3,16;
 1/7=10,18=20,19=15/3(-5);
 2/9=110,15=1/2;
 6/7=2,8=2,9=2,10=2,19=2,28=1/1;
 99/9=1/99;
 Leave Link    1 at Fri Apr 12 16:37:11 2019, MaxMem=   134217728 cpu:         0.3
 (Enter /cm/shared/c3ddb/gaussian/09.d01/g09/l101.exe)
 -----------------------------------
 Geometry optimization at the 2D-PES
 -----------------------------------
 Symbolic Z-matrix:
 Charge =  0 Multiplicity = 1
 C                     0.74059   0.62082   0.04324 
 C                     1.38245  -0.51702  -0.00517 
 H                     1.21818   1.57829   0.10362 
 H                     2.45312  -0.54578   0.00098 
 H                     0.84919  -1.44423  -0.05751 
 O                    -0.671     0.6766   -0.01257 
 O                    -1.18865   0.60233   1.36252 
 H                    -1.2264    1.54159   1.62017 
 
 The following ModRedundant input section has been read:
 D       2       1       6       7 F                                           
 D       1       6       7       8 F                                           
 
 NAtoms=      8 NQM=        8 NQMF=       0 NMMI=      0 NMMIF=      0
                NMic=       0 NMicF=      0.
                    Isotopes and Nuclear Properties:
 (Nuclear quadrupole moments (NQMom) in fm**2, nuclear magnetic moments (NMagM)
  in nuclear magnetons)

  Atom         1           2           3           4           5           6           7           8
 IAtWgt=          12          12           1           1           1          16          16           1
 AtmWgt=  12.0000000  12.0000000   1.0078250   1.0078250   1.0078250  15.9949146  15.9949146   1.0078250
 NucSpn=           0           0           1           1           1           0           0           1
 AtZEff=   0.0000000   0.0000000   0.0000000   0.0000000   0.0000000   0.0000000   0.0000000   0.0000000
 NQMom=    0.0000000   0.0000000   0.0000000   0.0000000   0.0000000   0.0000000   0.0000000   0.0000000
 NMagM=    0.0000000   0.0000000   2.7928460   2.7928460   2.7928460   0.0000000   0.0000000   2.7928460
 AtZNuc=   6.0000000   6.0000000   1.0000000   1.0000000   1.0000000   8.0000000   8.0000000   1.0000000
 Leave Link  101 at Fri Apr 12 16:37:12 2019, MaxMem=   134217728 cpu:         0.6
 (Enter /cm/shared/c3ddb/gaussian/09.d01/g09/l103.exe)

 GradGradGradGradGradGradGradGradGradGradGradGradGradGradGradGradGradGrad
 Berny optimization.
 Initialization pass.
                           ----------------------------
                           !    Initial Parameters    !
                           ! (Angstroms and Degrees)  !
 --------------------------                            --------------------------
 ! Name  Definition              Value          Derivative Info.                !
 --------------------------------------------------------------------------------
 ! R1    R(1,2)                  1.3073         estimate D2E/DX2                !
 ! R2    R(1,3)                  1.0717         estimate D2E/DX2                !
 ! R3    R(1,6)                  1.4138         estimate D2E/DX2                !
 ! R4    R(2,4)                  1.0711         estimate D2E/DX2                !
 ! R5    R(2,5)                  1.0709         estimate D2E/DX2                !
 ! R6    R(6,7)                  1.4712         estimate D2E/DX2                !
 ! R7    R(7,8)                  0.9747         estimate D2E/DX2                !
 ! A1    A(2,1,3)              124.1188         estimate D2E/DX2                !
 ! A2    A(2,1,6)              121.5397         estimate D2E/DX2                !
 ! A3    A(3,1,6)              114.3264         estimate D2E/DX2                !
 ! A4    A(1,2,4)              120.9274         estimate D2E/DX2                !
 ! A5    A(1,2,5)              120.7252         estimate D2E/DX2                !
 ! A6    A(4,2,5)              118.3466         estimate D2E/DX2                !
 ! A7    A(1,6,7)              108.2055         estimate D2E/DX2                !
 ! A8    A(6,7,8)              102.2428         estimate D2E/DX2                !
 ! D1    D(3,1,2,4)             -0.8083         estimate D2E/DX2                !
 ! D2    D(3,1,2,5)            179.5344         estimate D2E/DX2                !
 ! D3    D(6,1,2,4)            177.6942         estimate D2E/DX2                !
 ! D4    D(6,1,2,5)             -1.9631         estimate D2E/DX2                !
 ! D5    D(2,1,6,7)             89.9999         Frozen                          !
 ! D6    D(3,1,6,7)            -91.3606         estimate D2E/DX2                !
 ! D7    D(1,6,7,8)             90.0            Frozen                          !
 --------------------------------------------------------------------------------
 Trust Radius=3.00D-01 FncErr=1.00D-07 GrdErr=1.00D-07
 Number of steps in this run=     32 maximum allowed number of steps=    100.
 GradGradGradGradGradGradGradGradGradGradGradGradGradGradGradGradGradGrad

 Leave Link  103 at Fri Apr 12 16:37:12 2019, MaxMem=   134217728 cpu:         0.1
 (Enter /cm/shared/c3ddb/gaussian/09.d01/g09/l202.exe)
                          Input orientation:                          
 ---------------------------------------------------------------------
 Center     Atomic      Atomic             Coordinates (Angstroms)
 Number     Number       Type             X           Y           Z
 ---------------------------------------------------------------------
      1          6           0        0.740592    0.620822    0.043239
      2          6           0        1.382445   -0.517024   -0.005168
      3          1           0        1.218184    1.578290    0.103616
      4          1           0        2.453124   -0.545782    0.000979
      5          1           0        0.849187   -1.444225   -0.057510
      6          8           0       -0.671001    0.676597   -0.012568
      7          8           0       -1.188648    0.602326    1.362519
      8          1           0       -1.226398    1.541588    1.620170
 ---------------------------------------------------------------------
                    Distance matrix (angstroms):
                    1          2          3          4          5
     1  C    0.000000
     2  C    1.307292   0.000000
     3  H    1.071674   2.104556   0.000000
     4  H    2.072563   1.071083   2.459124   0.000000
     5  H    2.070353   1.070890   3.049216   1.839357   0.000000
     6  O    1.413796   2.375169   2.096561   3.354780   2.609766
     7  O    2.337265   3.119941   2.886206   4.053942   3.218326
     8  H    2.683947   3.699415   2.877024   4.529655   4.004715
                    6          7          8
     6  O    0.000000
     7  O    1.471169   0.000000
     8  H    1.929380   0.974691   0.000000
 Symmetry turned off by external request.
 Stoichiometry    C2H4O2
 Framework group  C1[X(C2H4O2)]
 Deg. of freedom    18
 Full point group                 C1      NOp   1
 Rotational constants (GHZ):     23.5767362      5.1809660      4.8421763
 Leave Link  202 at Fri Apr 12 16:37:12 2019, MaxMem=   134217728 cpu:         0.0
 (Enter /cm/shared/c3ddb/gaussian/09.d01/g09/l301.exe)
 Standard basis: 3-21G (6D, 7F)
 Ernie: Thresh=  0.10000D-02 Tol=  0.10000D-05 Strict=F.
    44 basis functions,    72 primitive gaussians,    44 cartesian basis functions
    16 alpha electrons       16 beta electrons
       nuclear repulsion energy       117.1463900595 Hartrees.
 IExCor=    0 DFT=F Ex=HF Corr=None ExCW=0 ScaHFX=  1.000000
 ScaDFX=  1.000000  1.000000  1.000000  1.000000 ScalE2=  1.000000  1.000000
 IRadAn=      0 IRanWt=     -1 IRanGd=            0 ICorTp=0 IEmpDi=  4
 NAtoms=    8 NActive=    8 NUniq=    8 SFac= 1.00D+00 NAtFMM=   60 NAOKFM=F Big=F
 Integral buffers will be    131072 words long.
 Raffenetti 1 integral format.
 Two-electron integral symmetry is turned off.
 Leave Link  301 at Fri Apr 12 16:37:13 2019, MaxMem=   134217728 cpu:         0.3
 (Enter /cm/shared/c3ddb/gaussian/09.d01/g09/l302.exe)
 NPDir=0 NMtPBC=     1 NCelOv=     1 NCel=       1 NClECP=     1 NCelD=      1
         NCelK=      1 NCelE2=     1 NClLst=     1 CellRange=     0.0.
 One-electron integrals computed using PRISM.
 NBasis=    44 RedAO= T EigKep=  1.18D-02  NBF=    44
 NBsUse=    44 1.00D-06 EigRej= -1.00D+00 NBFU=    44
 Leave Link  302 at Fri Apr 12 16:37:13 2019, MaxMem=   134217728 cpu:         0.3
 (Enter /cm/shared/c3ddb/gaussian/09.d01/g09/l303.exe)
 DipDrv:  MaxL=1.
 Leave Link  303 at Fri Apr 12 16:37:13 2019, MaxMem=   134217728 cpu:         0.2
 (Enter /cm/shared/c3ddb/gaussian/09.d01/g09/l401.exe)
 Initial guess from the checkpoint file:  "TMP_CALCS/scangeom_S02_090_090.chk"
 B after Tr=    -0.003765   -0.001770   -0.000878
         Rot=    0.999995    0.001941    0.001836   -0.001822 Ang=   0.37 deg.
 Guess basis will be translated and rotated to current coordinates.
 JPrj=2 DoOrth=T DoCkMO=T.
 Leave Link  401 at Fri Apr 12 16:37:14 2019, MaxMem=   134217728 cpu:         0.4
 (Enter /cm/shared/c3ddb/gaussian/09.d01/g09/l502.exe)
 Closed shell SCF:
 Using DIIS extrapolation, IDIIS=  1040.
 Two-electron integral symmetry not used.
 Keep R1 ints in memory in canonical form, NReq=1327345.
 IVT=       24902 IEndB=       24902 NGot=   134217728 MDV=   133702282
 LenX=   133702282 LenY=   133699905
 Requested convergence on RMS density matrix=1.00D-08 within 128 cycles.
 Requested convergence on MAX density matrix=1.00D-06.
 Requested convergence on             energy=1.00D-06.
 No special actions if energy rises.
 FoFCou: FMM=F IPFlag=           0 FMFlag=           0 FMFlg1=           0
         NFxFlg=           0 DoJE=F BraDBF=F KetDBF=F FulRan=T
         wScrn=  0.000000 ICntrl=     600 IOpCl=  0 I1Cent=           0 NGrid=           0
         NMat0=    1 NMatS0=    990 NMatT0=    0 NMatD0=    1 NMtDS0=    0 NMtDT0=    0
 Symmetry not used in FoFCou.

 Cycle   1  Pass 1  IDiag  1:
 E= -226.386037503663    
 DIIS: error= 8.87D-03 at cycle   1 NSaved=   1.
 NSaved= 1 IEnMin= 1 EnMin= -226.386037503663     IErMin= 1 ErrMin= 8.87D-03
 ErrMax= 8.87D-03  0.00D+00 EMaxC= 1.00D-01 BMatC= 1.92D-03 BMatP= 1.92D-03
 IDIUse=3 WtCom= 9.11D-01 WtEn= 8.87D-02
 Coeff-Com:  0.100D+01
 Coeff-En:   0.100D+01
 Coeff:      0.100D+01
 Gap=     0.539 Goal=   None    Shift=    0.000
 GapD=    0.539 DampG=2.000 DampE=1.000 DampFc=2.0000 IDamp=-1.
 RMSDP=1.11D-03 MaxDP=1.65D-02              OVMax= 1.54D-02

 Cycle   2  Pass 1  IDiag  1:
 E= -226.389010015444     Delta-E=       -0.002972511782 Rises=F Damp=F
 DIIS: error= 4.01D-03 at cycle   2 NSaved=   2.
 NSaved= 2 IEnMin= 2 EnMin= -226.389010015444     IErMin= 2 ErrMin= 4.01D-03
 ErrMax= 4.01D-03  0.00D+00 EMaxC= 1.00D-01 BMatC= 1.86D-04 BMatP= 1.92D-03
 IDIUse=3 WtCom= 9.60D-01 WtEn= 4.01D-02
 Coeff-Com: -0.333D+00 0.133D+01
 Coeff-En:   0.000D+00 0.100D+01
 Coeff:     -0.320D+00 0.132D+01
 Gap=     0.539 Goal=   None    Shift=    0.000
 RMSDP=5.85D-04 MaxDP=6.32D-03 DE=-2.97D-03 OVMax= 1.13D-02

 Cycle   3  Pass 1  IDiag  1:
 E= -226.389503823725     Delta-E=       -0.000493808281 Rises=F Damp=F
 DIIS: error= 1.26D-03 at cycle   3 NSaved=   3.
 NSaved= 3 IEnMin= 3 EnMin= -226.389503823725     IErMin= 3 ErrMin= 1.26D-03
 ErrMax= 1.26D-03  0.00D+00 EMaxC= 1.00D-01 BMatC= 1.67D-05 BMatP= 1.86D-04
 IDIUse=3 WtCom= 9.87D-01 WtEn= 1.26D-02
 Coeff-Com:  0.799D-01-0.470D+00 0.139D+01
 Coeff-En:   0.000D+00 0.000D+00 0.100D+01
 Coeff:      0.789D-01-0.464D+00 0.139D+01
 Gap=     0.539 Goal=   None    Shift=    0.000
 RMSDP=2.43D-04 MaxDP=3.91D-03 DE=-4.94D-04 OVMax= 5.12D-03

 Cycle   4  Pass 1  IDiag  1:
 E= -226.389560094679     Delta-E=       -0.000056270954 Rises=F Damp=F
 DIIS: error= 3.18D-04 at cycle   4 NSaved=   4.
 NSaved= 4 IEnMin= 4 EnMin= -226.389560094679     IErMin= 4 ErrMin= 3.18D-04
 ErrMax= 3.18D-04  0.00D+00 EMaxC= 1.00D-01 BMatC= 3.44D-06 BMatP= 1.67D-05
 IDIUse=3 WtCom= 9.97D-01 WtEn= 3.18D-03
 Coeff-Com:  0.791D-01-0.364D+00 0.431D+00 0.854D+00
 Coeff-En:   0.000D+00 0.000D+00 0.000D+00 0.100D+01
 Coeff:      0.789D-01-0.363D+00 0.430D+00 0.855D+00
 Gap=     0.539 Goal=   None    Shift=    0.000
 RMSDP=8.22D-05 MaxDP=1.33D-03 DE=-5.63D-05 OVMax= 1.66D-03

 Cycle   5  Pass 1  IDiag  1:
 E= -226.389566224815     Delta-E=       -0.000006130137 Rises=F Damp=F
 DIIS: error= 4.75D-05 at cycle   5 NSaved=   5.
 NSaved= 5 IEnMin= 5 EnMin= -226.389566224815     IErMin= 5 ErrMin= 4.75D-05
 ErrMax= 4.75D-05  0.00D+00 EMaxC= 1.00D-01 BMatC= 1.32D-07 BMatP= 3.44D-06
 IDIUse=1 WtCom= 1.00D+00 WtEn= 0.00D+00
 Coeff-Com: -0.425D-02 0.305D-01-0.122D+00 0.603D-01 0.104D+01
 Coeff:     -0.425D-02 0.305D-01-0.122D+00 0.603D-01 0.104D+01
 Gap=     0.539 Goal=   None    Shift=    0.000
 RMSDP=1.76D-05 MaxDP=2.74D-04 DE=-6.13D-06 OVMax= 3.51D-04

 Cycle   6  Pass 1  IDiag  1:
 E= -226.389566460414     Delta-E=       -0.000000235598 Rises=F Damp=F
 DIIS: error= 1.41D-05 at cycle   6 NSaved=   6.
 NSaved= 6 IEnMin= 6 EnMin= -226.389566460414     IErMin= 6 ErrMin= 1.41D-05
 ErrMax= 1.41D-05  0.00D+00 EMaxC= 1.00D-01 BMatC= 7.97D-09 BMatP= 1.32D-07
 IDIUse=1 WtCom= 1.00D+00 WtEn= 0.00D+00
 Coeff-Com: -0.287D-02 0.158D-01-0.391D-01-0.537D-02 0.235D+00 0.796D+00
 Coeff:     -0.287D-02 0.158D-01-0.391D-01-0.537D-02 0.235D+00 0.796D+00
 Gap=     0.539 Goal=   None    Shift=    0.000
 RMSDP=2.50D-06 MaxDP=1.67D-05 DE=-2.36D-07 OVMax= 4.74D-05

 Cycle   7  Pass 1  IDiag  1:
 E= -226.389566474440     Delta-E=       -0.000000014026 Rises=F Damp=F
 DIIS: error= 9.93D-06 at cycle   7 NSaved=   7.
 NSaved= 7 IEnMin= 7 EnMin= -226.389566474440     IErMin= 7 ErrMin= 9.93D-06
 ErrMax= 9.93D-06  0.00D+00 EMaxC= 1.00D-01 BMatC= 1.67D-09 BMatP= 7.97D-09
 IDIUse=1 WtCom= 1.00D+00 WtEn= 0.00D+00
 Coeff-Com:  0.147D-02-0.956D-02 0.325D-01-0.101D-01-0.266D+00-0.170D+00
 Coeff-Com:  0.142D+01
 Coeff:      0.147D-02-0.956D-02 0.325D-01-0.101D-01-0.266D+00-0.170D+00
 Coeff:      0.142D+01
 Gap=     0.539 Goal=   None    Shift=    0.000
 RMSDP=2.49D-06 MaxDP=2.33D-05 DE=-1.40D-08 OVMax= 5.80D-05

 Cycle   8  Pass 1  IDiag  1:
 E= -226.389566481749     Delta-E=       -0.000000007310 Rises=F Damp=F
 DIIS: error= 4.32D-06 at cycle   8 NSaved=   8.
 NSaved= 8 IEnMin= 8 EnMin= -226.389566481749     IErMin= 8 ErrMin= 4.32D-06
 ErrMax= 4.32D-06  0.00D+00 EMaxC= 1.00D-01 BMatC= 2.12D-10 BMatP= 1.67D-09
 IDIUse=1 WtCom= 1.00D+00 WtEn= 0.00D+00
 Coeff-Com:  0.160D-03-0.585D-03-0.187D-04 0.234D-02 0.139D-01-0.763D-01
 Coeff-Com: -0.305D+00 0.137D+01
 Coeff:      0.160D-03-0.585D-03-0.187D-04 0.234D-02 0.139D-01-0.763D-01
 Coeff:     -0.305D+00 0.137D+01
 Gap=     0.539 Goal=   None    Shift=    0.000
 RMSDP=1.14D-06 MaxDP=1.17D-05 DE=-7.31D-09 OVMax= 2.99D-05

 Cycle   9  Pass 1  IDiag  1:
 E= -226.389566482924     Delta-E=       -0.000000001175 Rises=F Damp=F
 DIIS: error= 1.37D-06 at cycle   9 NSaved=   9.
 NSaved= 9 IEnMin= 9 EnMin= -226.389566482924     IErMin= 9 ErrMin= 1.37D-06
 ErrMax= 1.37D-06  0.00D+00 EMaxC= 1.00D-01 BMatC= 2.41D-11 BMatP= 2.12D-10
 IDIUse=1 WtCom= 1.00D+00 WtEn= 0.00D+00
 Coeff-Com: -0.197D-03 0.127D-02-0.414D-02 0.113D-02 0.336D-01 0.306D-01
 Coeff-Com: -0.197D+00-0.480D-01 0.118D+01
 Coeff:     -0.197D-03 0.127D-02-0.414D-02 0.113D-02 0.336D-01 0.306D-01
 Coeff:     -0.197D+00-0.480D-01 0.118D+01
 Gap=     0.539 Goal=   None    Shift=    0.000
 RMSDP=3.90D-07 MaxDP=3.70D-06 DE=-1.17D-09 OVMax= 1.07D-05

 Cycle  10  Pass 1  IDiag  1:
 E= -226.389566483038     Delta-E=       -0.000000000114 Rises=F Damp=F
 DIIS: error= 3.23D-07 at cycle  10 NSaved=  10.
 NSaved=10 IEnMin=10 EnMin= -226.389566483038     IErMin=10 ErrMin= 3.23D-07
 ErrMax= 3.23D-07  0.00D+00 EMaxC= 1.00D-01 BMatC= 2.41D-12 BMatP= 2.41D-11
 IDIUse=1 WtCom= 1.00D+00 WtEn= 0.00D+00
 Coeff-Com:  0.497D-04-0.366D-03 0.140D-02-0.604D-03-0.132D-01 0.280D-02
 Coeff-Com:  0.887D-01-0.124D+00-0.341D+00 0.139D+01
 Coeff:      0.497D-04-0.366D-03 0.140D-02-0.604D-03-0.132D-01 0.280D-02
 Coeff:      0.887D-01-0.124D+00-0.341D+00 0.139D+01
 Gap=     0.539 Goal=   None    Shift=    0.000
 RMSDP=1.04D-07 MaxDP=6.50D-07 DE=-1.14D-10 OVMax= 2.59D-06

 Cycle  11  Pass 1  IDiag  1:
 E= -226.389566483047     Delta-E=       -0.000000000009 Rises=F Damp=F
 DIIS: error= 5.62D-08 at cycle  11 NSaved=  11.
 NSaved=11 IEnMin=11 EnMin= -226.389566483047     IErMin=11 ErrMin= 5.62D-08
 ErrMax= 5.62D-08  0.00D+00 EMaxC= 1.00D-01 BMatC= 2.10D-13 BMatP= 2.41D-12
 IDIUse=1 WtCom= 1.00D+00 WtEn= 0.00D+00
 Coeff-Com:  0.214D-04-0.139D-03 0.452D-03-0.953D-04-0.395D-02-0.195D-02
 Coeff-Com:  0.207D-01-0.104D-02-0.112D+00 0.617D-01 0.104D+01
 Coeff:      0.214D-04-0.139D-03 0.452D-03-0.953D-04-0.395D-02-0.195D-02
 Coeff:      0.207D-01-0.104D-02-0.112D+00 0.617D-01 0.104D+01
 Gap=     0.539 Goal=   None    Shift=    0.000
 RMSDP=1.96D-08 MaxDP=1.61D-07 DE=-9.09D-12 OVMax= 4.22D-07

 Cycle  12  Pass 1  IDiag  1:
 E= -226.389566483048     Delta-E=       -0.000000000001 Rises=F Damp=F
 DIIS: error= 2.36D-08 at cycle  12 NSaved=  12.
 NSaved=12 IEnMin=12 EnMin= -226.389566483048     IErMin=12 ErrMin= 2.36D-08
 ErrMax= 2.36D-08  0.00D+00 EMaxC= 1.00D-01 BMatC= 2.61D-14 BMatP= 2.10D-13
 IDIUse=1 WtCom= 1.00D+00 WtEn= 0.00D+00
 Coeff-Com: -0.875D-05 0.613D-04-0.229D-03 0.113D-03 0.201D-02-0.251D-03
 Coeff-Com: -0.137D-01 0.193D-01 0.487D-01-0.206D+00 0.326D-01 0.112D+01
 Coeff:     -0.875D-05 0.613D-04-0.229D-03 0.113D-03 0.201D-02-0.251D-03
 Coeff:     -0.137D-01 0.193D-01 0.487D-01-0.206D+00 0.326D-01 0.112D+01
 Gap=     0.539 Goal=   None    Shift=    0.000
 RMSDP=7.57D-09 MaxDP=6.62D-08 DE=-5.68D-13 OVMax= 1.36D-07

 SCF Done:  E(RHF) =  -226.389566483     A.U. after   12 cycles
            NFock= 12  Conv=0.76D-08     -V/T= 2.0034
 KE= 2.256138018199D+02 PE=-7.677273432245D+02 EE= 1.985775848619D+02
 Leave Link  502 at Fri Apr 12 16:37:14 2019, MaxMem=   134217728 cpu:         0.4
 (Enter /cm/shared/c3ddb/gaussian/09.d01/g09/l601.exe)
 Copying SCF densities to generalized density rwf, IOpCl= 0 IROHF=0.

 **********************************************************************

            Population analysis using the SCF density.

 **********************************************************************

 Alpha  occ. eigenvalues --  -20.52554 -20.51840 -11.23906 -11.18130  -1.46394
 Alpha  occ. eigenvalues --   -1.22927  -1.03557  -0.80046  -0.69613  -0.68176
 Alpha  occ. eigenvalues --   -0.63140  -0.58415  -0.56299  -0.47490  -0.46595
 Alpha  occ. eigenvalues --   -0.38840
 Alpha virt. eigenvalues --    0.15054   0.26311   0.28535   0.30637   0.32144
 Alpha virt. eigenvalues --    0.36184   0.49367   0.56365   0.88308   0.97000
 Alpha virt. eigenvalues --    0.98394   1.06265   1.09772   1.11606   1.24853
 Alpha virt. eigenvalues --    1.31745   1.36569   1.57168   1.60022   1.76455
 Alpha virt. eigenvalues --    1.81679   1.85879   2.00064   2.04611   2.08581
 Alpha virt. eigenvalues --    2.17873   3.11628   3.45024
          Condensed to atoms (all electrons):
               1          2          3          4          5          6
     1  C    4.911769   0.481497   0.379279  -0.039609  -0.048948   0.243919
     2  C    0.481497   5.333319  -0.067543   0.369671   0.386514  -0.059273
     3  H    0.379279  -0.067543   0.496273   0.001369   0.002287  -0.040271
     4  H   -0.039609   0.369671   0.001369   0.454375  -0.014964   0.001500
     5  H   -0.048948   0.386514   0.002287  -0.014964   0.420719  -0.001142
     6  O    0.243919  -0.059273  -0.040271   0.001500  -0.001142   8.155577
     7  O   -0.038436  -0.000420   0.001106  -0.000026   0.000352   0.121431
     8  H   -0.000400   0.000032   0.000872   0.000004   0.000008  -0.024492
               7          8
     1  C   -0.038436  -0.000400
     2  C   -0.000420   0.000032
     3  H    0.001106   0.000872
     4  H   -0.000026   0.000004
     5  H    0.000352   0.000008
     6  O    0.121431  -0.024492
     7  O    8.058676   0.238115
     8  H    0.238115   0.384426
 Mulliken charges:
               1
     1  C    0.110928
     2  C   -0.443798
     3  H    0.226628
     4  H    0.227680
     5  H    0.255174
     6  O   -0.397249
     7  O   -0.380798
     8  H    0.401435
 Sum of Mulliken charges =   0.00000
 Mulliken charges with hydrogens summed into heavy atoms:
               1
     1  C    0.337556
     2  C    0.039056
     6  O   -0.397249
     7  O    0.020637
 Electronic spatial extent (au):  <R**2>=            314.4985
 Charge=              0.0000 electrons
 Dipole moment (field-independent basis, Debye):
    X=              1.9977    Y=              1.5422    Z=              0.7886  Tot=              2.6441
 Quadrupole moment (field-independent basis, Debye-Ang):
   XX=            -22.7343   YY=            -17.8212   ZZ=            -24.0155
   XY=             -1.5797   XZ=             -0.8769   YZ=              4.0008
 Traceless Quadrupole moment (field-independent basis, Debye-Ang):
   XX=             -1.2107   YY=              3.7025   ZZ=             -2.4918
   XY=             -1.5797   XZ=             -0.8769   YZ=              4.0008
 Octapole moment (field-independent basis, Debye-Ang**2):
  XXX=             -4.8438  YYY=            -16.1409  ZZZ=            -21.6737  XYY=             -6.4525
  XXY=             -5.6011  XXZ=             -7.2180  XZZ=             -7.8052  YZZ=             -1.3336
  YYZ=             -0.8363  XYZ=             -4.4842
 Hexadecapole moment (field-independent basis, Debye-Ang**3):
 XXXX=           -179.5345 YYYY=            -74.1372 ZZZZ=            -80.1262 XXXY=             21.3826
 XXXZ=             27.5713 YYYX=             20.3438 YYYZ=             -4.7641 ZZZX=             22.7542
 ZZZY=             -6.5427 XXYY=            -39.5693 XXZZ=            -47.3755 YYZZ=            -18.6827
 XXYZ=              0.1254 YYXZ=              0.5339 ZZXY=              1.1961
 N-N= 1.171463900595D+02 E-N=-7.677273426868D+02  KE= 2.256138018199D+02
 No NMR shielding tensors so no spin-rotation constants.
 Leave Link  601 at Fri Apr 12 16:37:15 2019, MaxMem=   134217728 cpu:         0.1
 (Enter /cm/shared/c3ddb/gaussian/09.d01/g09/l701.exe)
 Compute integral first derivatives.
 ... and contract with generalized density number  0.
 Leave Link  701 at Fri Apr 12 16:37:15 2019, MaxMem=   134217728 cpu:         0.5
 (Enter /cm/shared/c3ddb/gaussian/09.d01/g09/l702.exe)
 L702 exits ... SP integral derivatives will be done elsewhere.
 Leave Link  702 at Fri Apr 12 16:37:15 2019, MaxMem=   134217728 cpu:         0.1
 (Enter /cm/shared/c3ddb/gaussian/09.d01/g09/l703.exe)
 Compute integral first derivatives, UseDBF=F ICtDFT=           0.
 Integral derivatives from FoFJK, PRISM(SPDF).
 Calling FoFJK, ICntrl=      2127 FMM=F ISym2X=0 I1Cent= 0 IOpClX= 0 NMat=1 NMatS=1 NMatT=0.
 FoFJK:  IHMeth= 1 ICntrl=    2127 DoSepK=F KAlg= 0 I1Cent=   0 FoldK=F
 IRaf=         0 NMat=   1 IRICut=       1 DoRegI=T DoRafI=F ISym2E= 0.
 FoFCou: FMM=F IPFlag=           0 FMFlag=      100000 FMFlg1=         800
         NFxFlg=           0 DoJE=F BraDBF=F KetDBF=F FulRan=T
         wScrn=  0.000000 ICntrl=    2127 IOpCl=  0 I1Cent=           0 NGrid=           0
         NMat0=    1 NMatS0=      1 NMatT0=    0 NMatD0=    1 NMtDS0=    0 NMtDT0=    0
 Symmetry not used in FoFCou.
 Leave Link  703 at Fri Apr 12 16:37:16 2019, MaxMem=   134217728 cpu:         0.2
 (Enter /cm/shared/c3ddb/gaussian/09.d01/g09/l716.exe)
 Dipole        = 7.85973088D-01 6.06750368D-01 3.10257246D-01
 -------------------------------------------------------------------
 Center     Atomic                   Forces (Hartrees/Bohr)
 Number     Number              X              Y              Z
 -------------------------------------------------------------------
      1        6          -0.000348595   -0.001589376    0.002322658
      2        6          -0.000244933    0.000056665   -0.001330311
      3        1          -0.000092995   -0.000197368    0.000186554
      4        1          -0.000038757    0.000042660   -0.000067724
      5        1           0.000042262   -0.000032085    0.000087324
      6        8          -0.000621199    0.002061444   -0.000784754
      7        8           0.003783127   -0.000367288    0.001851545
      8        1          -0.002478909    0.000025349   -0.002265292
 -------------------------------------------------------------------
 Cartesian Forces:  Max     0.003783127 RMS     0.001359836
 Leave Link  716 at Fri Apr 12 16:37:16 2019, MaxMem=   134217728 cpu:         0.1
 (Enter /cm/shared/c3ddb/gaussian/09.d01/g09/l103.exe)

 GradGradGradGradGradGradGradGradGradGradGradGradGradGradGradGradGradGrad
 Berny optimization.
 FormGI is forming the generalized inverse of G from B-inverse, IUseBI=4.
 Internal  Forces:  Max     0.005599072 RMS     0.001448139
 Search for a local minimum.
 Step number   1 out of a maximum of   32
 All quantities printed in internal units (Hartrees-Bohrs-Radians)
 RMS Force = .68992D-03 SwitMx=.10000D-02 MixMth= 2
 Mixed Optimization -- En-DIIS/RFO-DIIS
 Second derivative matrix not updated -- first step.
 ITU=  0
     Eigenvalues ---    0.02500   0.03315   0.03315   0.15997   0.16000
     Eigenvalues ---    0.16000   0.16000   0.22001   0.25000   0.35601
     Eigenvalues ---    0.37019   0.37094   0.37118   0.43408   0.52430
     Eigenvalues ---    0.652081000.000001000.000001000.000001000.00000
     Eigenvalues --- 1000.000001000.00000
 RFO step:  Lambda=-4.79641824D-05 EMin= 2.49969657D-02
 Linear search not attempted -- first point.
 Iteration  1 RMS(Cart)=  0.00778028 RMS(Int)=  0.00003709
 Iteration  2 RMS(Cart)=  0.00003560 RMS(Int)=  0.00000085
 Iteration  3 RMS(Cart)=  0.00000000 RMS(Int)=  0.00000085
 Iteration  1 RMS(Cart)=  0.00000005 RMS(Int)=  0.00000002
 ITry= 1 IFail=0 DXMaxC= 2.01D-02 DCOld= 1.00D+10 DXMaxT= 3.00D-01 DXLimC= 3.00D+00 Rises=F
 Variable       Old X    -DE/DX   Delta X   Delta X   Delta X     New X
                                 (Linear)    (Quad)   (Total)
    R1        2.47042  -0.00013   0.00000  -0.00020  -0.00020   2.47023
    R2        2.02517  -0.00021   0.00000  -0.00056  -0.00056   2.02461
    R3        2.67169  -0.00057   0.00000  -0.00131  -0.00131   2.67038
    R4        2.02405  -0.00004   0.00000  -0.00011  -0.00011   2.02394
    R5        2.02369   0.00000   0.00000   0.00001   0.00001   2.02370
    R6        2.78011  -0.00083   0.00000  -0.00233  -0.00233   2.77778
    R7        1.84190  -0.00048   0.00000  -0.00091  -0.00091   1.84099
    A1        2.16628   0.00014   0.00000   0.00075   0.00074   2.16702
    A2        2.12127  -0.00033   0.00000  -0.00146  -0.00146   2.11981
    A3        1.99537   0.00018   0.00000   0.00080   0.00080   1.99617
    A4        2.11058  -0.00009   0.00000  -0.00054  -0.00054   2.11004
    A5        2.10705   0.00010   0.00000   0.00060   0.00060   2.10765
    A6        2.06554  -0.00001   0.00000  -0.00005  -0.00005   2.06548
    A7        1.88854  -0.00183   0.00000  -0.00732  -0.00732   1.88122
    A8        1.78447  -0.00216   0.00000  -0.01348  -0.01348   1.77099
    D1       -0.01411   0.00035   0.00000  -0.00393  -0.00393  -0.01804
    D2        3.13347   0.00033   0.00000  -0.00443  -0.00443   3.12904
    D3        3.10135  -0.00047   0.00000   0.00030   0.00030   3.10165
    D4       -0.03426  -0.00048   0.00000  -0.00020  -0.00020  -0.03446
    D5        1.57080   0.00184   0.00000   0.00000   0.00000   1.57080
    D6       -1.59454   0.00111   0.00000   0.00385   0.00385  -1.59070
    D7        1.57080   0.00560   0.00000   0.00000   0.00000   1.57080
         Item               Value     Threshold  Converged?
 Maximum Force            0.002158     0.000015     NO 
 RMS     Force            0.000690     0.000010     NO 
 Maximum Displacement     0.020102     0.000060     NO 
 RMS     Displacement     0.007781     0.000040     NO 
 Predicted change in Energy=-2.398862D-05
 Lowest energy point so far.  Saving SCF results.
 GradGradGradGradGradGradGradGradGradGradGradGradGradGradGradGradGradGrad

 Leave Link  103 at Fri Apr 12 16:37:16 2019, MaxMem=   134217728 cpu:         0.1
 (Enter /cm/shared/c3ddb/gaussian/09.d01/g09/l202.exe)
                          Input orientation:                          
 ---------------------------------------------------------------------
 Center     Atomic      Atomic             Coordinates (Angstroms)
 Number     Number       Type             X           Y           Z
 ---------------------------------------------------------------------
      1          6           0        0.737561    0.621817    0.044118
      2          6           0        1.379668   -0.515763   -0.004348
      3          1           0        1.213945    1.579231    0.109451
      4          1           0        2.450301   -0.543725    0.003316
      5          1           0        0.847224   -1.443373   -0.057783
      6          8           0       -0.673363    0.675234   -0.013388
      7          8           0       -1.182092    0.598665    1.363583
      8          1           0       -1.215761    1.540506    1.610328
 ---------------------------------------------------------------------
                    Distance matrix (angstroms):
                    1          2          3          4          5
     1  C    0.000000
     2  C    1.307188   0.000000
     3  H    1.071377   2.104617   0.000000
     4  H    2.072108   1.071025   2.459021   0.000000
     5  H    2.070609   1.070894   3.049358   1.839281   0.000000
     6  O    1.413105   2.373498   2.096242   3.353121   2.608190
     7  O    2.329504   3.110594   2.876690   4.043471   3.210658
     8  H    2.666921   3.683975   2.856151   4.512928   3.992748
                    6          7          8
     6  O    0.000000
     7  O    1.469938   0.000000
     8  H    1.918162   0.974208   0.000000
 Symmetry turned off by external request.
 Stoichiometry    C2H4O2
 Framework group  C1[X(C2H4O2)]
 Deg. of freedom    18
 Full point group                 C1      NOp   1
 Rotational constants (GHZ):     23.4885364      5.2081305      4.8656296
 Leave Link  202 at Fri Apr 12 16:37:16 2019, MaxMem=   134217728 cpu:         0.1
 (Enter /cm/shared/c3ddb/gaussian/09.d01/g09/l301.exe)
 Standard basis: 3-21G (6D, 7F)
 Ernie: Thresh=  0.10000D-02 Tol=  0.10000D-05 Strict=F.
    44 basis functions,    72 primitive gaussians,    44 cartesian basis functions
    16 alpha electrons       16 beta electrons
       nuclear repulsion energy       117.2858162919 Hartrees.
 IExCor=    0 DFT=F Ex=HF Corr=None ExCW=0 ScaHFX=  1.000000
 ScaDFX=  1.000000  1.000000  1.000000  1.000000 ScalE2=  1.000000  1.000000
 IRadAn=      0 IRanWt=     -1 IRanGd=            0 ICorTp=0 IEmpDi=  4
 NAtoms=    8 NActive=    8 NUniq=    8 SFac= 1.00D+00 NAtFMM=   60 NAOKFM=F Big=F
 Integral buffers will be    131072 words long.
 Raffenetti 1 integral format.
 Two-electron integral symmetry is turned off.
 Leave Link  301 at Fri Apr 12 16:37:17 2019, MaxMem=   134217728 cpu:         0.3
 (Enter /cm/shared/c3ddb/gaussian/09.d01/g09/l302.exe)
 NPDir=0 NMtPBC=     1 NCelOv=     1 NCel=       1 NClECP=     1 NCelD=      1
         NCelK=      1 NCelE2=     1 NClLst=     1 CellRange=     0.0.
 One-electron integrals computed using PRISM.
 NBasis=    44 RedAO= T EigKep=  1.18D-02  NBF=    44
 NBsUse=    44 1.00D-06 EigRej= -1.00D+00 NBFU=    44
 Leave Link  302 at Fri Apr 12 16:37:17 2019, MaxMem=   134217728 cpu:         0.5
 (Enter /cm/shared/c3ddb/gaussian/09.d01/g09/l303.exe)
 DipDrv:  MaxL=1.
 Leave Link  303 at Fri Apr 12 16:37:18 2019, MaxMem=   134217728 cpu:         0.4
 (Enter /cm/shared/c3ddb/gaussian/09.d01/g09/l401.exe)
 Initial guess from the checkpoint file:  "TMP_CALCS/scangeom_S02_090_090.chk"
 B after Tr=    -0.000320   -0.001739    0.000943
         Rot=    1.000000    0.000178   -0.000654   -0.000452 Ang=   0.09 deg.
 Guess basis will be translated and rotated to current coordinates.
 JPrj=2 DoOrth=T DoCkMO=T.
 Generating alternative initial guess.
 ExpMin= 1.83D-01 ExpMax= 3.22D+02 ExpMxC= 3.22D+02 IAcc=1 IRadAn=         1 AccDes= 0.00D+00
 Harris functional with IExCor=  205 and IRadAn=       1 diagonalized for initial guess.
 HarFok:  IExCor=  205 AccDes= 0.00D+00 IRadAn=         1 IDoV= 1 UseB2=F ITyADJ=14
 ICtDFT=  3500011 ScaDFX=  1.000000  1.000000  1.000000  1.000000
 FoFCou: FMM=F IPFlag=           0 FMFlag=      100000 FMFlg1=           0
         NFxFlg=           0 DoJE=T BraDBF=F KetDBF=T FulRan=T
         wScrn=  0.000000 ICntrl=     500 IOpCl=  0 I1Cent=   200000004 NGrid=           0
         NMat0=    1 NMatS0=      1 NMatT0=    0 NMatD0=    1 NMtDS0=    0 NMtDT0=    0
 Symmetry not used in FoFCou.
 Harris En= -226.612625114166    
 Leave Link  401 at Fri Apr 12 16:37:19 2019, MaxMem=   134217728 cpu:         0.9
 (Enter /cm/shared/c3ddb/gaussian/09.d01/g09/l502.exe)
 Closed shell SCF:
 Using DIIS extrapolation, IDIIS=  1040.
 Two-electron integral symmetry not used.
 Keep R1 ints in memory in canonical form, NReq=1327360.
 IVT=       24902 IEndB=       24902 NGot=   134217728 MDV=   133702282
 LenX=   133702282 LenY=   133699905
 Requested convergence on RMS density matrix=1.00D-08 within 128 cycles.
 Requested convergence on MAX density matrix=1.00D-06.
 Requested convergence on             energy=1.00D-06.
 No special actions if energy rises.
 FoFCou: FMM=F IPFlag=           0 FMFlag=           0 FMFlg1=           0
         NFxFlg=           0 DoJE=F BraDBF=F KetDBF=F FulRan=T
         wScrn=  0.000000 ICntrl=     600 IOpCl=  0 I1Cent=           0 NGrid=           0
         NMat0=    1 NMatS0=    990 NMatT0=    0 NMatD0=    1 NMtDS0=    0 NMtDT0=    0
 Symmetry not used in FoFCou.

 Cycle   1  Pass 1  IDiag  1:
 E= -226.389544891895    
 DIIS: error= 4.82D-04 at cycle   1 NSaved=   1.
 NSaved= 1 IEnMin= 1 EnMin= -226.389544891895     IErMin= 1 ErrMin= 4.82D-04
 ErrMax= 4.82D-04  0.00D+00 EMaxC= 1.00D-01 BMatC= 1.97D-05 BMatP= 1.97D-05
 IDIUse=3 WtCom= 9.95D-01 WtEn= 4.82D-03
 Coeff-Com:  0.100D+01
 Coeff-En:   0.100D+01
 Coeff:      0.100D+01
 Gap=     0.978 Goal=   None    Shift=    0.000
 RMSDP=1.07D-04 MaxDP=7.83D-04              OVMax= 1.05D-03

 Cycle   2  Pass 1  IDiag  1:
 E= -226.389569669036     Delta-E=       -0.000024777141 Rises=F Damp=F
 DIIS: error= 2.25D-04 at cycle   2 NSaved=   2.
 NSaved= 2 IEnMin= 2 EnMin= -226.389569669036     IErMin= 2 ErrMin= 2.25D-04
 ErrMax= 2.25D-04  0.00D+00 EMaxC= 1.00D-01 BMatC= 1.42D-06 BMatP= 1.97D-05
 IDIUse=3 WtCom= 9.98D-01 WtEn= 2.25D-03
 Coeff-Com: -0.163D+00 0.116D+01
 Coeff-En:   0.000D+00 0.100D+01
 Coeff:     -0.162D+00 0.116D+01
 Gap=     0.539 Goal=   None    Shift=    0.000
 RMSDP=4.71D-05 MaxDP=2.93D-04 DE=-2.48D-05 OVMax= 7.31D-04

 Cycle   3  Pass 1  IDiag  1:
 E= -226.389574238760     Delta-E=       -0.000004569724 Rises=F Damp=F
 DIIS: error= 9.90D-05 at cycle   3 NSaved=   3.
 NSaved= 3 IEnMin= 3 EnMin= -226.389574238760     IErMin= 3 ErrMin= 9.90D-05
 ErrMax= 9.90D-05  0.00D+00 EMaxC= 1.00D-01 BMatC= 2.64D-07 BMatP= 1.42D-06
 IDIUse=1 WtCom= 1.00D+00 WtEn= 0.00D+00
 Coeff-Com:  0.161D-01-0.432D+00 0.142D+01
 Coeff:      0.161D-01-0.432D+00 0.142D+01
 Gap=     0.539 Goal=   None    Shift=    0.000
 RMSDP=2.85D-05 MaxDP=2.15D-04 DE=-4.57D-06 OVMax= 4.54D-04

 Cycle   4  Pass 1  IDiag  1:
 E= -226.389575357220     Delta-E=       -0.000001118460 Rises=F Damp=F
 DIIS: error= 5.03D-05 at cycle   4 NSaved=   4.
 NSaved= 4 IEnMin= 4 EnMin= -226.389575357220     IErMin= 4 ErrMin= 5.03D-05
 ErrMax= 5.03D-05  0.00D+00 EMaxC= 1.00D-01 BMatC= 5.30D-08 BMatP= 2.64D-07
 IDIUse=1 WtCom= 1.00D+00 WtEn= 0.00D+00
 Coeff-Com:  0.272D-01-0.239D+00 0.204D+00 0.101D+01
 Coeff:      0.272D-01-0.239D+00 0.204D+00 0.101D+01
 Gap=     0.539 Goal=   None    Shift=    0.000
 RMSDP=1.15D-05 MaxDP=9.63D-05 DE=-1.12D-06 OVMax= 2.08D-04

 Cycle   5  Pass 1  IDiag  1:
 E= -226.389575540058     Delta-E=       -0.000000182839 Rises=F Damp=F
 DIIS: error= 2.61D-05 at cycle   5 NSaved=   5.
 NSaved= 5 IEnMin= 5 EnMin= -226.389575540058     IErMin= 5 ErrMin= 2.61D-05
 ErrMax= 2.61D-05  0.00D+00 EMaxC= 1.00D-01 BMatC= 8.56D-09 BMatP= 5.30D-08
 IDIUse=1 WtCom= 1.00D+00 WtEn= 0.00D+00
 Coeff-Com: -0.744D-02 0.130D+00-0.321D+00-0.202D+00 0.140D+01
 Coeff:     -0.744D-02 0.130D+00-0.321D+00-0.202D+00 0.140D+01
 Gap=     0.539 Goal=   None    Shift=    0.000
 RMSDP=6.71D-06 MaxDP=5.79D-05 DE=-1.83D-07 OVMax= 1.30D-04

 Cycle   6  Pass 1  IDiag  1:
 E= -226.389575581237     Delta-E=       -0.000000041179 Rises=F Damp=F
 DIIS: error= 7.51D-06 at cycle   6 NSaved=   6.
 NSaved= 6 IEnMin= 6 EnMin= -226.389575581237     IErMin= 6 ErrMin= 7.51D-06
 ErrMax= 7.51D-06  0.00D+00 EMaxC= 1.00D-01 BMatC= 8.92D-10 BMatP= 8.56D-09
 IDIUse=1 WtCom= 1.00D+00 WtEn= 0.00D+00
 Coeff-Com: -0.226D-02 0.211D-01-0.174D-01-0.105D+00 0.299D-01 0.107D+01
 Coeff:     -0.226D-02 0.211D-01-0.174D-01-0.105D+00 0.299D-01 0.107D+01
 Gap=     0.539 Goal=   None    Shift=    0.000
 RMSDP=1.71D-06 MaxDP=1.28D-05 DE=-4.12D-08 OVMax= 3.55D-05

 Cycle   7  Pass 1  IDiag  1:
 E= -226.389575584679     Delta-E=       -0.000000003442 Rises=F Damp=F
 DIIS: error= 2.84D-06 at cycle   7 NSaved=   7.
 NSaved= 7 IEnMin= 7 EnMin= -226.389575584679     IErMin= 7 ErrMin= 2.84D-06
 ErrMax= 2.84D-06  0.00D+00 EMaxC= 1.00D-01 BMatC= 1.72D-10 BMatP= 8.92D-10
 IDIUse=1 WtCom= 1.00D+00 WtEn= 0.00D+00
 Coeff-Com:  0.124D-02-0.243D-01 0.685D-01 0.196D-01-0.300D+00 0.147D+00
 Coeff-Com:  0.109D+01
 Coeff:      0.124D-02-0.243D-01 0.685D-01 0.196D-01-0.300D+00 0.147D+00
 Coeff:      0.109D+01
 Gap=     0.539 Goal=   None    Shift=    0.000
 RMSDP=8.64D-07 MaxDP=6.00D-06 DE=-3.44D-09 OVMax= 1.94D-05

 Cycle   8  Pass 1  IDiag  1:
 E= -226.389575585299     Delta-E=       -0.000000000619 Rises=F Damp=F
 DIIS: error= 5.16D-07 at cycle   8 NSaved=   8.
 NSaved= 8 IEnMin= 8 EnMin= -226.389575585299     IErMin= 8 ErrMin= 5.16D-07
 ErrMax= 5.16D-07  0.00D+00 EMaxC= 1.00D-01 BMatC= 1.52D-11 BMatP= 1.72D-10
 IDIUse=1 WtCom= 1.00D+00 WtEn= 0.00D+00
 Coeff-Com:  0.362D-03-0.487D-02 0.969D-02 0.115D-01-0.385D-01-0.805D-01
 Coeff-Com:  0.180D+00 0.922D+00
 Coeff:      0.362D-03-0.487D-02 0.969D-02 0.115D-01-0.385D-01-0.805D-01
 Coeff:      0.180D+00 0.922D+00
 Gap=     0.539 Goal=   None    Shift=    0.000
 RMSDP=1.46D-07 MaxDP=9.42D-07 DE=-6.19D-10 OVMax= 3.23D-06

 Cycle   9  Pass 1  IDiag  1:
 E= -226.389575585329     Delta-E=       -0.000000000031 Rises=F Damp=F
 DIIS: error= 1.92D-07 at cycle   9 NSaved=   9.
 NSaved= 9 IEnMin= 9 EnMin= -226.389575585329     IErMin= 9 ErrMin= 1.92D-07
 ErrMax= 1.92D-07  0.00D+00 EMaxC= 1.00D-01 BMatC= 1.88D-12 BMatP= 1.52D-11
 IDIUse=1 WtCom= 1.00D+00 WtEn= 0.00D+00
 Coeff-Com: -0.183D-03 0.391D-02-0.114D-01-0.240D-02 0.502D-01-0.423D-01
 Coeff-Com: -0.157D+00 0.597D-01 0.110D+01
 Coeff:     -0.183D-03 0.391D-02-0.114D-01-0.240D-02 0.502D-01-0.423D-01
 Coeff:     -0.157D+00 0.597D-01 0.110D+01
 Gap=     0.539 Goal=   None    Shift=    0.000
 RMSDP=7.15D-08 MaxDP=5.04D-07 DE=-3.07D-11 OVMax= 1.65D-06

 Cycle  10  Pass 1  IDiag  1:
 E= -226.389575585335     Delta-E=       -0.000000000005 Rises=F Damp=F
 DIIS: error= 8.07D-08 at cycle  10 NSaved=  10.
 NSaved=10 IEnMin=10 EnMin= -226.389575585335     IErMin=10 ErrMin= 8.07D-08
 ErrMax= 8.07D-08  0.00D+00 EMaxC= 1.00D-01 BMatC= 2.16D-13 BMatP= 1.88D-12
 IDIUse=1 WtCom= 1.00D+00 WtEn= 0.00D+00
 Coeff-Com: -0.225D-04 0.216D-03-0.256D-03-0.873D-03 0.856D-03 0.883D-02
 Coeff-Com: -0.444D-02-0.102D+00-0.731D-02 0.110D+01
 Coeff:     -0.225D-04 0.216D-03-0.256D-03-0.873D-03 0.856D-03 0.883D-02
 Coeff:     -0.444D-02-0.102D+00-0.731D-02 0.110D+01
 Gap=     0.539 Goal=   None    Shift=    0.000
 RMSDP=2.17D-08 MaxDP=1.06D-07 DE=-5.34D-12 OVMax= 4.28D-07

 Cycle  11  Pass 1  IDiag  1:
 E= -226.389575585336     Delta-E=       -0.000000000001 Rises=F Damp=F
 DIIS: error= 4.42D-08 at cycle  11 NSaved=  11.
 NSaved=11 IEnMin=11 EnMin= -226.389575585336     IErMin=11 ErrMin= 4.42D-08
 ErrMax= 4.42D-08  0.00D+00 EMaxC= 1.00D-01 BMatC= 3.34D-14 BMatP= 2.16D-13
 IDIUse=1 WtCom= 1.00D+00 WtEn= 0.00D+00
 Coeff-Com:  0.307D-04-0.682D-03 0.199D-02 0.477D-03-0.891D-02 0.725D-02
 Coeff-Com:  0.288D-01-0.159D-01-0.182D+00-0.268D-01 0.120D+01
 Coeff:      0.307D-04-0.682D-03 0.199D-02 0.477D-03-0.891D-02 0.725D-02
 Coeff:      0.288D-01-0.159D-01-0.182D+00-0.268D-01 0.120D+01
 Gap=     0.539 Goal=   None    Shift=    0.000
 RMSDP=1.16D-08 MaxDP=7.43D-08 DE=-9.66D-13 OVMax= 2.17D-07

 Cycle  12  Pass 1  IDiag  1:
 E= -226.389575585336     Delta-E=       -0.000000000001 Rises=F Damp=F
 DIIS: error= 1.78D-08 at cycle  12 NSaved=  12.
 NSaved=12 IEnMin=12 EnMin= -226.389575585336     IErMin=12 ErrMin= 1.78D-08
 ErrMax= 1.78D-08  0.00D+00 EMaxC= 1.00D-01 BMatC= 4.45D-15 BMatP= 3.34D-14
 IDIUse=1 WtCom= 1.00D+00 WtEn= 0.00D+00
 Coeff-Com: -0.157D-04 0.390D-03-0.118D-02-0.183D-03 0.522D-02-0.528D-02
 Coeff-Com: -0.166D-01 0.199D-01 0.113D+00-0.124D+00-0.706D+00 0.172D+01
 Coeff:     -0.157D-04 0.390D-03-0.118D-02-0.183D-03 0.522D-02-0.528D-02
 Coeff:     -0.166D-01 0.199D-01 0.113D+00-0.124D+00-0.706D+00 0.172D+01
 Gap=     0.539 Goal=   None    Shift=    0.000
 RMSDP=5.70D-09 MaxDP=3.99D-08 DE=-6.82D-13 OVMax= 1.13D-07

 SCF Done:  E(RHF) =  -226.389575585     A.U. after   12 cycles
            NFock= 12  Conv=0.57D-08     -V/T= 2.0034
 KE= 2.256243803806D+02 PE=-7.680068978370D+02 EE= 1.987071255791D+02
 Leave Link  502 at Fri Apr 12 16:37:20 2019, MaxMem=   134217728 cpu:         0.5
 (Enter /cm/shared/c3ddb/gaussian/09.d01/g09/l701.exe)
 Compute integral first derivatives.
 ... and contract with generalized density number  0.
 Leave Link  701 at Fri Apr 12 16:37:20 2019, MaxMem=   134217728 cpu:         0.4
 (Enter /cm/shared/c3ddb/gaussian/09.d01/g09/l702.exe)
 L702 exits ... SP integral derivatives will be done elsewhere.
 Leave Link  702 at Fri Apr 12 16:37:21 2019, MaxMem=   134217728 cpu:         0.4
 (Enter /cm/shared/c3ddb/gaussian/09.d01/g09/l703.exe)
 Compute integral first derivatives, UseDBF=F ICtDFT=           0.
 Integral derivatives from FoFJK, PRISM(SPDF).
 Calling FoFJK, ICntrl=      2127 FMM=F ISym2X=0 I1Cent= 0 IOpClX= 0 NMat=1 NMatS=1 NMatT=0.
 FoFJK:  IHMeth= 1 ICntrl=    2127 DoSepK=F KAlg= 0 I1Cent=   0 FoldK=F
 IRaf=         0 NMat=   1 IRICut=       1 DoRegI=T DoRafI=F ISym2E= 0.
 FoFCou: FMM=F IPFlag=           0 FMFlag=      100000 FMFlg1=         800
         NFxFlg=           0 DoJE=F BraDBF=F KetDBF=F FulRan=T
         wScrn=  0.000000 ICntrl=    2127 IOpCl=  0 I1Cent=           0 NGrid=           0
         NMat0=    1 NMatS0=      1 NMatT0=    0 NMatD0=    1 NMtDS0=    0 NMtDT0=    0
 Symmetry not used in FoFCou.
 Leave Link  703 at Fri Apr 12 16:37:21 2019, MaxMem=   134217728 cpu:         0.3
 (Enter /cm/shared/c3ddb/gaussian/09.d01/g09/l716.exe)
 Dipole        = 7.85945914D-01 6.08457802D-01 3.05751021D-01
 -------------------------------------------------------------------
 Center     Atomic                   Forces (Hartrees/Bohr)
 Number     Number              X              Y              Z
 -------------------------------------------------------------------
      1        6           0.000066037   -0.002182810    0.001596635
      2        6           0.000167185    0.000131004   -0.001385347
      3        1           0.000028186    0.000009047    0.000006948
      4        1           0.000029846   -0.000035596    0.000060205
      5        1           0.000003594    0.000032737   -0.000070083
      6        8           0.000026286    0.001097472   -0.001725087
      7        8           0.003012648    0.000979254    0.001896068
      8        1          -0.003333782   -0.000031108   -0.000379338
 -------------------------------------------------------------------
 Cartesian Forces:  Max     0.003333782 RMS     0.001264340
 Leave Link  716 at Fri Apr 12 16:37:21 2019, MaxMem=   134217728 cpu:         0.1
 (Enter /cm/shared/c3ddb/gaussian/09.d01/g09/l103.exe)

 GradGradGradGradGradGradGradGradGradGradGradGradGradGradGradGradGradGrad
 Berny optimization.
 Using GEDIIS/GDIIS optimizer.
 FormGI is forming the generalized inverse of G from B-inverse, IUseBI=4.
 Internal  Forces:  Max     0.005870993 RMS     0.001440594
 Search for a local minimum.
 Step number   2 out of a maximum of   32
 All quantities printed in internal units (Hartrees-Bohrs-Radians)
 RMS Force = .51058D-03 SwitMx=.10000D-02 MixMth= 2
 Mixed Optimization -- En-DIIS/RFO-DIIS
 Swapping is turned off.
 Update second derivatives using D2CorX and points    1    2
 DE= -9.10D-06 DEPred=-2.40D-05 R= 3.79D-01
 Trust test= 3.79D-01 RLast= 1.73D-02 DXMaxT set to 3.00D-01
 ITU=  0  0
     Eigenvalues ---    0.02447   0.03315   0.03338   0.15994   0.15999
     Eigenvalues ---    0.16000   0.19978   0.22124   0.25690   0.36984
     Eigenvalues ---    0.37092   0.37117   0.41956   0.47260   0.52272
     Eigenvalues ---    0.652161000.000001000.000001000.000001000.00000
     Eigenvalues --- 1000.000001000.00000
 En-DIIS/RFO-DIIS IScMMF=        0 using points:     2    1
 RFO step:  Lambda=-9.50658636D-06.
 NNeg= 0 NP= 2 Switch=  2.50D-03 Rises=F DC=  9.10D-06 SmlDif=  1.00D-05
 RMS Error=  0.7828172521D-03 NUsed= 2 EDIIS=F
 DidBck=T Rises=F RFO-DIIS coefs:    0.61546    0.38454
 Iteration  1 RMS(Cart)=  0.00244171 RMS(Int)=  0.00000346
 Iteration  2 RMS(Cart)=  0.00000298 RMS(Int)=  0.00000025
 Iteration  3 RMS(Cart)=  0.00000000 RMS(Int)=  0.00000025
 Iteration  1 RMS(Cart)=  0.00000017 RMS(Int)=  0.00000007
 ITry= 1 IFail=0 DXMaxC= 6.86D-03 DCOld= 1.00D+10 DXMaxT= 3.00D-01 DXLimC= 3.00D+00 Rises=F
 Variable       Old X    -DE/DX   Delta X   Delta X   Delta X     New X
                                 (Linear)    (Quad)   (Total)
    R1        2.47023   0.00004   0.00008  -0.00005   0.00003   2.47026
    R2        2.02461   0.00002   0.00022  -0.00020   0.00001   2.02462
    R3        2.67038   0.00038   0.00050  -0.00002   0.00049   2.67087
    R4        2.02394   0.00003   0.00004   0.00001   0.00005   2.02399
    R5        2.02370  -0.00003   0.00000  -0.00004  -0.00004   2.02365
    R6        2.77778   0.00148   0.00089   0.00158   0.00247   2.78025
    R7        1.84099  -0.00001   0.00035  -0.00040  -0.00005   1.84094
    A1        2.16702  -0.00012  -0.00029   0.00002  -0.00027   2.16676
    A2        2.11981   0.00015   0.00056  -0.00018   0.00038   2.12019
    A3        1.99617  -0.00005  -0.00031   0.00022  -0.00009   1.99608
    A4        2.11004   0.00005   0.00021  -0.00003   0.00018   2.11022
    A5        2.10765  -0.00004  -0.00023   0.00011  -0.00012   2.10753
    A6        2.06548  -0.00001   0.00002  -0.00007  -0.00005   2.06543
    A7        1.88122   0.00073   0.00281  -0.00131   0.00150   1.88273
    A8        1.77099   0.00151   0.00518   0.00007   0.00526   1.77625
    D1       -0.01804   0.00051   0.00151  -0.00153  -0.00002  -0.01805
    D2        3.12904   0.00052   0.00170  -0.00158   0.00013   3.12917
    D3        3.10165  -0.00040  -0.00012   0.00197   0.00185   3.10351
    D4       -0.03446  -0.00039   0.00008   0.00192   0.00200  -0.03246
    D5        1.57080   0.00196   0.00000   0.00000   0.00000   1.57080
    D6       -1.59070   0.00114  -0.00148   0.00318   0.00170  -1.58900
    D7        1.57080   0.00587   0.00000   0.00000   0.00000   1.57080
         Item               Value     Threshold  Converged?
 Maximum Force            0.001507     0.000015     NO 
 RMS     Force            0.000511     0.000010     NO 
 Maximum Displacement     0.006862     0.000060     NO 
 RMS     Displacement     0.002441     0.000040     NO 
 Predicted change in Energy=-6.721516D-06
 Lowest energy point so far.  Saving SCF results.
 GradGradGradGradGradGradGradGradGradGradGradGradGradGradGradGradGradGrad

 Leave Link  103 at Fri Apr 12 16:37:22 2019, MaxMem=   134217728 cpu:         0.0
 (Enter /cm/shared/c3ddb/gaussian/09.d01/g09/l202.exe)
                          Input orientation:                          
 ---------------------------------------------------------------------
 Center     Atomic      Atomic             Coordinates (Angstroms)
 Number     Number       Type             X           Y           Z
 ---------------------------------------------------------------------
      1          6           0        0.738213    0.621384    0.042670
      2          6           0        1.380487   -0.516163   -0.004765
      3          1           0        1.214695    1.578744    0.108169
      4          1           0        2.451134   -0.544206    0.003975
      5          1           0        0.848087   -1.443752   -0.058549
      6          8           0       -0.672993    0.675043   -0.014017
      7          8           0       -1.183390    0.600341    1.363835
      8          1           0       -1.218748    1.541202    1.613959
 ---------------------------------------------------------------------
                    Distance matrix (angstroms):
                    1          2          3          4          5
     1  C    0.000000
     2  C    1.307203   0.000000
     3  H    1.071384   2.104490   0.000000
     4  H    2.072245   1.071050   2.458974   0.000000
     5  H    2.070532   1.070870   3.049209   1.839253   0.000000
     6  O    1.413363   2.373992   2.096419   3.353665   2.608632
     7  O    2.332054   3.113376   2.878329   4.045859   3.213781
     8  H    2.672959   3.689043   2.861898   4.517634   3.997379
                    6          7          8
     6  O    0.000000
     7  O    1.471245   0.000000
     8  H    1.923119   0.974182   0.000000
 Symmetry turned off by external request.
 Stoichiometry    C2H4O2
 Framework group  C1[X(C2H4O2)]
 Deg. of freedom    18
 Full point group                 C1      NOp   1
 Rotational constants (GHZ):     23.4908905      5.1996589      4.8583722
 Leave Link  202 at Fri Apr 12 16:37:22 2019, MaxMem=   134217728 cpu:         0.1
 (Enter /cm/shared/c3ddb/gaussian/09.d01/g09/l301.exe)
 Standard basis: 3-21G (6D, 7F)
 Ernie: Thresh=  0.10000D-02 Tol=  0.10000D-05 Strict=F.
    44 basis functions,    72 primitive gaussians,    44 cartesian basis functions
    16 alpha electrons       16 beta electrons
       nuclear repulsion energy       117.2270172289 Hartrees.
 IExCor=    0 DFT=F Ex=HF Corr=None ExCW=0 ScaHFX=  1.000000
 ScaDFX=  1.000000  1.000000  1.000000  1.000000 ScalE2=  1.000000  1.000000
 IRadAn=      0 IRanWt=     -1 IRanGd=            0 ICorTp=0 IEmpDi=  4
 NAtoms=    8 NActive=    8 NUniq=    8 SFac= 1.00D+00 NAtFMM=   60 NAOKFM=F Big=F
 Integral buffers will be    131072 words long.
 Raffenetti 1 integral format.
 Two-electron integral symmetry is turned off.
 Leave Link  301 at Fri Apr 12 16:37:22 2019, MaxMem=   134217728 cpu:         0.3
 (Enter /cm/shared/c3ddb/gaussian/09.d01/g09/l302.exe)
 NPDir=0 NMtPBC=     1 NCelOv=     1 NCel=       1 NClECP=     1 NCelD=      1
         NCelK=      1 NCelE2=     1 NClLst=     1 CellRange=     0.0.
 One-electron integrals computed using PRISM.
 NBasis=    44 RedAO= T EigKep=  1.18D-02  NBF=    44
 NBsUse=    44 1.00D-06 EigRej= -1.00D+00 NBFU=    44
 Leave Link  302 at Fri Apr 12 16:37:23 2019, MaxMem=   134217728 cpu:         0.3
 (Enter /cm/shared/c3ddb/gaussian/09.d01/g09/l303.exe)
 DipDrv:  MaxL=1.
 Leave Link  303 at Fri Apr 12 16:37:23 2019, MaxMem=   134217728 cpu:         0.2
 (Enter /cm/shared/c3ddb/gaussian/09.d01/g09/l401.exe)
 Initial guess from the checkpoint file:  "TMP_CALCS/scangeom_S02_090_090.chk"
 B after Tr=    -0.000039    0.000001   -0.000354
         Rot=    1.000000    0.000249   -0.000006    0.000057 Ang=   0.03 deg.
 Guess basis will be translated and rotated to current coordinates.
 JPrj=2 DoOrth=T DoCkMO=T.
 Leave Link  401 at Fri Apr 12 16:37:25 2019, MaxMem=   134217728 cpu:         1.4
 (Enter /cm/shared/c3ddb/gaussian/09.d01/g09/l502.exe)
 Closed shell SCF:
 Using DIIS extrapolation, IDIIS=  1040.
 Two-electron integral symmetry not used.
 Keep R1 ints in memory in canonical form, NReq=1327360.
 IVT=       24902 IEndB=       24902 NGot=   134217728 MDV=   133702282
 LenX=   133702282 LenY=   133699905
 Requested convergence on RMS density matrix=1.00D-08 within 128 cycles.
 Requested convergence on MAX density matrix=1.00D-06.
 Requested convergence on             energy=1.00D-06.
 No special actions if energy rises.
 FoFCou: FMM=F IPFlag=           0 FMFlag=           0 FMFlg1=           0
         NFxFlg=           0 DoJE=F BraDBF=F KetDBF=F FulRan=T
         wScrn=  0.000000 ICntrl=     600 IOpCl=  0 I1Cent=           0 NGrid=           0
         NMat0=    1 NMatS0=    990 NMatT0=    0 NMatD0=    1 NMtDS0=    0 NMtDT0=    0
 Symmetry not used in FoFCou.

 Cycle   1  Pass 1  IDiag  1:
 E= -226.389579476946    
 DIIS: error= 1.82D-04 at cycle   1 NSaved=   1.
 NSaved= 1 IEnMin= 1 EnMin= -226.389579476946     IErMin= 1 ErrMin= 1.82D-04
 ErrMax= 1.82D-04  0.00D+00 EMaxC= 1.00D-01 BMatC= 2.45D-06 BMatP= 2.45D-06
 IDIUse=3 WtCom= 9.98D-01 WtEn= 1.82D-03
 Coeff-Com:  0.100D+01
 Coeff-En:   0.100D+01
 Coeff:      0.100D+01
 Gap=     0.978 Goal=   None    Shift=    0.000
 RMSDP=3.59D-05 MaxDP=3.15D-04              OVMax= 2.63D-04

 Cycle   2  Pass 1  IDiag  1:
 E= -226.389581691335     Delta-E=       -0.000002214389 Rises=F Damp=F
 DIIS: error= 5.65D-05 at cycle   2 NSaved=   2.
 NSaved= 2 IEnMin= 2 EnMin= -226.389581691335     IErMin= 2 ErrMin= 5.65D-05
 ErrMax= 5.65D-05  0.00D+00 EMaxC= 1.00D-01 BMatC= 1.28D-07 BMatP= 2.45D-06
 IDIUse=1 WtCom= 1.00D+00 WtEn= 0.00D+00
 Coeff-Com: -0.114D+00 0.111D+01
 Coeff:     -0.114D+00 0.111D+01
 Gap=     0.539 Goal=   None    Shift=    0.000
 RMSDP=1.33D-05 MaxDP=7.57D-05 DE=-2.21D-06 OVMax= 2.67D-04

 Cycle   3  Pass 1  IDiag  1:
 E= -226.389582023387     Delta-E=       -0.000000332052 Rises=F Damp=F
 DIIS: error= 3.13D-05 at cycle   3 NSaved=   3.
 NSaved= 3 IEnMin= 3 EnMin= -226.389582023387     IErMin= 3 ErrMin= 3.13D-05
 ErrMax= 3.13D-05  0.00D+00 EMaxC= 1.00D-01 BMatC= 2.94D-08 BMatP= 1.28D-07
 IDIUse=1 WtCom= 1.00D+00 WtEn= 0.00D+00
 Coeff-Com: -0.337D-01 0.492D-01 0.984D+00
 Coeff:     -0.337D-01 0.492D-01 0.984D+00
 Gap=     0.539 Goal=   None    Shift=    0.000
 RMSDP=6.48D-06 MaxDP=4.53D-05 DE=-3.32D-07 OVMax= 1.37D-04

 Cycle   4  Pass 1  IDiag  1:
 E= -226.389582106212     Delta-E=       -0.000000082824 Rises=F Damp=F
 DIIS: error= 2.03D-05 at cycle   4 NSaved=   4.
 NSaved= 4 IEnMin= 4 EnMin= -226.389582106212     IErMin= 4 ErrMin= 2.03D-05
 ErrMax= 2.03D-05  0.00D+00 EMaxC= 1.00D-01 BMatC= 1.05D-08 BMatP= 2.94D-08
 IDIUse=1 WtCom= 1.00D+00 WtEn= 0.00D+00
 Coeff-Com:  0.292D-01-0.329D+00 0.105D+00 0.119D+01
 Coeff:      0.292D-01-0.329D+00 0.105D+00 0.119D+01
 Gap=     0.539 Goal=   None    Shift=    0.000
 RMSDP=5.99D-06 MaxDP=4.76D-05 DE=-8.28D-08 OVMax= 1.47D-04

 Cycle   5  Pass 1  IDiag  1:
 E= -226.389582147403     Delta-E=       -0.000000041191 Rises=F Damp=F
 DIIS: error= 8.37D-06 at cycle   5 NSaved=   5.
 NSaved= 5 IEnMin= 5 EnMin= -226.389582147403     IErMin= 5 ErrMin= 8.37D-06
 ErrMax= 8.37D-06  0.00D+00 EMaxC= 1.00D-01 BMatC= 1.54D-09 BMatP= 1.05D-08
 IDIUse=1 WtCom= 1.00D+00 WtEn= 0.00D+00
 Coeff-Com:  0.481D-02 0.164D-01-0.197D+00-0.540D-01 0.123D+01
 Coeff:      0.481D-02 0.164D-01-0.197D+00-0.540D-01 0.123D+01
 Gap=     0.539 Goal=   None    Shift=    0.000
 RMSDP=2.61D-06 MaxDP=2.14D-05 DE=-4.12D-08 OVMax= 6.29D-05

 Cycle   6  Pass 1  IDiag  1:
 E= -226.389582153761     Delta-E=       -0.000000006358 Rises=F Damp=F
 DIIS: error= 2.61D-06 at cycle   6 NSaved=   6.
 NSaved= 6 IEnMin= 6 EnMin= -226.389582153761     IErMin= 6 ErrMin= 2.61D-06
 ErrMax= 2.61D-06  0.00D+00 EMaxC= 1.00D-01 BMatC= 1.78D-10 BMatP= 1.54D-09
 IDIUse=1 WtCom= 1.00D+00 WtEn= 0.00D+00
 Coeff-Com: -0.360D-02 0.560D-01-0.612D-01-0.203D+00 0.219D+00 0.993D+00
 Coeff:     -0.360D-02 0.560D-01-0.612D-01-0.203D+00 0.219D+00 0.993D+00
 Gap=     0.539 Goal=   None    Shift=    0.000
 RMSDP=9.01D-07 MaxDP=6.74D-06 DE=-6.36D-09 OVMax= 2.07D-05

 Cycle   7  Pass 1  IDiag  1:
 E= -226.389582154382     Delta-E=       -0.000000000621 Rises=F Damp=F
 DIIS: error= 5.54D-07 at cycle   7 NSaved=   7.
 NSaved= 7 IEnMin= 7 EnMin= -226.389582154382     IErMin= 7 ErrMin= 5.54D-07
 ErrMax= 5.54D-07  0.00D+00 EMaxC= 1.00D-01 BMatC= 1.03D-11 BMatP= 1.78D-10
 IDIUse=1 WtCom= 1.00D+00 WtEn= 0.00D+00
 Coeff-Com:  0.588D-03-0.147D-01 0.303D-01 0.530D-01-0.160D+00-0.186D+00
 Coeff-Com:  0.128D+01
 Coeff:      0.588D-03-0.147D-01 0.303D-01 0.530D-01-0.160D+00-0.186D+00
 Coeff:      0.128D+01
 Gap=     0.539 Goal=   None    Shift=    0.000
 RMSDP=1.93D-07 MaxDP=1.15D-06 DE=-6.21D-10 OVMax= 3.20D-06

 Cycle   8  Pass 1  IDiag  1:
 E= -226.389582154416     Delta-E=       -0.000000000033 Rises=F Damp=F
 DIIS: error= 1.46D-07 at cycle   8 NSaved=   8.
 NSaved= 8 IEnMin= 8 EnMin= -226.389582154416     IErMin= 8 ErrMin= 1.46D-07
 ErrMax= 1.46D-07  0.00D+00 EMaxC= 1.00D-01 BMatC= 6.86D-13 BMatP= 1.03D-11
 IDIUse=1 WtCom= 1.00D+00 WtEn= 0.00D+00
 Coeff-Com:  0.293D-03-0.503D-02 0.726D-02 0.173D-01-0.299D-01-0.811D-01
 Coeff-Com:  0.135D+00 0.956D+00
 Coeff:      0.293D-03-0.503D-02 0.726D-02 0.173D-01-0.299D-01-0.811D-01
 Coeff:      0.135D+00 0.956D+00
 Gap=     0.539 Goal=   None    Shift=    0.000
 RMSDP=3.60D-08 MaxDP=2.38D-07 DE=-3.34D-11 OVMax= 7.75D-07

 Cycle   9  Pass 1  IDiag  1:
 E= -226.389582154417     Delta-E=       -0.000000000002 Rises=F Damp=F
 DIIS: error= 6.93D-08 at cycle   9 NSaved=   9.
 NSaved= 9 IEnMin= 9 EnMin= -226.389582154417     IErMin= 9 ErrMin= 6.93D-08
 ErrMax= 6.93D-08  0.00D+00 EMaxC= 1.00D-01 BMatC= 1.36D-13 BMatP= 6.86D-13
 IDIUse=1 WtCom= 1.00D+00 WtEn= 0.00D+00
 Coeff-Com: -0.118D-03 0.279D-02-0.490D-02-0.109D-01 0.278D-01 0.362D-01
 Coeff-Com: -0.196D+00-0.111D+00 0.126D+01
 Coeff:     -0.118D-03 0.279D-02-0.490D-02-0.109D-01 0.278D-01 0.362D-01
 Coeff:     -0.196D+00-0.111D+00 0.126D+01
 Gap=     0.539 Goal=   None    Shift=    0.000
 RMSDP=2.09D-08 MaxDP=1.41D-07 DE=-1.76D-12 OVMax= 4.86D-07

 Cycle  10  Pass 1  IDiag  1:
 E= -226.389582154417     Delta-E=        0.000000000000 Rises=F Damp=F
 DIIS: error= 2.86D-08 at cycle  10 NSaved=  10.
 NSaved=10 IEnMin=10 EnMin= -226.389582154417     IErMin=10 ErrMin= 2.86D-08
 ErrMax= 2.86D-08  0.00D+00 EMaxC= 1.00D-01 BMatC= 2.11D-14 BMatP= 1.36D-13
 IDIUse=1 WtCom= 1.00D+00 WtEn= 0.00D+00
 Coeff-Com: -0.433D-04 0.773D-03-0.102D-02-0.303D-02 0.524D-02 0.123D-01
 Coeff-Com: -0.238D-01-0.129D+00 0.507D-01 0.109D+01
 Coeff:     -0.433D-04 0.773D-03-0.102D-02-0.303D-02 0.524D-02 0.123D-01
 Coeff:     -0.238D-01-0.129D+00 0.507D-01 0.109D+01
 Gap=     0.539 Goal=   None    Shift=    0.000
 RMSDP=8.09D-09 MaxDP=5.51D-08 DE=-5.68D-14 OVMax= 1.92D-07

 SCF Done:  E(RHF) =  -226.389582154     A.U. after   10 cycles
            NFock= 10  Conv=0.81D-08     -V/T= 2.0034
 KE= 2.256195574909D+02 PE=-7.678886806048D+02 EE= 1.986525237306D+02
 Leave Link  502 at Fri Apr 12 16:37:25 2019, MaxMem=   134217728 cpu:         0.4
 (Enter /cm/shared/c3ddb/gaussian/09.d01/g09/l701.exe)
 Compute integral first derivatives.
 ... and contract with generalized density number  0.
 Leave Link  701 at Fri Apr 12 16:37:26 2019, MaxMem=   134217728 cpu:         0.2
 (Enter /cm/shared/c3ddb/gaussian/09.d01/g09/l702.exe)
 L702 exits ... SP integral derivatives will be done elsewhere.
 Leave Link  702 at Fri Apr 12 16:37:26 2019, MaxMem=   134217728 cpu:         0.2
 (Enter /cm/shared/c3ddb/gaussian/09.d01/g09/l703.exe)
 Compute integral first derivatives, UseDBF=F ICtDFT=           0.
 Integral derivatives from FoFJK, PRISM(SPDF).
 Calling FoFJK, ICntrl=      2127 FMM=F ISym2X=0 I1Cent= 0 IOpClX= 0 NMat=1 NMatS=1 NMatT=0.
 FoFJK:  IHMeth= 1 ICntrl=    2127 DoSepK=F KAlg= 0 I1Cent=   0 FoldK=F
 IRaf=         0 NMat=   1 IRICut=       1 DoRegI=T DoRafI=F ISym2E= 0.
 FoFCou: FMM=F IPFlag=           0 FMFlag=      100000 FMFlg1=         800
         NFxFlg=           0 DoJE=F BraDBF=F KetDBF=F FulRan=T
         wScrn=  0.000000 ICntrl=    2127 IOpCl=  0 I1Cent=           0 NGrid=           0
         NMat0=    1 NMatS0=      1 NMatT0=    0 NMatD0=    1 NMtDS0=    0 NMtDT0=    0
 Symmetry not used in FoFCou.
 Leave Link  703 at Fri Apr 12 16:37:27 2019, MaxMem=   134217728 cpu:         0.5
 (Enter /cm/shared/c3ddb/gaussian/09.d01/g09/l716.exe)
 Dipole        = 7.85904725D-01 6.08272494D-01 3.07275156D-01
 -------------------------------------------------------------------
 Center     Atomic                   Forces (Hartrees/Bohr)
 Number     Number              X              Y              Z
 -------------------------------------------------------------------
      1        6          -0.000142057   -0.002048094    0.002110336
      2        6           0.000077972    0.000088305   -0.001441928
      3        1           0.000009455    0.000008981   -0.000022617
      4        1           0.000005270   -0.000004331   -0.000026795
      5        1           0.000000468    0.000002002   -0.000000663
      6        8          -0.000383998    0.001499129   -0.000793887
      7        8           0.003435587    0.000244975    0.001282473
      8        1          -0.003002696    0.000209032   -0.001106919
 -------------------------------------------------------------------
 Cartesian Forces:  Max     0.003435587 RMS     0.001251351
 Leave Link  716 at Fri Apr 12 16:37:27 2019, MaxMem=   134217728 cpu:         0.1
 (Enter /cm/shared/c3ddb/gaussian/09.d01/g09/l103.exe)

 GradGradGradGradGradGradGradGradGradGradGradGradGradGradGradGradGradGrad
 Berny optimization.
 Using GEDIIS/GDIIS optimizer.
 FormGI is forming the generalized inverse of G from B-inverse, IUseBI=4.
 Internal  Forces:  Max     0.005779576 RMS     0.001341547
 Search for a local minimum.
 Step number   3 out of a maximum of   32
 All quantities printed in internal units (Hartrees-Bohrs-Radians)
 RMS Force = .20123D-04 SwitMx=.10000D-02 MixMth= 2
 Mixed Optimization -- En-DIIS/RFO-DIIS
 Swapping is turned off.
 Update second derivatives using D2CorX and points    1    2    3
 DE= -6.57D-06 DEPred=-6.72D-06 R= 9.77D-01
 TightC=F SS=  1.41D+00  RLast= 6.84D-03 DXNew= 5.0454D-01 2.0530D-02
 Trust test= 9.77D-01 RLast= 6.84D-03 DXMaxT set to 3.00D-01
 ITU=  1  0  0
     Eigenvalues ---    0.02559   0.03313   0.03366   0.15992   0.15999
     Eigenvalues ---    0.16001   0.20046   0.22100   0.25686   0.37005
     Eigenvalues ---    0.37094   0.37117   0.42607   0.46289   0.52332
     Eigenvalues ---    0.652121000.000001000.000001000.000001000.00000
     Eigenvalues --- 1000.000001000.00000
 En-DIIS/RFO-DIIS IScMMF=        0 using points:     3    2    1
 RFO step:  Lambda=-1.27774334D-06.
 NNeg= 0 NP= 3 Switch=  2.50D-03 Rises=F DC=  9.10D-06 SmlDif=  1.00D-05
 RMS Error=  0.8490702495D-04 NUsed= 3 EDIIS=F
 DidBck=F Rises=F RFO-DIIS coefs:    0.86650    0.08184    0.05166
 Iteration  1 RMS(Cart)=  0.00040060 RMS(Int)=  0.00000030
 Iteration  2 RMS(Cart)=  0.00000016 RMS(Int)=  0.00000026
 Iteration  1 RMS(Cart)=  0.00000028 RMS(Int)=  0.00000011
 ITry= 1 IFail=0 DXMaxC= 1.04D-03 DCOld= 1.00D+10 DXMaxT= 3.00D-01 DXLimC= 3.00D+00 Rises=F
 Variable       Old X    -DE/DX   Delta X   Delta X   Delta X     New X
                                 (Linear)    (Quad)   (Total)
    R1        2.47026   0.00002   0.00001   0.00002   0.00003   2.47028
    R2        2.02462   0.00001   0.00003   0.00000   0.00003   2.02465
    R3        2.67087   0.00005   0.00000   0.00011   0.00011   2.67098
    R4        2.02399   0.00001   0.00000   0.00001   0.00001   2.02400
    R5        2.02365   0.00000   0.00001  -0.00001  -0.00001   2.02365
    R6        2.78025  -0.00001  -0.00021   0.00023   0.00002   2.78027
    R7        1.84094   0.00003   0.00005  -0.00001   0.00005   1.84098
    A1        2.16676  -0.00003   0.00000  -0.00005  -0.00006   2.16670
    A2        2.12019   0.00001   0.00002   0.00002   0.00004   2.12023
    A3        1.99608   0.00000  -0.00003   0.00003   0.00000   1.99608
    A4        2.11022   0.00001   0.00000   0.00004   0.00004   2.11026
    A5        2.10753   0.00000  -0.00001  -0.00001  -0.00003   2.10750
    A6        2.06543   0.00000   0.00001  -0.00003  -0.00002   2.06541
    A7        1.88273  -0.00002   0.00018  -0.00021  -0.00004   1.88269
    A8        1.77625  -0.00002  -0.00001  -0.00001  -0.00002   1.77623
    D1       -0.01805   0.00049   0.00021  -0.00022  -0.00001  -0.01807
    D2        3.12917   0.00051   0.00021   0.00040   0.00061   3.12978
    D3        3.10351  -0.00054  -0.00026  -0.00091  -0.00117   3.10234
    D4       -0.03246  -0.00051  -0.00026  -0.00028  -0.00054  -0.03300
    D5        1.57080   0.00200   0.00000   0.00000   0.00000   1.57080
    D6       -1.58900   0.00106  -0.00043  -0.00062  -0.00105  -1.59005
    D7        1.57080   0.00578   0.00000   0.00000   0.00000   1.57080
         Item               Value     Threshold  Converged?
 Maximum Force            0.000050     0.000015     NO 
 RMS     Force            0.000020     0.000010     NO 
 Maximum Displacement     0.001037     0.000060     NO 
 RMS     Displacement     0.000401     0.000040     NO 
 Predicted change in Energy=-5.934781D-08
 Lowest energy point so far.  Saving SCF results.
 GradGradGradGradGradGradGradGradGradGradGradGradGradGradGradGradGradGrad

 Leave Link  103 at Fri Apr 12 16:37:27 2019, MaxMem=   134217728 cpu:         0.0
 (Enter /cm/shared/c3ddb/gaussian/09.d01/g09/l202.exe)
                          Input orientation:                          
 ---------------------------------------------------------------------
 Center     Atomic      Atomic             Coordinates (Angstroms)
 Number     Number       Type             X           Y           Z
 ---------------------------------------------------------------------
      1          6           0        0.738326    0.621427    0.043035
      2          6           0        1.380531   -0.516169   -0.004541
      3          1           0        1.214950    1.578774    0.107926
      4          1           0        2.451190   -0.544296    0.003426
      5          1           0        0.848042   -1.443708   -0.058247
      6          8           0       -0.672916    0.675276   -0.014042
      7          8           0       -1.183667    0.600235    1.363670
      8          1           0       -1.218972    1.541054    1.614051
 ---------------------------------------------------------------------
                    Distance matrix (angstroms):
                    1          2          3          4          5
     1  C    0.000000
     2  C    1.307217   0.000000
     3  H    1.071398   2.104483   0.000000
     4  H    2.072289   1.071057   2.458990   0.000000
     5  H    2.070526   1.070868   3.049201   1.839246   0.000000
     6  O    1.413421   2.374084   2.096478   3.353758   2.608708
     7  O    2.332076   3.113434   2.878853   4.046281   3.213626
     8  H    2.672979   3.689095   2.862483   4.518061   3.997240
                    6          7          8
     6  O    0.000000
     7  O    1.471254   0.000000
     8  H    1.923132   0.974206   0.000000
 Symmetry turned off by external request.
 Stoichiometry    C2H4O2
 Framework group  C1[X(C2H4O2)]
 Deg. of freedom    18
 Full point group                 C1      NOp   1
 Rotational constants (GHZ):     23.4911563      5.1994514      4.8580128
 Leave Link  202 at Fri Apr 12 16:37:27 2019, MaxMem=   134217728 cpu:         0.0
 (Enter /cm/shared/c3ddb/gaussian/09.d01/g09/l301.exe)
 Standard basis: 3-21G (6D, 7F)
 Ernie: Thresh=  0.10000D-02 Tol=  0.10000D-05 Strict=F.
    44 basis functions,    72 primitive gaussians,    44 cartesian basis functions
    16 alpha electrons       16 beta electrons
       nuclear repulsion energy       117.2245927424 Hartrees.
 IExCor=    0 DFT=F Ex=HF Corr=None ExCW=0 ScaHFX=  1.000000
 ScaDFX=  1.000000  1.000000  1.000000  1.000000 ScalE2=  1.000000  1.000000
 IRadAn=      0 IRanWt=     -1 IRanGd=            0 ICorTp=0 IEmpDi=  4
 NAtoms=    8 NActive=    8 NUniq=    8 SFac= 1.00D+00 NAtFMM=   60 NAOKFM=F Big=F
 Integral buffers will be    131072 words long.
 Raffenetti 1 integral format.
 Two-electron integral symmetry is turned off.
 Leave Link  301 at Fri Apr 12 16:37:28 2019, MaxMem=   134217728 cpu:         0.8
 (Enter /cm/shared/c3ddb/gaussian/09.d01/g09/l302.exe)
 NPDir=0 NMtPBC=     1 NCelOv=     1 NCel=       1 NClECP=     1 NCelD=      1
         NCelK=      1 NCelE2=     1 NClLst=     1 CellRange=     0.0.
 One-electron integrals computed using PRISM.
 NBasis=    44 RedAO= T EigKep=  1.18D-02  NBF=    44
 NBsUse=    44 1.00D-06 EigRej= -1.00D+00 NBFU=    44
 Leave Link  302 at Fri Apr 12 16:37:29 2019, MaxMem=   134217728 cpu:         0.3
 (Enter /cm/shared/c3ddb/gaussian/09.d01/g09/l303.exe)
 DipDrv:  MaxL=1.
 Leave Link  303 at Fri Apr 12 16:37:29 2019, MaxMem=   134217728 cpu:         0.1
 (Enter /cm/shared/c3ddb/gaussian/09.d01/g09/l401.exe)
 Initial guess from the checkpoint file:  "TMP_CALCS/scangeom_S02_090_090.chk"
 B after Tr=     0.000057    0.000178   -0.000022
         Rot=    1.000000   -0.000074    0.000087    0.000027 Ang=  -0.01 deg.
 Guess basis will be translated and rotated to current coordinates.
 JPrj=2 DoOrth=T DoCkMO=T.
 Leave Link  401 at Fri Apr 12 16:37:30 2019, MaxMem=   134217728 cpu:         0.8
 (Enter /cm/shared/c3ddb/gaussian/09.d01/g09/l502.exe)
 Closed shell SCF:
 Using DIIS extrapolation, IDIIS=  1040.
 Two-electron integral symmetry not used.
 Keep R1 ints in memory in canonical form, NReq=1327360.
 IVT=       24902 IEndB=       24902 NGot=   134217728 MDV=   133702282
 LenX=   133702282 LenY=   133699905
 Requested convergence on RMS density matrix=1.00D-08 within 128 cycles.
 Requested convergence on MAX density matrix=1.00D-06.
 Requested convergence on             energy=1.00D-06.
 No special actions if energy rises.
 FoFCou: FMM=F IPFlag=           0 FMFlag=           0 FMFlg1=           0
         NFxFlg=           0 DoJE=F BraDBF=F KetDBF=F FulRan=T
         wScrn=  0.000000 ICntrl=     600 IOpCl=  0 I1Cent=           0 NGrid=           0
         NMat0=    1 NMatS0=    990 NMatT0=    0 NMatD0=    1 NMtDS0=    0 NMtDT0=    0
 Symmetry not used in FoFCou.

 Cycle   1  Pass 1  IDiag  1:
 E= -226.389582032988    
 DIIS: error= 2.61D-05 at cycle   1 NSaved=   1.
 NSaved= 1 IEnMin= 1 EnMin= -226.389582032988     IErMin= 1 ErrMin= 2.61D-05
 ErrMax= 2.61D-05  0.00D+00 EMaxC= 1.00D-01 BMatC= 6.86D-08 BMatP= 6.86D-08
 IDIUse=1 WtCom= 1.00D+00 WtEn= 0.00D+00
 Coeff-Com:  0.100D+01
 Coeff:      0.100D+01
 Gap=     0.978 Goal=   None    Shift=    0.000
 RMSDP=6.38D-06 MaxDP=5.63D-05              OVMax= 1.19D-04

 Cycle   2  Pass 1  IDiag  1:
 E= -226.389582162527     Delta-E=       -0.000000129540 Rises=F Damp=F
 DIIS: error= 1.23D-05 at cycle   2 NSaved=   2.
 NSaved= 2 IEnMin= 2 EnMin= -226.389582162527     IErMin= 2 ErrMin= 1.23D-05
 ErrMax= 1.23D-05  0.00D+00 EMaxC= 1.00D-01 BMatC= 6.59D-09 BMatP= 6.86D-08
 IDIUse=1 WtCom= 1.00D+00 WtEn= 0.00D+00
 Coeff-Com: -0.300D+00 0.130D+01
 Coeff:     -0.300D+00 0.130D+01
 Gap=     0.539 Goal=   None    Shift=    0.000
 RMSDP=3.50D-06 MaxDP=2.86D-05 DE=-1.30D-07 OVMax= 8.01D-05

 Cycle   3  Pass 1  IDiag  1:
 E= -226.389582184350     Delta-E=       -0.000000021822 Rises=F Damp=F
 DIIS: error= 4.41D-06 at cycle   3 NSaved=   3.
 NSaved= 3 IEnMin= 3 EnMin= -226.389582184350     IErMin= 3 ErrMin= 4.41D-06
 ErrMax= 4.41D-06  0.00D+00 EMaxC= 1.00D-01 BMatC= 4.71D-10 BMatP= 6.59D-09
 IDIUse=1 WtCom= 1.00D+00 WtEn= 0.00D+00
 Coeff-Com:  0.331D-01-0.343D+00 0.131D+01
 Coeff:      0.331D-01-0.343D+00 0.131D+01
 Gap=     0.539 Goal=   None    Shift=    0.000
 RMSDP=1.29D-06 MaxDP=1.03D-05 DE=-2.18D-08 OVMax= 2.96D-05

 Cycle   4  Pass 1  IDiag  1:
 E= -226.389582186275     Delta-E=       -0.000000001925 Rises=F Damp=F
 DIIS: error= 1.24D-06 at cycle   4 NSaved=   4.
 NSaved= 4 IEnMin= 4 EnMin= -226.389582186275     IErMin= 4 ErrMin= 1.24D-06
 ErrMax= 1.24D-06  0.00D+00 EMaxC= 1.00D-01 BMatC= 5.34D-11 BMatP= 4.71D-10
 IDIUse=1 WtCom= 1.00D+00 WtEn= 0.00D+00
 Coeff-Com:  0.263D-01-0.155D+00 0.255D+00 0.874D+00
 Coeff:      0.263D-01-0.155D+00 0.255D+00 0.874D+00
 Gap=     0.539 Goal=   None    Shift=    0.000
 RMSDP=2.75D-07 MaxDP=1.80D-06 DE=-1.93D-09 OVMax= 5.76D-06

 Cycle   5  Pass 1  IDiag  1:
 E= -226.389582186393     Delta-E=       -0.000000000118 Rises=F Damp=F
 DIIS: error= 3.78D-07 at cycle   5 NSaved=   5.
 NSaved= 5 IEnMin= 5 EnMin= -226.389582186393     IErMin= 5 ErrMin= 3.78D-07
 ErrMax= 3.78D-07  0.00D+00 EMaxC= 1.00D-01 BMatC= 6.36D-12 BMatP= 5.34D-11
 IDIUse=1 WtCom= 1.00D+00 WtEn= 0.00D+00
 Coeff-Com: -0.312D-02 0.385D-01-0.173D+00 0.509D-01 0.109D+01
 Coeff:     -0.312D-02 0.385D-01-0.173D+00 0.509D-01 0.109D+01
 Gap=     0.539 Goal=   None    Shift=    0.000
 RMSDP=1.23D-07 MaxDP=7.35D-07 DE=-1.18D-10 OVMax= 2.13D-06

 Cycle   6  Pass 1  IDiag  1:
 E= -226.389582186411     Delta-E=       -0.000000000018 Rises=F Damp=F
 DIIS: error= 1.67D-07 at cycle   6 NSaved=   6.
 NSaved= 6 IEnMin= 6 EnMin= -226.389582186411     IErMin= 6 ErrMin= 1.67D-07
 ErrMax= 1.67D-07  0.00D+00 EMaxC= 1.00D-01 BMatC= 7.23D-13 BMatP= 6.36D-12
 IDIUse=1 WtCom= 1.00D+00 WtEn= 0.00D+00
 Coeff-Com: -0.267D-02 0.184D-01-0.449D-01-0.638D-01 0.175D+00 0.918D+00
 Coeff:     -0.267D-02 0.184D-01-0.449D-01-0.638D-01 0.175D+00 0.918D+00
 Gap=     0.539 Goal=   None    Shift=    0.000
 RMSDP=3.08D-08 MaxDP=2.35D-07 DE=-1.81D-11 OVMax= 6.83D-07

 Cycle   7  Pass 1  IDiag  1:
 E= -226.389582186413     Delta-E=       -0.000000000002 Rises=F Damp=F
 DIIS: error= 9.14D-08 at cycle   7 NSaved=   7.
 NSaved= 7 IEnMin= 7 EnMin= -226.389582186413     IErMin= 7 ErrMin= 9.14D-08
 ErrMax= 9.14D-08  0.00D+00 EMaxC= 1.00D-01 BMatC= 1.44D-13 BMatP= 7.23D-13
 IDIUse=1 WtCom= 1.00D+00 WtEn= 0.00D+00
 Coeff-Com:  0.628D-03-0.752D-02 0.342D-01-0.124D-01-0.209D+00-0.986D-02
 Coeff-Com:  0.120D+01
 Coeff:      0.628D-03-0.752D-02 0.342D-01-0.124D-01-0.209D+00-0.986D-02
 Coeff:      0.120D+01
 Gap=     0.539 Goal=   None    Shift=    0.000
 RMSDP=2.18D-08 MaxDP=1.89D-07 DE=-1.99D-12 OVMax= 5.17D-07

 Cycle   8  Pass 1  IDiag  1:
 E= -226.389582186413     Delta-E=        0.000000000000 Rises=F Damp=F
 DIIS: error= 4.02D-08 at cycle   8 NSaved=   8.
 NSaved= 8 IEnMin= 8 EnMin= -226.389582186413     IErMin= 8 ErrMin= 4.02D-08
 ErrMax= 4.02D-08  0.00D+00 EMaxC= 1.00D-01 BMatC= 2.25D-14 BMatP= 1.44D-13
 IDIUse=1 WtCom= 1.00D+00 WtEn= 0.00D+00
 Coeff-Com:  0.367D-03-0.248D-02 0.608D-02 0.865D-02-0.221D-01-0.133D+00
 Coeff-Com: -0.269D-02 0.114D+01
 Coeff:      0.367D-03-0.248D-02 0.608D-02 0.865D-02-0.221D-01-0.133D+00
 Coeff:     -0.269D-02 0.114D+01
 Gap=     0.539 Goal=   None    Shift=    0.000
 RMSDP=9.05D-09 MaxDP=8.31D-08 DE=-3.41D-13 OVMax= 2.34D-07

 SCF Done:  E(RHF) =  -226.389582186     A.U. after    8 cycles
            NFock=  8  Conv=0.91D-08     -V/T= 2.0034
 KE= 2.256193122029D+02 PE=-7.678837349793D+02 EE= 1.986502478476D+02
 Leave Link  502 at Fri Apr 12 16:37:31 2019, MaxMem=   134217728 cpu:         0.8
 (Enter /cm/shared/c3ddb/gaussian/09.d01/g09/l701.exe)
 Compute integral first derivatives.
 ... and contract with generalized density number  0.
 Leave Link  701 at Fri Apr 12 16:37:31 2019, MaxMem=   134217728 cpu:         0.3
 (Enter /cm/shared/c3ddb/gaussian/09.d01/g09/l702.exe)
 L702 exits ... SP integral derivatives will be done elsewhere.
 Leave Link  702 at Fri Apr 12 16:37:32 2019, MaxMem=   134217728 cpu:         0.1
 (Enter /cm/shared/c3ddb/gaussian/09.d01/g09/l703.exe)
 Compute integral first derivatives, UseDBF=F ICtDFT=           0.
 Integral derivatives from FoFJK, PRISM(SPDF).
 Calling FoFJK, ICntrl=      2127 FMM=F ISym2X=0 I1Cent= 0 IOpClX= 0 NMat=1 NMatS=1 NMatT=0.
 FoFJK:  IHMeth= 1 ICntrl=    2127 DoSepK=F KAlg= 0 I1Cent=   0 FoldK=F
 IRaf=         0 NMat=   1 IRICut=       1 DoRegI=T DoRafI=F ISym2E= 0.
[...]
 RMSDP=3.01D-07 MaxDP=2.40D-06 DE=-1.50D-09 OVMax= 6.79D-06

 Cycle   4  Pass 1  IDiag  1:
 E= -226.389582194869     Delta-E=       -0.000000000117 Rises=F Damp=F
 DIIS: error= 3.61D-07 at cycle   4 NSaved=   4.
 NSaved= 4 IEnMin= 4 EnMin= -226.389582194869     IErMin= 4 ErrMin= 3.61D-07
 ErrMax= 3.61D-07  0.00D+00 EMaxC= 1.00D-01 BMatC= 7.11D-12 BMatP= 3.30D-11
 IDIUse=1 WtCom= 1.00D+00 WtEn= 0.00D+00
 Coeff-Com:  0.308D-01-0.193D+00 0.396D+00 0.766D+00
 Coeff:      0.308D-01-0.193D+00 0.396D+00 0.766D+00
 Gap=     0.539 Goal=   None    Shift=    0.000
 RMSDP=7.56D-08 MaxDP=4.98D-07 DE=-1.17D-10 OVMax= 1.58D-06

 Cycle   5  Pass 1  IDiag  1:
 E= -226.389582194880     Delta-E=       -0.000000000012 Rises=F Damp=F
 DIIS: error= 1.26D-07 at cycle   5 NSaved=   5.
 NSaved= 5 IEnMin= 5 EnMin= -226.389582194880     IErMin= 5 ErrMin= 1.26D-07
 ErrMax= 1.26D-07  0.00D+00 EMaxC= 1.00D-01 BMatC= 6.00D-13 BMatP= 7.11D-12
 IDIUse=1 WtCom= 1.00D+00 WtEn= 0.00D+00
 Coeff-Com: -0.603D-02 0.558D-01-0.228D+00-0.801D-01 0.126D+01
 Coeff:     -0.603D-02 0.558D-01-0.228D+00-0.801D-01 0.126D+01
 Gap=     0.539 Goal=   None    Shift=    0.000
 RMSDP=4.52D-08 MaxDP=2.78D-07 DE=-1.17D-11 OVMax= 8.45D-07

 Cycle   6  Pass 1  IDiag  1:
 E= -226.389582194883     Delta-E=       -0.000000000003 Rises=F Damp=F
 DIIS: error= 5.29D-08 at cycle   6 NSaved=   6.
 NSaved= 6 IEnMin= 6 EnMin= -226.389582194883     IErMin= 6 ErrMin= 5.29D-08
 ErrMax= 5.29D-08  0.00D+00 EMaxC= 1.00D-01 BMatC= 6.06D-14 BMatP= 6.00D-13
 IDIUse=1 WtCom= 1.00D+00 WtEn= 0.00D+00
 Coeff-Com: -0.203D-02 0.124D-01-0.219D-01-0.594D-01 0.121D-01 0.106D+01
 Coeff:     -0.203D-02 0.124D-01-0.219D-01-0.594D-01 0.121D-01 0.106D+01
 Gap=     0.539 Goal=   None    Shift=    0.000
 RMSDP=1.12D-08 MaxDP=7.75D-08 DE=-2.90D-12 OVMax= 2.64D-07

 Cycle   7  Pass 1  IDiag  1:
 E= -226.389582194883     Delta-E=        0.000000000000 Rises=F Damp=F
 DIIS: error= 2.80D-08 at cycle   7 NSaved=   7.
 NSaved= 7 IEnMin= 6 EnMin= -226.389582194883     IErMin= 7 ErrMin= 2.80D-08
 ErrMax= 2.80D-08  0.00D+00 EMaxC= 1.00D-01 BMatC= 1.42D-14 BMatP= 6.06D-14
 IDIUse=1 WtCom= 1.00D+00 WtEn= 0.00D+00
 Coeff-Com:  0.142D-02-0.130D-01 0.531D-01 0.124D-01-0.270D+00-0.509D-01
 Coeff-Com:  0.127D+01
 Coeff:      0.142D-02-0.130D-01 0.531D-01 0.124D-01-0.270D+00-0.509D-01
 Coeff:      0.127D+01
 Gap=     0.539 Goal=   None    Shift=    0.000
 RMSDP=7.79D-09 MaxDP=6.41D-08 DE= 3.98D-13 OVMax= 1.98D-07

 SCF Done:  E(RHF) =  -226.389582195     A.U. after    7 cycles
            NFock=  7  Conv=0.78D-08     -V/T= 2.0034
 KE= 2.256192938249D+02 PE=-7.678832594630D+02 EE= 1.986500151836D+02
 Leave Link  502 at Fri Apr 12 16:37:36 2019, MaxMem=   134217728 cpu:         0.5
 (Enter /cm/shared/c3ddb/gaussian/09.d01/g09/l701.exe)
 Compute integral first derivatives.
 ... and contract with generalized density number  0.
 Leave Link  701 at Fri Apr 12 16:37:37 2019, MaxMem=   134217728 cpu:         0.7
 (Enter /cm/shared/c3ddb/gaussian/09.d01/g09/l702.exe)
 L702 exits ... SP integral derivatives will be done elsewhere.
 Leave Link  702 at Fri Apr 12 16:37:37 2019, MaxMem=   134217728 cpu:         0.1
 (Enter /cm/shared/c3ddb/gaussian/09.d01/g09/l703.exe)
 Compute integral first derivatives, UseDBF=F ICtDFT=           0.
 Integral derivatives from FoFJK, PRISM(SPDF).
 Calling FoFJK, ICntrl=      2127 FMM=F ISym2X=0 I1Cent= 0 IOpClX= 0 NMat=1 NMatS=1 NMatT=0.
 FoFJK:  IHMeth= 1 ICntrl=    2127 DoSepK=F KAlg= 0 I1Cent=   0 FoldK=F
 IRaf=         0 NMat=   1 IRICut=       1 DoRegI=T DoRafI=F ISym2E= 0.
 FoFCou: FMM=F IPFlag=           0 FMFlag=      100000 FMFlg1=         800
         NFxFlg=           0 DoJE=F BraDBF=F KetDBF=F FulRan=T
         wScrn=  0.000000 ICntrl=    2127 IOpCl=  0 I1Cent=           0 NGrid=           0
         NMat0=    1 NMatS0=      1 NMatT0=    0 NMatD0=    1 NMtDS0=    0 NMtDT0=    0
 Symmetry not used in FoFCou.
 Leave Link  703 at Fri Apr 12 16:37:37 2019, MaxMem=   134217728 cpu:         0.3
 (Enter /cm/shared/c3ddb/gaussian/09.d01/g09/l716.exe)
 Dipole        = 7.85996978D-01 6.08157857D-01 3.07262573D-01
 -------------------------------------------------------------------
 Center     Atomic                   Forces (Hartrees/Bohr)
 Number     Number              X              Y              Z
 -------------------------------------------------------------------
      1        6          -0.000152498   -0.002040979    0.002020997
      2        6           0.000058437    0.000097535   -0.001445674
      3        1          -0.000001860   -0.000000150   -0.000000073
      4        1          -0.000000463    0.000000355   -0.000000837
      5        1           0.000000142   -0.000000412   -0.000001606
      6        8          -0.000328297    0.001481675   -0.000754636
      7        8           0.003429764    0.000281709    0.001285134
      8        1          -0.003005225    0.000180268   -0.001103305
 -------------------------------------------------------------------
 Cartesian Forces:  Max     0.003429764 RMS     0.001242044
 Leave Link  716 at Fri Apr 12 16:37:37 2019, MaxMem=   134217728 cpu:         0.2
 (Enter /cm/shared/c3ddb/gaussian/09.d01/g09/l103.exe)

 GradGradGradGradGradGradGradGradGradGradGradGradGradGradGradGradGradGrad
 Berny optimization.
 Using GEDIIS/GDIIS optimizer.
 FormGI is forming the generalized inverse of G from B-inverse, IUseBI=4.
 Internal  Forces:  Max     0.005778954 RMS     0.001339209
 Search for a local minimum.
 Step number   5 out of a maximum of   32
 All quantities printed in internal units (Hartrees-Bohrs-Radians)
 RMS Force = .16247D-05 SwitMx=.10000D-02 MixMth= 2
 Mixed Optimization -- En-DIIS/RFO-DIIS
 Swapping is turned off.
 Update second derivatives using D2CorX and points    1    2    3    4    5
 DE= -8.47D-09 DEPred=-8.86D-09 R= 9.56D-01
 Trust test= 9.56D-01 RLast= 5.50D-04 DXMaxT set to 3.00D-01
 ITU=  0  0  1  0  0
     Eigenvalues ---    0.02742   0.03358   0.05134   0.15846   0.15992
     Eigenvalues ---    0.16009   0.21110   0.22094   0.26463   0.37020
     Eigenvalues ---    0.37096   0.37116   0.41576   0.45579   0.52244
     Eigenvalues ---    0.652841000.000001000.000001000.000001000.00000
     Eigenvalues --- 1000.000001000.00000
 En-DIIS/RFO-DIIS IScMMF=        0 using points:     5    4    3    2    1
 RFO step:  Lambda=-1.24783783D-06.
 NNeg= 0 NP= 5 Switch=  2.50D-03 Rises=F DC=  9.10D-06 SmlDif=  1.00D-05
 RMS Error=  0.4251031423D-04 NUsed= 5 EDIIS=F
 DidBck=F Rises=F RFO-DIIS coefs:    0.84366    0.11038    0.04679   -0.00004   -0.00079
 Iteration  1 RMS(Cart)=  0.00001409 RMS(Int)=  0.00000025
 Iteration  2 RMS(Cart)=  0.00000000 RMS(Int)=  0.00000025
 Iteration  1 RMS(Cart)=  0.00000032 RMS(Int)=  0.00000013
 ITry= 1 IFail=0 DXMaxC= 3.12D-05 DCOld= 1.00D+10 DXMaxT= 3.00D-01 DXLimC= 3.00D+00 Rises=F
 Variable       Old X    -DE/DX   Delta X   Delta X   Delta X     New X
                                 (Linear)    (Quad)   (Total)
    R1        2.47028   0.00000   0.00000   0.00000   0.00000   2.47027
    R2        2.02465   0.00000   0.00000   0.00000   0.00000   2.02465
    R3        2.67100   0.00000  -0.00001   0.00001   0.00000   2.67100
    R4        2.02400   0.00000   0.00000   0.00000   0.00000   2.02400
    R5        2.02365   0.00000   0.00000   0.00000   0.00000   2.02365
    R6        2.78026   0.00000   0.00000   0.00000   0.00000   2.78026
    R7        1.84099   0.00000   0.00000   0.00000   0.00000   1.84099
    A1        2.16673  -0.00001   0.00000   0.00001   0.00001   2.16674
    A2        2.12023  -0.00001   0.00000  -0.00001  -0.00001   2.12022
    A3        1.99606   0.00001   0.00000  -0.00001   0.00000   1.99606
    A4        2.11026   0.00000   0.00000   0.00000   0.00000   2.11026
    A5        2.10751   0.00000   0.00000   0.00000   0.00000   2.10751
    A6        2.06541   0.00000   0.00000   0.00000   0.00000   2.06541
    A7        1.88273   0.00000  -0.00001   0.00000  -0.00001   1.88271
    A8        1.77616   0.00000   0.00001   0.00000   0.00001   1.77617
    D1       -0.01793   0.00049  -0.00002   0.00000  -0.00002  -0.01795
    D2        3.12956   0.00049   0.00000   0.00002   0.00002   3.12958
    D3        3.10274  -0.00049  -0.00001   0.00000   0.00000   3.10274
    D4       -0.03295  -0.00049   0.00002   0.00002   0.00004  -0.03291
    D5        1.57080   0.00198   0.00000   0.00000   0.00000   1.57080
    D6       -1.58980   0.00108   0.00001   0.00000   0.00002  -1.58978
    D7        1.57080   0.00578   0.00000   0.00000   0.00000   1.57080
         Item               Value     Threshold  Converged?
 Maximum Force            0.000004     0.000015     YES
 RMS     Force            0.000002     0.000010     YES
 Maximum Displacement     0.000031     0.000060     YES
 RMS     Displacement     0.000014     0.000040     YES
 Predicted change in Energy=-2.135983D-10
 Optimization completed.
    -- Stationary point found.
                           ----------------------------
                           !   Optimized Parameters   !
                           ! (Angstroms and Degrees)  !
 --------------------------                            --------------------------
 ! Name  Definition              Value          Derivative Info.                !
 --------------------------------------------------------------------------------
 ! R1    R(1,2)                  1.3072         -DE/DX =    0.0                 !
 ! R2    R(1,3)                  1.0714         -DE/DX =    0.0                 !
 ! R3    R(1,6)                  1.4134         -DE/DX =    0.0                 !
 ! R4    R(2,4)                  1.0711         -DE/DX =    0.0                 !
 ! R5    R(2,5)                  1.0709         -DE/DX =    0.0                 !
 ! R6    R(6,7)                  1.4712         -DE/DX =    0.0                 !
 ! R7    R(7,8)                  0.9742         -DE/DX =    0.0                 !
 ! A1    A(2,1,3)              124.1442         -DE/DX =    0.0                 !
 ! A2    A(2,1,6)              121.4802         -DE/DX =    0.0                 !
 ! A3    A(3,1,6)              114.3659         -DE/DX =    0.0                 !
 ! A4    A(1,2,4)              120.9089         -DE/DX =    0.0                 !
 ! A5    A(1,2,5)              120.7511         -DE/DX =    0.0                 !
 ! A6    A(4,2,5)              118.3391         -DE/DX =    0.0                 !
 ! A7    A(1,6,7)              107.8722         -DE/DX =    0.0                 !
 ! A8    A(6,7,8)              101.7665         -DE/DX =    0.0                 !
 ! D1    D(3,1,2,4)             -1.0274         -DE/DX =    0.0005              !
 ! D2    D(3,1,2,5)            179.3106         -DE/DX =    0.0005              !
 ! D3    D(6,1,2,4)            177.7741         -DE/DX =   -0.0005              !
 ! D4    D(6,1,2,5)             -1.8879         -DE/DX =   -0.0005              !
 ! D5    D(2,1,6,7)             90.0            -DE/DX =    0.002               !
 ! D6    D(3,1,6,7)            -91.089          -DE/DX =    0.0011              !
 ! D7    D(1,6,7,8)             90.0            -DE/DX =    0.0058              !
 --------------------------------------------------------------------------------
 Lowest energy point so far.  Saving SCF results.
 GradGradGradGradGradGradGradGradGradGradGradGradGradGradGradGradGradGrad

 Largest change from initial coordinates is atom    8       0.010 Angstoms.
 Leave Link  103 at Fri Apr 12 16:37:38 2019, MaxMem=   134217728 cpu:         0.1
 (Enter /cm/shared/c3ddb/gaussian/09.d01/g09/l202.exe)
                          Input orientation:                          
 ---------------------------------------------------------------------
 Center     Atomic      Atomic             Coordinates (Angstroms)
 Number     Number       Type             X           Y           Z
 ---------------------------------------------------------------------
      1          6           0        0.738305    0.621417    0.042938
      2          6           0        1.380529   -0.516167   -0.004649
      3          1           0        1.214888    1.578774    0.107983
      4          1           0        2.451184   -0.544287    0.003592
      5          1           0        0.848060   -1.443722   -0.058314
      6          8           0       -0.672952    0.675235   -0.014010
      7          8           0       -1.183622    0.600246    1.363729
      8          1           0       -1.218906    1.541096    1.614008
 ---------------------------------------------------------------------
                    Distance matrix (angstroms):
                    1          2          3          4          5
     1  C    0.000000
     2  C    1.307215   0.000000
     3  H    1.071398   2.104495   0.000000
     4  H    2.072286   1.071057   2.459007   0.000000
     5  H    2.070530   1.070869   3.049213   1.839245   0.000000
     6  O    1.413431   2.374091   2.096474   3.353769   2.608719
     7  O    2.332111   3.113472   2.878761   4.046202   3.213681
     8  H    2.672966   3.689098   2.862321   4.517945   3.997268
                    6          7          8
     6  O    0.000000
     7  O    1.471249   0.000000
     8  H    1.923077   0.974209   0.000000
 Symmetry turned off by external request.
 Stoichiometry    C2H4O2
 Framework group  C1[X(C2H4O2)]
 Deg. of freedom    18
 Full point group                 C1      NOp   1
 Rotational constants (GHZ):     23.4913159      5.1993654      4.8579762
 Leave Link  202 at Fri Apr 12 16:37:38 2019, MaxMem=   134217728 cpu:         0.0
 (Enter /cm/shared/c3ddb/gaussian/09.d01/g09/l601.exe)
 Copying SCF densities to generalized density rwf, IOpCl= 0 IROHF=0.

 **********************************************************************

            Population analysis using the SCF density.

 **********************************************************************

 Alpha  occ. eigenvalues --  -20.52565 -20.51864 -11.23899 -11.18119  -1.46475
 Alpha  occ. eigenvalues --   -1.22940  -1.03556  -0.80056  -0.69663  -0.68153
 Alpha  occ. eigenvalues --   -0.63168  -0.58455  -0.56295  -0.47520  -0.46631
 Alpha  occ. eigenvalues --   -0.38837
 Alpha virt. eigenvalues --    0.15073   0.26348   0.28526   0.30649   0.32150
 Alpha virt. eigenvalues --    0.36133   0.49355   0.56365   0.88314   0.97025
 Alpha virt. eigenvalues --    0.98394   1.06285   1.09791   1.11633   1.24984
 Alpha virt. eigenvalues --    1.31745   1.36583   1.57179   1.59991   1.76528
 Alpha virt. eigenvalues --    1.81738   1.85878   2.00059   2.04377   2.08698
 Alpha virt. eigenvalues --    2.17701   3.11834   3.45169
          Condensed to atoms (all electrons):
               1          2          3          4          5          6
     1  C    4.912331   0.481875   0.379224  -0.039695  -0.048933   0.243893
     2  C    0.481875   5.332630  -0.067420   0.369665   0.386622  -0.059420
     3  H    0.379224  -0.067420   0.496259   0.001375   0.002283  -0.040307
     4  H   -0.039695   0.369665   0.001375   0.454624  -0.014974   0.001506
     5  H   -0.048933   0.386622   0.002283  -0.014974   0.420649  -0.001152
     6  O    0.243893  -0.059420  -0.040307   0.001506  -0.001152   8.156771
     7  O   -0.039077  -0.000447   0.001111  -0.000026   0.000354   0.121168
     8  H   -0.000428   0.000036   0.000896   0.000004   0.000008  -0.024819
               7          8
     1  C   -0.039077  -0.000428
     2  C   -0.000447   0.000036
     3  H    0.001111   0.000896
     4  H   -0.000026   0.000004
     5  H    0.000354   0.000008
     6  O    0.121168  -0.024819
     7  O    8.059062   0.238326
     8  H    0.238326   0.384384
 Mulliken charges:
               1
     1  C    0.110810
     2  C   -0.443540
     3  H    0.226581
     4  H    0.227521
     5  H    0.255143
     6  O   -0.397638
     7  O   -0.380470
     8  H    0.401594
 Sum of Mulliken charges =   0.00000
 Mulliken charges with hydrogens summed into heavy atoms:
               1
     1  C    0.337391
     2  C    0.039123
     6  O   -0.397638
     7  O    0.021124
 Electronic spatial extent (au):  <R**2>=            313.8443
 Charge=              0.0000 electrons
 Dipole moment (field-independent basis, Debye):
    X=              1.9978    Y=              1.5458    Z=              0.7810  Tot=              2.6440
 Quadrupole moment (field-independent basis, Debye-Ang):
   XX=            -22.7559   YY=            -17.8176   ZZ=            -24.0556
   XY=             -1.5646   XZ=             -0.8457   YZ=              3.9884
 Traceless Quadrupole moment (field-independent basis, Debye-Ang):
   XX=             -1.2129   YY=              3.7254   ZZ=             -2.5125
   XY=             -1.5646   XZ=             -0.8457   YZ=              3.9884
 Octapole moment (field-independent basis, Debye-Ang**2):
  XXX=             -4.8305  YYY=            -16.1117  ZZZ=            -21.7777  XYY=             -6.4213
  XXY=             -5.6321  XXZ=             -7.2426  XZZ=             -7.7214  YZZ=             -1.3846
  YYZ=             -0.8586  XYZ=             -4.4264
 Hexadecapole moment (field-independent basis, Debye-Ang**3):
 XXXX=           -178.9359 YYYY=            -73.9796 ZZZZ=            -80.3774 XXXY=             21.3547
 XXXZ=             27.5326 YYYX=             20.2731 YYYZ=             -4.7425 ZZZX=             22.7698
 ZZZY=             -6.6363 XXYY=            -39.5235 XXZZ=            -47.3881 YYZZ=            -18.7609
 XXYZ=              0.0500 YYXZ=              0.5872 ZZXY=              1.2841
 N-N= 1.172243682596D+02 E-N=-7.678832597178D+02  KE= 2.256192938249D+02
 No NMR shielding tensors so no spin-rotation constants.
 Leave Link  601 at Fri Apr 12 16:37:38 2019, MaxMem=   134217728 cpu:         0.2
 (Enter /cm/shared/c3ddb/gaussian/09.d01/g09/l9999.exe)
 1\1\GINC-NODE029\FOpt\RHF\3-21G\C2H4O2\MATTSJ\12-Apr-2019\0\\#p hf 3-2
 1g scf=tight NoSymmetry guess=read opt=(tight,modredundant)\\Geometry 
 optimization at the 2D-PES\\0,1\C,0.7383051001,0.6214168587,0.04293792
 79\C,1.3805286429,-0.5161668556,-0.0046492131\H,1.214887562,1.57877412
 32,0.1079834123\H,2.451184311,-0.5442868812,0.003591922\H,0.8480599134
 ,-1.4437217074,-0.0583142962\O,-0.6729519658,0.6752345406,-0.014010086
 \O,-1.1836223276,0.6002458111,1.3637293101\H,-1.218906236,1.5410961107
 ,1.614008023\\Version=AS64L-G09RevD.01\HF=-226.3895822\RMSD=7.787e-09\
 RMSF=1.242e-03\Dipole=0.785997,0.6081579,0.3072626\Quadrupole=-0.90176
 07,2.7697735,-1.8680129,-1.1632651,-0.6287338,2.9652525\PG=C01 [X(C2H4
 O2)]\\@


 NOBODY LOSES ALL THE TIME
 I HAD AN UNCLE NAMED
 SOL WHO WAS A BORN FAILURE AND
 NEARLY EVERYBODY SAID HE SHOULD HAVE GONE
 INTO VAUDEVILLE PERHAPS BECAUSE MY UNCLE SOL COULD
 SING MCCANN HE WAS A DIVER ON XMAS EVE LIKE HELL ITSELF WHICH
 MAY OR MAY NOT ACCOUNT FOR THE FACT THAT MY UNCLE
 SOL INDULGED IN THAT POSSIBLY MOST INEXCUSABLE
 OF ALL TO USE A HIGHFALOOTIN PHRASE
 LUXURIES THAT IS OR TO
 WIT FARMING AND BE
 IT NEEDLESSLY
 ADDED
 MY UNCLE SOL'S FARM     
 FAILED BECAUSE THE CHICKENS
 ATE THE VEGETABLES SO
 MY UNCLE SOL HAD A
 CHICKEN FARM TILL THE
 SKUNKS ATE THE CHICKENS WHEN 
 MY UNCLE SOL
 HAD A SKUNK FARM BUT
 THE SKUNKS CAUGHT COLD AND
 DIED AND SO
 MY UNCLE SOL IMITATED THE
 SKUNKS IN A SUBTLE MANNER
 OR BY DROWNING HIMSELF IN THE WATERTANK
 BUT SOMEBODY WHO'D GIVEN MY UNCLE SOL A VICTOR     
 VICTROLA AND RECORDS WHILE HE LIVED PRESENTED TO
 HIM UPON THE AUSPICIOUS OCCASION OF HIS DECEASE A
 SCRUMPTIOUS NOT TO MENTION SPLENDIFEROUS FUNERAL WITH
 TALL BOYS IN BLACK GLOVES AND FLOWERS AND EVERYTHING AND
 I REMEMBER WE ALL CRIED LIKE THE MISSOURI
 WHEN MY UNCLE SOL'S COFFIN LURCHED BECAUSE     
 SOMEBODY PRESSED A BUTTON
 (AND DOWN WENT
 MY UNCLE
 SOL
 AND STARTED A WORM FARM)
           E. E. CUMMINGS
 Job cpu time:       0 days  0 hours  0 minutes 26.2 seconds.
 File lengths (MBytes):  RWF=      5 Int=      0 D2E=      0 Chk=      1 Scr=      1
 Normal termination of Gaussian 09 at Fri Apr 12 16:37:38 2019.
