 Entering Gaussian System, Link 0=/cm/shared/c3ddb/gaussian/09.d01/g09/g09
 Initial command:
 /cm/shared/c3ddb/gaussian/09.d01/g09/l1.exe "/scratch/users/mattsj/g09/S02-7952157/Gau-41888.inp" -scrdir="/scratch/users/mattsj/g09/S02-7952157/"
 Entering Link 1 = /cm/shared/c3ddb/gaussian/09.d01/g09/l1.exe PID=     41889.
  
 Copyright (c) 1988,1990,1992,1993,1995,1998,2003,2009,2013,
            Gaussian, Inc.  All Rights Reserved.
  
 This is part of the Gaussian(R) 09 program.  It is based on
 the Gaussian(R) 03 system (copyright 2003, Gaussian, Inc.),
 the Gaussian(R) 98 system (copyright 1998, Gaussian, Inc.),
 the Gaussian(R) 94 system (copyright 1995, Gaussian, Inc.),
 the Gaussian 92(TM) system (copyright 1992, Gaussian, Inc.),
 the Gaussian 90(TM) system (copyright 1990, Gaussian, Inc.),
 the Gaussian 88(TM) system (copyright 1988, Gaussian, Inc.),
 the Gaussian 86(TM) system (copyright 1986, Carnegie Mellon
 University), and the Gaussian 82(TM) system (copyright 1983,
 Carnegie Mellon University). Gaussian is a federally registered
 trademark of Gaussian, Inc.
  
 This software contains proprietary and confidential information,
 including trade secrets, belonging to Gaussian, Inc.
  
 This software is provided under written license and may be
 used, copied, transmitted, or stored only in accord with that
 written license.
  
 The following legend is applicable only to US Government
 contracts under FAR:
  
                    RESTRICTED RIGHTS LEGEND
  
 Use, reproduction and disclosure by the US Government is
 subject to restrictions as set forth in subparagraphs (a)
 and (c) of the Commercial Computer Software - Restricted
 Rights clause in FAR 52.227-19.
  
 Gaussian, Inc.
 340 Quinnipiac St., Bldg. 40, Wallingford CT 06492
  
  
 ---------------------------------------------------------------
 Warning -- This program may not be used in any manner that
 competes with the business of Gaussian, Inc. or will provide
 assistance to any competitor of Gaussian, Inc.  The licensee
 of this program is prohibited from giving any competitor of
 Gaussian, Inc. access to this program.  By using this program,
 the user acknowledges that Gaussian, Inc. is engaged in the
 business of creating and licensing software in the field of
 computational chemistry and represents and warrants to the
 licensee that it is not a competitor of Gaussian, Inc. and that
 it will not use this program in any manner prohibited above.
 ---------------------------------------------------------------
  

 Cite this work as:
 Gaussian 09, Revision D.01,
 M. J. Frisch, G. W. Trucks, H. B. Schlegel, G. E. Scuseria, 
 M. A. Robb, J. R. Cheeseman, G. Scalmani, V. Barone, B. Mennucci, 
 G. A. Petersson, H. Nakatsuji, M. Caricato, X. Li, H. P. Hratchian, 
 A. F. Izmaylov, J. Bloino, G. Zheng, J. L. Sonnenberg, M. Hada, 
 M. Ehara, K. Toyota, R. Fukuda, J. Hasegawa, M. Ishida, T. Nakajima, 
 Y. Honda, O. Kitao, H. Nakai, T. Vreven, J. A. Montgomery, Jr., 
 J. E. Peralta, F. Ogliaro, M. Bearpark, J. J. Heyd, E. Brothers, 
 K. N. Kudin, V. N. Staroverov, T. Keith, R. Kobayashi, J. Normand, 
 K. Raghavachari, A. Rendell, J. C. Burant, S. S. Iyengar, J. Tomasi, 
 M. Cossi, N. Rega, J. M. Millam, M. Klene, J. E. Knox, J. B. Cross, 
 V. Bakken, C. Adamo, J. Jaramillo, R. Gomperts, R. E. Stratmann, 
 O. Yazyev, A. J. Austin, R. Cammi, C. Pomelli, J. W. Ochterski, 
 R. L. Martin, K. Morokuma, V. G. Zakrzewski, G. A. Voth, 
 P. Salvador, J. J. Dannenberg, S. Dapprich, A. D. Daniels, 
 O. Farkas, J. B. Foresman, J. V. Ortiz, J. Cioslowski, 
 and D. J. Fox, Gaussian, Inc., Wallingford CT, 2013.
 
 ******************************************
 Gaussian 09:  AS64L-G09RevD.01 24-Apr-2013
                12-Apr-2019 
 ******************************************
 %nproc=1
 Will use up to    1 processors via shared memory.
 %mem=1GB
 %chk=TMP_CALCS/scangeom_S02_220_120.chk
 --------------------------------------------------------------------
 #p hf 3-21g scf=tight NoSymmetry guess=read opt=(tight,modredundant)
 --------------------------------------------------------------------
 1/7=10,18=120,19=15,38=1/1,3;
 2/9=110,12=2,15=1,17=6,18=5,40=1/2;
 3/5=5,11=9,16=1,25=1,30=1,71=1,116=-2/1,2,3;
 4/5=1/1;
 5/5=2,32=2,38=6/2;
 6/7=2,8=2,9=2,10=2,28=1/1;
 7/30=1/1,2,3,16;
 1/7=10,18=20,19=15/3(2);
 2/9=110,15=1/2;
 99//99;
 2/9=110,15=1/2;
 3/5=5,11=9,16=1,25=1,30=1,71=1/1,2,3;
 4/5=5,16=3,69=1/1;
 5/5=2,32=2,38=5/2;
 7/30=1/1,2,3,16;
 1/7=10,18=20,19=15/3(-5);
 2/9=110,15=1/2;
 6/7=2,8=2,9=2,10=2,19=2,28=1/1;
 99/9=1/99;
 Leave Link    1 at Fri Apr 12 15:21:50 2019, MaxMem=   134217728 cpu:         0.1
 (Enter /cm/shared/c3ddb/gaussian/09.d01/g09/l101.exe)
 -----------------------------------
 Geometry optimization at the 2D-PES
 -----------------------------------
 Symbolic Z-matrix:
 Charge =  0 Multiplicity = 1
 C                     0.7238    0.63912   0.02012 
 C                     1.36675  -0.50017  -0.02434 
 H                     1.18221   1.6028    0.0667 
 H                     2.43594  -0.52297   0.0218 
 H                     0.84292  -1.43229  -0.08525 
 O                    -0.67827   0.66876   0.05734 
 O                    -1.08372   1.78119  -0.81379 
 H                    -1.61799   1.29703  -1.46591 
 
 The following ModRedundant input section has been read:
 D       2       1       6       7 F                                           
 D       1       6       7       8 F                                           
 
 NAtoms=      8 NQM=        8 NQMF=       0 NMMI=      0 NMMIF=      0
                NMic=       0 NMicF=      0.
                    Isotopes and Nuclear Properties:
 (Nuclear quadrupole moments (NQMom) in fm**2, nuclear magnetic moments (NMagM)
  in nuclear magnetons)

  Atom         1           2           3           4           5           6           7           8
 IAtWgt=          12          12           1           1           1          16          16           1
 AtmWgt=  12.0000000  12.0000000   1.0078250   1.0078250   1.0078250  15.9949146  15.9949146   1.0078250
 NucSpn=           0           0           1           1           1           0           0           1
 AtZEff=   0.0000000   0.0000000   0.0000000   0.0000000   0.0000000   0.0000000   0.0000000   0.0000000
 NQMom=    0.0000000   0.0000000   0.0000000   0.0000000   0.0000000   0.0000000   0.0000000   0.0000000
 NMagM=    0.0000000   0.0000000   2.7928460   2.7928460   2.7928460   0.0000000   0.0000000   2.7928460
 AtZNuc=   6.0000000   6.0000000   1.0000000   1.0000000   1.0000000   8.0000000   8.0000000   1.0000000
 Leave Link  101 at Fri Apr 12 15:21:51 2019, MaxMem=   134217728 cpu:         0.3
 (Enter /cm/shared/c3ddb/gaussian/09.d01/g09/l103.exe)

 GradGradGradGradGradGradGradGradGradGradGradGradGradGradGradGradGradGrad
 Berny optimization.
 Initialization pass.
                           ----------------------------
                           !    Initial Parameters    !
                           ! (Angstroms and Degrees)  !
 --------------------------                            --------------------------
 ! Name  Definition              Value          Derivative Info.                !
 --------------------------------------------------------------------------------
 ! R1    R(1,2)                  1.3089         estimate D2E/DX2                !
 ! R2    R(1,3)                  1.0682         estimate D2E/DX2                !
 ! R3    R(1,6)                  1.4029         estimate D2E/DX2                !
 ! R4    R(2,4)                  1.0704         estimate D2E/DX2                !
 ! R5    R(2,5)                  1.071          estimate D2E/DX2                !
 ! R6    R(6,7)                  1.47           estimate D2E/DX2                !
 ! R7    R(7,8)                  0.9722         estimate D2E/DX2                !
 ! A1    A(2,1,3)              125.1648         estimate D2E/DX2                !
 ! A2    A(2,1,6)              120.6775         estimate D2E/DX2                !
 ! A3    A(3,1,6)              114.1222         estimate D2E/DX2                !
 ! A4    A(1,2,4)              120.5109         estimate D2E/DX2                !
 ! A5    A(1,2,5)              121.2805         estimate D2E/DX2                !
 ! A6    A(4,2,5)              118.1946         estimate D2E/DX2                !
 ! A7    A(1,6,7)              106.0176         estimate D2E/DX2                !
 ! A8    A(6,7,8)               99.9169         estimate D2E/DX2                !
 ! D1    D(3,1,2,4)              2.3331         estimate D2E/DX2                !
 ! D2    D(3,1,2,5)           -179.0531         estimate D2E/DX2                !
 ! D3    D(6,1,2,4)           -175.3676         estimate D2E/DX2                !
 ! D4    D(6,1,2,5)              3.2462         estimate D2E/DX2                !
 ! D5    D(2,1,6,7)           -140.0            Frozen                          !
 ! D6    D(3,1,6,7)             42.0594         estimate D2E/DX2                !
 ! D7    D(1,6,7,8)            120.0            Frozen                          !
 --------------------------------------------------------------------------------
 Trust Radius=3.00D-01 FncErr=1.00D-07 GrdErr=1.00D-07
 Number of steps in this run=     32 maximum allowed number of steps=    100.
 GradGradGradGradGradGradGradGradGradGradGradGradGradGradGradGradGradGrad

 Leave Link  103 at Fri Apr 12 15:21:51 2019, MaxMem=   134217728 cpu:         0.0
 (Enter /cm/shared/c3ddb/gaussian/09.d01/g09/l202.exe)
                          Input orientation:                          
 ---------------------------------------------------------------------
 Center     Atomic      Atomic             Coordinates (Angstroms)
 Number     Number       Type             X           Y           Z
 ---------------------------------------------------------------------
      1          6           0        0.723801    0.639115    0.020124
      2          6           0        1.366745   -0.500170   -0.024339
      3          1           0        1.182211    1.602804    0.066702
      4          1           0        2.435941   -0.522972    0.021803
      5          1           0        0.842916   -1.432288   -0.085251
      6          8           0       -0.678273    0.668759    0.057341
      7          8           0       -1.083718    1.781189   -0.813793
      8          1           0       -1.617987    1.297032   -1.465913
 ---------------------------------------------------------------------
                    Distance matrix (angstroms):
                    1          2          3          4          5
     1  C    0.000000
     2  C    1.308940   0.000000
     3  H    1.068179   2.113017   0.000000
     4  H    2.069269   1.070434   2.468355   0.000000
     5  H    2.077499   1.070958   3.057776   1.837402   0.000000
     6  O    1.402881   2.356940   2.081809   3.334639   2.597835
     7  O    2.294967   3.439855   2.437525   4.288983   3.816953
     8  H    2.850462   3.770503   3.206792   4.686155   3.925743
                    6          7          8
     6  O    0.000000
     7  O    1.469953   0.000000
     8  H    1.896864   0.972169   0.000000
 Symmetry turned off by external request.
 Stoichiometry    C2H4O2
 Framework group  C1[X(C2H4O2)]
 Deg. of freedom    18
 Full point group                 C1      NOp   1
 Rotational constants (GHZ):     34.4619795      4.6653294      4.4216816
 Leave Link  202 at Fri Apr 12 15:21:51 2019, MaxMem=   134217728 cpu:         0.0
 (Enter /cm/shared/c3ddb/gaussian/09.d01/g09/l301.exe)
 Standard basis: 3-21G (6D, 7F)
 Ernie: Thresh=  0.10000D-02 Tol=  0.10000D-05 Strict=F.
    44 basis functions,    72 primitive gaussians,    44 cartesian basis functions
    16 alpha electrons       16 beta electrons
       nuclear repulsion energy       116.7934476657 Hartrees.
 IExCor=    0 DFT=F Ex=HF Corr=None ExCW=0 ScaHFX=  1.000000
 ScaDFX=  1.000000  1.000000  1.000000  1.000000 ScalE2=  1.000000  1.000000
 IRadAn=      0 IRanWt=     -1 IRanGd=            0 ICorTp=0 IEmpDi=  4
 NAtoms=    8 NActive=    8 NUniq=    8 SFac= 1.00D+00 NAtFMM=   60 NAOKFM=F Big=F
 Integral buffers will be    131072 words long.
 Raffenetti 1 integral format.
 Two-electron integral symmetry is turned off.
 Leave Link  301 at Fri Apr 12 15:21:51 2019, MaxMem=   134217728 cpu:         0.2
 (Enter /cm/shared/c3ddb/gaussian/09.d01/g09/l302.exe)
 NPDir=0 NMtPBC=     1 NCelOv=     1 NCel=       1 NClECP=     1 NCelD=      1
         NCelK=      1 NCelE2=     1 NClLst=     1 CellRange=     0.0.
 One-electron integrals computed using PRISM.
 NBasis=    44 RedAO= T EigKep=  1.15D-02  NBF=    44
 NBsUse=    44 1.00D-06 EigRej= -1.00D+00 NBFU=    44
 Leave Link  302 at Fri Apr 12 15:21:51 2019, MaxMem=   134217728 cpu:         0.2
 (Enter /cm/shared/c3ddb/gaussian/09.d01/g09/l303.exe)
 DipDrv:  MaxL=1.
 Leave Link  303 at Fri Apr 12 15:21:52 2019, MaxMem=   134217728 cpu:         0.1
 (Enter /cm/shared/c3ddb/gaussian/09.d01/g09/l401.exe)
 Initial guess from the checkpoint file:  "TMP_CALCS/scangeom_S02_220_120.chk"
 B after Tr=     0.005060   -0.004479   -0.013765
         Rot=    0.999981   -0.002765    0.005391   -0.000865 Ang=  -0.70 deg.
 Guess basis will be translated and rotated to current coordinates.
 JPrj=2 DoOrth=T DoCkMO=T.
 Leave Link  401 at Fri Apr 12 15:21:52 2019, MaxMem=   134217728 cpu:         0.4
 (Enter /cm/shared/c3ddb/gaussian/09.d01/g09/l502.exe)
 Closed shell SCF:
 Using DIIS extrapolation, IDIIS=  1040.
 Two-electron integral symmetry not used.
 Keep R1 ints in memory in canonical form, NReq=1327247.
 IVT=       24902 IEndB=       24902 NGot=   134217728 MDV=   133702282
 LenX=   133702282 LenY=   133699905
 Requested convergence on RMS density matrix=1.00D-08 within 128 cycles.
 Requested convergence on MAX density matrix=1.00D-06.
 Requested convergence on             energy=1.00D-06.
 No special actions if energy rises.
 FoFCou: FMM=F IPFlag=           0 FMFlag=           0 FMFlg1=           0
         NFxFlg=           0 DoJE=F BraDBF=F KetDBF=F FulRan=T
         wScrn=  0.000000 ICntrl=     600 IOpCl=  0 I1Cent=           0 NGrid=           0
         NMat0=    1 NMatS0=    990 NMatT0=    0 NMatD0=    1 NMtDS0=    0 NMtDT0=    0
 Symmetry not used in FoFCou.

 Cycle   1  Pass 1  IDiag  1:
 E= -226.391914393202    
 DIIS: error= 6.99D-03 at cycle   1 NSaved=   1.
 NSaved= 1 IEnMin= 1 EnMin= -226.391914393202     IErMin= 1 ErrMin= 6.99D-03
 ErrMax= 6.99D-03  0.00D+00 EMaxC= 1.00D-01 BMatC= 1.81D-03 BMatP= 1.81D-03
 IDIUse=3 WtCom= 9.30D-01 WtEn= 6.99D-02
 Coeff-Com:  0.100D+01
 Coeff-En:   0.100D+01
 Coeff:      0.100D+01
 Gap=     0.548 Goal=   None    Shift=    0.000
 GapD=    0.548 DampG=2.000 DampE=1.000 DampFc=2.0000 IDamp=-1.
 RMSDP=1.10D-03 MaxDP=1.30D-02              OVMax= 1.45D-02

 Cycle   2  Pass 1  IDiag  1:
 E= -226.394754311419     Delta-E=       -0.002839918217 Rises=F Damp=F
 DIIS: error= 3.09D-03 at cycle   2 NSaved=   2.
 NSaved= 2 IEnMin= 2 EnMin= -226.394754311419     IErMin= 2 ErrMin= 3.09D-03
 ErrMax= 3.09D-03  0.00D+00 EMaxC= 1.00D-01 BMatC= 1.79D-04 BMatP= 1.81D-03
 IDIUse=3 WtCom= 9.69D-01 WtEn= 3.09D-02
 Coeff-Com: -0.334D+00 0.133D+01
 Coeff-En:   0.000D+00 0.100D+01
 Coeff:     -0.323D+00 0.132D+01
 Gap=     0.547 Goal=   None    Shift=    0.000
 RMSDP=5.82D-04 MaxDP=5.28D-03 DE=-2.84D-03 OVMax= 1.01D-02

 Cycle   3  Pass 1  IDiag  1:
 E= -226.395229997762     Delta-E=       -0.000475686343 Rises=F Damp=F
 DIIS: error= 9.95D-04 at cycle   3 NSaved=   3.
 NSaved= 3 IEnMin= 3 EnMin= -226.395229997762     IErMin= 3 ErrMin= 9.95D-04
 ErrMax= 9.95D-04  0.00D+00 EMaxC= 1.00D-01 BMatC= 1.56D-05 BMatP= 1.79D-04
 IDIUse=3 WtCom= 9.90D-01 WtEn= 9.95D-03
 Coeff-Com:  0.518D-01-0.357D+00 0.131D+01
 Coeff-En:   0.000D+00 0.000D+00 0.100D+01
 Coeff:      0.513D-01-0.354D+00 0.130D+01
 Gap=     0.547 Goal=   None    Shift=    0.000
 RMSDP=2.23D-04 MaxDP=2.95D-03 DE=-4.76D-04 OVMax= 4.29D-03

 Cycle   4  Pass 1  IDiag  1:
 E= -226.395281374743     Delta-E=       -0.000051376980 Rises=F Damp=F
 DIIS: error= 2.59D-04 at cycle   4 NSaved=   4.
 NSaved= 4 IEnMin= 4 EnMin= -226.395281374743     IErMin= 4 ErrMin= 2.59D-04
 ErrMax= 2.59D-04  0.00D+00 EMaxC= 1.00D-01 BMatC= 2.75D-06 BMatP= 1.56D-05
 IDIUse=3 WtCom= 9.97D-01 WtEn= 2.59D-03
 Coeff-Com:  0.694D-01-0.308D+00 0.261D+00 0.978D+00
 Coeff-En:   0.000D+00 0.000D+00 0.000D+00 0.100D+01
 Coeff:      0.692D-01-0.308D+00 0.261D+00 0.978D+00
 Gap=     0.547 Goal=   None    Shift=    0.000
 RMSDP=8.87D-05 MaxDP=1.27D-03 DE=-5.14D-05 OVMax= 1.62D-03

 Cycle   5  Pass 1  IDiag  1:
 E= -226.395287620262     Delta-E=       -0.000006245519 Rises=F Damp=F
 DIIS: error= 4.74D-05 at cycle   5 NSaved=   5.
 NSaved= 5 IEnMin= 5 EnMin= -226.395287620262     IErMin= 5 ErrMin= 4.74D-05
 ErrMax= 4.74D-05  0.00D+00 EMaxC= 1.00D-01 BMatC= 1.50D-07 BMatP= 2.75D-06
 IDIUse=1 WtCom= 1.00D+00 WtEn= 0.00D+00
 Coeff-Com:  0.456D-02-0.106D-01-0.682D-01 0.143D+00 0.931D+00
 Coeff:      0.456D-02-0.106D-01-0.682D-01 0.143D+00 0.931D+00
 Gap=     0.547 Goal=   None    Shift=    0.000
 RMSDP=1.48D-05 MaxDP=1.73D-04 DE=-6.25D-06 OVMax= 2.60D-04

 Cycle   6  Pass 1  IDiag  1:
 E= -226.395287862495     Delta-E=       -0.000000242233 Rises=F Damp=F
 DIIS: error= 2.57D-05 at cycle   6 NSaved=   6.
 NSaved= 6 IEnMin= 6 EnMin= -226.395287862495     IErMin= 6 ErrMin= 2.57D-05
 ErrMax= 2.57D-05  0.00D+00 EMaxC= 1.00D-01 BMatC= 2.49D-08 BMatP= 1.50D-07
 IDIUse=1 WtCom= 1.00D+00 WtEn= 0.00D+00
 Coeff-Com: -0.505D-02 0.256D-01-0.448D-01-0.469D-01 0.265D+00 0.806D+00
 Coeff:     -0.505D-02 0.256D-01-0.448D-01-0.469D-01 0.265D+00 0.806D+00
 Gap=     0.547 Goal=   None    Shift=    0.000
 RMSDP=4.32D-06 MaxDP=2.84D-05 DE=-2.42D-07 OVMax= 8.56D-05

 Cycle   7  Pass 1  IDiag  1:
 E= -226.395287904383     Delta-E=       -0.000000041889 Rises=F Damp=F
 DIIS: error= 1.56D-05 at cycle   7 NSaved=   7.
 NSaved= 7 IEnMin= 7 EnMin= -226.395287904383     IErMin= 7 ErrMin= 1.56D-05
 ErrMax= 1.56D-05  0.00D+00 EMaxC= 1.00D-01 BMatC= 3.78D-09 BMatP= 2.49D-08
 IDIUse=1 WtCom= 1.00D+00 WtEn= 0.00D+00
 Coeff-Com:  0.253D-02-0.148D-01 0.395D-01 0.619D-02-0.320D+00-0.539D+00
 Coeff-Com:  0.183D+01
 Coeff:      0.253D-02-0.148D-01 0.395D-01 0.619D-02-0.320D+00-0.539D+00
 Coeff:      0.183D+01
 Gap=     0.547 Goal=   None    Shift=    0.000
 RMSDP=4.83D-06 MaxDP=3.32D-05 DE=-4.19D-08 OVMax= 1.12D-04

 Cycle   8  Pass 1  IDiag  1:
 E= -226.395287924885     Delta-E=       -0.000000020502 Rises=F Damp=F
 DIIS: error= 4.80D-06 at cycle   8 NSaved=   8.
 NSaved= 8 IEnMin= 8 EnMin= -226.395287924885     IErMin= 8 ErrMin= 4.80D-06
 ErrMax= 4.80D-06  0.00D+00 EMaxC= 1.00D-01 BMatC= 2.73D-10 BMatP= 3.78D-09
 IDIUse=1 WtCom= 1.00D+00 WtEn= 0.00D+00
 Coeff-Com: -0.346D-03 0.241D-02-0.829D-02 0.197D-02 0.773D-01 0.977D-01
 Coeff-Com: -0.607D+00 0.144D+01
 Coeff:     -0.346D-03 0.241D-02-0.829D-02 0.197D-02 0.773D-01 0.977D-01
 Coeff:     -0.607D+00 0.144D+01
 Gap=     0.547 Goal=   None    Shift=    0.000
 RMSDP=1.45D-06 MaxDP=9.36D-06 DE=-2.05D-08 OVMax= 3.50D-05

 Cycle   9  Pass 1  IDiag  1:
 E= -226.395287926456     Delta-E=       -0.000000001571 Rises=F Damp=F
 DIIS: error= 1.40D-06 at cycle   9 NSaved=   9.
 NSaved= 9 IEnMin= 9 EnMin= -226.395287926456     IErMin= 9 ErrMin= 1.40D-06
 ErrMax= 1.40D-06  0.00D+00 EMaxC= 1.00D-01 BMatC= 3.06D-11 BMatP= 2.73D-10
 IDIUse=1 WtCom= 1.00D+00 WtEn= 0.00D+00
 Coeff-Com: -0.247D-03 0.144D-02-0.367D-02-0.107D-02 0.307D-01 0.539D-01
 Coeff-Com: -0.181D+00-0.187D-01 0.112D+01
 Coeff:     -0.247D-03 0.144D-02-0.367D-02-0.107D-02 0.307D-01 0.539D-01
 Coeff:     -0.181D+00-0.187D-01 0.112D+01
 Gap=     0.547 Goal=   None    Shift=    0.000
 RMSDP=3.73D-07 MaxDP=2.13D-06 DE=-1.57D-09 OVMax= 8.78D-06

 Cycle  10  Pass 1  IDiag  1:
 E= -226.395287926581     Delta-E=       -0.000000000125 Rises=F Damp=F
 DIIS: error= 4.71D-07 at cycle  10 NSaved=  10.
 NSaved=10 IEnMin=10 EnMin= -226.395287926581     IErMin=10 ErrMin= 4.71D-07
 ErrMax= 4.71D-07  0.00D+00 EMaxC= 1.00D-01 BMatC= 5.45D-12 BMatP= 3.06D-11
 IDIUse=1 WtCom= 1.00D+00 WtEn= 0.00D+00
 Coeff-Com:  0.885D-04-0.578D-03 0.184D-02-0.341D-03-0.164D-01-0.225D-01
 Coeff-Com:  0.126D+00-0.250D+00-0.453D-01 0.121D+01
 Coeff:      0.885D-04-0.578D-03 0.184D-02-0.341D-03-0.164D-01-0.225D-01
 Coeff:      0.126D+00-0.250D+00-0.453D-01 0.121D+01
 Gap=     0.547 Goal=   None    Shift=    0.000
 RMSDP=1.39D-07 MaxDP=1.03D-06 DE=-1.25D-10 OVMax= 2.72D-06

 Cycle  11  Pass 1  IDiag  1:
 E= -226.395287926601     Delta-E=       -0.000000000020 Rises=F Damp=F
 DIIS: error= 1.72D-07 at cycle  11 NSaved=  11.
 NSaved=11 IEnMin=11 EnMin= -226.395287926601     IErMin=11 ErrMin= 1.72D-07
 ErrMax= 1.72D-07  0.00D+00 EMaxC= 1.00D-01 BMatC= 6.95D-13 BMatP= 5.45D-12
 IDIUse=1 WtCom= 1.00D+00 WtEn= 0.00D+00
 Coeff-Com:  0.329D-04-0.196D-03 0.515D-03 0.114D-03-0.435D-02-0.796D-02
 Coeff-Com:  0.280D-01-0.909D-02-0.131D+00 0.543D-01 0.107D+01
 Coeff:      0.329D-04-0.196D-03 0.515D-03 0.114D-03-0.435D-02-0.796D-02
 Coeff:      0.280D-01-0.909D-02-0.131D+00 0.543D-01 0.107D+01
 Gap=     0.547 Goal=   None    Shift=    0.000
 RMSDP=4.33D-08 MaxDP=3.80D-07 DE=-1.98D-11 OVMax= 8.42D-07

 Cycle  12  Pass 1  IDiag  1:
 E= -226.395287926604     Delta-E=       -0.000000000003 Rises=F Damp=F
 DIIS: error= 7.08D-08 at cycle  12 NSaved=  12.
 NSaved=12 IEnMin=12 EnMin= -226.395287926604     IErMin=12 ErrMin= 7.08D-08
 ErrMax= 7.08D-08  0.00D+00 EMaxC= 1.00D-01 BMatC= 1.29D-13 BMatP= 6.95D-13
 IDIUse=1 WtCom= 1.00D+00 WtEn= 0.00D+00
 Coeff-Com: -0.241D-04 0.153D-03-0.467D-03 0.559D-04 0.411D-02 0.587D-02
 Coeff-Com: -0.305D-01 0.530D-01 0.302D-01-0.269D+00-0.123D+00 0.133D+01
 Coeff:     -0.241D-04 0.153D-03-0.467D-03 0.559D-04 0.411D-02 0.587D-02
 Coeff:     -0.305D-01 0.530D-01 0.302D-01-0.269D+00-0.123D+00 0.133D+01
 Gap=     0.547 Goal=   None    Shift=    0.000
 RMSDP=2.57D-08 MaxDP=2.13D-07 DE=-2.61D-12 OVMax= 4.18D-07

 Cycle  13  Pass 1  IDiag  1:
 E= -226.395287926604     Delta-E=       -0.000000000001 Rises=F Damp=F
 DIIS: error= 2.12D-08 at cycle  13 NSaved=  13.
 NSaved=13 IEnMin=13 EnMin= -226.395287926604     IErMin=13 ErrMin= 2.12D-08
 ErrMax= 2.12D-08  0.00D+00 EMaxC= 1.00D-01 BMatC= 8.58D-15 BMatP= 1.29D-13
 IDIUse=1 WtCom= 1.00D+00 WtEn= 0.00D+00
 Coeff-Com:  0.579D-05-0.375D-04 0.119D-03-0.232D-04-0.111D-02-0.128D-02
 Coeff-Com:  0.831D-02-0.190D-01 0.288D-02 0.899D-01-0.522D-01-0.489D+00
 Coeff-Com:  0.146D+01
 Coeff:      0.579D-05-0.375D-04 0.119D-03-0.232D-04-0.111D-02-0.128D-02
 Coeff:      0.831D-02-0.190D-01 0.288D-02 0.899D-01-0.522D-01-0.489D+00
 Coeff:      0.146D+01
 Gap=     0.547 Goal=   None    Shift=    0.000
 RMSDP=7.42D-09 MaxDP=6.40D-08 DE=-7.96D-13 OVMax= 1.18D-07

 SCF Done:  E(RHF) =  -226.395287927     A.U. after   13 cycles
            NFock= 13  Conv=0.74D-08     -V/T= 2.0034
 KE= 2.256213769347D+02 PE=-7.669401709737D+02 EE= 1.981300584468D+02
 Leave Link  502 at Fri Apr 12 15:21:53 2019, MaxMem=   134217728 cpu:         0.3
 (Enter /cm/shared/c3ddb/gaussian/09.d01/g09/l601.exe)
 Copying SCF densities to generalized density rwf, IOpCl= 0 IROHF=0.

 **********************************************************************

            Population analysis using the SCF density.

 **********************************************************************

 Alpha  occ. eigenvalues --  -20.53396 -20.52438 -11.24246 -11.17164  -1.47451
 Alpha  occ. eigenvalues --   -1.23790  -1.03109  -0.79752  -0.71524  -0.66407
 Alpha  occ. eigenvalues --   -0.62576  -0.61393  -0.55573  -0.49090  -0.47781
 Alpha  occ. eigenvalues --   -0.37245
 Alpha virt. eigenvalues --    0.17450   0.24715   0.27852   0.31487   0.33134
 Alpha virt. eigenvalues --    0.35870   0.49460   0.57131   0.89832   0.96871
 Alpha virt. eigenvalues --    0.99658   1.06746   1.10514   1.12665   1.22168
 Alpha virt. eigenvalues --    1.32307   1.37244   1.57819   1.59621   1.73848
 Alpha virt. eigenvalues --    1.82546   1.90415   1.97201   2.01553   2.05603
 Alpha virt. eigenvalues --    2.23610   3.07992   3.47689
          Condensed to atoms (all electrons):
               1          2          3          4          5          6
     1  C    4.869616   0.515501   0.370542  -0.044452  -0.050845   0.216572
     2  C    0.515501   5.313136  -0.051934   0.380504   0.388833  -0.054303
     3  H    0.370542  -0.051934   0.458244   0.000258   0.002250  -0.037095
     4  H   -0.044452   0.380504   0.000258   0.449515  -0.015253   0.001437
     5  H   -0.050845   0.388833   0.002250  -0.015253   0.437043  -0.000381
     6  O    0.216572  -0.054303  -0.037095   0.001437  -0.000381   8.190080
     7  O   -0.031364   0.001789   0.002336  -0.000034  -0.000013   0.116358
     8  H    0.001245  -0.000059  -0.000168   0.000002   0.000005  -0.023089
               7          8
     1  C   -0.031364   0.001245
     2  C    0.001789  -0.000059
     3  H    0.002336  -0.000168
     4  H   -0.000034   0.000002
     5  H   -0.000013   0.000005
     6  O    0.116358  -0.023089
     7  O    8.055896   0.243031
     8  H    0.243031   0.363123
 Mulliken charges:
               1
     1  C    0.153185
     2  C   -0.493466
     3  H    0.255566
     4  H    0.228022
     5  H    0.238363
     6  O   -0.409579
     7  O   -0.387999
     8  H    0.415909
 Sum of Mulliken charges =   0.00000
 Mulliken charges with hydrogens summed into heavy atoms:
               1
     1  C    0.408751
     2  C   -0.027081
     6  O   -0.409579
     7  O    0.027910
 Electronic spatial extent (au):  <R**2>=            353.8450
 Charge=              0.0000 electrons
 Dipole moment (field-independent basis, Debye):
    X=              0.7116    Y=             -0.8038    Z=             -1.5595  Tot=              1.8933
 Quadrupole moment (field-independent basis, Debye-Ang):
   XX=            -19.9776   YY=            -25.0260   ZZ=            -22.3428
   XY=              0.9667   XZ=              3.7563   YZ=             -0.9074
 Traceless Quadrupole moment (field-independent basis, Debye-Ang):
   XX=              2.4712   YY=             -2.5772   ZZ=              0.1060
   XY=              0.9667   XZ=              3.7563   YZ=             -0.9074
 Octapole moment (field-independent basis, Debye-Ang**2):
  XXX=            -12.5436  YYY=            -49.5905  ZZZ=              8.5721  XYY=              0.6196
  XXY=            -11.7547  XXZ=             -1.5558  XZZ=            -12.3856  YZZ=            -10.4692
  YYZ=              5.1737  XYZ=              3.7644
 Hexadecapole moment (field-independent basis, Debye-Ang**3):
 XXXX=           -160.6418 YYYY=           -191.7334 ZZZZ=            -39.2900 XXXY=             39.0843
 XXXZ=             -4.0170 YYYX=             56.3040 YYYZ=             28.2350 ZZZX=             -5.9239
 ZZZY=             17.2164 XXYY=            -58.5870 XXZZ=            -31.4494 YYZZ=            -35.0691
 XXYZ=              0.7009 YYXZ=             -2.1964 ZZXY=              8.2440
 N-N= 1.167934476657D+02 E-N=-7.669401711082D+02  KE= 2.256213769347D+02
 No NMR shielding tensors so no spin-rotation constants.
 Leave Link  601 at Fri Apr 12 15:21:53 2019, MaxMem=   134217728 cpu:         0.2
 (Enter /cm/shared/c3ddb/gaussian/09.d01/g09/l701.exe)
 Compute integral first derivatives.
 ... and contract with generalized density number  0.
 Leave Link  701 at Fri Apr 12 15:21:53 2019, MaxMem=   134217728 cpu:         0.2
 (Enter /cm/shared/c3ddb/gaussian/09.d01/g09/l702.exe)
 L702 exits ... SP integral derivatives will be done elsewhere.
 Leave Link  702 at Fri Apr 12 15:21:53 2019, MaxMem=   134217728 cpu:         0.1
 (Enter /cm/shared/c3ddb/gaussian/09.d01/g09/l703.exe)
 Compute integral first derivatives, UseDBF=F ICtDFT=           0.
 Integral derivatives from FoFJK, PRISM(SPDF).
 Calling FoFJK, ICntrl=      2127 FMM=F ISym2X=0 I1Cent= 0 IOpClX= 0 NMat=1 NMatS=1 NMatT=0.
 FoFJK:  IHMeth= 1 ICntrl=    2127 DoSepK=F KAlg= 0 I1Cent=   0 FoldK=F
 IRaf=         0 NMat=   1 IRICut=       1 DoRegI=T DoRafI=F ISym2E= 0.
 FoFCou: FMM=F IPFlag=           0 FMFlag=      100000 FMFlg1=         800
         NFxFlg=           0 DoJE=F BraDBF=F KetDBF=F FulRan=T
         wScrn=  0.000000 ICntrl=    2127 IOpCl=  0 I1Cent=           0 NGrid=           0
         NMat0=    1 NMatS0=      1 NMatT0=    0 NMatD0=    1 NMtDS0=    0 NMtDT0=    0
 Symmetry not used in FoFCou.
 Leave Link  703 at Fri Apr 12 15:21:54 2019, MaxMem=   134217728 cpu:         0.2
 (Enter /cm/shared/c3ddb/gaussian/09.d01/g09/l716.exe)
 Dipole        = 2.79947536D-01-3.16247629D-01-6.13555095D-01
 -------------------------------------------------------------------
 Center     Atomic                   Forces (Hartrees/Bohr)
 Number     Number              X              Y              Z
 -------------------------------------------------------------------
      1        6           0.000864331    0.000217525   -0.000191800
      2        6           0.000065689   -0.000070535    0.000593771
      3        1          -0.000035773   -0.000051435    0.000074667
      4        1           0.000013116   -0.000015728   -0.000060416
      5        1          -0.000006538   -0.000058502    0.000104077
      6        8          -0.000398555    0.000310413   -0.001012303
      7        8           0.000416328   -0.000918104    0.000761931
      8        1          -0.000918597    0.000586367   -0.000269926
 -------------------------------------------------------------------
 Cartesian Forces:  Max     0.001012303 RMS     0.000472500
 Leave Link  716 at Fri Apr 12 15:21:54 2019, MaxMem=   134217728 cpu:         0.1
 (Enter /cm/shared/c3ddb/gaussian/09.d01/g09/l103.exe)

 GradGradGradGradGradGradGradGradGradGradGradGradGradGradGradGradGradGrad
 Berny optimization.
 FormGI is forming the generalized inverse of G from B-inverse, IUseBI=4.
 Internal  Forces:  Max     0.001471956 RMS     0.000589760
 Search for a local minimum.
 Step number   1 out of a maximum of   32
 All quantities printed in internal units (Hartrees-Bohrs-Radians)
 RMS Force = .49295D-03 SwitMx=.10000D-02 MixMth= 2
 Mixed Optimization -- En-DIIS/RFO-DIIS
 Second derivative matrix not updated -- first step.
 ITU=  0
     Eigenvalues ---    0.02566   0.03293   0.03295   0.15994   0.16000
     Eigenvalues ---    0.16000   0.16000   0.22001   0.25000   0.35746
     Eigenvalues ---    0.37109   0.37175   0.37461   0.45146   0.52936
     Eigenvalues ---    0.647701000.000001000.000001000.000001000.00000
     Eigenvalues --- 1000.000001000.00000
 RFO step:  Lambda=-2.29377370D-05 EMin= 2.56615878D-02
 Linear search not attempted -- first point.
 Iteration  1 RMS(Cart)=  0.00437700 RMS(Int)=  0.00001376
 Iteration  2 RMS(Cart)=  0.00001243 RMS(Int)=  0.00000008
 Iteration  3 RMS(Cart)=  0.00000000 RMS(Int)=  0.00000008
 Iteration  1 RMS(Cart)=  0.00000000 RMS(Int)=  0.00000000
 ITry= 1 IFail=0 DXMaxC= 1.05D-02 DCOld= 1.00D+10 DXMaxT= 3.00D-01 DXLimC= 3.00D+00 Rises=F
 Variable       Old X    -DE/DX   Delta X   Delta X   Delta X     New X
                                 (Linear)    (Quad)   (Total)
    R1        2.47354   0.00014   0.00000   0.00022   0.00022   2.47375
    R2        2.01857  -0.00006   0.00000  -0.00016  -0.00016   2.01841
    R3        2.65106   0.00089   0.00000   0.00196   0.00196   2.65302
    R4        2.02283   0.00001   0.00000   0.00003   0.00003   2.02286
    R5        2.02382   0.00005   0.00000   0.00013   0.00013   2.02395
    R6        2.77781  -0.00040   0.00000  -0.00113  -0.00113   2.77668
    R7        1.83713   0.00039   0.00000   0.00074   0.00074   1.83788
    A1        2.18454   0.00000   0.00000   0.00010   0.00010   2.18464
    A2        2.10622  -0.00001   0.00000  -0.00005  -0.00005   2.10617
    A3        1.99181   0.00000   0.00000  -0.00004  -0.00004   1.99177
    A4        2.10331   0.00001   0.00000   0.00006   0.00006   2.10337
    A5        2.11674   0.00002   0.00000   0.00010   0.00010   2.11684
    A6        2.06289  -0.00003   0.00000  -0.00018  -0.00018   2.06270
    A7        1.85036   0.00124   0.00000   0.00496   0.00496   1.85532
    A8        1.74388   0.00147   0.00000   0.00920   0.00920   1.75308
    D1        0.04072  -0.00027   0.00000  -0.00140  -0.00140   0.03932
    D2       -3.12507  -0.00031   0.00000  -0.00261  -0.00261  -3.12768
    D3       -3.06074   0.00017   0.00000  -0.00178  -0.00178  -3.06252
    D4        0.05666   0.00013   0.00000  -0.00299  -0.00299   0.05367
    D5       -2.44346  -0.00091   0.00000   0.00000   0.00000  -2.44346
    D6        0.73408  -0.00051   0.00000  -0.00034  -0.00034   0.73373
    D7        2.09440   0.00123   0.00000   0.00000   0.00000   2.09440
         Item               Value     Threshold  Converged?
 Maximum Force            0.001472     0.000015     NO 
 RMS     Force            0.000493     0.000010     NO 
 Maximum Displacement     0.010533     0.000060     NO 
 RMS     Displacement     0.004374     0.000040     NO 
 Predicted change in Energy=-1.146886D-05
 Lowest energy point so far.  Saving SCF results.
 GradGradGradGradGradGradGradGradGradGradGradGradGradGradGradGradGradGrad

 Leave Link  103 at Fri Apr 12 15:21:54 2019, MaxMem=   134217728 cpu:         0.0
 (Enter /cm/shared/c3ddb/gaussian/09.d01/g09/l202.exe)
                          Input orientation:                          
 ---------------------------------------------------------------------
 Center     Atomic      Atomic             Coordinates (Angstroms)
 Number     Number       Type             X           Y           Z
 ---------------------------------------------------------------------
      1          6           0        0.725828    0.638678    0.020503
      2          6           0        1.368384   -0.500966   -0.023728
      3          1           0        1.184472    1.602124    0.067915
      4          1           0        2.437594   -0.524228    0.022219
      5          1           0        0.844221   -1.433072   -0.083149
      6          8           0       -0.677322    0.668874    0.055850
      7          8           0       -1.087980    1.780064   -0.813413
      8          1           0       -1.623561    1.301995   -1.469523
 ---------------------------------------------------------------------
                    Distance matrix (angstroms):
                    1          2          3          4          5
     1  C    0.000000
     2  C    1.309054   0.000000
     3  H    1.068096   2.113104   0.000000
     4  H    2.069419   1.070449   2.468557   0.000000
     5  H    2.077717   1.071027   3.057941   1.837372   0.000000
     6  O    1.403920   2.357916   2.082637   3.335764   2.598574
     7  O    2.299583   3.443897   2.443858   4.293916   3.819807
     8  H    2.860035   3.780573   3.215407   4.696101   3.936060
                    6          7          8
     6  O    0.000000
     7  O    1.469354   0.000000
     8  H    1.903411   0.972562   0.000000
 Symmetry turned off by external request.
 Stoichiometry    C2H4O2
 Framework group  C1[X(C2H4O2)]
 Deg. of freedom    18
 Full point group                 C1      NOp   1
 Rotational constants (GHZ):     34.5727459      4.6532460      4.4121145
 Leave Link  202 at Fri Apr 12 15:21:54 2019, MaxMem=   134217728 cpu:         0.0
 (Enter /cm/shared/c3ddb/gaussian/09.d01/g09/l301.exe)
 Standard basis: 3-21G (6D, 7F)
 Ernie: Thresh=  0.10000D-02 Tol=  0.10000D-05 Strict=F.
    44 basis functions,    72 primitive gaussians,    44 cartesian basis functions
    16 alpha electrons       16 beta electrons
       nuclear repulsion energy       116.7278543451 Hartrees.
 IExCor=    0 DFT=F Ex=HF Corr=None ExCW=0 ScaHFX=  1.000000
 ScaDFX=  1.000000  1.000000  1.000000  1.000000 ScalE2=  1.000000  1.000000
 IRadAn=      0 IRanWt=     -1 IRanGd=            0 ICorTp=0 IEmpDi=  4
 NAtoms=    8 NActive=    8 NUniq=    8 SFac= 1.00D+00 NAtFMM=   60 NAOKFM=F Big=F
 Integral buffers will be    131072 words long.
 Raffenetti 1 integral format.
 Two-electron integral symmetry is turned off.
 Leave Link  301 at Fri Apr 12 15:21:54 2019, MaxMem=   134217728 cpu:         0.2
 (Enter /cm/shared/c3ddb/gaussian/09.d01/g09/l302.exe)
 NPDir=0 NMtPBC=     1 NCelOv=     1 NCel=       1 NClECP=     1 NCelD=      1
         NCelK=      1 NCelE2=     1 NClLst=     1 CellRange=     0.0.
 One-electron integrals computed using PRISM.
 NBasis=    44 RedAO= T EigKep=  1.16D-02  NBF=    44
 NBsUse=    44 1.00D-06 EigRej= -1.00D+00 NBFU=    44
 Leave Link  302 at Fri Apr 12 15:21:54 2019, MaxMem=   134217728 cpu:         0.2
 (Enter /cm/shared/c3ddb/gaussian/09.d01/g09/l303.exe)
 DipDrv:  MaxL=1.
 Leave Link  303 at Fri Apr 12 15:21:54 2019, MaxMem=   134217728 cpu:         0.1
 (Enter /cm/shared/c3ddb/gaussian/09.d01/g09/l401.exe)
 Initial guess from the checkpoint file:  "TMP_CALCS/scangeom_S02_220_120.chk"
 B after Tr=     0.000655   -0.000763    0.000045
         Rot=    1.000000    0.000076   -0.000140   -0.000324 Ang=   0.04 deg.
 Guess basis will be translated and rotated to current coordinates.
 JPrj=2 DoOrth=T DoCkMO=T.
 Leave Link  401 at Fri Apr 12 15:21:55 2019, MaxMem=   134217728 cpu:         0.3
 (Enter /cm/shared/c3ddb/gaussian/09.d01/g09/l502.exe)
 Closed shell SCF:
 Using DIIS extrapolation, IDIIS=  1040.
 Two-electron integral symmetry not used.
 Keep R1 ints in memory in canonical form, NReq=1327232.
 IVT=       24902 IEndB=       24902 NGot=   134217728 MDV=   133702282
 LenX=   133702282 LenY=   133699905
 Requested convergence on RMS density matrix=1.00D-08 within 128 cycles.
 Requested convergence on MAX density matrix=1.00D-06.
 Requested convergence on             energy=1.00D-06.
 No special actions if energy rises.
 FoFCou: FMM=F IPFlag=           0 FMFlag=           0 FMFlg1=           0
         NFxFlg=           0 DoJE=F BraDBF=F KetDBF=F FulRan=T
         wScrn=  0.000000 ICntrl=     600 IOpCl=  0 I1Cent=           0 NGrid=           0
         NMat0=    1 NMatS0=    990 NMatT0=    0 NMatD0=    1 NMtDS0=    0 NMtDT0=    0
 Symmetry not used in FoFCou.

 Cycle   1  Pass 1  IDiag  1:
 E= -226.395282012146    
 DIIS: error= 2.69D-04 at cycle   1 NSaved=   1.
 NSaved= 1 IEnMin= 1 EnMin= -226.395282012146     IErMin= 1 ErrMin= 2.69D-04
 ErrMax= 2.69D-04  0.00D+00 EMaxC= 1.00D-01 BMatC= 8.05D-06 BMatP= 8.05D-06
 IDIUse=3 WtCom= 9.97D-01 WtEn= 2.69D-03
 Coeff-Com:  0.100D+01
 Coeff-En:   0.100D+01
 Coeff:      0.100D+01
 Gap=     0.952 Goal=   None    Shift=    0.000
 RMSDP=6.57D-05 MaxDP=4.91D-04              OVMax= 5.15D-04

 Cycle   2  Pass 1  IDiag  1:
 E= -226.395291797021     Delta-E=       -0.000009784875 Rises=F Damp=F
 DIIS: error= 1.20D-04 at cycle   2 NSaved=   2.
 NSaved= 2 IEnMin= 2 EnMin= -226.395291797021     IErMin= 2 ErrMin= 1.20D-04
 ErrMax= 1.20D-04  0.00D+00 EMaxC= 1.00D-01 BMatC= 5.27D-07 BMatP= 8.05D-06
 IDIUse=3 WtCom= 9.99D-01 WtEn= 1.20D-03
 Coeff-Com: -0.175D+00 0.117D+01
 Coeff-En:   0.000D+00 0.100D+01
 Coeff:     -0.175D+00 0.117D+01
 Gap=     0.547 Goal=   None    Shift=    0.000
 RMSDP=2.77D-05 MaxDP=1.63D-04 DE=-9.78D-06 OVMax= 4.40D-04

 Cycle   3  Pass 1  IDiag  1:
 E= -226.395293268289     Delta-E=       -0.000001471268 Rises=F Damp=F
 DIIS: error= 6.30D-05 at cycle   3 NSaved=   3.
 NSaved= 3 IEnMin= 3 EnMin= -226.395293268289     IErMin= 3 ErrMin= 6.30D-05
 ErrMax= 6.30D-05  0.00D+00 EMaxC= 1.00D-01 BMatC= 8.52D-08 BMatP= 5.27D-07
 IDIUse=1 WtCom= 1.00D+00 WtEn= 0.00D+00
 Coeff-Com: -0.735D-02-0.178D+00 0.119D+01
 Coeff:     -0.735D-02-0.178D+00 0.119D+01
 Gap=     0.547 Goal=   None    Shift=    0.000
 RMSDP=1.30D-05 MaxDP=8.25D-05 DE=-1.47D-06 OVMax= 2.66D-04

 Cycle   4  Pass 1  IDiag  1:
 E= -226.395293559322     Delta-E=       -0.000000291032 Rises=F Damp=F
 DIIS: error= 4.01D-05 at cycle   4 NSaved=   4.
 NSaved= 4 IEnMin= 4 EnMin= -226.395293559322     IErMin= 4 ErrMin= 4.01D-05
 ErrMax= 4.01D-05  0.00D+00 EMaxC= 1.00D-01 BMatC= 2.54D-08 BMatP= 8.52D-08
 IDIUse=1 WtCom= 1.00D+00 WtEn= 0.00D+00
 Coeff-Com:  0.319D-01-0.262D+00 0.219D+00 0.101D+01
 Coeff:      0.319D-01-0.262D+00 0.219D+00 0.101D+01
 Gap=     0.547 Goal=   None    Shift=    0.000
 RMSDP=7.55D-06 MaxDP=5.31D-05 DE=-2.91D-07 OVMax= 1.80D-04

 Cycle   5  Pass 1  IDiag  1:
 E= -226.395293643256     Delta-E=       -0.000000083935 Rises=F Damp=F
 DIIS: error= 1.94D-05 at cycle   5 NSaved=   5.
 NSaved= 5 IEnMin= 5 EnMin= -226.395293643256     IErMin= 5 ErrMin= 1.94D-05
 ErrMax= 1.94D-05  0.00D+00 EMaxC= 1.00D-01 BMatC= 4.92D-09 BMatP= 2.54D-08
 IDIUse=1 WtCom= 1.00D+00 WtEn= 0.00D+00
 Coeff-Com: -0.492D-03 0.592D-01-0.273D+00-0.464D-01 0.126D+01
 Coeff:     -0.492D-03 0.592D-01-0.273D+00-0.464D-01 0.126D+01
 Gap=     0.547 Goal=   None    Shift=    0.000
 RMSDP=4.46D-06 MaxDP=3.38D-05 DE=-8.39D-08 OVMax= 1.13D-04

 Cycle   6  Pass 1  IDiag  1:
 E= -226.395293664218     Delta-E=       -0.000000020962 Rises=F Damp=F
 DIIS: error= 7.93D-06 at cycle   6 NSaved=   6.
 NSaved= 6 IEnMin= 6 EnMin= -226.395293664218     IErMin= 6 ErrMin= 7.93D-06
 ErrMax= 7.93D-06  0.00D+00 EMaxC= 1.00D-01 BMatC= 8.41D-10 BMatP= 4.92D-09
 IDIUse=1 WtCom= 1.00D+00 WtEn= 0.00D+00
 Coeff-Com: -0.541D-02 0.558D-01-0.894D-01-0.186D+00 0.222D+00 0.100D+01
 Coeff:     -0.541D-02 0.558D-01-0.894D-01-0.186D+00 0.222D+00 0.100D+01
 Gap=     0.547 Goal=   None    Shift=    0.000
 RMSDP=1.78D-06 MaxDP=1.08D-05 DE=-2.10D-08 OVMax= 4.66D-05

 Cycle   7  Pass 1  IDiag  1:
 E= -226.395293667432     Delta-E=       -0.000000003214 Rises=F Damp=F
 DIIS: error= 2.87D-06 at cycle   7 NSaved=   7.
 NSaved= 7 IEnMin= 7 EnMin= -226.395293667432     IErMin= 7 ErrMin= 2.87D-06
 ErrMax= 2.87D-06  0.00D+00 EMaxC= 1.00D-01 BMatC= 1.22D-10 BMatP= 8.41D-10
 IDIUse=1 WtCom= 1.00D+00 WtEn= 0.00D+00
 Coeff-Com:  0.165D-02-0.272D-01 0.806D-01 0.550D-01-0.307D+00-0.268D+00
 Coeff-Com:  0.146D+01
 Coeff:      0.165D-02-0.272D-01 0.806D-01 0.550D-01-0.307D+00-0.268D+00
 Coeff:      0.146D+01
 Gap=     0.547 Goal=   None    Shift=    0.000
 RMSDP=9.05D-07 MaxDP=5.93D-06 DE=-3.21D-09 OVMax= 2.12D-05

 Cycle   8  Pass 1  IDiag  1:
 E= -226.395293668022     Delta-E=       -0.000000000590 Rises=F Damp=F
 DIIS: error= 4.83D-07 at cycle   8 NSaved=   8.
 NSaved= 8 IEnMin= 8 EnMin= -226.395293668022     IErMin= 8 ErrMin= 4.83D-07
 ErrMax= 4.83D-07  0.00D+00 EMaxC= 1.00D-01 BMatC= 8.23D-12 BMatP= 1.22D-10
 IDIUse=1 WtCom= 1.00D+00 WtEn= 0.00D+00
 Coeff-Com:  0.402D-03-0.383D-02 0.488D-02 0.124D-01-0.361D-02-0.897D-01
 Coeff-Com: -0.164D-01 0.110D+01
 Coeff:      0.402D-03-0.383D-02 0.488D-02 0.124D-01-0.361D-02-0.897D-01
 Coeff:     -0.164D-01 0.110D+01
 Gap=     0.547 Goal=   None    Shift=    0.000
 RMSDP=1.63D-07 MaxDP=1.20D-06 DE=-5.90D-10 OVMax= 3.31D-06

 Cycle   9  Pass 1  IDiag  1:
 E= -226.395293668049     Delta-E=       -0.000000000027 Rises=F Damp=F
 DIIS: error= 1.72D-07 at cycle   9 NSaved=   9.
 NSaved= 9 IEnMin= 9 EnMin= -226.395293668049     IErMin= 9 ErrMin= 1.72D-07
 ErrMax= 1.72D-07  0.00D+00 EMaxC= 1.00D-01 BMatC= 1.01D-12 BMatP= 8.23D-12
 IDIUse=1 WtCom= 1.00D+00 WtEn= 0.00D+00
 Coeff-Com: -0.206D-03 0.368D-02-0.112D-01-0.793D-02 0.469D-01 0.276D-01
 Coeff-Com: -0.207D+00 0.496D-01 0.110D+01
 Coeff:     -0.206D-03 0.368D-02-0.112D-01-0.793D-02 0.469D-01 0.276D-01
 Coeff:     -0.207D+00 0.496D-01 0.110D+01
 Gap=     0.547 Goal=   None    Shift=    0.000
 RMSDP=5.59D-08 MaxDP=3.84D-07 DE=-2.69D-11 OVMax= 8.57D-07

 Cycle  10  Pass 1  IDiag  1:
 E= -226.395293668053     Delta-E=       -0.000000000003 Rises=F Damp=F
 DIIS: error= 3.51D-08 at cycle  10 NSaved=  10.
 NSaved=10 IEnMin=10 EnMin= -226.395293668053     IErMin=10 ErrMin= 3.51D-08
 ErrMax= 3.51D-08  0.00D+00 EMaxC= 1.00D-01 BMatC= 8.41D-14 BMatP= 1.01D-12
 IDIUse=1 WtCom= 1.00D+00 WtEn= 0.00D+00
 Coeff-Com: -0.331D-04 0.319D-03-0.523D-03-0.112D-02 0.171D-02 0.539D-02
 Coeff-Com: -0.162D-02-0.807D-01 0.579D-01 0.102D+01
 Coeff:     -0.331D-04 0.319D-03-0.523D-03-0.112D-02 0.171D-02 0.539D-02
 Coeff:     -0.162D-02-0.807D-01 0.579D-01 0.102D+01
 Gap=     0.547 Goal=   None    Shift=    0.000
 RMSDP=1.24D-08 MaxDP=8.49D-08 DE=-3.30D-12 OVMax= 1.65D-07

 Cycle  11  Pass 1  IDiag  1:
 E= -226.395293668053     Delta-E=        0.000000000000 Rises=F Damp=F
 DIIS: error= 1.89D-08 at cycle  11 NSaved=  11.
 NSaved=11 IEnMin=11 EnMin= -226.395293668053     IErMin=11 ErrMin= 1.89D-08
 ErrMax= 1.89D-08  0.00D+00 EMaxC= 1.00D-01 BMatC= 1.14D-14 BMatP= 8.41D-14
 IDIUse=1 WtCom= 1.00D+00 WtEn= 0.00D+00
 Coeff-Com:  0.309D-04-0.585D-03 0.182D-02 0.128D-02-0.755D-02-0.487D-02
 Coeff-Com:  0.351D-01-0.162D-01-0.167D+00 0.301D-01 0.113D+01
 Coeff:      0.309D-04-0.585D-03 0.182D-02 0.128D-02-0.755D-02-0.487D-02
 Coeff:      0.351D-01-0.162D-01-0.167D+00 0.301D-01 0.113D+01
 Gap=     0.547 Goal=   None    Shift=    0.000
 RMSDP=5.86D-09 MaxDP=3.36D-08 DE=-5.68D-14 OVMax= 9.12D-08

 SCF Done:  E(RHF) =  -226.395293668     A.U. after   11 cycles
            NFock= 11  Conv=0.59D-08     -V/T= 2.0035
 KE= 2.256157831904D+02 PE=-7.668100948236D+02 EE= 1.980711636199D+02
 Leave Link  502 at Fri Apr 12 15:21:55 2019, MaxMem=   134217728 cpu:         0.3
 (Enter /cm/shared/c3ddb/gaussian/09.d01/g09/l701.exe)
 Compute integral first derivatives.
 ... and contract with generalized density number  0.
 Leave Link  701 at Fri Apr 12 15:21:56 2019, MaxMem=   134217728 cpu:         0.2
 (Enter /cm/shared/c3ddb/gaussian/09.d01/g09/l702.exe)
 L702 exits ... SP integral derivatives will be done elsewhere.
 Leave Link  702 at Fri Apr 12 15:21:56 2019, MaxMem=   134217728 cpu:         0.1
 (Enter /cm/shared/c3ddb/gaussian/09.d01/g09/l703.exe)
 Compute integral first derivatives, UseDBF=F ICtDFT=           0.
 Integral derivatives from FoFJK, PRISM(SPDF).
 Calling FoFJK, ICntrl=      2127 FMM=F ISym2X=0 I1Cent= 0 IOpClX= 0 NMat=1 NMatS=1 NMatT=0.
 FoFJK:  IHMeth= 1 ICntrl=    2127 DoSepK=F KAlg= 0 I1Cent=   0 FoldK=F
 IRaf=         0 NMat=   1 IRICut=       1 DoRegI=T DoRafI=F ISym2E= 0.
 FoFCou: FMM=F IPFlag=           0 FMFlag=      100000 FMFlg1=         800
         NFxFlg=           0 DoJE=F BraDBF=F KetDBF=F FulRan=T
         wScrn=  0.000000 ICntrl=    2127 IOpCl=  0 I1Cent=           0 NGrid=           0
         NMat0=    1 NMatS0=      1 NMatT0=    0 NMatD0=    1 NMtDS0=    0 NMtDT0=    0
 Symmetry not used in FoFCou.
 Leave Link  703 at Fri Apr 12 15:21:56 2019, MaxMem=   134217728 cpu:         0.2
 (Enter /cm/shared/c3ddb/gaussian/09.d01/g09/l716.exe)
 Dipole        = 2.81647488D-01-3.15061983D-01-6.14908308D-01
 -------------------------------------------------------------------
 Center     Atomic                   Forces (Hartrees/Bohr)
 Number     Number              X              Y              Z
 -------------------------------------------------------------------
      1        6           0.000069000    0.000626382   -0.000823504
      2        6          -0.000159636    0.000003326    0.000729427
      3        1          -0.000012003    0.000033182   -0.000006351
      4        1          -0.000001943    0.000016212    0.000045284
      5        1           0.000005654    0.000008558   -0.000044198
      6        8          -0.000666244   -0.000639150   -0.001074461
      7        8           0.001150233    0.000263854    0.000576777
      8        1          -0.000385061   -0.000312363    0.000597025
 -------------------------------------------------------------------
 Cartesian Forces:  Max     0.001150233 RMS     0.000498872
 Leave Link  716 at Fri Apr 12 15:21:56 2019, MaxMem=   134217728 cpu:         0.1
 (Enter /cm/shared/c3ddb/gaussian/09.d01/g09/l103.exe)

 GradGradGradGradGradGradGradGradGradGradGradGradGradGradGradGradGradGrad
 Berny optimization.
 Using GEDIIS/GDIIS optimizer.
 FormGI is forming the generalized inverse of G from B-inverse, IUseBI=4.
 Internal  Forces:  Max     0.001095761 RMS     0.000476424
 Search for a local minimum.
 Step number   2 out of a maximum of   32
 All quantities printed in internal units (Hartrees-Bohrs-Radians)
 RMS Force = .34047D-03 SwitMx=.10000D-02 MixMth= 2
 Mixed Optimization -- En-DIIS/RFO-DIIS
 Swapping is turned off.
 Update second derivatives using D2CorX and points    1    2
 DE= -5.74D-06 DEPred=-1.15D-05 R= 5.01D-01
 TightC=F SS=  1.41D+00  RLast= 1.17D-02 DXNew= 5.0454D-01 3.4998D-02
 Trust test= 5.01D-01 RLast= 1.17D-02 DXMaxT set to 3.00D-01
 ITU=  1  0
     Eigenvalues ---    0.02569   0.03292   0.03319   0.15976   0.15998
     Eigenvalues ---    0.16000   0.18746   0.21995   0.27155   0.37096
     Eigenvalues ---    0.37175   0.37435   0.39972   0.47070   0.53005
     Eigenvalues ---    0.649821000.000001000.000001000.000001000.00000
     Eigenvalues --- 1000.000001000.00000
 En-DIIS/RFO-DIIS IScMMF=        0 using points:     2    1
 RFO step:  Lambda=-3.71441287D-06.
 NNeg= 0 NP= 2 Switch=  2.50D-03 Rises=F DC=  5.74D-06 SmlDif=  1.00D-05
 RMS Error=  0.5134563195D-03 NUsed= 2 EDIIS=F
 DidBck=T Rises=F RFO-DIIS coefs:    0.66765    0.33235
 Iteration  1 RMS(Cart)=  0.00173780 RMS(Int)=  0.00000138
 Iteration  2 RMS(Cart)=  0.00000130 RMS(Int)=  0.00000011
 Iteration  3 RMS(Cart)=  0.00000000 RMS(Int)=  0.00000011
 Iteration  1 RMS(Cart)=  0.00000008 RMS(Int)=  0.00000004
 ITry= 1 IFail=0 DXMaxC= 4.37D-03 DCOld= 1.00D+10 DXMaxT= 3.00D-01 DXLimC= 3.00D+00 Rises=F
 Variable       Old X    -DE/DX   Delta X   Delta X   Delta X     New X
                                 (Linear)    (Quad)   (Total)
    R1        2.47375  -0.00013  -0.00007  -0.00004  -0.00011   2.47364
    R2        2.01841   0.00002   0.00005  -0.00002   0.00003   2.01844
    R3        2.65302  -0.00011  -0.00065   0.00066   0.00001   2.65303
    R4        2.02286   0.00000  -0.00001   0.00001   0.00000   2.02286
    R5        2.02395  -0.00001  -0.00004   0.00004   0.00000   2.02394
    R6        2.77668  -0.00094   0.00038  -0.00224  -0.00186   2.77481
    R7        1.83788  -0.00004  -0.00025   0.00027   0.00002   1.83789
    A1        2.18464   0.00009  -0.00003   0.00040   0.00036   2.18500
    A2        2.10617  -0.00017   0.00002  -0.00054  -0.00053   2.10564
    A3        1.99177   0.00006   0.00001   0.00012   0.00014   1.99191
    A4        2.10337  -0.00003  -0.00002  -0.00008  -0.00010   2.10327
    A5        2.11684   0.00001  -0.00003   0.00010   0.00007   2.11691
    A6        2.06270   0.00001   0.00006  -0.00003   0.00003   2.06274
    A7        1.85532  -0.00074  -0.00165   0.00010  -0.00155   1.85377
    A8        1.75308  -0.00089  -0.00306   0.00016  -0.00290   1.75018
    D1        0.03932  -0.00022   0.00047  -0.00028   0.00019   0.03951
    D2       -3.12768  -0.00022   0.00087  -0.00079   0.00008  -3.12760
    D3       -3.06252   0.00030   0.00059   0.00051   0.00110  -3.06142
    D4        0.05367   0.00030   0.00099   0.00000   0.00099   0.05466
    D5       -2.44346  -0.00097   0.00000   0.00000   0.00000  -2.44346
    D6        0.73373  -0.00051   0.00011   0.00070   0.00081   0.73455
    D7        2.09440   0.00110   0.00000   0.00000   0.00000   2.09440
         Item               Value     Threshold  Converged?
 Maximum Force            0.000945     0.000015     NO 
 RMS     Force            0.000340     0.000010     NO 
 Maximum Displacement     0.004370     0.000060     NO 
 RMS     Displacement     0.001738     0.000040     NO 
 Predicted change in Energy=-2.898932D-06
 Lowest energy point so far.  Saving SCF results.
 GradGradGradGradGradGradGradGradGradGradGradGradGradGradGradGradGradGrad

 Leave Link  103 at Fri Apr 12 15:21:56 2019, MaxMem=   134217728 cpu:         0.0
 (Enter /cm/shared/c3ddb/gaussian/09.d01/g09/l202.exe)
                          Input orientation:                          
 ---------------------------------------------------------------------
 Center     Atomic      Atomic             Coordinates (Angstroms)
 Number     Number       Type             X           Y           Z
 ---------------------------------------------------------------------
      1          6           0        0.725493    0.639251    0.020081
      2          6           0        1.367652   -0.500548   -0.024196
      3          1           0        1.184102    1.602710    0.067921
      4          1           0        2.436832   -0.524082    0.022332
      5          1           0        0.843262   -1.432491   -0.084130
      6          8           0       -0.677652    0.669146    0.055986
      7          8           0       -1.086440    1.779799   -0.813180
      8          1           0       -1.621615    1.299683   -1.468140
 ---------------------------------------------------------------------
                    Distance matrix (angstroms):
                    1          2          3          4          5
     1  C    0.000000
     2  C    1.308996   0.000000
     3  H    1.068112   2.113260   0.000000
     4  H    2.069306   1.070451   2.468735   0.000000
     5  H    2.077702   1.071025   3.058061   1.837391   0.000000
     6  O    1.403923   2.357516   2.082742   3.335407   2.598017
     7  O    2.297449   3.441663   2.441938   4.291781   3.817600
     8  H    2.856552   3.776443   3.212998   4.692400   3.931397
                    6          7          8
     6  O    0.000000
     7  O    1.468368   0.000000
     8  H    1.900422   0.972572   0.000000
 Symmetry turned off by external request.
 Stoichiometry    C2H4O2
 Framework group  C1[X(C2H4O2)]
 Deg. of freedom    18
 Full point group                 C1      NOp   1
 Rotational constants (GHZ):     34.5459564      4.6591240      4.4170860
 Leave Link  202 at Fri Apr 12 15:21:56 2019, MaxMem=   134217728 cpu:         0.0
 (Enter /cm/shared/c3ddb/gaussian/09.d01/g09/l301.exe)
 Standard basis: 3-21G (6D, 7F)
 Ernie: Thresh=  0.10000D-02 Tol=  0.10000D-05 Strict=F.
    44 basis functions,    72 primitive gaussians,    44 cartesian basis functions
    16 alpha electrons       16 beta electrons
       nuclear repulsion energy       116.7696996763 Hartrees.
 IExCor=    0 DFT=F Ex=HF Corr=None ExCW=0 ScaHFX=  1.000000
 ScaDFX=  1.000000  1.000000  1.000000  1.000000 ScalE2=  1.000000  1.000000
 IRadAn=      0 IRanWt=     -1 IRanGd=            0 ICorTp=0 IEmpDi=  4
 NAtoms=    8 NActive=    8 NUniq=    8 SFac= 1.00D+00 NAtFMM=   60 NAOKFM=F Big=F
 Integral buffers will be    131072 words long.
 Raffenetti 1 integral format.
 Two-electron integral symmetry is turned off.
 Leave Link  301 at Fri Apr 12 15:21:57 2019, MaxMem=   134217728 cpu:         0.2
 (Enter /cm/shared/c3ddb/gaussian/09.d01/g09/l302.exe)
 NPDir=0 NMtPBC=     1 NCelOv=     1 NCel=       1 NClECP=     1 NCelD=      1
         NCelK=      1 NCelE2=     1 NClLst=     1 CellRange=     0.0.
 One-electron integrals computed using PRISM.
 NBasis=    44 RedAO= T EigKep=  1.16D-02  NBF=    44
 NBsUse=    44 1.00D-06 EigRej= -1.00D+00 NBFU=    44
 Leave Link  302 at Fri Apr 12 15:21:57 2019, MaxMem=   134217728 cpu:         0.3
 (Enter /cm/shared/c3ddb/gaussian/09.d01/g09/l303.exe)
 DipDrv:  MaxL=1.
 Leave Link  303 at Fri Apr 12 15:21:57 2019, MaxMem=   134217728 cpu:         0.1
 (Enter /cm/shared/c3ddb/gaussian/09.d01/g09/l401.exe)
 Initial guess from the checkpoint file:  "TMP_CALCS/scangeom_S02_220_120.chk"
 B after Tr=    -0.000029    0.000309   -0.000111
         Rot=    1.000000    0.000000   -0.000003    0.000086 Ang=  -0.01 deg.
 Guess basis will be translated and rotated to current coordinates.
 JPrj=2 DoOrth=T DoCkMO=T.
 Leave Link  401 at Fri Apr 12 15:21:58 2019, MaxMem=   134217728 cpu:         0.4
 (Enter /cm/shared/c3ddb/gaussian/09.d01/g09/l502.exe)
 Closed shell SCF:
 Using DIIS extrapolation, IDIIS=  1040.
 Two-electron integral symmetry not used.
 Keep R1 ints in memory in canonical form, NReq=1327232.
 IVT=       24902 IEndB=       24902 NGot=   134217728 MDV=   133702282
 LenX=   133702282 LenY=   133699905
 Requested convergence on RMS density matrix=1.00D-08 within 128 cycles.
 Requested convergence on MAX density matrix=1.00D-06.
 Requested convergence on             energy=1.00D-06.
 No special actions if energy rises.
 FoFCou: FMM=F IPFlag=           0 FMFlag=           0 FMFlg1=           0
         NFxFlg=           0 DoJE=F BraDBF=F KetDBF=F FulRan=T
         wScrn=  0.000000 ICntrl=     600 IOpCl=  0 I1Cent=           0 NGrid=           0
         NMat0=    1 NMatS0=    990 NMatT0=    0 NMatD0=    1 NMtDS0=    0 NMtDT0=    0
 Symmetry not used in FoFCou.

 Cycle   1  Pass 1  IDiag  1:
 E= -226.395295254761    
 DIIS: error= 1.29D-04 at cycle   1 NSaved=   1.
 NSaved= 1 IEnMin= 1 EnMin= -226.395295254761     IErMin= 1 ErrMin= 1.29D-04
 ErrMax= 1.29D-04  0.00D+00 EMaxC= 1.00D-01 BMatC= 1.14D-06 BMatP= 1.14D-06
 IDIUse=3 WtCom= 9.99D-01 WtEn= 1.29D-03
 Coeff-Com:  0.100D+01
 Coeff-En:   0.100D+01
 Coeff:      0.100D+01
 Gap=     0.952 Goal=   None    Shift=    0.000
 RMSDP=2.30D-05 MaxDP=1.87D-04              OVMax= 1.50D-04

 Cycle   2  Pass 1  IDiag  1:
 E= -226.395296199848     Delta-E=       -0.000000945086 Rises=F Damp=F
 DIIS: error= 3.72D-05 at cycle   2 NSaved=   2.
 NSaved= 2 IEnMin= 2 EnMin= -226.395296199848     IErMin= 2 ErrMin= 3.72D-05
 ErrMax= 3.72D-05  0.00D+00 EMaxC= 1.00D-01 BMatC= 5.03D-08 BMatP= 1.14D-06
 IDIUse=1 WtCom= 1.00D+00 WtEn= 0.00D+00
 Coeff-Com: -0.106D+00 0.111D+01
 Coeff:     -0.106D+00 0.111D+01
 Gap=     0.547 Goal=   None    Shift=    0.000
 RMSDP=8.32D-06 MaxDP=5.12D-05 DE=-9.45D-07 OVMax= 1.37D-04

 Cycle   3  Pass 1  IDiag  1:
 E= -226.395296333035     Delta-E=       -0.000000133187 Rises=F Damp=F
 DIIS: error= 2.35D-05 at cycle   3 NSaved=   3.
 NSaved= 3 IEnMin= 3 EnMin= -226.395296333035     IErMin= 3 ErrMin= 2.35D-05
 ErrMax= 2.35D-05  0.00D+00 EMaxC= 1.00D-01 BMatC= 1.02D-08 BMatP= 5.03D-08
 IDIUse=1 WtCom= 1.00D+00 WtEn= 0.00D+00
 Coeff-Com: -0.167D-01-0.107D+00 0.112D+01
 Coeff:     -0.167D-01-0.107D+00 0.112D+01
 Gap=     0.547 Goal=   None    Shift=    0.000
 RMSDP=4.29D-06 MaxDP=2.94D-05 DE=-1.33D-07 OVMax= 9.41D-05

 Cycle   4  Pass 1  IDiag  1:
 E= -226.395296366985     Delta-E=       -0.000000033951 Rises=F Damp=F
 DIIS: error= 1.50D-05 at cycle   4 NSaved=   4.
 NSaved= 4 IEnMin= 4 EnMin= -226.395296366985     IErMin= 4 ErrMin= 1.50D-05
 ErrMax= 1.50D-05  0.00D+00 EMaxC= 1.00D-01 BMatC= 2.95D-09 BMatP= 1.02D-08
 IDIUse=1 WtCom= 1.00D+00 WtEn= 0.00D+00
 Coeff-Com:  0.241D-01-0.256D+00 0.582D-02 0.123D+01
 Coeff:      0.241D-01-0.256D+00 0.582D-02 0.123D+01
 Gap=     0.547 Goal=   None    Shift=    0.000
 RMSDP=3.27D-06 MaxDP=2.47D-05 DE=-3.40D-08 OVMax= 8.05D-05

 Cycle   5  Pass 1  IDiag  1:
 E= -226.395296379886     Delta-E=       -0.000000012901 Rises=F Damp=F
 DIIS: error= 6.56D-06 at cycle   5 NSaved=   5.
 NSaved= 5 IEnMin= 5 EnMin= -226.395296379886     IErMin= 5 ErrMin= 6.56D-06
 ErrMax= 6.56D-06  0.00D+00 EMaxC= 1.00D-01 BMatC= 4.41D-10 BMatP= 2.95D-09
 IDIUse=1 WtCom= 1.00D+00 WtEn= 0.00D+00
 Coeff-Com: -0.510D-02 0.113D+00-0.201D+00-0.455D+00 0.155D+01
 Coeff:     -0.510D-02 0.113D+00-0.201D+00-0.455D+00 0.155D+01
 Gap=     0.547 Goal=   None    Shift=    0.000
 RMSDP=1.77D-06 MaxDP=1.23D-05 DE=-1.29D-08 OVMax= 4.70D-05

 Cycle   6  Pass 1  IDiag  1:
 E= -226.395296382288     Delta-E=       -0.000000002402 Rises=F Damp=F
 DIIS: error= 1.81D-06 at cycle   6 NSaved=   6.
 NSaved= 6 IEnMin= 6 EnMin= -226.395296382288     IErMin= 6 ErrMin= 1.81D-06
 ErrMax= 1.81D-06  0.00D+00 EMaxC= 1.00D-01 BMatC= 5.38D-11 BMatP= 4.41D-10
 IDIUse=1 WtCom= 1.00D+00 WtEn= 0.00D+00
 Coeff-Com: -0.277D-02 0.399D-01-0.328D-01-0.190D+00 0.286D+00 0.900D+00
 Coeff:     -0.277D-02 0.399D-01-0.328D-01-0.190D+00 0.286D+00 0.900D+00
 Gap=     0.547 Goal=   None    Shift=    0.000
 RMSDP=3.52D-07 MaxDP=2.21D-06 DE=-2.40D-09 OVMax= 8.88D-06

 Cycle   7  Pass 1  IDiag  1:
 E= -226.395296382446     Delta-E=       -0.000000000158 Rises=F Damp=F
 DIIS: error= 7.38D-07 at cycle   7 NSaved=   7.
 NSaved= 7 IEnMin= 7 EnMin= -226.395296382446     IErMin= 7 ErrMin= 7.38D-07
 ErrMax= 7.38D-07  0.00D+00 EMaxC= 1.00D-01 BMatC= 1.20D-11 BMatP= 5.38D-11
 IDIUse=1 WtCom= 1.00D+00 WtEn= 0.00D+00
 Coeff-Com:  0.123D-02-0.286D-01 0.576D-01 0.109D+00-0.428D+00 0.567D-01
 Coeff-Com:  0.123D+01
 Coeff:      0.123D-02-0.286D-01 0.576D-01 0.109D+00-0.428D+00 0.567D-01
 Coeff:      0.123D+01
 Gap=     0.547 Goal=   None    Shift=    0.000
 RMSDP=2.46D-07 MaxDP=1.76D-06 DE=-1.58D-10 OVMax= 5.27D-06

 Cycle   8  Pass 1  IDiag  1:
 E= -226.395296382492     Delta-E=       -0.000000000046 Rises=F Damp=F
 DIIS: error= 1.45D-07 at cycle   8 NSaved=   8.
 NSaved= 8 IEnMin= 8 EnMin= -226.395296382492     IErMin= 8 ErrMin= 1.45D-07
 ErrMax= 1.45D-07  0.00D+00 EMaxC= 1.00D-01 BMatC= 8.99D-13 BMatP= 1.20D-11
 IDIUse=1 WtCom= 1.00D+00 WtEn= 0.00D+00
 Coeff-Com:  0.213D-03-0.248D-02-0.752D-03 0.157D-01-0.695D-02-0.115D+00
 Coeff-Com: -0.687D-03 0.111D+01
 Coeff:      0.213D-03-0.248D-02-0.752D-03 0.157D-01-0.695D-02-0.115D+00
 Coeff:     -0.687D-03 0.111D+01
 Gap=     0.547 Goal=   None    Shift=    0.000
 RMSDP=5.12D-08 MaxDP=3.80D-07 DE=-4.62D-11 OVMax= 8.63D-07

 Cycle   9  Pass 1  IDiag  1:
 E= -226.395296382495     Delta-E=       -0.000000000003 Rises=F Damp=F
 DIIS: error= 5.04D-08 at cycle   9 NSaved=   9.
 NSaved= 9 IEnMin= 9 EnMin= -226.395296382495     IErMin= 9 ErrMin= 5.04D-08
 ErrMax= 5.04D-08  0.00D+00 EMaxC= 1.00D-01 BMatC= 7.88D-14 BMatP= 8.99D-13
 IDIUse=1 WtCom= 1.00D+00 WtEn= 0.00D+00
 Coeff-Com: -0.180D-03 0.419D-02-0.831D-02-0.160D-01 0.615D-01-0.127D-01
 Coeff-Com: -0.151D+00-0.708D-01 0.119D+01
 Coeff:     -0.180D-03 0.419D-02-0.831D-02-0.160D-01 0.615D-01-0.127D-01
 Coeff:     -0.151D+00-0.708D-01 0.119D+01
 Gap=     0.547 Goal=   None    Shift=    0.000
 RMSDP=1.74D-08 MaxDP=1.18D-07 DE=-3.24D-12 OVMax= 2.82D-07

 Cycle  10  Pass 1  IDiag  1:
 E= -226.395296382495     Delta-E=        0.000000000000 Rises=F Damp=F
 DIIS: error= 8.11D-09 at cycle  10 NSaved=  10.
 NSaved=10 IEnMin= 9 EnMin= -226.395296382495     IErMin=10 ErrMin= 8.11D-09
 ErrMax= 8.11D-09  0.00D+00 EMaxC= 1.00D-01 BMatC= 3.39D-15 BMatP= 7.88D-14
 IDIUse=1 WtCom= 1.00D+00 WtEn= 0.00D+00
 Coeff-Com:  0.493D-04-0.133D-02 0.291D-02 0.481D-02-0.208D-01 0.891D-02
 Coeff-Com:  0.546D-01-0.358D-01-0.407D+00 0.139D+01
 Coeff:      0.493D-04-0.133D-02 0.291D-02 0.481D-02-0.208D-01 0.891D-02
 Coeff:      0.546D-01-0.358D-01-0.407D+00 0.139D+01
 Gap=     0.547 Goal=   None    Shift=    0.000
 RMSDP=3.79D-09 MaxDP=1.99D-08 DE= 2.27D-13 OVMax= 5.45D-08

 SCF Done:  E(RHF) =  -226.395296382     A.U. after   10 cycles
            NFock= 10  Conv=0.38D-08     -V/T= 2.0034
 KE= 2.256191908925D+02 PE=-7.668947592562D+02 EE= 1.981105723049D+02
 Leave Link  502 at Fri Apr 12 15:21:58 2019, MaxMem=   134217728 cpu:         0.2
 (Enter /cm/shared/c3ddb/gaussian/09.d01/g09/l701.exe)
 Compute integral first derivatives.
 ... and contract with generalized density number  0.
 Leave Link  701 at Fri Apr 12 15:21:58 2019, MaxMem=   134217728 cpu:         0.2
 (Enter /cm/shared/c3ddb/gaussian/09.d01/g09/l702.exe)
 L702 exits ... SP integral derivatives will be done elsewhere.
 Leave Link  702 at Fri Apr 12 15:21:58 2019, MaxMem=   134217728 cpu:         0.1
 (Enter /cm/shared/c3ddb/gaussian/09.d01/g09/l703.exe)
 Compute integral first derivatives, UseDBF=F ICtDFT=           0.
 Integral derivatives from FoFJK, PRISM(SPDF).
 Calling FoFJK, ICntrl=      2127 FMM=F ISym2X=0 I1Cent= 0 IOpClX= 0 NMat=1 NMatS=1 NMatT=0.
 FoFJK:  IHMeth= 1 ICntrl=    2127 DoSepK=F KAlg= 0 I1Cent=   0 FoldK=F
 IRaf=         0 NMat=   1 IRICut=       1 DoRegI=T DoRafI=F ISym2E= 0.
 FoFCou: FMM=F IPFlag=           0 FMFlag=      100000 FMFlg1=         800
         NFxFlg=           0 DoJE=F BraDBF=F KetDBF=F FulRan=T
         wScrn=  0.000000 ICntrl=    2127 IOpCl=  0 I1Cent=           0 NGrid=           0
         NMat0=    1 NMatS0=      1 NMatT0=    0 NMatD0=    1 NMtDS0=    0 NMtDT0=    0
 Symmetry not used in FoFCou.
 Leave Link  703 at Fri Apr 12 15:21:59 2019, MaxMem=   134217728 cpu:         0.2
 (Enter /cm/shared/c3ddb/gaussian/09.d01/g09/l716.exe)
 Dipole        = 2.81762913D-01-3.15856785D-01-6.13934017D-01
 -------------------------------------------------------------------
 Center     Atomic                   Forces (Hartrees/Bohr)
 Number     Number              X              Y              Z
 -------------------------------------------------------------------
      1        6           0.000067842    0.000358216   -0.000518759
      2        6          -0.000010793   -0.000005106    0.000715266
      3        1          -0.000034461    0.000010123   -0.000016804
      4        1           0.000006809   -0.000005000   -0.000012624
      5        1           0.000000111    0.000015359   -0.000011291
      6        8          -0.000062370   -0.000901893   -0.000541746
      7        8           0.000514448    0.000406711    0.000003174
      8        1          -0.000481586    0.000121591    0.000382784
 -------------------------------------------------------------------
 Cartesian Forces:  Max     0.000901893 RMS     0.000344604
 Leave Link  716 at Fri Apr 12 15:21:59 2019, MaxMem=   134217728 cpu:         0.1
 (Enter /cm/shared/c3ddb/gaussian/09.d01/g09/l103.exe)

 GradGradGradGradGradGradGradGradGradGradGradGradGradGradGradGradGradGrad
 Berny optimization.
 Using GEDIIS/GDIIS optimizer.
 FormGI is forming the generalized inverse of G from B-inverse, IUseBI=4.
 Internal  Forces:  Max     0.001129875 RMS     0.000349793
 Search for a local minimum.
 Step number   3 out of a maximum of   32
 All quantities printed in internal units (Hartrees-Bohrs-Radians)
 RMS Force = .41592D-04 SwitMx=.10000D-02 MixMth= 2
 Mixed Optimization -- En-DIIS/RFO-DIIS
 Swapping is turned off.
 Update second derivatives using D2CorX and points    1    2    3
 DE= -2.71D-06 DEPred=-2.90D-06 R= 9.36D-01
 TightC=F SS=  1.41D+00  RLast= 4.20D-03 DXNew= 5.0454D-01 1.2607D-02
 Trust test= 9.36D-01 RLast= 4.20D-03 DXMaxT set to 3.00D-01
 ITU=  1  1  0
     Eigenvalues ---    0.02598   0.03304   0.03320   0.15878   0.16000
     Eigenvalues ---    0.16009   0.18714   0.21905   0.27660   0.37110
     Eigenvalues ---    0.37168   0.37437   0.41920   0.50255   0.53025
     Eigenvalues ---    0.648091000.000001000.000001000.000001000.00000
     Eigenvalues --- 1000.000001000.00000
 En-DIIS/RFO-DIIS IScMMF=        0 using points:     3    2    1
 RFO step:  Lambda=-1.41685799D-07.
 NNeg= 0 NP= 3 Switch=  2.50D-03 Rises=F DC=  5.74D-06 SmlDif=  1.00D-05
 RMS Error=  0.7243220922D-04 NUsed= 3 EDIIS=F
 DidBck=F Rises=F RFO-DIIS coefs:    0.83178    0.11008    0.05814
 Iteration  1 RMS(Cart)=  0.00020639 RMS(Int)=  0.00000015
 Iteration  2 RMS(Cart)=  0.00000005 RMS(Int)=  0.00000014
 Iteration  1 RMS(Cart)=  0.00000013 RMS(Int)=  0.00000006
 ITry= 1 IFail=0 DXMaxC= 4.38D-04 DCOld= 1.00D+10 DXMaxT= 3.00D-01 DXLimC= 3.00D+00 Rises=F
 Variable       Old X    -DE/DX   Delta X   Delta X   Delta X     New X
                                 (Linear)    (Quad)   (Total)
    R1        2.47364  -0.00003   0.00001  -0.00005  -0.00004   2.47360
    R2        2.01844  -0.00001   0.00000  -0.00002  -0.00001   2.01843
    R3        2.65303   0.00002  -0.00012   0.00013   0.00001   2.65304
    R4        2.02286   0.00001   0.00000   0.00002   0.00001   2.02287
    R5        2.02394  -0.00001  -0.00001  -0.00002  -0.00003   2.02391
    R6        2.77481   0.00016   0.00038  -0.00001   0.00037   2.77518
    R7        1.83789  -0.00005  -0.00005  -0.00005  -0.00009   1.83780
    A1        2.18500   0.00002  -0.00007   0.00027   0.00021   2.18521
    A2        2.10564  -0.00001   0.00009  -0.00011  -0.00002   2.10562
    A3        1.99191  -0.00003  -0.00002  -0.00015  -0.00017   1.99174
    A4        2.10327   0.00001   0.00001   0.00005   0.00007   2.10334
    A5        2.11691  -0.00001  -0.00002  -0.00005  -0.00007   2.11684
    A6        2.06274   0.00000   0.00000   0.00001   0.00001   2.06275
    A7        1.85377   0.00000  -0.00003  -0.00003  -0.00006   1.85371
    A8        1.75018   0.00002  -0.00005   0.00000  -0.00005   1.75013
    D1        0.03951  -0.00024   0.00005  -0.00005   0.00000   0.03951
    D2       -3.12760  -0.00022   0.00014   0.00042   0.00056  -3.12704
    D3       -3.06142   0.00022  -0.00008  -0.00043  -0.00051  -3.06193
    D4        0.05466   0.00024   0.00001   0.00004   0.00005   0.05470
    D5       -2.44346  -0.00094   0.00000   0.00000   0.00000  -2.44346
    D6        0.73455  -0.00054  -0.00012  -0.00035  -0.00047   0.73408
    D7        2.09440   0.00113   0.00000   0.00000   0.00000   2.09440
         Item               Value     Threshold  Converged?
 Maximum Force            0.000162     0.000015     NO 
 RMS     Force            0.000042     0.000010     NO 
 Maximum Displacement     0.000438     0.000060     NO 
 RMS     Displacement     0.000206     0.000040     NO 
 Predicted change in Energy=-5.626276D-08
 Lowest energy point so far.  Saving SCF results.
 GradGradGradGradGradGradGradGradGradGradGradGradGradGradGradGradGradGrad

 Leave Link  103 at Fri Apr 12 15:21:59 2019, MaxMem=   134217728 cpu:         0.0
 (Enter /cm/shared/c3ddb/gaussian/09.d01/g09/l202.exe)
                          Input orientation:                          
 ---------------------------------------------------------------------
 Center     Atomic      Atomic             Coordinates (Angstroms)
 Number     Number       Type             X           Y           Z
 ---------------------------------------------------------------------
      1          6           0        0.725490    0.639193    0.020270
      2          6           0        1.367675   -0.500564   -0.024029
      3          1           0        1.183871    1.602770    0.067767
      4          1           0        2.436879   -0.524112    0.022116
      5          1           0        0.843263   -1.432467   -0.084108
      6          8           0       -0.677666    0.669012    0.056059
      7          8           0       -1.086410    1.779866   -0.813200
      8          1           0       -1.621467    1.299771   -1.468200
 ---------------------------------------------------------------------
                    Distance matrix (angstroms):
                    1          2          3          4          5
     1  C    0.000000
     2  C    1.308973   0.000000
     3  H    1.068105   2.113345   0.000000
     4  H    2.069332   1.070458   2.468956   0.000000
     5  H    2.077629   1.071009   3.058063   1.837391   0.000000
     6  O    1.403929   2.357487   2.082632   3.335429   2.597901
     7  O    2.297561   3.441757   2.441647   4.291810   3.817630
     8  H    2.856591   3.776481   3.212619   4.692309   3.931378
                    6          7          8
     6  O    0.000000
     7  O    1.468563   0.000000
     8  H    1.900521   0.972524   0.000000
 Symmetry turned off by external request.
 Stoichiometry    C2H4O2
 Framework group  C1[X(C2H4O2)]
 Deg. of freedom    18
 Full point group                 C1      NOp   1
 Rotational constants (GHZ):     34.5417431      4.6589727      4.4168826
 Leave Link  202 at Fri Apr 12 15:21:59 2019, MaxMem=   134217728 cpu:         0.0
 (Enter /cm/shared/c3ddb/gaussian/09.d01/g09/l301.exe)
 Standard basis: 3-21G (6D, 7F)
 Ernie: Thresh=  0.10000D-02 Tol=  0.10000D-05 Strict=F.
    44 basis functions,    72 primitive gaussians,    44 cartesian basis functions
    16 alpha electrons       16 beta electrons
       nuclear repulsion energy       116.7666649019 Hartrees.
 IExCor=    0 DFT=F Ex=HF Corr=None ExCW=0 ScaHFX=  1.000000
 ScaDFX=  1.000000  1.000000  1.000000  1.000000 ScalE2=  1.000000  1.000000
 IRadAn=      0 IRanWt=     -1 IRanGd=            0 ICorTp=0 IEmpDi=  4
 NAtoms=    8 NActive=    8 NUniq=    8 SFac= 1.00D+00 NAtFMM=   60 NAOKFM=F Big=F
 Integral buffers will be    131072 words long.
 Raffenetti 1 integral format.
 Two-electron integral symmetry is turned off.
 Leave Link  301 at Fri Apr 12 15:21:59 2019, MaxMem=   134217728 cpu:         0.2
 (Enter /cm/shared/c3ddb/gaussian/09.d01/g09/l302.exe)
 NPDir=0 NMtPBC=     1 NCelOv=     1 NCel=       1 NClECP=     1 NCelD=      1
         NCelK=      1 NCelE2=     1 NClLst=     1 CellRange=     0.0.
 One-electron integrals computed using PRISM.
 NBasis=    44 RedAO= T EigKep=  1.16D-02  NBF=    44
 NBsUse=    44 1.00D-06 EigRej= -1.00D+00 NBFU=    44
 Leave Link  302 at Fri Apr 12 15:22:00 2019, MaxMem=   134217728 cpu:         0.2
 (Enter /cm/shared/c3ddb/gaussian/09.d01/g09/l303.exe)
 DipDrv:  MaxL=1.
 Leave Link  303 at Fri Apr 12 15:22:00 2019, MaxMem=   134217728 cpu:         0.1
 (Enter /cm/shared/c3ddb/gaussian/09.d01/g09/l401.exe)
 Initial guess from the checkpoint file:  "TMP_CALCS/scangeom_S02_220_120.chk"
 B after Tr=    -0.000003   -0.000062    0.000088
         Rot=    1.000000   -0.000014    0.000027   -0.000003 Ang=   0.00 deg.
 Guess basis will be translated and rotated to current coordinates.
 JPrj=2 DoOrth=T DoCkMO=T.
 Leave Link  401 at Fri Apr 12 15:22:00 2019, MaxMem=   134217728 cpu:         0.3
 (Enter /cm/shared/c3ddb/gaussian/09.d01/g09/l502.exe)
 Closed shell SCF:
 Using DIIS extrapolation, IDIIS=  1040.
 Two-electron integral symmetry not used.
 Keep R1 ints in memory in canonical form, NReq=1327232.
 IVT=       24902 IEndB=       24902 NGot=   134217728 MDV=   133702282
 LenX=   133702282 LenY=   133699905
 Requested convergence on RMS density matrix=1.00D-08 within 128 cycles.
 Requested convergence on MAX density matrix=1.00D-06.
 Requested convergence on             energy=1.00D-06.
 No special actions if energy rises.
 FoFCou: FMM=F IPFlag=           0 FMFlag=           0 FMFlg1=           0
         NFxFlg=           0 DoJE=F BraDBF=F KetDBF=F FulRan=T
         wScrn=  0.000000 ICntrl=     600 IOpCl=  0 I1Cent=           0 NGrid=           0
         NMat0=    1 NMatS0=    990 NMatT0=    0 NMatD0=    1 NMtDS0=    0 NMtDT0=    0
 Symmetry not used in FoFCou.

 Cycle   1  Pass 1  IDiag  1:
 E= -226.395296391206    
 DIIS: error= 1.92D-05 at cycle   1 NSaved=   1.
 NSaved= 1 IEnMin= 1 EnMin= -226.395296391206     IErMin= 1 ErrMin= 1.92D-05
 ErrMax= 1.92D-05  0.00D+00 EMaxC= 1.00D-01 BMatC= 3.17D-08 BMatP= 3.17D-08
 IDIUse=1 WtCom= 1.00D+00 WtEn= 0.00D+00
 Coeff-Com:  0.100D+01
 Coeff:      0.100D+01
 Gap=     0.952 Goal=   None    Shift=    0.000
 RMSDP=4.09D-06 MaxDP=2.56D-05              OVMax= 4.37D-05

 Cycle   2  Pass 1  IDiag  1:
 E= -226.395296430168     Delta-E=       -0.000000038962 Rises=F Damp=F
 DIIS: error= 6.47D-06 at cycle   2 NSaved=   2.
 NSaved= 2 IEnMin= 2 EnMin= -226.395296430168     IErMin= 2 ErrMin= 6.47D-06
 ErrMax= 6.47D-06  0.00D+00 EMaxC= 1.00D-01 BMatC= 1.94D-09 BMatP= 3.17D-08
 IDIUse=1 WtCom= 1.00D+00 WtEn= 0.00D+00
 Coeff-Com: -0.171D+00 0.117D+01
 Coeff:     -0.171D+00 0.117D+01
 Gap=     0.547 Goal=   None    Shift=    0.000
 RMSDP=1.62D-06 MaxDP=1.27D-05 DE=-3.90D-08 OVMax= 2.58D-05

 Cycle   3  Pass 1  IDiag  1:
 E= -226.395296434512     Delta-E=       -0.000000004344 Rises=F Damp=F
 DIIS: error= 2.07D-06 at cycle   3 NSaved=   3.
 NSaved= 3 IEnMin= 3 EnMin= -226.395296434512     IErMin= 3 ErrMin= 2.07D-06
 ErrMax= 2.07D-06  0.00D+00 EMaxC= 1.00D-01 BMatC= 3.28D-10 BMatP= 1.94D-09
 IDIUse=1 WtCom= 1.00D+00 WtEn= 0.00D+00
 Coeff-Com: -0.700D-01 0.239D+00 0.831D+00
 Coeff:     -0.700D-01 0.239D+00 0.831D+00
 Gap=     0.547 Goal=   None    Shift=    0.000
 RMSDP=4.94D-07 MaxDP=3.28D-06 DE=-4.34D-09 OVMax= 7.31D-06

 Cycle   4  Pass 1  IDiag  1:
 E= -226.395296435003     Delta-E=       -0.000000000491 Rises=F Damp=F
 DIIS: error= 1.22D-06 at cycle   4 NSaved=   4.
 NSaved= 4 IEnMin= 4 EnMin= -226.395296435003     IErMin= 4 ErrMin= 1.22D-06
 ErrMax= 1.22D-06  0.00D+00 EMaxC= 1.00D-01 BMatC= 5.52D-11 BMatP= 3.28D-10
 IDIUse=1 WtCom= 1.00D+00 WtEn= 0.00D+00
 Coeff-Com:  0.230D-01-0.194D+00 0.117D+00 0.105D+01
 Coeff:      0.230D-01-0.194D+00 0.117D+00 0.105D+01
 Gap=     0.547 Goal=   None    Shift=    0.000
 RMSDP=3.18D-07 MaxDP=2.09D-06 DE=-4.91D-10 OVMax= 5.90D-06

 Cycle   5  Pass 1  IDiag  1:
 E= -226.395296435134     Delta-E=       -0.000000000132 Rises=F Damp=F
 DIIS: error= 2.74D-07 at cycle   5 NSaved=   5.
 NSaved= 5 IEnMin= 5 EnMin= -226.395296435134     IErMin= 5 ErrMin= 2.74D-07
 ErrMax= 2.74D-07  0.00D+00 EMaxC= 1.00D-01 BMatC= 3.67D-12 BMatP= 5.52D-11
 IDIUse=1 WtCom= 1.00D+00 WtEn= 0.00D+00
 Coeff-Com:  0.511D-02-0.172D-01-0.635D-01 0.909D-02 0.107D+01
 Coeff:      0.511D-02-0.172D-01-0.635D-01 0.909D-02 0.107D+01
 Gap=     0.547 Goal=   None    Shift=    0.000
 RMSDP=8.94D-08 MaxDP=5.19D-07 DE=-1.32D-10 OVMax= 1.41D-06

 Cycle   6  Pass 1  IDiag  1:
 E= -226.395296435145     Delta-E=       -0.000000000010 Rises=F Damp=F
 DIIS: error= 8.31D-08 at cycle   6 NSaved=   6.
 NSaved= 6 IEnMin= 6 EnMin= -226.395296435145     IErMin= 6 ErrMin= 8.31D-08
 ErrMax= 8.31D-08  0.00D+00 EMaxC= 1.00D-01 BMatC= 5.25D-13 BMatP= 3.67D-12
 IDIUse=1 WtCom= 1.00D+00 WtEn= 0.00D+00
 Coeff-Com: -0.270D-02 0.267D-01-0.295D-01-0.157D+00 0.165D+00 0.998D+00
 Coeff:     -0.270D-02 0.267D-01-0.295D-01-0.157D+00 0.165D+00 0.998D+00
 Gap=     0.547 Goal=   None    Shift=    0.000
 RMSDP=3.56D-08 MaxDP=1.92D-07 DE=-1.01D-11 OVMax= 5.08D-07

 Cycle   7  Pass 1  IDiag  1:
 E= -226.395296435145     Delta-E=       -0.000000000001 Rises=F Damp=F
 DIIS: error= 4.05D-08 at cycle   7 NSaved=   7.
 NSaved= 7 IEnMin= 7 EnMin= -226.395296435145     IErMin= 7 ErrMin= 4.05D-08
 ErrMax= 4.05D-08  0.00D+00 EMaxC= 1.00D-01 BMatC= 2.76D-14 BMatP= 5.25D-13
 IDIUse=1 WtCom= 1.00D+00 WtEn= 0.00D+00
 Coeff-Com:  0.432D-03-0.645D-02 0.124D-01 0.456D-01-0.112D+00-0.289D+00
 Coeff-Com:  0.135D+01
 Coeff:      0.432D-03-0.645D-02 0.124D-01 0.456D-01-0.112D+00-0.289D+00
 Coeff:      0.135D+01
 Gap=     0.547 Goal=   None    Shift=    0.000
 RMSDP=1.14D-08 MaxDP=6.64D-08 DE=-9.09D-13 OVMax= 1.68D-07

 Cycle   8  Pass 1  IDiag  1:
 E= -226.395296435146     Delta-E=        0.000000000000 Rises=F Damp=F
 DIIS: error= 1.87D-08 at cycle   8 NSaved=   8.
 NSaved= 8 IEnMin= 8 EnMin= -226.395296435146     IErMin= 8 ErrMin= 1.87D-08
 ErrMax= 1.87D-08  0.00D+00 EMaxC= 1.00D-01 BMatC= 4.28D-15 BMatP= 2.76D-14
 IDIUse=1 WtCom= 1.00D+00 WtEn= 0.00D+00
 Coeff-Com:  0.225D-03-0.233D-02 0.290D-02 0.136D-01-0.178D-01-0.908D-01
 Coeff-Com:  0.656D-01 0.103D+01
 Coeff:      0.225D-03-0.233D-02 0.290D-02 0.136D-01-0.178D-01-0.908D-01
 Coeff:      0.656D-01 0.103D+01
 Gap=     0.547 Goal=   None    Shift=    0.000
 RMSDP=3.36D-09 MaxDP=2.00D-08 DE=-2.27D-13 OVMax= 7.30D-08

 SCF Done:  E(RHF) =  -226.395296435     A.U. after    8 cycles
            NFock=  8  Conv=0.34D-08     -V/T= 2.0034
 KE= 2.256189856471D+02 PE=-7.668886315107D+02 EE= 1.981076845265D+02
 Leave Link  502 at Fri Apr 12 15:22:00 2019, MaxMem=   134217728 cpu:         0.3
 (Enter /cm/shared/c3ddb/gaussian/09.d01/g09/l701.exe)
 Compute integral first derivatives.
 ... and contract with generalized density number  0.
 Leave Link  701 at Fri Apr 12 15:22:01 2019, MaxMem=   134217728 cpu:         0.2
 (Enter /cm/shared/c3ddb/gaussian/09.d01/g09/l702.exe)
 L702 exits ... SP integral derivatives will be done elsewhere.
 Leave Link  702 at Fri Apr 12 15:22:01 2019, MaxMem=   134217728 cpu:         0.1
 (Enter /cm/shared/c3ddb/gaussian/09.d01/g09/l703.exe)
 Compute integral first derivatives, UseDBF=F ICtDFT=           0.
 Integral derivatives from FoFJK, PRISM(SPDF).
 Calling FoFJK, ICntrl=      2127 FMM=F ISym2X=0 I1Cent= 0 IOpClX= 0 NMat=1 NMatS=1 NMatT=0.
 FoFJK:  IHMeth= 1 ICntrl=    2127 DoSepK=F KAlg= 0 I1Cent=   0 FoldK=F
 IRaf=         0 NMat=   1 IRICut=       1 DoRegI=T DoRafI=F ISym2E= 0.
 FoFCou: FMM=F IPFlag=           0 FMFlag=      100000 FMFlg1=         800
         NFxFlg=           0 DoJE=F BraDBF=F KetDBF=F FulRan=T
         wScrn=  0.000000 ICntrl=    2127 IOpCl=  0 I1Cent=           0 NGrid=           0
         NMat0=    1 NMatS0=      1 NMatT0=    0 NMatD0=    1 NMtDS0=    0 NMtDT0=    0
 Symmetry not used in FoFCou.
 Leave Link  703 at Fri Apr 12 15:22:01 2019, MaxMem=   134217728 cpu:         0.2
 (Enter /cm/shared/c3ddb/gaussian/09.d01/g09/l716.exe)
 Dipole        = 2.81844369D-01-3.15753179D-01-6.14227510D-01
 -------------------------------------------------------------------
 Center     Atomic                   Forces (Hartrees/Bohr)
[...]
 Coeff-Com:  0.100D+01
 Coeff:      0.100D+01
 Gap=     0.952 Goal=   None    Shift=    0.000
 RMSDP=1.42D-06 MaxDP=1.03D-05              OVMax= 1.45D-05

 Cycle   2  Pass 1  IDiag  1:
 E= -226.395296438655     Delta-E=       -0.000000004518 Rises=F Damp=F
 DIIS: error= 1.82D-06 at cycle   2 NSaved=   2.
 NSaved= 2 IEnMin= 2 EnMin= -226.395296438655     IErMin= 2 ErrMin= 1.82D-06
 ErrMax= 1.82D-06  0.00D+00 EMaxC= 1.00D-01 BMatC= 2.57D-10 BMatP= 3.27D-09
 IDIUse=1 WtCom= 1.00D+00 WtEn= 0.00D+00
 Coeff-Com: -0.143D+00 0.114D+01
 Coeff:     -0.143D+00 0.114D+01
 Gap=     0.547 Goal=   None    Shift=    0.000
 RMSDP=5.60D-07 MaxDP=3.62D-06 DE=-4.52D-09 OVMax= 7.87D-06

 Cycle   3  Pass 1  IDiag  1:
 E= -226.395296439151     Delta-E=       -0.000000000497 Rises=F Damp=F
 DIIS: error= 8.76D-07 at cycle   3 NSaved=   3.
 NSaved= 3 IEnMin= 3 EnMin= -226.395296439151     IErMin= 3 ErrMin= 8.76D-07
 ErrMax= 8.76D-07  0.00D+00 EMaxC= 1.00D-01 BMatC= 6.17D-11 BMatP= 2.57D-10
 IDIUse=1 WtCom= 1.00D+00 WtEn= 0.00D+00
 Coeff-Com: -0.974D-01 0.338D+00 0.760D+00
 Coeff:     -0.974D-01 0.338D+00 0.760D+00
 Gap=     0.547 Goal=   None    Shift=    0.000
 RMSDP=1.91D-07 MaxDP=1.31D-06 DE=-4.97D-10 OVMax= 2.55D-06

 Cycle   4  Pass 1  IDiag  1:
 E= -226.395296439227     Delta-E=       -0.000000000076 Rises=F Damp=F
 DIIS: error= 3.33D-07 at cycle   4 NSaved=   4.
 NSaved= 4 IEnMin= 4 EnMin= -226.395296439227     IErMin= 4 ErrMin= 3.33D-07
 ErrMax= 3.33D-07  0.00D+00 EMaxC= 1.00D-01 BMatC= 6.27D-12 BMatP= 6.17D-11
 IDIUse=1 WtCom= 1.00D+00 WtEn= 0.00D+00
 Coeff-Com:  0.216D-01-0.176D+00 0.204D-01 0.113D+01
 Coeff:      0.216D-01-0.176D+00 0.204D-01 0.113D+01
 Gap=     0.547 Goal=   None    Shift=    0.000
 RMSDP=1.23D-07 MaxDP=7.41D-07 DE=-7.59D-11 OVMax= 1.87D-06

 Cycle   5  Pass 1  IDiag  1:
 E= -226.395296439243     Delta-E=       -0.000000000016 Rises=F Damp=F
 DIIS: error= 1.00D-07 at cycle   5 NSaved=   5.
 NSaved= 5 IEnMin= 5 EnMin= -226.395296439243     IErMin= 5 ErrMin= 1.00D-07
 ErrMax= 1.00D-07  0.00D+00 EMaxC= 1.00D-01 BMatC= 4.66D-13 BMatP= 6.27D-12
 IDIUse=1 WtCom= 1.00D+00 WtEn= 0.00D+00
 Coeff-Com:  0.681D-02-0.239D-01-0.479D-01-0.187D-01 0.108D+01
 Coeff:      0.681D-02-0.239D-01-0.479D-01-0.187D-01 0.108D+01
 Gap=     0.547 Goal=   None    Shift=    0.000
 RMSDP=3.74D-08 MaxDP=2.40D-07 DE=-1.61D-11 OVMax= 6.22D-07

 Cycle   6  Pass 1  IDiag  1:
 E= -226.395296439245     Delta-E=       -0.000000000001 Rises=F Damp=F
 DIIS: error= 4.34D-08 at cycle   6 NSaved=   6.
 NSaved= 6 IEnMin= 6 EnMin= -226.395296439245     IErMin= 6 ErrMin= 4.34D-08
 ErrMax= 4.34D-08  0.00D+00 EMaxC= 1.00D-01 BMatC= 7.80D-14 BMatP= 4.66D-13
 IDIUse=1 WtCom= 1.00D+00 WtEn= 0.00D+00
 Coeff-Com: -0.329D-02 0.288D-01-0.629D-02-0.204D+00 0.880D-01 0.110D+01
 Coeff:     -0.329D-02 0.288D-01-0.629D-02-0.204D+00 0.880D-01 0.110D+01
 Gap=     0.547 Goal=   None    Shift=    0.000
 RMSDP=1.75D-08 MaxDP=1.20D-07 DE=-1.42D-12 OVMax= 2.90D-07

 Cycle   7  Pass 1  IDiag  1:
 E= -226.395296439246     Delta-E=       -0.000000000001 Rises=F Damp=F
 DIIS: error= 1.80D-08 at cycle   7 NSaved=   7.
 NSaved= 7 IEnMin= 7 EnMin= -226.395296439246     IErMin= 7 ErrMin= 1.80D-08
 ErrMax= 1.80D-08  0.00D+00 EMaxC= 1.00D-01 BMatC= 5.88D-15 BMatP= 7.80D-14
 IDIUse=1 WtCom= 1.00D+00 WtEn= 0.00D+00
 Coeff-Com:  0.947D-03-0.107D-01 0.559D-02 0.918D-01-0.118D+00-0.465D+00
 Coeff-Com:  0.150D+01
 Coeff:      0.947D-03-0.107D-01 0.559D-02 0.918D-01-0.118D+00-0.465D+00
 Coeff:      0.150D+01
 Gap=     0.547 Goal=   None    Shift=    0.000
 RMSDP=5.58D-09 MaxDP=4.24D-08 DE=-1.02D-12 OVMax= 9.16D-08

 SCF Done:  E(RHF) =  -226.395296439     A.U. after    7 cycles
            NFock=  7  Conv=0.56D-08     -V/T= 2.0034
 KE= 2.256189147847D+02 PE=-7.668868550035D+02 EE= 1.981068839936D+02
 Leave Link  502 at Fri Apr 12 15:22:03 2019, MaxMem=   134217728 cpu:         0.2
 (Enter /cm/shared/c3ddb/gaussian/09.d01/g09/l701.exe)
 Compute integral first derivatives.
 ... and contract with generalized density number  0.
 Leave Link  701 at Fri Apr 12 15:22:03 2019, MaxMem=   134217728 cpu:         0.2
 (Enter /cm/shared/c3ddb/gaussian/09.d01/g09/l702.exe)
 L702 exits ... SP integral derivatives will be done elsewhere.
 Leave Link  702 at Fri Apr 12 15:22:03 2019, MaxMem=   134217728 cpu:         0.1
 (Enter /cm/shared/c3ddb/gaussian/09.d01/g09/l703.exe)
 Compute integral first derivatives, UseDBF=F ICtDFT=           0.
 Integral derivatives from FoFJK, PRISM(SPDF).
 Calling FoFJK, ICntrl=      2127 FMM=F ISym2X=0 I1Cent= 0 IOpClX= 0 NMat=1 NMatS=1 NMatT=0.
 FoFJK:  IHMeth= 1 ICntrl=    2127 DoSepK=F KAlg= 0 I1Cent=   0 FoldK=F
 IRaf=         0 NMat=   1 IRICut=       1 DoRegI=T DoRafI=F ISym2E= 0.
 FoFCou: FMM=F IPFlag=           0 FMFlag=      100000 FMFlg1=         800
         NFxFlg=           0 DoJE=F BraDBF=F KetDBF=F FulRan=T
         wScrn=  0.000000 ICntrl=    2127 IOpCl=  0 I1Cent=           0 NGrid=           0
         NMat0=    1 NMatS0=      1 NMatT0=    0 NMatD0=    1 NMtDS0=    0 NMtDT0=    0
 Symmetry not used in FoFCou.
 Leave Link  703 at Fri Apr 12 15:22:04 2019, MaxMem=   134217728 cpu:         0.2
 (Enter /cm/shared/c3ddb/gaussian/09.d01/g09/l716.exe)
 Dipole        = 2.81872840D-01-3.15809325D-01-6.14118028D-01
 -------------------------------------------------------------------
 Center     Atomic                   Forces (Hartrees/Bohr)
 Number     Number              X              Y              Z
 -------------------------------------------------------------------
      1        6           0.000009286    0.000406661   -0.000547537
      2        6           0.000017706   -0.000017107    0.000696911
      3        1          -0.000001443   -0.000000107   -0.000000451
      4        1          -0.000000792   -0.000000265   -0.000002802
      5        1          -0.000001412   -0.000001165   -0.000000849
      6        8          -0.000109366   -0.000789977   -0.000634752
      7        8           0.000597818    0.000316579    0.000139453
      8        1          -0.000511797    0.000085380    0.000350027
 -------------------------------------------------------------------
 Cartesian Forces:  Max     0.000789977 RMS     0.000345163
 Leave Link  716 at Fri Apr 12 15:22:04 2019, MaxMem=   134217728 cpu:         0.1
 (Enter /cm/shared/c3ddb/gaussian/09.d01/g09/l103.exe)

 GradGradGradGradGradGradGradGradGradGradGradGradGradGradGradGradGradGrad
 Berny optimization.
 Using GEDIIS/GDIIS optimizer.
 FormGI is forming the generalized inverse of G from B-inverse, IUseBI=4.
 Internal  Forces:  Max     0.001131797 RMS     0.000348988
 Search for a local minimum.
 Step number   5 out of a maximum of   32
 All quantities printed in internal units (Hartrees-Bohrs-Radians)
 RMS Force = .38309D-05 SwitMx=.10000D-02 MixMth= 2
 Mixed Optimization -- En-DIIS/RFO-DIIS
 Swapping is turned off.
 Update second derivatives using D2CorX and points    1    2    3    4    5
 DE= -4.10D-09 DEPred=-4.69D-09 R= 8.74D-01
 Trust test= 8.74D-01 RLast= 3.54D-04 DXMaxT set to 3.00D-01
 ITU=  0  0  1  1  0
     Eigenvalues ---    0.02763   0.03335   0.05140   0.12320   0.15974
     Eigenvalues ---    0.16000   0.18868   0.21546   0.27256   0.37088
     Eigenvalues ---    0.37163   0.37303   0.39587   0.48777   0.53962
     Eigenvalues ---    0.649141000.000001000.000001000.000001000.00000
     Eigenvalues --- 1000.000001000.00000
 En-DIIS/RFO-DIIS IScMMF=        0 using points:     5    4    3    2    1
 RFO step:  Lambda=-8.52714966D-08.
 NNeg= 0 NP= 5 Switch=  2.50D-03 Rises=F DC=  5.74D-06 SmlDif=  1.00D-05
 RMS Error=  0.1329298621D-04 NUsed= 5 EDIIS=F
 DidBck=F Rises=F RFO-DIIS coefs:    1.00792    0.11419   -0.08925   -0.02109   -0.01177
 Iteration  1 RMS(Cart)=  0.00002582 RMS(Int)=  0.00000012
 Iteration  2 RMS(Cart)=  0.00000000 RMS(Int)=  0.00000012
 Iteration  1 RMS(Cart)=  0.00000015 RMS(Int)=  0.00000007
 ITry= 1 IFail=0 DXMaxC= 5.93D-05 DCOld= 1.00D+10 DXMaxT= 3.00D-01 DXLimC= 3.00D+00 Rises=F
 Variable       Old X    -DE/DX   Delta X   Delta X   Delta X     New X
                                 (Linear)    (Quad)   (Total)
    R1        2.47359   0.00000  -0.00001   0.00001   0.00000   2.47359
    R2        2.01842   0.00000   0.00000   0.00000   0.00000   2.01841
    R3        2.65311   0.00001   0.00003   0.00001   0.00004   2.65314
    R4        2.02287   0.00000   0.00000   0.00000   0.00000   2.02287
    R5        2.02391   0.00000   0.00000   0.00001   0.00000   2.02392
    R6        2.77523  -0.00001  -0.00003   0.00001  -0.00002   2.77520
    R7        1.83779   0.00000   0.00000   0.00001   0.00001   1.83780
    A1        2.18529  -0.00001   0.00004   0.00000   0.00003   2.18532
    A2        2.10559  -0.00001  -0.00002   0.00000  -0.00002   2.10557
    A3        1.99168   0.00001  -0.00002   0.00001  -0.00001   1.99167
    A4        2.10337   0.00000   0.00001   0.00001   0.00001   2.10338
    A5        2.11681   0.00000  -0.00001  -0.00001  -0.00001   2.11679
    A6        2.06275   0.00000   0.00000   0.00000   0.00000   2.06275
    A7        1.85368   0.00000   0.00000  -0.00001  -0.00001   1.85367
    A8        1.75014   0.00000   0.00001  -0.00001   0.00000   1.75014
    D1        0.03960  -0.00024  -0.00001  -0.00002  -0.00003   0.03957
    D2       -3.12718  -0.00023   0.00004  -0.00002   0.00002  -3.12716
    D3       -3.06169   0.00023  -0.00004  -0.00002  -0.00006  -3.06175
    D4        0.05471   0.00024   0.00000  -0.00001  -0.00001   0.05471
    D5       -2.44346  -0.00095   0.00000   0.00000   0.00000  -2.44346
    D6        0.73421  -0.00053  -0.00003   0.00000  -0.00003   0.73418
    D7        2.09440   0.00113   0.00000   0.00000   0.00000   2.09440
         Item               Value     Threshold  Converged?
 Maximum Force            0.000011     0.000015     YES
 RMS     Force            0.000004     0.000010     YES
 Maximum Displacement     0.000059     0.000060     YES
 RMS     Displacement     0.000026     0.000040     YES
 Predicted change in Energy=-6.199718D-10
 Optimization completed.
    -- Stationary point found.
                           ----------------------------
                           !   Optimized Parameters   !
                           ! (Angstroms and Degrees)  !
 --------------------------                            --------------------------
 ! Name  Definition              Value          Derivative Info.                !
 --------------------------------------------------------------------------------
 ! R1    R(1,2)                  1.309          -DE/DX =    0.0                 !
 ! R2    R(1,3)                  1.0681         -DE/DX =    0.0                 !
 ! R3    R(1,6)                  1.404          -DE/DX =    0.0                 !
 ! R4    R(2,4)                  1.0705         -DE/DX =    0.0                 !
 ! R5    R(2,5)                  1.071          -DE/DX =    0.0                 !
 ! R6    R(6,7)                  1.4686         -DE/DX =    0.0                 !
 ! R7    R(7,8)                  0.9725         -DE/DX =    0.0                 !
 ! A1    A(2,1,3)              125.2079         -DE/DX =    0.0                 !
 ! A2    A(2,1,6)              120.6416         -DE/DX =    0.0                 !
 ! A3    A(3,1,6)              114.1147         -DE/DX =    0.0                 !
 ! A4    A(1,2,4)              120.5139         -DE/DX =    0.0                 !
 ! A5    A(1,2,5)              121.284          -DE/DX =    0.0                 !
 ! A6    A(4,2,5)              118.1869         -DE/DX =    0.0                 !
 ! A7    A(1,6,7)              106.208          -DE/DX =    0.0                 !
 ! A8    A(6,7,8)              100.2758         -DE/DX =    0.0                 !
 ! D1    D(3,1,2,4)              2.2691         -DE/DX =   -0.0002              !
 ! D2    D(3,1,2,5)           -179.1744         -DE/DX =   -0.0002              !
 ! D3    D(6,1,2,4)           -175.4216         -DE/DX =    0.0002              !
 ! D4    D(6,1,2,5)              3.1349         -DE/DX =    0.0002              !
 ! D5    D(2,1,6,7)           -140.0            -DE/DX =   -0.0009              !
 ! D6    D(3,1,6,7)             42.0671         -DE/DX =   -0.0005              !
 ! D7    D(1,6,7,8)            120.0            -DE/DX =    0.0011              !
 --------------------------------------------------------------------------------
 Lowest energy point so far.  Saving SCF results.
 GradGradGradGradGradGradGradGradGradGradGradGradGradGradGradGradGradGrad

 Largest change from initial coordinates is atom    8       0.005 Angstoms.
 Leave Link  103 at Fri Apr 12 15:22:04 2019, MaxMem=   134217728 cpu:         0.0
 (Enter /cm/shared/c3ddb/gaussian/09.d01/g09/l202.exe)
                          Input orientation:                          
 ---------------------------------------------------------------------
 Center     Atomic      Atomic             Coordinates (Angstroms)
 Number     Number       Type             X           Y           Z
 ---------------------------------------------------------------------
      1          6           0        0.725537    0.639203    0.020209
      2          6           0        1.367700   -0.500562   -0.024093
      3          1           0        1.183851    1.602802    0.067783
      4          1           0        2.436895   -0.524171    0.022212
      5          1           0        0.843236   -1.432438   -0.084124
      6          8           0       -0.677651    0.669008    0.056078
      7          8           0       -1.086423    1.779859   -0.813211
      8          1           0       -1.621510    1.299768   -1.468180
 ---------------------------------------------------------------------
                    Distance matrix (angstroms):
                    1          2          3          4          5
     1  C    0.000000
     2  C    1.308969   0.000000
     3  H    1.068100   2.113382   0.000000
     4  H    2.069345   1.070457   2.469051   0.000000
     5  H    2.077603   1.071008   3.058067   1.837390   0.000000
     6  O    1.403963   2.357495   2.082618   3.335449   2.597851
     7  O    2.297582   3.441765   2.441647   4.291882   3.817591
     8  H    2.856620   3.776500   3.212641   4.692406   3.931352
                    6          7          8
     6  O    0.000000
     7  O    1.468587   0.000000
     8  H    1.900549   0.972517   0.000000
 Symmetry turned off by external request.
 Stoichiometry    C2H4O2
 Framework group  C1[X(C2H4O2)]
 Deg. of freedom    18
 Full point group                 C1      NOp   1
 Rotational constants (GHZ):     34.5405792      4.6589270      4.4168389
 Leave Link  202 at Fri Apr 12 15:22:04 2019, MaxMem=   134217728 cpu:         0.0
 (Enter /cm/shared/c3ddb/gaussian/09.d01/g09/l601.exe)
 Copying SCF densities to generalized density rwf, IOpCl= 0 IROHF=0.

 **********************************************************************

            Population analysis using the SCF density.

 **********************************************************************

 Alpha  occ. eigenvalues --  -20.53370 -20.52400 -11.24254 -11.17179  -1.47428
 Alpha  occ. eigenvalues --   -1.23731  -1.03113  -0.79745  -0.71537  -0.66377
 Alpha  occ. eigenvalues --   -0.62561  -0.61411  -0.55573  -0.49029  -0.47745
 Alpha  occ. eigenvalues --   -0.37254
 Alpha virt. eigenvalues --    0.17443   0.24735   0.27875   0.31477   0.33169
 Alpha virt. eigenvalues --    0.35872   0.49424   0.57121   0.89801   0.96870
 Alpha virt. eigenvalues --    0.99637   1.06735   1.10504   1.12629   1.22093
 Alpha virt. eigenvalues --    1.32296   1.37242   1.57832   1.59605   1.73869
 Alpha virt. eigenvalues --    1.82513   1.90417   1.97146   2.01658   2.05614
 Alpha virt. eigenvalues --    2.23773   3.07969   3.47532
          Condensed to atoms (all electrons):
               1          2          3          4          5          6
     1  C    4.869892   0.515500   0.370490  -0.044450  -0.050807   0.216763
     2  C    0.515500   5.312785  -0.051886   0.380454   0.388807  -0.054192
     3  H    0.370490  -0.051886   0.458167   0.000262   0.002245  -0.037024
     4  H   -0.044450   0.380454   0.000262   0.449498  -0.015254   0.001434
     5  H   -0.050807   0.388807   0.002245  -0.015254   0.436841  -0.000372
     6  O    0.216763  -0.054192  -0.037024   0.001434  -0.000372   8.189246
     7  O   -0.031269   0.001781   0.002360  -0.000034  -0.000013   0.116145
     8  H    0.001257  -0.000053  -0.000174   0.000002   0.000004  -0.023037
               7          8
     1  C   -0.031269   0.001257
     2  C    0.001781  -0.000053
     3  H    0.002360  -0.000174
     4  H   -0.000034   0.000002
     5  H   -0.000013   0.000004
     6  O    0.116145  -0.023037
     7  O    8.056379   0.243040
     8  H    0.243040   0.363230
 Mulliken charges:
               1
     1  C    0.152624
     2  C   -0.493197
     3  H    0.255558
     4  H    0.228088
     5  H    0.238549
     6  O   -0.408963
     7  O   -0.388389
     8  H    0.415730
 Sum of Mulliken charges =   0.00000
 Mulliken charges with hydrogens summed into heavy atoms:
               1
     1  C    0.408182
     2  C   -0.026560
     6  O   -0.408963
     7  O    0.027340
 Electronic spatial extent (au):  <R**2>=            354.0487
 Charge=              0.0000 electrons
 Dipole moment (field-independent basis, Debye):
    X=              0.7164    Y=             -0.8027    Z=             -1.5609  Tot=              1.8958
 Quadrupole moment (field-independent basis, Debye-Ang):
   XX=            -19.9593   YY=            -25.0146   ZZ=            -22.3299
   XY=              0.9610   XZ=              3.7696   YZ=             -0.9194
 Traceless Quadrupole moment (field-independent basis, Debye-Ang):
   XX=              2.4752   YY=             -2.5800   ZZ=              0.1047
   XY=              0.9610   XZ=              3.7696   YZ=             -0.9194
 Octapole moment (field-independent basis, Debye-Ang**2):
  XXX=            -12.5735  YYY=            -49.5588  ZZZ=              8.5479  XYY=              0.6139
  XXY=            -11.7299  XXZ=             -1.5869  XZZ=            -12.4213  YZZ=            -10.4352
  YYZ=              5.1558  XYZ=              3.7917
 Hexadecapole moment (field-independent basis, Debye-Ang**3):
 XXXX=           -160.9027 YYYY=           -191.6091 ZZZZ=            -39.2202 XXXY=             39.0767
 XXXZ=             -3.9862 YYYX=             56.3528 YYYZ=             28.1861 ZZZX=             -5.9233
 ZZZY=             17.1580 XXYY=            -58.5869 XXZZ=            -31.4326 YYZZ=            -35.0037
 XXYZ=              0.6338 YYXZ=             -2.1634 ZZXY=              8.2043
 N-N= 1.167657597859D+02 E-N=-7.668868550112D+02  KE= 2.256189147847D+02
 No NMR shielding tensors so no spin-rotation constants.
 Leave Link  601 at Fri Apr 12 15:22:04 2019, MaxMem=   134217728 cpu:         0.2
 (Enter /cm/shared/c3ddb/gaussian/09.d01/g09/l9999.exe)
 1\1\GINC-NODE029\FOpt\RHF\3-21G\C2H4O2\MATTSJ\12-Apr-2019\0\\#p hf 3-2
 1g scf=tight NoSymmetry guess=read opt=(tight,modredundant)\\Geometry 
 optimization at the 2D-PES\\0,1\C,0.7255373869,0.6392029291,0.02020914
 2\C,1.3676999921,-0.5005620815,-0.0240929556\H,1.1838508105,1.60280232
 88,0.0677831379\H,2.4368948684,-0.5241711036,0.0222121297\H,0.84323626
 52,-1.4324377888,-0.0841239447\O,-0.6776507018,0.6690083567,0.05607767
 33\O,-1.0864227259,1.7798587868,-0.8132113595\H,-1.6215098955,1.299767
 5725,-1.468179823\\Version=AS64L-G09RevD.01\HF=-226.3952964\RMSD=5.584
 e-09\RMSF=3.452e-04\Dipole=0.2818728,-0.3158093,-0.614118\Quadrupole=1
 .840284,-1.918142,0.077858,0.7145143,2.8025889,-0.6835465\PG=C01 [X(C2
 H4O2)]\\@


 THE MOLECULE ALSO HAS A BODY.  WHEN THIS BODY IS HIT, THE MOLECULE
 FEELS HURT ALL OVER -- A. KITAIGORODSKI
 Job cpu time:       0 days  0 hours  0 minutes 12.9 seconds.
 File lengths (MBytes):  RWF=      5 Int=      0 D2E=      0 Chk=      1 Scr=      1
 Normal termination of Gaussian 09 at Fri Apr 12 15:22:04 2019.
