 Entering Gaussian System, Link 0=/cm/shared/c3ddb/gaussian/09.d01/g09/g09
 Initial command:
 /cm/shared/c3ddb/gaussian/09.d01/g09/l1.exe "/scratch/users/mattsj/g09/S02-7952157/Gau-46488.inp" -scrdir="/scratch/users/mattsj/g09/S02-7952157/"
 Entering Link 1 = /cm/shared/c3ddb/gaussian/09.d01/g09/l1.exe PID=     46489.
  
 Copyright (c) 1988,1990,1992,1993,1995,1998,2003,2009,2013,
            Gaussian, Inc.  All Rights Reserved.
  
 This is part of the Gaussian(R) 09 program.  It is based on
 the Gaussian(R) 03 system (copyright 2003, Gaussian, Inc.),
 the Gaussian(R) 98 system (copyright 1998, Gaussian, Inc.),
 the Gaussian(R) 94 system (copyright 1995, Gaussian, Inc.),
 the Gaussian 92(TM) system (copyright 1992, Gaussian, Inc.),
 the Gaussian 90(TM) system (copyright 1990, Gaussian, Inc.),
 the Gaussian 88(TM) system (copyright 1988, Gaussian, Inc.),
 the Gaussian 86(TM) system (copyright 1986, Carnegie Mellon
 University), and the Gaussian 82(TM) system (copyright 1983,
 Carnegie Mellon University). Gaussian is a federally registered
 trademark of Gaussian, Inc.
  
 This software contains proprietary and confidential information,
 including trade secrets, belonging to Gaussian, Inc.
  
 This software is provided under written license and may be
 used, copied, transmitted, or stored only in accord with that
 written license.
  
 The following legend is applicable only to US Government
 contracts under FAR:
  
                    RESTRICTED RIGHTS LEGEND
  
 Use, reproduction and disclosure by the US Government is
 subject to restrictions as set forth in subparagraphs (a)
 and (c) of the Commercial Computer Software - Restricted
 Rights clause in FAR 52.227-19.
  
 Gaussian, Inc.
 340 Quinnipiac St., Bldg. 40, Wallingford CT 06492
  
  
 ---------------------------------------------------------------
 Warning -- This program may not be used in any manner that
 competes with the business of Gaussian, Inc. or will provide
 assistance to any competitor of Gaussian, Inc.  The licensee
 of this program is prohibited from giving any competitor of
 Gaussian, Inc. access to this program.  By using this program,
 the user acknowledges that Gaussian, Inc. is engaged in the
 business of creating and licensing software in the field of
 computational chemistry and represents and warrants to the
 licensee that it is not a competitor of Gaussian, Inc. and that
 it will not use this program in any manner prohibited above.
 ---------------------------------------------------------------
  

 Cite this work as:
 Gaussian 09, Revision D.01,
 M. J. Frisch, G. W. Trucks, H. B. Schlegel, G. E. Scuseria, 
 M. A. Robb, J. R. Cheeseman, G. Scalmani, V. Barone, B. Mennucci, 
 G. A. Petersson, H. Nakatsuji, M. Caricato, X. Li, H. P. Hratchian, 
 A. F. Izmaylov, J. Bloino, G. Zheng, J. L. Sonnenberg, M. Hada, 
 M. Ehara, K. Toyota, R. Fukuda, J. Hasegawa, M. Ishida, T. Nakajima, 
 Y. Honda, O. Kitao, H. Nakai, T. Vreven, J. A. Montgomery, Jr., 
 J. E. Peralta, F. Ogliaro, M. Bearpark, J. J. Heyd, E. Brothers, 
 K. N. Kudin, V. N. Staroverov, T. Keith, R. Kobayashi, J. Normand, 
 K. Raghavachari, A. Rendell, J. C. Burant, S. S. Iyengar, J. Tomasi, 
 M. Cossi, N. Rega, J. M. Millam, M. Klene, J. E. Knox, J. B. Cross, 
 V. Bakken, C. Adamo, J. Jaramillo, R. Gomperts, R. E. Stratmann, 
 O. Yazyev, A. J. Austin, R. Cammi, C. Pomelli, J. W. Ochterski, 
 R. L. Martin, K. Morokuma, V. G. Zakrzewski, G. A. Voth, 
 P. Salvador, J. J. Dannenberg, S. Dapprich, A. D. Daniels, 
 O. Farkas, J. B. Foresman, J. V. Ortiz, J. Cioslowski, 
 and D. J. Fox, Gaussian, Inc., Wallingford CT, 2013.
 
 ******************************************
 Gaussian 09:  AS64L-G09RevD.01 24-Apr-2013
                12-Apr-2019 
 ******************************************
 %nproc=1
 Will use up to    1 processors via shared memory.
 %mem=1GB
 %chk=TMP_CALCS/scangeom_S02_030_020.chk
 --------------------------------------------------------------------
 #p hf 3-21g scf=tight NoSymmetry guess=read opt=(tight,modredundant)
 --------------------------------------------------------------------
 1/7=10,18=120,19=15,38=1/1,3;
 2/9=110,12=2,15=1,17=6,18=5,40=1/2;
 3/5=5,11=9,16=1,25=1,30=1,71=1,116=-2/1,2,3;
 4/5=1/1;
 5/5=2,32=2,38=6/2;
 6/7=2,8=2,9=2,10=2,28=1/1;
 7/30=1/1,2,3,16;
 1/7=10,18=20,19=15/3(2);
 2/9=110,15=1/2;
 99//99;
 2/9=110,15=1/2;
 3/5=5,11=9,16=1,25=1,30=1,71=1/1,2,3;
 4/5=5,16=3,69=1/1;
 5/5=2,32=2,38=5/2;
 7/30=1/1,2,3,16;
 1/7=10,18=20,19=15/3(-5);
 2/9=110,15=1/2;
 6/7=2,8=2,9=2,10=2,19=2,28=1/1;
 99/9=1/99;
 Leave Link    1 at Fri Apr 12 17:22:50 2019, MaxMem=   134217728 cpu:         0.1
 (Enter /cm/shared/c3ddb/gaussian/09.d01/g09/l101.exe)
 -----------------------------------
 Geometry optimization at the 2D-PES
 -----------------------------------
 Symbolic Z-matrix:
 Charge =  0 Multiplicity = 1
 C                     0.74839   0.57535   0.03263 
 C                     1.44461  -0.53487  -0.0401 
 H                     1.18766   1.55007   0.06856 
 H                     2.51344  -0.49422  -0.03843 
 H                     0.99393  -1.50194  -0.14152 
 O                    -0.64068   0.69065   0.04759 
 O                    -1.31745  -0.46067   0.65361 
 H                    -0.62805  -0.89136   1.19234 
 
 The following ModRedundant input section has been read:
 D       2       1       6       7 F                                           
 D       1       6       7       8 F                                           
 
 NAtoms=      8 NQM=        8 NQMF=       0 NMMI=      0 NMMIF=      0
                NMic=       0 NMicF=      0.
                    Isotopes and Nuclear Properties:
 (Nuclear quadrupole moments (NQMom) in fm**2, nuclear magnetic moments (NMagM)
  in nuclear magnetons)

  Atom         1           2           3           4           5           6           7           8
 IAtWgt=          12          12           1           1           1          16          16           1
 AtmWgt=  12.0000000  12.0000000   1.0078250   1.0078250   1.0078250  15.9949146  15.9949146   1.0078250
 NucSpn=           0           0           1           1           1           0           0           1
 AtZEff=   0.0000000   0.0000000   0.0000000   0.0000000   0.0000000   0.0000000   0.0000000   0.0000000
 NQMom=    0.0000000   0.0000000   0.0000000   0.0000000   0.0000000   0.0000000   0.0000000   0.0000000
 NMagM=    0.0000000   0.0000000   2.7928460   2.7928460   2.7928460   0.0000000   0.0000000   2.7928460
 AtZNuc=   6.0000000   6.0000000   1.0000000   1.0000000   1.0000000   8.0000000   8.0000000   1.0000000
 Leave Link  101 at Fri Apr 12 17:22:50 2019, MaxMem=   134217728 cpu:         0.2
 (Enter /cm/shared/c3ddb/gaussian/09.d01/g09/l103.exe)

 GradGradGradGradGradGradGradGradGradGradGradGradGradGradGradGradGradGrad
 Berny optimization.
 Initialization pass.
                           ----------------------------
                           !    Initial Parameters    !
                           ! (Angstroms and Degrees)  !
 --------------------------                            --------------------------
 ! Name  Definition              Value          Derivative Info.                !
 --------------------------------------------------------------------------------
 ! R1    R(1,2)                  1.3125         estimate D2E/DX2                !
 ! R2    R(1,3)                  1.0697         estimate D2E/DX2                !
 ! R3    R(1,6)                  1.3939         estimate D2E/DX2                !
 ! R4    R(2,4)                  1.0696         estimate D2E/DX2                !
 ! R5    R(2,5)                  1.0717         estimate D2E/DX2                !
 ! R6    R(6,7)                  1.4666         estimate D2E/DX2                !
 ! R7    R(7,8)                  0.9752         estimate D2E/DX2                !
 ! A1    A(2,1,3)              123.6971         estimate D2E/DX2                !
 ! A2    A(2,1,6)              126.8108         estimate D2E/DX2                !
 ! A3    A(3,1,6)              109.4798         estimate D2E/DX2                !
 ! A4    A(1,2,4)              119.8576         estimate D2E/DX2                !
 ! A5    A(1,2,5)              123.0565         estimate D2E/DX2                !
 ! A6    A(4,2,5)              117.0419         estimate D2E/DX2                !
 ! A7    A(1,6,7)              113.5384         estimate D2E/DX2                !
 ! A8    A(6,7,8)              104.4041         estimate D2E/DX2                !
 ! D1    D(3,1,2,4)              1.7328         estimate D2E/DX2                !
 ! D2    D(3,1,2,5)           -175.7815         estimate D2E/DX2                !
 ! D3    D(6,1,2,4)           -179.682          estimate D2E/DX2                !
 ! D4    D(6,1,2,5)              2.8037         estimate D2E/DX2                !
 ! D5    D(2,1,6,7)             30.0            Frozen                          !
 ! D6    D(3,1,6,7)           -151.2486         estimate D2E/DX2                !
 ! D7    D(1,6,7,8)             20.0            Frozen                          !
 --------------------------------------------------------------------------------
 Trust Radius=3.00D-01 FncErr=1.00D-07 GrdErr=1.00D-07
 Number of steps in this run=     32 maximum allowed number of steps=    100.
 GradGradGradGradGradGradGradGradGradGradGradGradGradGradGradGradGradGrad

 Leave Link  103 at Fri Apr 12 17:22:50 2019, MaxMem=   134217728 cpu:         0.0
 (Enter /cm/shared/c3ddb/gaussian/09.d01/g09/l202.exe)
                          Input orientation:                          
 ---------------------------------------------------------------------
 Center     Atomic      Atomic             Coordinates (Angstroms)
 Number     Number       Type             X           Y           Z
 ---------------------------------------------------------------------
      1          6           0        0.748392    0.575351    0.032632
      2          6           0        1.444609   -0.534865   -0.040096
      3          1           0        1.187656    1.550069    0.068557
      4          1           0        2.513439   -0.494219   -0.038432
      5          1           0        0.993931   -1.501942   -0.141523
      6          8           0       -0.640676    0.690646    0.047593
      7          8           0       -1.317452   -0.460672    0.653610
      8          1           0       -0.628052   -0.891361    1.192340
 ---------------------------------------------------------------------
                    Distance matrix (angstroms):
                    1          2          3          4          5
     1  C    0.000000
     2  C    1.312474   0.000000
     3  H    1.069728   2.103516   0.000000
     4  H    2.065047   1.069604   2.438906   0.000000
     5  H    2.098992   1.071744   3.065360   1.826209   0.000000
     6  O    1.393925   2.420326   2.020358   3.370422   2.741377
     7  O    2.393046   2.848809   3.265108   3.893042   2.656872
     8  H    2.321802   2.437604   3.243496   3.397276   2.186968
                    6          7          8
     6  O    0.000000
     7  O    1.466566   0.000000
     8  H    1.952780   0.975190   0.000000
 Symmetry turned off by external request.
 Stoichiometry    C2H4O2
 Framework group  C1[X(C2H4O2)]
 Deg. of freedom    18
 Full point group                 C1      NOp   1
 Rotational constants (GHZ):     18.9674573      6.3273347      4.8674490
 Leave Link  202 at Fri Apr 12 17:22:50 2019, MaxMem=   134217728 cpu:         0.0
 (Enter /cm/shared/c3ddb/gaussian/09.d01/g09/l301.exe)
 Standard basis: 3-21G (6D, 7F)
 Ernie: Thresh=  0.10000D-02 Tol=  0.10000D-05 Strict=F.
    44 basis functions,    72 primitive gaussians,    44 cartesian basis functions
    16 alpha electrons       16 beta electrons
       nuclear repulsion energy       118.6063017622 Hartrees.
 IExCor=    0 DFT=F Ex=HF Corr=None ExCW=0 ScaHFX=  1.000000
 ScaDFX=  1.000000  1.000000  1.000000  1.000000 ScalE2=  1.000000  1.000000
 IRadAn=      0 IRanWt=     -1 IRanGd=            0 ICorTp=0 IEmpDi=  4
 NAtoms=    8 NActive=    8 NUniq=    8 SFac= 1.00D+00 NAtFMM=   60 NAOKFM=F Big=F
 Integral buffers will be    131072 words long.
 Raffenetti 1 integral format.
 Two-electron integral symmetry is turned off.
 Leave Link  301 at Fri Apr 12 17:22:50 2019, MaxMem=   134217728 cpu:         0.1
 (Enter /cm/shared/c3ddb/gaussian/09.d01/g09/l302.exe)
 NPDir=0 NMtPBC=     1 NCelOv=     1 NCel=       1 NClECP=     1 NCelD=      1
         NCelK=      1 NCelE2=     1 NClLst=     1 CellRange=     0.0.
 One-electron integrals computed using PRISM.
 NBasis=    44 RedAO= T EigKep=  1.21D-02  NBF=    44
 NBsUse=    44 1.00D-06 EigRej= -1.00D+00 NBFU=    44
 Leave Link  302 at Fri Apr 12 17:22:51 2019, MaxMem=   134217728 cpu:         0.2
 (Enter /cm/shared/c3ddb/gaussian/09.d01/g09/l303.exe)
 DipDrv:  MaxL=1.
 Leave Link  303 at Fri Apr 12 17:22:51 2019, MaxMem=   134217728 cpu:         0.0
 (Enter /cm/shared/c3ddb/gaussian/09.d01/g09/l401.exe)
 Initial guess from the checkpoint file:  "TMP_CALCS/scangeom_S02_030_020.chk"
 B after Tr=    -0.002414    0.000768    0.008613
         Rot=    0.999983    0.005826   -0.000814   -0.000058 Ang=   0.67 deg.
 Guess basis will be translated and rotated to current coordinates.
 JPrj=2 DoOrth=T DoCkMO=T.
 Leave Link  401 at Fri Apr 12 17:22:51 2019, MaxMem=   134217728 cpu:         0.2
 (Enter /cm/shared/c3ddb/gaussian/09.d01/g09/l502.exe)
 Closed shell SCF:
 Using DIIS extrapolation, IDIIS=  1040.
 Two-electron integral symmetry not used.
 Keep R1 ints in memory in canonical form, NReq=1327460.
 IVT=       24902 IEndB=       24902 NGot=   134217728 MDV=   133702282
 LenX=   133702282 LenY=   133699905
 Requested convergence on RMS density matrix=1.00D-08 within 128 cycles.
 Requested convergence on MAX density matrix=1.00D-06.
 Requested convergence on             energy=1.00D-06.
 No special actions if energy rises.
 FoFCou: FMM=F IPFlag=           0 FMFlag=           0 FMFlg1=           0
         NFxFlg=           0 DoJE=F BraDBF=F KetDBF=F FulRan=T
         wScrn=  0.000000 ICntrl=     600 IOpCl=  0 I1Cent=           0 NGrid=           0
         NMat0=    1 NMatS0=    990 NMatT0=    0 NMatD0=    1 NMtDS0=    0 NMtDT0=    0
 Symmetry not used in FoFCou.

 Cycle   1  Pass 1  IDiag  1:
 E= -226.381346714269    
 DIIS: error= 6.72D-03 at cycle   1 NSaved=   1.
 NSaved= 1 IEnMin= 1 EnMin= -226.381346714269     IErMin= 1 ErrMin= 6.72D-03
 ErrMax= 6.72D-03  0.00D+00 EMaxC= 1.00D-01 BMatC= 2.09D-03 BMatP= 2.09D-03
 IDIUse=3 WtCom= 9.33D-01 WtEn= 6.72D-02
 Coeff-Com:  0.100D+01
 Coeff-En:   0.100D+01
 Coeff:      0.100D+01
 Gap=     0.540 Goal=   None    Shift=    0.000
 GapD=    0.540 DampG=2.000 DampE=1.000 DampFc=2.0000 IDamp=-1.
 RMSDP=1.17D-03 MaxDP=1.46D-02              OVMax= 1.37D-02

 Cycle   2  Pass 1  IDiag  1:
 E= -226.384453399612     Delta-E=       -0.003106685344 Rises=F Damp=F
 DIIS: error= 3.10D-03 at cycle   2 NSaved=   2.
 NSaved= 2 IEnMin= 2 EnMin= -226.384453399612     IErMin= 2 ErrMin= 3.10D-03
 ErrMax= 3.10D-03  0.00D+00 EMaxC= 1.00D-01 BMatC= 1.90D-04 BMatP= 2.09D-03
 IDIUse=3 WtCom= 9.69D-01 WtEn= 3.10D-02
 Coeff-Com: -0.310D+00 0.131D+01
 Coeff-En:   0.000D+00 0.100D+01
 Coeff:     -0.301D+00 0.130D+01
 Gap=     0.540 Goal=   None    Shift=    0.000
 RMSDP=5.99D-04 MaxDP=5.36D-03 DE=-3.11D-03 OVMax= 9.49D-03

 Cycle   3  Pass 1  IDiag  1:
 E= -226.384953035705     Delta-E=       -0.000499636093 Rises=F Damp=F
 DIIS: error= 1.02D-03 at cycle   3 NSaved=   3.
 NSaved= 3 IEnMin= 3 EnMin= -226.384953035705     IErMin= 3 ErrMin= 1.02D-03
 ErrMax= 1.02D-03  0.00D+00 EMaxC= 1.00D-01 BMatC= 1.63D-05 BMatP= 1.90D-04
 IDIUse=3 WtCom= 9.90D-01 WtEn= 1.02D-02
 Coeff-Com:  0.776D-01-0.492D+00 0.141D+01
 Coeff-En:   0.000D+00 0.000D+00 0.100D+01
 Coeff:      0.768D-01-0.487D+00 0.141D+01
 Gap=     0.540 Goal=   None    Shift=    0.000
 RMSDP=2.57D-04 MaxDP=3.33D-03 DE=-5.00D-04 OVMax= 4.47D-03

 Cycle   4  Pass 1  IDiag  1:
 E= -226.385009899507     Delta-E=       -0.000056863802 Rises=F Damp=F
 DIIS: error= 2.34D-04 at cycle   4 NSaved=   4.
 NSaved= 4 IEnMin= 4 EnMin= -226.385009899507     IErMin= 4 ErrMin= 2.34D-04
 ErrMax= 2.34D-04  0.00D+00 EMaxC= 1.00D-01 BMatC= 2.62D-06 BMatP= 1.63D-05
 IDIUse=3 WtCom= 9.98D-01 WtEn= 2.34D-03
 Coeff-Com:  0.538D-01-0.270D+00 0.349D+00 0.867D+00
 Coeff-En:   0.000D+00 0.000D+00 0.000D+00 0.100D+01
 Coeff:      0.536D-01-0.269D+00 0.348D+00 0.867D+00
 Gap=     0.540 Goal=   None    Shift=    0.000
 RMSDP=7.25D-05 MaxDP=8.91D-04 DE=-5.69D-05 OVMax= 1.17D-03

 Cycle   5  Pass 1  IDiag  1:
 E= -226.385014731412     Delta-E=       -0.000004831905 Rises=F Damp=F
 DIIS: error= 6.61D-05 at cycle   5 NSaved=   5.
 NSaved= 5 IEnMin= 5 EnMin= -226.385014731412     IErMin= 5 ErrMin= 6.61D-05
 ErrMax= 6.61D-05  0.00D+00 EMaxC= 1.00D-01 BMatC= 2.43D-07 BMatP= 2.62D-06
 IDIUse=1 WtCom= 1.00D+00 WtEn= 0.00D+00
 Coeff-Com: -0.304D-02 0.325D-01-0.166D+00 0.161D+00 0.976D+00
 Coeff:     -0.304D-02 0.325D-01-0.166D+00 0.161D+00 0.976D+00
 Gap=     0.540 Goal=   None    Shift=    0.000
 RMSDP=2.32D-05 MaxDP=2.99D-04 DE=-4.83D-06 OVMax= 3.78D-04

 Cycle   6  Pass 1  IDiag  1:
 E= -226.385015111770     Delta-E=       -0.000000380358 Rises=F Damp=F
 DIIS: error= 1.11D-05 at cycle   6 NSaved=   6.
 NSaved= 6 IEnMin= 6 EnMin= -226.385015111770     IErMin= 6 ErrMin= 1.11D-05
 ErrMax= 1.11D-05  0.00D+00 EMaxC= 1.00D-01 BMatC= 6.88D-09 BMatP= 2.43D-07
 IDIUse=1 WtCom= 1.00D+00 WtEn= 0.00D+00
 Coeff-Com: -0.170D-02 0.128D-01-0.463D-01 0.229D-01 0.229D+00 0.784D+00
 Coeff:     -0.170D-02 0.128D-01-0.463D-01 0.229D-01 0.229D+00 0.784D+00
 Gap=     0.540 Goal=   None    Shift=    0.000
 RMSDP=2.31D-06 MaxDP=1.53D-05 DE=-3.80D-07 OVMax= 3.70D-05

 Cycle   7  Pass 1  IDiag  1:
 E= -226.385015121780     Delta-E=       -0.000000010010 Rises=F Damp=F
 DIIS: error= 6.34D-06 at cycle   7 NSaved=   7.
 NSaved= 7 IEnMin= 7 EnMin= -226.385015121780     IErMin= 7 ErrMin= 6.34D-06
 ErrMax= 6.34D-06  0.00D+00 EMaxC= 1.00D-01 BMatC= 1.11D-09 BMatP= 6.88D-09
 IDIUse=1 WtCom= 1.00D+00 WtEn= 0.00D+00
 Coeff-Com:  0.801D-03-0.746D-02 0.343D-01-0.305D-01-0.194D+00-0.103D+00
 Coeff-Com:  0.130D+01
 Coeff:      0.801D-03-0.746D-02 0.343D-01-0.305D-01-0.194D+00-0.103D+00
 Coeff:      0.130D+01
 Gap=     0.540 Goal=   None    Shift=    0.000
 RMSDP=1.93D-06 MaxDP=1.26D-05 DE=-1.00D-08 OVMax= 3.02D-05

 Cycle   8  Pass 1  IDiag  1:
 E= -226.385015125541     Delta-E=       -0.000000003761 Rises=F Damp=F
 DIIS: error= 3.31D-06 at cycle   8 NSaved=   8.
 NSaved= 8 IEnMin= 8 EnMin= -226.385015125541     IErMin= 8 ErrMin= 3.31D-06
 ErrMax= 3.31D-06  0.00D+00 EMaxC= 1.00D-01 BMatC= 1.35D-10 BMatP= 1.11D-09
 IDIUse=1 WtCom= 1.00D+00 WtEn= 0.00D+00
 Coeff-Com: -0.246D-03 0.272D-02-0.140D-01 0.141D-01 0.853D-01-0.287D-01
 Coeff-Com: -0.766D+00 0.171D+01
 Coeff:     -0.246D-03 0.272D-02-0.140D-01 0.141D-01 0.853D-01-0.287D-01
 Coeff:     -0.766D+00 0.171D+01
 Gap=     0.540 Goal=   None    Shift=    0.000
 RMSDP=9.93D-07 MaxDP=7.73D-06 DE=-3.76D-09 OVMax= 2.11D-05

 Cycle   9  Pass 1  IDiag  1:
 E= -226.385015126331     Delta-E=       -0.000000000790 Rises=F Damp=F
 DIIS: error= 1.19D-06 at cycle   9 NSaved=   9.
 NSaved= 9 IEnMin= 9 EnMin= -226.385015126331     IErMin= 9 ErrMin= 1.19D-06
 ErrMax= 1.19D-06  0.00D+00 EMaxC= 1.00D-01 BMatC= 1.40D-11 BMatP= 1.35D-10
 IDIUse=1 WtCom= 1.00D+00 WtEn= 0.00D+00
 Coeff-Com:  0.507D-04-0.639D-03 0.357D-02-0.375D-02-0.235D-01 0.159D-01
 Coeff-Com:  0.245D+00-0.816D+00 0.158D+01
 Coeff:      0.507D-04-0.639D-03 0.357D-02-0.375D-02-0.235D-01 0.159D-01
 Coeff:      0.245D+00-0.816D+00 0.158D+01
 Gap=     0.540 Goal=   None    Shift=    0.000
 RMSDP=3.54D-07 MaxDP=2.38D-06 DE=-7.90D-10 OVMax= 7.72D-06

 Cycle  10  Pass 1  IDiag  1:
 E= -226.385015126413     Delta-E=       -0.000000000082 Rises=F Damp=F
 DIIS: error= 3.47D-07 at cycle  10 NSaved=  10.
 NSaved=10 IEnMin=10 EnMin= -226.385015126413     IErMin=10 ErrMin= 3.47D-07
 ErrMax= 3.47D-07  0.00D+00 EMaxC= 1.00D-01 BMatC= 1.94D-12 BMatP= 1.40D-11
 IDIUse=1 WtCom= 1.00D+00 WtEn= 0.00D+00
 Coeff-Com:  0.358D-04-0.375D-03 0.187D-02-0.176D-02-0.116D-01 0.161D-02
 Coeff-Com:  0.101D+00-0.208D+00 0.206D-01 0.110D+01
 Coeff:      0.358D-04-0.375D-03 0.187D-02-0.176D-02-0.116D-01 0.161D-02
 Coeff:      0.101D+00-0.208D+00 0.206D-01 0.110D+01
 Gap=     0.540 Goal=   None    Shift=    0.000
 RMSDP=8.81D-08 MaxDP=5.71D-07 DE=-8.20D-11 OVMax= 1.79D-06

 Cycle  11  Pass 1  IDiag  1:
 E= -226.385015126420     Delta-E=       -0.000000000007 Rises=F Damp=F
 DIIS: error= 1.58D-07 at cycle  11 NSaved=  11.
 NSaved=11 IEnMin=11 EnMin= -226.385015126420     IErMin=11 ErrMin= 1.58D-07
 ErrMax= 1.58D-07  0.00D+00 EMaxC= 1.00D-01 BMatC= 4.07D-13 BMatP= 1.94D-12
 IDIUse=1 WtCom= 1.00D+00 WtEn= 0.00D+00
 Coeff-Com: -0.188D-04 0.221D-03-0.120D-02 0.127D-02 0.756D-02-0.524D-02
 Coeff-Com: -0.777D-01 0.248D+00-0.433D+00-0.733D-01 0.133D+01
 Coeff:     -0.188D-04 0.221D-03-0.120D-02 0.127D-02 0.756D-02-0.524D-02
 Coeff:     -0.777D-01 0.248D+00-0.433D+00-0.733D-01 0.133D+01
 Gap=     0.540 Goal=   None    Shift=    0.000
 RMSDP=5.15D-08 MaxDP=3.71D-07 DE=-7.28D-12 OVMax= 9.87D-07

 Cycle  12  Pass 1  IDiag  1:
 E= -226.385015126423     Delta-E=       -0.000000000002 Rises=F Damp=F
 DIIS: error= 3.63D-08 at cycle  12 NSaved=  12.
 NSaved=12 IEnMin=12 EnMin= -226.385015126423     IErMin=12 ErrMin= 3.63D-08
 ErrMax= 3.63D-08  0.00D+00 EMaxC= 1.00D-01 BMatC= 2.37D-14 BMatP= 4.07D-13
 IDIUse=1 WtCom= 1.00D+00 WtEn= 0.00D+00
 Coeff-Com:  0.334D-05-0.413D-04 0.238D-03-0.258D-03-0.153D-02 0.140D-02
 Coeff-Com:  0.162D-01-0.607D-01 0.132D+00-0.853D-01-0.414D+00 0.141D+01
 Coeff:      0.334D-05-0.413D-04 0.238D-03-0.258D-03-0.153D-02 0.140D-02
 Coeff:      0.162D-01-0.607D-01 0.132D+00-0.853D-01-0.414D+00 0.141D+01
 Gap=     0.540 Goal=   None    Shift=    0.000
 RMSDP=1.54D-08 MaxDP=1.09D-07 DE=-2.33D-12 OVMax= 3.01D-07

 Cycle  13  Pass 1  IDiag  1:
 E= -226.385015126423     Delta-E=       -0.000000000001 Rises=F Damp=F
 DIIS: error= 5.89D-09 at cycle  13 NSaved=  13.
 NSaved=13 IEnMin=13 EnMin= -226.385015126423     IErMin=13 ErrMin= 5.89D-09
 ErrMax= 5.89D-09  0.00D+00 EMaxC= 1.00D-01 BMatC= 1.15D-15 BMatP= 2.37D-14
 IDIUse=1 WtCom= 1.00D+00 WtEn= 0.00D+00
 Coeff-Com:  0.685D-06-0.839D-05 0.463D-04-0.531D-04-0.282D-03 0.204D-03
 Coeff-Com:  0.292D-02-0.896D-02 0.147D-01 0.670D-02-0.434D-01-0.723D-01
 Coeff-Com:  0.110D+01
 Coeff:      0.685D-06-0.839D-05 0.463D-04-0.531D-04-0.282D-03 0.204D-03
 Coeff:      0.292D-02-0.896D-02 0.147D-01 0.670D-02-0.434D-01-0.723D-01
 Coeff:      0.110D+01
 Gap=     0.540 Goal=   None    Shift=    0.000
 RMSDP=1.93D-09 MaxDP=1.30D-08 DE=-6.25D-13 OVMax= 3.66D-08

 SCF Done:  E(RHF) =  -226.385015126     A.U. after   13 cycles
            NFock= 13  Conv=0.19D-08     -V/T= 2.0035
 KE= 2.255902964986D+02 PE=-7.701846433571D+02 EE= 1.996030299698D+02
 Leave Link  502 at Fri Apr 12 17:22:51 2019, MaxMem=   134217728 cpu:         0.2
 (Enter /cm/shared/c3ddb/gaussian/09.d01/g09/l601.exe)
 Copying SCF densities to generalized density rwf, IOpCl= 0 IROHF=0.

 **********************************************************************

            Population analysis using the SCF density.

 **********************************************************************

 Alpha  occ. eigenvalues --  -20.54262 -20.53104 -11.26230 -11.18462  -1.48137
 Alpha  occ. eigenvalues --   -1.24607  -1.05219  -0.81360  -0.72642  -0.68355
 Alpha  occ. eigenvalues --   -0.63481  -0.58483  -0.55768  -0.53676  -0.47926
 Alpha  occ. eigenvalues --   -0.37702
 Alpha virt. eigenvalues --    0.16275   0.23015   0.27536   0.28740   0.31987
 Alpha virt. eigenvalues --    0.36739   0.49666   0.57344   0.87672   0.95858
 Alpha virt. eigenvalues --    1.00290   1.05042   1.08143   1.10945   1.23458
 Alpha virt. eigenvalues --    1.30863   1.36215   1.53612   1.58985   1.73234
 Alpha virt. eigenvalues --    1.80431   1.89870   1.93405   1.95486   2.09547
 Alpha virt. eigenvalues --    2.32453   3.01984   3.53783
          Condensed to atoms (all electrons):
               1          2          3          4          5          6
     1  C    4.937397   0.436173   0.387517  -0.038621  -0.056621   0.242882
     2  C    0.436173   5.425882  -0.054641   0.378252   0.394931  -0.057556
     3  H    0.387517  -0.054641   0.429330   0.000165   0.001669  -0.034256
     4  H   -0.038621   0.378252   0.000165   0.436358  -0.014883   0.001261
     5  H   -0.056621   0.394931   0.001669  -0.014883   0.436784  -0.003183
     6  O    0.242882  -0.057556  -0.034256   0.001261  -0.003183   8.133355
     7  O   -0.036428  -0.002209   0.001442   0.000113   0.003644   0.132298
     8  H   -0.001978   0.007328   0.000216  -0.000076   0.001171  -0.026773
               7          8
     1  C   -0.036428  -0.001978
     2  C   -0.002209   0.007328
     3  H    0.001442   0.000216
     4  H    0.000113  -0.000076
     5  H    0.003644   0.001171
     6  O    0.132298  -0.026773
     7  O    8.032406   0.232086
     8  H    0.232086   0.380638
 Mulliken charges:
               1
     1  C    0.129680
     2  C   -0.528161
     3  H    0.268558
     4  H    0.237429
     5  H    0.236487
     6  O   -0.388029
     7  O   -0.363352
     8  H    0.407389
 Sum of Mulliken charges =   0.00000
 Mulliken charges with hydrogens summed into heavy atoms:
               1
     1  C    0.398238
     2  C   -0.054245
     6  O   -0.388029
     7  O    0.044036
 Electronic spatial extent (au):  <R**2>=            273.5897
 Charge=              0.0000 electrons
 Dipole moment (field-independent basis, Debye):
    X=              3.1194    Y=             -0.9051    Z=              1.1349  Tot=              3.4407
 Quadrupole moment (field-independent basis, Debye-Ang):
   XX=            -25.7181   YY=            -20.9959   ZZ=            -23.5965
   XY=              1.5292   XZ=              0.1568   YZ=             -1.4033
 Traceless Quadrupole moment (field-independent basis, Debye-Ang):
   XX=             -2.2813   YY=              2.4409   ZZ=             -0.1596
   XY=              1.5292   XZ=              0.1568   YZ=             -1.4033
 Octapole moment (field-independent basis, Debye-Ang**2):
  XXX=             -1.6289  YYY=             -2.2981  ZZZ=             -9.7138  XYY=             -1.2191
  XXY=              0.5391  XXZ=             -5.9955  XZZ=             -7.0460  YZZ=             -2.5534
  YYZ=             -2.6788  XYZ=              1.1144
 Hexadecapole moment (field-independent basis, Debye-Ang**3):
 XXXX=           -198.3040 YYYY=            -72.4999 ZZZZ=            -36.0575 XXXY=              1.6679
 XXXZ=             19.1069 YYYX=              8.9122 YYYZ=              2.7455 ZZZX=             15.0398
 ZZZY=              1.2296 XXYY=            -46.4245 XXZZ=            -45.6791 YYZZ=            -18.2094
 XXYZ=              1.8842 YYXZ=              3.8248 ZZXY=              3.5431
 N-N= 1.186063017622D+02 E-N=-7.701846431712D+02  KE= 2.255902964986D+02
 No NMR shielding tensors so no spin-rotation constants.
 Leave Link  601 at Fri Apr 12 17:22:51 2019, MaxMem=   134217728 cpu:         0.1
 (Enter /cm/shared/c3ddb/gaussian/09.d01/g09/l701.exe)
 Compute integral first derivatives.
 ... and contract with generalized density number  0.
 Leave Link  701 at Fri Apr 12 17:22:52 2019, MaxMem=   134217728 cpu:         0.1
 (Enter /cm/shared/c3ddb/gaussian/09.d01/g09/l702.exe)
 L702 exits ... SP integral derivatives will be done elsewhere.
 Leave Link  702 at Fri Apr 12 17:22:52 2019, MaxMem=   134217728 cpu:         0.0
 (Enter /cm/shared/c3ddb/gaussian/09.d01/g09/l703.exe)
 Compute integral first derivatives, UseDBF=F ICtDFT=           0.
 Integral derivatives from FoFJK, PRISM(SPDF).
 Calling FoFJK, ICntrl=      2127 FMM=F ISym2X=0 I1Cent= 0 IOpClX= 0 NMat=1 NMatS=1 NMatT=0.
 FoFJK:  IHMeth= 1 ICntrl=    2127 DoSepK=F KAlg= 0 I1Cent=   0 FoldK=F
 IRaf=         0 NMat=   1 IRICut=       1 DoRegI=T DoRafI=F ISym2E= 0.
 FoFCou: FMM=F IPFlag=           0 FMFlag=      100000 FMFlg1=         800
         NFxFlg=           0 DoJE=F BraDBF=F KetDBF=F FulRan=T
         wScrn=  0.000000 ICntrl=    2127 IOpCl=  0 I1Cent=           0 NGrid=           0
         NMat0=    1 NMatS0=      1 NMatT0=    0 NMatD0=    1 NMtDS0=    0 NMtDT0=    0
 Symmetry not used in FoFCou.
 Leave Link  703 at Fri Apr 12 17:22:52 2019, MaxMem=   134217728 cpu:         0.2
 (Enter /cm/shared/c3ddb/gaussian/09.d01/g09/l716.exe)
 Dipole        = 1.22728601D+00-3.56076378D-01 4.46520518D-01
 -------------------------------------------------------------------
 Center     Atomic                   Forces (Hartrees/Bohr)
 Number     Number              X              Y              Z
 -------------------------------------------------------------------
      1        6           0.000294597   -0.003135184   -0.003819012
      2        6          -0.000248829   -0.000540112    0.000213806
      3        1          -0.000108340    0.000157678    0.000004787
      4        1           0.000195766    0.000282528    0.000003663
      5        1          -0.000929903    0.000614792    0.000674207
      6        8          -0.001204626    0.003525071    0.006580514
      7        8           0.001459323   -0.003997000   -0.007922588
      8        1           0.000542012    0.003092227    0.004264623
 -------------------------------------------------------------------
 Cartesian Forces:  Max     0.007922588 RMS     0.002834670
 Leave Link  716 at Fri Apr 12 17:22:52 2019, MaxMem=   134217728 cpu:         0.1
 (Enter /cm/shared/c3ddb/gaussian/09.d01/g09/l103.exe)

 GradGradGradGradGradGradGradGradGradGradGradGradGradGradGradGradGradGrad
 Berny optimization.
 FormGI is forming the generalized inverse of G from B-inverse, IUseBI=4.
 Internal  Forces:  Max     0.008829794 RMS     0.002496450
 Search for a local minimum.
 Step number   1 out of a maximum of   32
 All quantities printed in internal units (Hartrees-Bohrs-Radians)
 RMS Force = .16563D-02 SwitMx=.10000D-02 MixMth= 1
 Mixed Optimization -- RFO/linear search
 Second derivative matrix not updated -- first step.
 ITU=  0
     Eigenvalues ---    0.02602   0.03247   0.03252   0.15998   0.16000
     Eigenvalues ---    0.16000   0.16000   0.22001   0.25000   0.36154
     Eigenvalues ---    0.37011   0.37264   0.37280   0.46642   0.52330
     Eigenvalues ---    0.638451000.000001000.000001000.000001000.00000
     Eigenvalues --- 1000.000001000.00000
 RFO step:  Lambda=-2.53435702D-04 EMin= 2.60191425D-02
 Linear search not attempted -- first point.
 Iteration  1 RMS(Cart)=  0.02889380 RMS(Int)=  0.00028524
 Iteration  2 RMS(Cart)=  0.00032284 RMS(Int)=  0.00001404
 Iteration  3 RMS(Cart)=  0.00000009 RMS(Int)=  0.00001404
 Iteration  1 RMS(Cart)=  0.00000287 RMS(Int)=  0.00000133
 Iteration  2 RMS(Cart)=  0.00000103 RMS(Int)=  0.00000147
 Iteration  3 RMS(Cart)=  0.00000037 RMS(Int)=  0.00000159
 ITry= 1 IFail=0 DXMaxC= 8.41D-02 DCOld= 1.00D+10 DXMaxT= 3.00D-01 DXLimC= 3.00D+00 Rises=F
 Variable       Old X    -DE/DX   Delta X   Delta X   Delta X     New X
                                 (Linear)    (Quad)   (Total)
    R1        2.48022  -0.00087   0.00000  -0.00137  -0.00137   2.47885
    R2        2.02149   0.00010   0.00000   0.00027   0.00027   2.02176
    R3        2.63414  -0.00055   0.00000  -0.00117  -0.00117   2.63297
    R4        2.02126   0.00021   0.00000   0.00055   0.00055   2.02181
    R5        2.02530  -0.00023   0.00000  -0.00061  -0.00061   2.02469
    R6        2.77141  -0.00172   0.00000  -0.00477  -0.00477   2.76664
    R7        1.84284   0.00137   0.00000   0.00262   0.00262   1.84547
    A1        2.15892   0.00121   0.00000   0.00563   0.00561   2.16454
    A2        2.21327  -0.00206   0.00000  -0.00940  -0.00942   2.20385
    A3        1.91078   0.00085   0.00000   0.00354   0.00353   1.91431
    A4        2.09191   0.00038   0.00000   0.00253   0.00250   2.09441
    A5        2.14774  -0.00130   0.00000  -0.00798  -0.00801   2.13973
    A6        2.04277   0.00094   0.00000   0.00600   0.00596   2.04873
    A7        1.98162  -0.00576   0.00000  -0.02303  -0.02303   1.95859
    A8        1.82220  -0.00239   0.00000  -0.01492  -0.01492   1.80727
    D1        0.03024  -0.00027   0.00000   0.00536   0.00537   0.03561
    D2       -3.06797  -0.00078   0.00000  -0.01009  -0.01008  -3.07805
    D3       -3.13604   0.00021   0.00000  -0.00717  -0.00718   3.13996
    D4        0.04893  -0.00029   0.00000  -0.02262  -0.02263   0.02630
    D5        0.52360  -0.00165   0.00000   0.00000   0.00000   0.52360
    D6       -2.63979  -0.00122   0.00000  -0.01100  -0.01099  -2.65077
    D7        0.34907   0.00883   0.00000   0.00000   0.00000   0.34907
         Item               Value     Threshold  Converged?
 Maximum Force            0.005763     0.000015     NO 
 RMS     Force            0.001656     0.000010     NO 
 Maximum Displacement     0.084109     0.000060     NO 
 RMS     Displacement     0.028855     0.000040     NO 
 Predicted change in Energy=-1.269089D-04
 Lowest energy point so far.  Saving SCF results.
 GradGradGradGradGradGradGradGradGradGradGradGradGradGradGradGradGradGrad

 Leave Link  103 at Fri Apr 12 17:22:52 2019, MaxMem=   134217728 cpu:         0.0
 (Enter /cm/shared/c3ddb/gaussian/09.d01/g09/l202.exe)
                          Input orientation:                          
 ---------------------------------------------------------------------
 Center     Atomic      Atomic             Coordinates (Angstroms)
 Number     Number       Type             X           Y           Z
 ---------------------------------------------------------------------
      1          6           0        0.743626    0.579854    0.038454
      2          6           0        1.430800   -0.535027   -0.035847
      3          1           0        1.184956    1.553870    0.072256
      4          1           0        2.500284   -0.505428   -0.033322
      5          1           0        0.964610   -1.495517   -0.125663
      6          8           0       -0.645033    0.693444    0.043520
      7          8           0       -1.293852   -0.474419    0.642312
      8          1           0       -0.583543   -0.883770    1.172970
 ---------------------------------------------------------------------
                    Distance matrix (angstroms):
                    1          2          3          4          5
     1  C    0.000000
     2  C    1.311750   0.000000
     3  H    1.069869   2.106090   0.000000
     4  H    2.066116   1.069897   2.445800   0.000000
     5  H    2.093546   1.071419   3.063736   1.829507   0.000000
     6  O    1.393306   2.413404   2.022379   3.366929   2.722338
     7  O    2.372226   2.808434   3.253215   3.853947   2.594818
     8  H    2.278311   2.374960   3.206438   3.332907   2.111270
                    6          7          8
     6  O    0.000000
     7  O    1.464043   0.000000
     8  H    1.940887   0.976578   0.000000
 Symmetry turned off by external request.
 Stoichiometry    C2H4O2
 Framework group  C1[X(C2H4O2)]
 Deg. of freedom    18
 Full point group                 C1      NOp   1
 Rotational constants (GHZ):     18.7363678      6.4795808      4.9411680
 Leave Link  202 at Fri Apr 12 17:22:52 2019, MaxMem=   134217728 cpu:         0.0
 (Enter /cm/shared/c3ddb/gaussian/09.d01/g09/l301.exe)
 Standard basis: 3-21G (6D, 7F)
 Ernie: Thresh=  0.10000D-02 Tol=  0.10000D-05 Strict=F.
    44 basis functions,    72 primitive gaussians,    44 cartesian basis functions
    16 alpha electrons       16 beta electrons
       nuclear repulsion energy       119.0586131069 Hartrees.
 IExCor=    0 DFT=F Ex=HF Corr=None ExCW=0 ScaHFX=  1.000000
 ScaDFX=  1.000000  1.000000  1.000000  1.000000 ScalE2=  1.000000  1.000000
 IRadAn=      0 IRanWt=     -1 IRanGd=            0 ICorTp=0 IEmpDi=  4
 NAtoms=    8 NActive=    8 NUniq=    8 SFac= 1.00D+00 NAtFMM=   60 NAOKFM=F Big=F
 Integral buffers will be    131072 words long.
 Raffenetti 1 integral format.
 Two-electron integral symmetry is turned off.
 Leave Link  301 at Fri Apr 12 17:22:52 2019, MaxMem=   134217728 cpu:         0.1
 (Enter /cm/shared/c3ddb/gaussian/09.d01/g09/l302.exe)
 NPDir=0 NMtPBC=     1 NCelOv=     1 NCel=       1 NClECP=     1 NCelD=      1
         NCelK=      1 NCelE2=     1 NClLst=     1 CellRange=     0.0.
 One-electron integrals computed using PRISM.
 NBasis=    44 RedAO= T EigKep=  1.20D-02  NBF=    44
 NBsUse=    44 1.00D-06 EigRej= -1.00D+00 NBFU=    44
 Leave Link  302 at Fri Apr 12 17:22:52 2019, MaxMem=   134217728 cpu:         0.1
 (Enter /cm/shared/c3ddb/gaussian/09.d01/g09/l303.exe)
 DipDrv:  MaxL=1.
 Leave Link  303 at Fri Apr 12 17:22:52 2019, MaxMem=   134217728 cpu:         0.0
 (Enter /cm/shared/c3ddb/gaussian/09.d01/g09/l401.exe)
 Initial guess from the checkpoint file:  "TMP_CALCS/scangeom_S02_030_020.chk"
 B after Tr=     0.003403   -0.002551   -0.003675
         Rot=    0.999997   -0.001279    0.001000   -0.001694 Ang=  -0.27 deg.
 Guess basis will be translated and rotated to current coordinates.
 JPrj=2 DoOrth=T DoCkMO=T.
 Generating alternative initial guess.
 ExpMin= 1.83D-01 ExpMax= 3.22D+02 ExpMxC= 3.22D+02 IAcc=1 IRadAn=         1 AccDes= 0.00D+00
 Harris functional with IExCor=  205 and IRadAn=       1 diagonalized for initial guess.
 HarFok:  IExCor=  205 AccDes= 0.00D+00 IRadAn=         1 IDoV= 1 UseB2=F ITyADJ=14
 ICtDFT=  3500011 ScaDFX=  1.000000  1.000000  1.000000  1.000000
 FoFCou: FMM=F IPFlag=           0 FMFlag=      100000 FMFlg1=           0
         NFxFlg=           0 DoJE=T BraDBF=F KetDBF=T FulRan=T
         wScrn=  0.000000 ICntrl=     500 IOpCl=  0 I1Cent=   200000004 NGrid=           0
         NMat0=    1 NMatS0=      1 NMatT0=    0 NMatD0=    1 NMtDS0=    0 NMtDT0=    0
 Symmetry not used in FoFCou.
 Harris En= -226.622541639764    
 Leave Link  401 at Fri Apr 12 17:22:53 2019, MaxMem=   134217728 cpu:         0.4
 (Enter /cm/shared/c3ddb/gaussian/09.d01/g09/l502.exe)
 Closed shell SCF:
 Using DIIS extrapolation, IDIIS=  1040.
 Two-electron integral symmetry not used.
 Keep R1 ints in memory in canonical form, NReq=1327502.
 IVT=       24902 IEndB=       24902 NGot=   134217728 MDV=   133702282
 LenX=   133702282 LenY=   133699905
 Requested convergence on RMS density matrix=1.00D-08 within 128 cycles.
 Requested convergence on MAX density matrix=1.00D-06.
 Requested convergence on             energy=1.00D-06.
 No special actions if energy rises.
 FoFCou: FMM=F IPFlag=           0 FMFlag=           0 FMFlg1=           0
         NFxFlg=           0 DoJE=F BraDBF=F KetDBF=F FulRan=T
         wScrn=  0.000000 ICntrl=     600 IOpCl=  0 I1Cent=           0 NGrid=           0
         NMat0=    1 NMatS0=    990 NMatT0=    0 NMatD0=    1 NMtDS0=    0 NMtDT0=    0
 Symmetry not used in FoFCou.

 Cycle   1  Pass 1  IDiag  1:
 E= -226.384675640304    
 DIIS: error= 1.37D-03 at cycle   1 NSaved=   1.
 NSaved= 1 IEnMin= 1 EnMin= -226.384675640304     IErMin= 1 ErrMin= 1.37D-03
 ErrMax= 1.37D-03  0.00D+00 EMaxC= 1.00D-01 BMatC= 2.19D-04 BMatP= 2.19D-04
 IDIUse=3 WtCom= 9.86D-01 WtEn= 1.37D-02
 Coeff-Com:  0.100D+01
 Coeff-En:   0.100D+01
 Coeff:      0.100D+01
 Gap=     0.912 Goal=   None    Shift=    0.000
 GapD=    0.912 DampG=2.000 DampE=1.000 DampFc=2.0000 IDamp=-1.
 RMSDP=3.98D-04 MaxDP=1.96D-03              OVMax= 3.63D-03

 Cycle   2  Pass 1  IDiag  1:
 E= -226.384988975482     Delta-E=       -0.000313335178 Rises=F Damp=F
 DIIS: error= 5.75D-04 at cycle   2 NSaved=   2.
 NSaved= 2 IEnMin= 2 EnMin= -226.384988975482     IErMin= 2 ErrMin= 5.75D-04
 ErrMax= 5.75D-04  0.00D+00 EMaxC= 1.00D-01 BMatC= 1.75D-05 BMatP= 2.19D-04
 IDIUse=3 WtCom= 9.94D-01 WtEn= 5.75D-03
 Coeff-Com: -0.210D+00 0.121D+01
 Coeff-En:   0.000D+00 0.100D+01
 Coeff:     -0.209D+00 0.121D+01
 Gap=     0.541 Goal=   None    Shift=    0.000
 RMSDP=1.60D-04 MaxDP=8.90D-04 DE=-3.13D-04 OVMax= 2.51D-03

 Cycle   3  Pass 1  IDiag  1:
 E= -226.385034166356     Delta-E=       -0.000045190874 Rises=F Damp=F
 DIIS: error= 3.88D-04 at cycle   3 NSaved=   3.
 NSaved= 3 IEnMin= 3 EnMin= -226.385034166356     IErMin= 3 ErrMin= 3.88D-04
 ErrMax= 3.88D-04  0.00D+00 EMaxC= 1.00D-01 BMatC= 2.73D-06 BMatP= 1.75D-05
 IDIUse=3 WtCom= 9.96D-01 WtEn= 3.88D-03
 Coeff-Com: -0.505D-01 0.635D-01 0.987D+00
 Coeff-En:   0.000D+00 0.000D+00 0.100D+01
 Coeff:     -0.504D-01 0.632D-01 0.987D+00
 Gap=     0.541 Goal=   None    Shift=    0.000
 RMSDP=5.52D-05 MaxDP=3.81D-04 DE=-4.52D-05 OVMax= 9.21D-04

 Cycle   4  Pass 1  IDiag  1:
 E= -226.385040317013     Delta-E=       -0.000006150658 Rises=F Damp=F
 DIIS: error= 1.06D-04 at cycle   4 NSaved=   4.
 NSaved= 4 IEnMin= 4 EnMin= -226.385040317013     IErMin= 4 ErrMin= 1.06D-04
 ErrMax= 1.06D-04  0.00D+00 EMaxC= 1.00D-01 BMatC= 8.95D-07 BMatP= 2.73D-06
 IDIUse=3 WtCom= 9.99D-01 WtEn= 1.06D-03
 Coeff-Com:  0.367D-01-0.282D+00 0.286D+00 0.959D+00
 Coeff-En:   0.000D+00 0.000D+00 0.000D+00 0.100D+01
 Coeff:      0.367D-01-0.282D+00 0.286D+00 0.960D+00
 Gap=     0.541 Goal=   None    Shift=    0.000
 RMSDP=3.41D-05 MaxDP=2.66D-04 DE=-6.15D-06 OVMax= 5.63D-04

 Cycle   5  Pass 1  IDiag  1:
 E= -226.385042269120     Delta-E=       -0.000001952106 Rises=F Damp=F
 DIIS: error= 5.26D-05 at cycle   5 NSaved=   5.
 NSaved= 5 IEnMin= 5 EnMin= -226.385042269120     IErMin= 5 ErrMin= 5.26D-05
 ErrMax= 5.26D-05  0.00D+00 EMaxC= 1.00D-01 BMatC= 6.25D-08 BMatP= 8.95D-07
 IDIUse=1 WtCom= 1.00D+00 WtEn= 0.00D+00
 Coeff-Com: -0.386D-02 0.689D-01-0.183D+00-0.293D+00 0.141D+01
 Coeff:     -0.386D-02 0.689D-01-0.183D+00-0.293D+00 0.141D+01
 Gap=     0.541 Goal=   None    Shift=    0.000
 RMSDP=1.62D-05 MaxDP=1.10D-04 DE=-1.95D-06 OVMax= 2.68D-04

 Cycle   6  Pass 1  IDiag  1:
 E= -226.385042540965     Delta-E=       -0.000000271845 Rises=F Damp=F
 DIIS: error= 2.12D-05 at cycle   6 NSaved=   6.
 NSaved= 6 IEnMin= 6 EnMin= -226.385042540965     IErMin= 6 ErrMin= 2.12D-05
 ErrMax= 2.12D-05  0.00D+00 EMaxC= 1.00D-01 BMatC= 8.38D-09 BMatP= 6.25D-08
 IDIUse=1 WtCom= 1.00D+00 WtEn= 0.00D+00
 Coeff-Com: -0.357D-02 0.330D-01-0.462D-01-0.119D+00 0.160D+00 0.976D+00
 Coeff:     -0.357D-02 0.330D-01-0.462D-01-0.119D+00 0.160D+00 0.976D+00
 Gap=     0.541 Goal=   None    Shift=    0.000
 RMSDP=4.49D-06 MaxDP=3.95D-05 DE=-2.72D-07 OVMax= 8.20D-05

 Cycle   7  Pass 1  IDiag  1:
 E= -226.385042568464     Delta-E=       -0.000000027499 Rises=F Damp=F
 DIIS: error= 1.31D-05 at cycle   7 NSaved=   7.
 NSaved= 7 IEnMin= 7 EnMin= -226.385042568464     IErMin= 7 ErrMin= 1.31D-05
 ErrMax= 1.31D-05  0.00D+00 EMaxC= 1.00D-01 BMatC= 1.89D-09 BMatP= 8.38D-09
 IDIUse=1 WtCom= 1.00D+00 WtEn= 0.00D+00
 Coeff-Com:  0.157D-02-0.217D-01 0.487D-01 0.913D-01-0.352D+00-0.172D+00
 Coeff-Com:  0.140D+01
 Coeff:      0.157D-02-0.217D-01 0.487D-01 0.913D-01-0.352D+00-0.172D+00
 Coeff:      0.140D+01
 Gap=     0.541 Goal=   None    Shift=    0.000
 RMSDP=3.30D-06 MaxDP=2.53D-05 DE=-2.75D-08 OVMax= 7.03D-05

 Cycle   8  Pass 1  IDiag  1:
 E= -226.385042578069     Delta-E=       -0.000000009605 Rises=F Damp=F
 DIIS: error= 5.14D-06 at cycle   8 NSaved=   8.
 NSaved= 8 IEnMin= 8 EnMin= -226.385042578069     IErMin= 8 ErrMin= 5.14D-06
 ErrMax= 5.14D-06  0.00D+00 EMaxC= 1.00D-01 BMatC= 2.63D-10 BMatP= 1.89D-09
 IDIUse=1 WtCom= 1.00D+00 WtEn= 0.00D+00
 Coeff-Com:  0.976D-04 0.107D-02-0.722D-02-0.479D-02 0.655D-01-0.774D-01
 Coeff-Com: -0.397D+00 0.142D+01
 Coeff:      0.976D-04 0.107D-02-0.722D-02-0.479D-02 0.655D-01-0.774D-01
 Coeff:     -0.397D+00 0.142D+01
 Gap=     0.541 Goal=   None    Shift=    0.000
 RMSDP=1.37D-06 MaxDP=9.80D-06 DE=-9.61D-09 OVMax= 3.09D-05

 Cycle   9  Pass 1  IDiag  1:
 E= -226.385042579509     Delta-E=       -0.000000001440 Rises=F Damp=F
 DIIS: error= 1.68D-06 at cycle   9 NSaved=   9.
 NSaved= 9 IEnMin= 9 EnMin= -226.385042579509     IErMin= 9 ErrMin= 1.68D-06
 ErrMax= 1.68D-06  0.00D+00 EMaxC= 1.00D-01 BMatC= 3.71D-11 BMatP= 2.63D-10
 IDIUse=1 WtCom= 1.00D+00 WtEn= 0.00D+00
 Coeff-Com: -0.295D-03 0.394D-02-0.901D-02-0.156D-01 0.617D-01 0.350D-01
 Coeff-Com: -0.242D+00-0.370D-01 0.120D+01
 Coeff:     -0.295D-03 0.394D-02-0.901D-02-0.156D-01 0.617D-01 0.350D-01
 Coeff:     -0.242D+00-0.370D-01 0.120D+01
 Gap=     0.541 Goal=   None    Shift=    0.000
 RMSDP=4.99D-07 MaxDP=3.64D-06 DE=-1.44D-09 OVMax= 1.05D-05

 Cycle  10  Pass 1  IDiag  1:
 E= -226.385042579688     Delta-E=       -0.000000000179 Rises=F Damp=F
 DIIS: error= 4.43D-07 at cycle  10 NSaved=  10.
 NSaved=10 IEnMin=10 EnMin= -226.385042579688     IErMin=10 ErrMin= 4.43D-07
 ErrMax= 4.43D-07  0.00D+00 EMaxC= 1.00D-01 BMatC= 3.89D-12 BMatP= 3.71D-11
 IDIUse=1 WtCom= 1.00D+00 WtEn= 0.00D+00
 Coeff-Com:  0.973D-04-0.163D-02 0.435D-02 0.676D-02-0.321D-01-0.248D-02
 Coeff-Com:  0.136D+00-0.141D+00-0.487D+00 0.152D+01
 Coeff:      0.973D-04-0.163D-02 0.435D-02 0.676D-02-0.321D-01-0.248D-02
 Coeff:      0.136D+00-0.141D+00-0.487D+00 0.152D+01
 Gap=     0.541 Goal=   None    Shift=    0.000
 RMSDP=1.66D-07 MaxDP=1.24D-06 DE=-1.79D-10 OVMax= 2.90D-06

 Cycle  11  Pass 1  IDiag  1:
 E= -226.385042579707     Delta-E=       -0.000000000019 Rises=F Damp=F
 DIIS: error= 7.99D-08 at cycle  11 NSaved=  11.
 NSaved=11 IEnMin=11 EnMin= -226.385042579707     IErMin=11 ErrMin= 7.99D-08
 ErrMax= 7.99D-08  0.00D+00 EMaxC= 1.00D-01 BMatC= 2.73D-13 BMatP= 3.89D-12
 IDIUse=1 WtCom= 1.00D+00 WtEn= 0.00D+00
 Coeff-Com:  0.102D-04-0.985D-04 0.165D-03 0.343D-03-0.886D-03-0.223D-02
 Coeff-Com:  0.189D-02 0.180D-01-0.323D-01-0.162D+00 0.118D+01
 Coeff:      0.102D-04-0.985D-04 0.165D-03 0.343D-03-0.886D-03-0.223D-02
 Coeff:      0.189D-02 0.180D-01-0.323D-01-0.162D+00 0.118D+01
 Gap=     0.541 Goal=   None    Shift=    0.000
 RMSDP=3.36D-08 MaxDP=2.19D-07 DE=-1.94D-11 OVMax= 6.17D-07

 Cycle  12  Pass 1  IDiag  1:
 E= -226.385042579709     Delta-E=       -0.000000000001 Rises=F Damp=F
 DIIS: error= 3.60D-08 at cycle  12 NSaved=  12.
 NSaved=12 IEnMin=12 EnMin= -226.385042579709     IErMin=12 ErrMin= 3.60D-08
 ErrMax= 3.60D-08  0.00D+00 EMaxC= 1.00D-01 BMatC= 4.99D-14 BMatP= 2.73D-13
 IDIUse=1 WtCom= 1.00D+00 WtEn= 0.00D+00
 Coeff-Com: -0.143D-04 0.257D-03-0.694D-03-0.111D-02 0.528D-02-0.225D-04
 Coeff-Com: -0.219D-01 0.270D-01 0.743D-01-0.292D+00 0.260D+00 0.948D+00
 Coeff:     -0.143D-04 0.257D-03-0.694D-03-0.111D-02 0.528D-02-0.225D-04
 Coeff:     -0.219D-01 0.270D-01 0.743D-01-0.292D+00 0.260D+00 0.948D+00
 Gap=     0.541 Goal=   None    Shift=    0.000
 RMSDP=1.12D-08 MaxDP=6.36D-08 DE=-1.42D-12 OVMax= 1.72D-07

 Cycle  13  Pass 1  IDiag  1:
 E= -226.385042579708     Delta-E=        0.000000000000 Rises=F Damp=F
 DIIS: error= 5.03D-09 at cycle  13 NSaved=  13.
 NSaved=13 IEnMin=12 EnMin= -226.385042579709     IErMin=13 ErrMin= 5.03D-09
 ErrMax= 5.03D-09  0.00D+00 EMaxC= 1.00D-01 BMatC= 1.52D-15 BMatP= 4.99D-14
 IDIUse=1 WtCom= 1.00D+00 WtEn= 0.00D+00
 Coeff-Com:  0.366D-05-0.673D-04 0.190D-03 0.275D-03-0.139D-02 0.558D-04
 Coeff-Com:  0.611D-02-0.872D-02-0.188D-01 0.912D-01-0.140D+00-0.252D+00
 Coeff-Com:  0.132D+01
 Coeff:      0.366D-05-0.673D-04 0.190D-03 0.275D-03-0.139D-02 0.558D-04
 Coeff:      0.611D-02-0.872D-02-0.188D-01 0.912D-01-0.140D+00-0.252D+00
 Coeff:      0.132D+01
 Gap=     0.541 Goal=   None    Shift=    0.000
 RMSDP=2.12D-09 MaxDP=1.25D-08 DE= 4.55D-13 OVMax= 3.01D-08

 SCF Done:  E(RHF) =  -226.385042580     A.U. after   13 cycles
            NFock= 13  Conv=0.21D-08     -V/T= 2.0034
 KE= 2.256081622334D+02 PE=-7.710809448273D+02 EE= 2.000291269072D+02
 Leave Link  502 at Fri Apr 12 17:22:53 2019, MaxMem=   134217728 cpu:         0.2
 (Enter /cm/shared/c3ddb/gaussian/09.d01/g09/l701.exe)
 Compute integral first derivatives.
 ... and contract with generalized density number  0.
 Leave Link  701 at Fri Apr 12 17:22:54 2019, MaxMem=   134217728 cpu:         0.1
 (Enter /cm/shared/c3ddb/gaussian/09.d01/g09/l702.exe)
 L702 exits ... SP integral derivatives will be done elsewhere.
 Leave Link  702 at Fri Apr 12 17:22:54 2019, MaxMem=   134217728 cpu:         0.0
 (Enter /cm/shared/c3ddb/gaussian/09.d01/g09/l703.exe)
 Compute integral first derivatives, UseDBF=F ICtDFT=           0.
 Integral derivatives from FoFJK, PRISM(SPDF).
 Calling FoFJK, ICntrl=      2127 FMM=F ISym2X=0 I1Cent= 0 IOpClX= 0 NMat=1 NMatS=1 NMatT=0.
 FoFJK:  IHMeth= 1 ICntrl=    2127 DoSepK=F KAlg= 0 I1Cent=   0 FoldK=F
 IRaf=         0 NMat=   1 IRICut=       1 DoRegI=T DoRafI=F ISym2E= 0.
 FoFCou: FMM=F IPFlag=           0 FMFlag=      100000 FMFlg1=         800
         NFxFlg=           0 DoJE=F BraDBF=F KetDBF=F FulRan=T
         wScrn=  0.000000 ICntrl=    2127 IOpCl=  0 I1Cent=           0 NGrid=           0
         NMat0=    1 NMatS0=      1 NMatT0=    0 NMatD0=    1 NMtDS0=    0 NMtDT0=    0
 Symmetry not used in FoFCou.
 Leave Link  703 at Fri Apr 12 17:22:54 2019, MaxMem=   134217728 cpu:         0.2
 (Enter /cm/shared/c3ddb/gaussian/09.d01/g09/l716.exe)
 Dipole        = 1.24268236D+00-3.31614851D-01 4.42007396D-01
 -------------------------------------------------------------------
 Center     Atomic                   Forces (Hartrees/Bohr)
 Number     Number              X              Y              Z
 -------------------------------------------------------------------
      1        6           0.000750539   -0.000087184   -0.006924996
      2        6           0.001137889   -0.000922709    0.001756900
      3        1           0.000074670   -0.000161360    0.000029211
      4        1          -0.000202421    0.000018193    0.000073497
      5        1           0.000181635    0.000163126   -0.000657114
      6        8           0.000010369    0.004141083    0.006892045
      7        8           0.000669831   -0.005611526   -0.005837435
      8        1          -0.002622513    0.002460377    0.004667891
 -------------------------------------------------------------------
 Cartesian Forces:  Max     0.006924996 RMS     0.003025673
 Leave Link  716 at Fri Apr 12 17:22:54 2019, MaxMem=   134217728 cpu:         0.0
 (Enter /cm/shared/c3ddb/gaussian/09.d01/g09/l103.exe)

 GradGradGradGradGradGradGradGradGradGradGradGradGradGradGradGradGradGrad
 Berny optimization.
 Using GEDIIS/GDIIS optimizer.
 FormGI is forming the generalized inverse of G from B-inverse, IUseBI=4.
 Internal  Forces:  Max     0.010310590 RMS     0.002632146
 Search for a local minimum.
 Step number   2 out of a maximum of   32
 All quantities printed in internal units (Hartrees-Bohrs-Radians)
 RMS Force = .14966D-02 SwitMx=.10000D-02 MixMth= 1
 Mixed Optimization -- RFO/linear search
 Update second derivatives using D2CorX and points    1    2
 DE= -2.75D-05 DEPred=-1.27D-04 R= 2.16D-01
 Trust test= 2.16D-01 RLast= 4.29D-02 DXMaxT set to 3.00D-01
 ITU=  0  0
 Use linear search instead of GDIIS.
     Eigenvalues ---    0.02656   0.03248   0.03421   0.15587   0.15996
     Eigenvalues ---    0.16000   0.16911   0.22033   0.30964   0.36988
     Eigenvalues ---    0.37261   0.37275   0.42108   0.50939   0.53508
     Eigenvalues ---    0.652741000.000001000.000001000.000001000.00000
     Eigenvalues --- 1000.000001000.00000
 RFO step:  Lambda=-8.13498621D-06 EMin= 2.65588940D-02
 Quartic linear search produced a step of -0.43569.
 Iteration  1 RMS(Cart)=  0.01158177 RMS(Int)=  0.00004696
 Iteration  2 RMS(Cart)=  0.00006069 RMS(Int)=  0.00000331
 Iteration  3 RMS(Cart)=  0.00000000 RMS(Int)=  0.00000331
 Iteration  1 RMS(Cart)=  0.00000066 RMS(Int)=  0.00000030
 ITry= 1 IFail=0 DXMaxC= 3.44D-02 DCOld= 1.00D+10 DXMaxT= 3.00D-01 DXLimC= 3.00D+00 Rises=F
 Variable       Old X    -DE/DX   Delta X   Delta X   Delta X     New X
                                 (Linear)    (Quad)   (Total)
    R1        2.47885   0.00115   0.00060   0.00037   0.00096   2.47981
    R2        2.02176  -0.00012  -0.00012  -0.00005  -0.00016   2.02160
    R3        2.63297   0.00204   0.00051   0.00191   0.00242   2.63538
    R4        2.02181  -0.00020  -0.00024  -0.00004  -0.00028   2.02153
    R5        2.02469  -0.00017   0.00027  -0.00055  -0.00029   2.02440
    R6        2.76664   0.00290   0.00208   0.00225   0.00433   2.77097
    R7        1.84547  -0.00040  -0.00114   0.00081  -0.00033   1.84513
    A1        2.16454  -0.00067  -0.00245   0.00087  -0.00158   2.16296
    A2        2.20385   0.00111   0.00410  -0.00169   0.00241   2.20626
    A3        1.91431  -0.00041  -0.00154   0.00085  -0.00068   1.91363
    A4        2.09441  -0.00011  -0.00109   0.00078  -0.00030   2.09410
    A5        2.13973   0.00015   0.00349  -0.00346   0.00004   2.13977
    A6        2.04873  -0.00005  -0.00260   0.00269   0.00009   2.04883
    A7        1.95859   0.00475   0.01003  -0.00039   0.00964   1.96823
    A8        1.80727   0.00228   0.00650   0.00072   0.00722   1.81449
    D1        0.03561  -0.00037  -0.00234   0.00008  -0.00226   0.03335
    D2       -3.07805   0.00014   0.00439  -0.00013   0.00426  -3.07379
    D3        3.13996   0.00049   0.00313   0.00109   0.00422  -3.13900
    D4        0.02630   0.00100   0.00986   0.00088   0.01074   0.03705
    D5        0.52360  -0.00092   0.00000   0.00000   0.00000   0.52360
    D6       -2.65077  -0.00017   0.00479   0.00090   0.00568  -2.64509
    D7        0.34907   0.01031   0.00000   0.00000   0.00000   0.34907
         Item               Value     Threshold  Converged?
 Maximum Force            0.004753     0.000015     NO 
 RMS     Force            0.001497     0.000010     NO 
 Maximum Displacement     0.034389     0.000060     NO 
 RMS     Displacement     0.011607     0.000040     NO 
 Predicted change in Energy=-5.073404D-05
 Lowest energy point so far.  Saving SCF results.
 GradGradGradGradGradGradGradGradGradGradGradGradGradGradGradGradGradGrad

 Leave Link  103 at Fri Apr 12 17:22:54 2019, MaxMem=   134217728 cpu:         0.0
 (Enter /cm/shared/c3ddb/gaussian/09.d01/g09/l202.exe)
                          Input orientation:                          
 ---------------------------------------------------------------------
 Center     Atomic      Atomic             Coordinates (Angstroms)
 Number     Number       Type             X           Y           Z
 ---------------------------------------------------------------------
      1          6           0        0.746556    0.578909    0.035217
      2          6           0        1.437042   -0.534625   -0.037577
      3          1           0        1.186800    1.553275    0.070304
      4          1           0        2.506282   -0.501829   -0.034339
      5          1           0        0.973763   -1.495849   -0.132638
      6          8           0       -0.643415    0.691907    0.044193
      7          8           0       -1.303440   -0.470309    0.647309
      8          1           0       -0.601741   -0.888471    1.182213
 ---------------------------------------------------------------------
                    Distance matrix (angstroms):
                    1          2          3          4          5
     1  C    0.000000
     2  C    1.312260   0.000000
     3  H    1.069783   2.105608   0.000000
     4  H    2.066269   1.069747   2.444470   0.000000
     5  H    2.093900   1.071268   3.063287   1.829303   0.000000
     6  O    1.394586   2.416478   2.022950   3.369238   2.726318
     7  O    2.382856   2.825500   3.260234   3.870351   2.616429
     8  H    2.299284   2.402026   3.224491   3.359954   2.140082
                    6          7          8
     6  O    0.000000
     7  O    1.466332   0.000000
     8  H    1.947927   0.976403   0.000000
 Symmetry turned off by external request.
 Stoichiometry    C2H4O2
 Framework group  C1[X(C2H4O2)]
 Deg. of freedom    18
 Full point group                 C1      NOp   1
 Rotational constants (GHZ):     18.8030046      6.4132578      4.9074944
 Leave Link  202 at Fri Apr 12 17:22:54 2019, MaxMem=   134217728 cpu:         0.0
 (Enter /cm/shared/c3ddb/gaussian/09.d01/g09/l301.exe)
 Standard basis: 3-21G (6D, 7F)
 Ernie: Thresh=  0.10000D-02 Tol=  0.10000D-05 Strict=F.
    44 basis functions,    72 primitive gaussians,    44 cartesian basis functions
    16 alpha electrons       16 beta electrons
       nuclear repulsion energy       118.8204612093 Hartrees.
 IExCor=    0 DFT=F Ex=HF Corr=None ExCW=0 ScaHFX=  1.000000
 ScaDFX=  1.000000  1.000000  1.000000  1.000000 ScalE2=  1.000000  1.000000
 IRadAn=      0 IRanWt=     -1 IRanGd=            0 ICorTp=0 IEmpDi=  4
 NAtoms=    8 NActive=    8 NUniq=    8 SFac= 1.00D+00 NAtFMM=   60 NAOKFM=F Big=F
 Integral buffers will be    131072 words long.
 Raffenetti 1 integral format.
 Two-electron integral symmetry is turned off.
 Leave Link  301 at Fri Apr 12 17:22:54 2019, MaxMem=   134217728 cpu:         0.1
 (Enter /cm/shared/c3ddb/gaussian/09.d01/g09/l302.exe)
 NPDir=0 NMtPBC=     1 NCelOv=     1 NCel=       1 NClECP=     1 NCelD=      1
         NCelK=      1 NCelE2=     1 NClLst=     1 CellRange=     0.0.
 One-electron integrals computed using PRISM.
 NBasis=    44 RedAO= T EigKep=  1.21D-02  NBF=    44
 NBsUse=    44 1.00D-06 EigRej= -1.00D+00 NBFU=    44
 Leave Link  302 at Fri Apr 12 17:22:54 2019, MaxMem=   134217728 cpu:         0.1
 (Enter /cm/shared/c3ddb/gaussian/09.d01/g09/l303.exe)
 DipDrv:  MaxL=1.
 Leave Link  303 at Fri Apr 12 17:22:55 2019, MaxMem=   134217728 cpu:         0.1
 (Enter /cm/shared/c3ddb/gaussian/09.d01/g09/l401.exe)
 Initial guess from the checkpoint file:  "TMP_CALCS/scangeom_S02_030_020.chk"
 B after Tr=    -0.000943    0.000446    0.001012
         Rot=    1.000000    0.000705   -0.000408    0.000480 Ang=   0.11 deg.
 Guess basis will be translated and rotated to current coordinates.
 JPrj=2 DoOrth=T DoCkMO=T.
 Generating alternative initial guess.
 ExpMin= 1.83D-01 ExpMax= 3.22D+02 ExpMxC= 3.22D+02 IAcc=1 IRadAn=         1 AccDes= 0.00D+00
 Harris functional with IExCor=  205 and IRadAn=       1 diagonalized for initial guess.
 HarFok:  IExCor=  205 AccDes= 0.00D+00 IRadAn=         1 IDoV= 1 UseB2=F ITyADJ=14
 ICtDFT=  3500011 ScaDFX=  1.000000  1.000000  1.000000  1.000000
 FoFCou: FMM=F IPFlag=           0 FMFlag=      100000 FMFlg1=           0
         NFxFlg=           0 DoJE=T BraDBF=F KetDBF=T FulRan=T
         wScrn=  0.000000 ICntrl=     500 IOpCl=  0 I1Cent=   200000004 NGrid=           0
         NMat0=    1 NMatS0=      1 NMatT0=    0 NMatD0=    1 NMtDS0=    0 NMtDT0=    0
 Symmetry not used in FoFCou.
 Harris En= -226.622283847499    
 Leave Link  401 at Fri Apr 12 17:22:55 2019, MaxMem=   134217728 cpu:         0.4
 (Enter /cm/shared/c3ddb/gaussian/09.d01/g09/l502.exe)
 Closed shell SCF:
 Using DIIS extrapolation, IDIIS=  1040.
 Two-electron integral symmetry not used.
 Keep R1 ints in memory in canonical form, NReq=1327488.
 IVT=       24902 IEndB=       24902 NGot=   134217728 MDV=   133702282
 LenX=   133702282 LenY=   133699905
 Requested convergence on RMS density matrix=1.00D-08 within 128 cycles.
 Requested convergence on MAX density matrix=1.00D-06.
 Requested convergence on             energy=1.00D-06.
 No special actions if energy rises.
 FoFCou: FMM=F IPFlag=           0 FMFlag=           0 FMFlg1=           0
         NFxFlg=           0 DoJE=F BraDBF=F KetDBF=F FulRan=T
         wScrn=  0.000000 ICntrl=     600 IOpCl=  0 I1Cent=           0 NGrid=           0
         NMat0=    1 NMatS0=    990 NMatT0=    0 NMatD0=    1 NMtDS0=    0 NMtDT0=    0
 Symmetry not used in FoFCou.

 Cycle   1  Pass 1  IDiag  1:
 E= -226.385033045312    
 DIIS: error= 5.61D-04 at cycle   1 NSaved=   1.
 NSaved= 1 IEnMin= 1 EnMin= -226.385033045312     IErMin= 1 ErrMin= 5.61D-04
 ErrMax= 5.61D-04  0.00D+00 EMaxC= 1.00D-01 BMatC= 3.63D-05 BMatP= 3.63D-05
 IDIUse=3 WtCom= 9.94D-01 WtEn= 5.61D-03
 Coeff-Com:  0.100D+01
 Coeff-En:   0.100D+01
 Coeff:      0.100D+01
 Gap=     0.912 Goal=   None    Shift=    0.000
 RMSDP=1.59D-04 MaxDP=8.13D-04              OVMax= 1.37D-03

 Cycle   2  Pass 1  IDiag  1:
 E= -226.385082691009     Delta-E=       -0.000049645697 Rises=F Damp=F
 DIIS: error= 2.38D-04 at cycle   2 NSaved=   2.
 NSaved= 2 IEnMin= 2 EnMin= -226.385082691009     IErMin= 2 ErrMin= 2.38D-04
 ErrMax= 2.38D-04  0.00D+00 EMaxC= 1.00D-01 BMatC= 2.74D-06 BMatP= 3.63D-05
 IDIUse=3 WtCom= 9.98D-01 WtEn= 2.38D-03
 Coeff-Com: -0.199D+00 0.120D+01
 Coeff-En:   0.000D+00 0.100D+01
 Coeff:     -0.199D+00 0.120D+01
 Gap=     0.540 Goal=   None    Shift=    0.000
 RMSDP=6.30D-05 MaxDP=3.71D-04 DE=-4.96D-05 OVMax= 1.01D-03

 Cycle   3  Pass 1  IDiag  1:
 E= -226.385090372567     Delta-E=       -0.000007681559 Rises=F Damp=F
 DIIS: error= 1.43D-04 at cycle   3 NSaved=   3.
 NSaved= 3 IEnMin= 3 EnMin= -226.385090372567     IErMin= 3 ErrMin= 1.43D-04
 ErrMax= 1.43D-04  0.00D+00 EMaxC= 1.00D-01 BMatC= 3.84D-07 BMatP= 2.74D-06
 IDIUse=3 WtCom= 9.99D-01 WtEn= 1.43D-03
 Coeff-Com: -0.165D-03-0.249D+00 0.125D+01
 Coeff-En:   0.000D+00 0.000D+00 0.100D+01
 Coeff:     -0.165D-03-0.248D+00 0.125D+01
 Gap=     0.540 Goal=   None    Shift=    0.000
 RMSDP=2.74D-05 MaxDP=2.00D-04 DE=-7.68D-06 OVMax= 4.95D-04

 Cycle   4  Pass 1  IDiag  1:
 E= -226.385091615030     Delta-E=       -0.000001242463 Rises=F Damp=F
 DIIS: error= 4.36D-05 at cycle   4 NSaved=   4.
 NSaved= 4 IEnMin= 4 EnMin= -226.385091615030     IErMin= 4 ErrMin= 4.36D-05
 ErrMax= 4.36D-05  0.00D+00 EMaxC= 1.00D-01 BMatC= 1.16D-07 BMatP= 3.84D-07
 IDIUse=1 WtCom= 1.00D+00 WtEn= 0.00D+00
 Coeff-Com:  0.313D-01-0.273D+00 0.404D+00 0.838D+00
 Coeff:      0.313D-01-0.273D+00 0.404D+00 0.838D+00
 Gap=     0.540 Goal=   None    Shift=    0.000
 RMSDP=1.11D-05 MaxDP=9.65D-05 DE=-1.24D-06 OVMax= 1.79D-04

 Cycle   5  Pass 1  IDiag  1:
 E= -226.385091842556     Delta-E=       -0.000000227525 Rises=F Damp=F
 DIIS: error= 2.17D-05 at cycle   5 NSaved=   5.
 NSaved= 5 IEnMin= 5 EnMin= -226.385091842556     IErMin= 5 ErrMin= 2.17D-05
 ErrMax= 2.17D-05  0.00D+00 EMaxC= 1.00D-01 BMatC= 1.15D-08 BMatP= 1.16D-07
 IDIUse=1 WtCom= 1.00D+00 WtEn= 0.00D+00
 Coeff-Com: -0.180D-02 0.639D-01-0.246D+00-0.934D-01 0.128D+01
 Coeff:     -0.180D-02 0.639D-01-0.246D+00-0.934D-01 0.128D+01
 Gap=     0.540 Goal=   None    Shift=    0.000
 RMSDP=6.40D-06 MaxDP=4.55D-05 DE=-2.28D-07 OVMax= 1.15D-04

 Cycle   6  Pass 1  IDiag  1:
 E= -226.385091887026     Delta-E=       -0.000000044470 Rises=F Damp=F
 DIIS: error= 8.97D-06 at cycle   6 NSaved=   6.
 NSaved= 6 IEnMin= 6 EnMin= -226.385091887026     IErMin= 6 ErrMin= 8.97D-06
 ErrMax= 8.97D-06  0.00D+00 EMaxC= 1.00D-01 BMatC= 1.28D-09 BMatP= 1.15D-08
 IDIUse=1 WtCom= 1.00D+00 WtEn= 0.00D+00
 Coeff-Com: -0.298D-02 0.268D-01-0.396D-01-0.869D-01 0.500D-02 0.110D+01
 Coeff:     -0.298D-02 0.268D-01-0.396D-01-0.869D-01 0.500D-02 0.110D+01
 Gap=     0.540 Goal=   None    Shift=    0.000
 RMSDP=2.05D-06 MaxDP=1.61D-05 DE=-4.45D-08 OVMax= 3.72D-05

 Cycle   7  Pass 1  IDiag  1:
 E= -226.385091892101     Delta-E=       -0.000000005075 Rises=F Damp=F
 DIIS: error= 4.89D-06 at cycle   7 NSaved=   7.
 NSaved= 7 IEnMin= 7 EnMin= -226.385091892101     IErMin= 7 ErrMin= 4.89D-06
 ErrMax= 4.89D-06  0.00D+00 EMaxC= 1.00D-01 BMatC= 2.65D-10 BMatP= 1.28D-09
 IDIUse=1 WtCom= 1.00D+00 WtEn= 0.00D+00
 Coeff-Com:  0.132D-02-0.194D-01 0.531D-01 0.470D-01-0.223D+00-0.327D+00
 Coeff-Com:  0.147D+01
 Coeff:      0.132D-02-0.194D-01 0.531D-01 0.470D-01-0.223D+00-0.327D+00
 Coeff:      0.147D+01
 Gap=     0.540 Goal=   None    Shift=    0.000
 RMSDP=1.24D-06 MaxDP=9.60D-06 DE=-5.07D-09 OVMax= 2.74D-05

 Cycle   8  Pass 1  IDiag  1:
 E= -226.385091893473     Delta-E=       -0.000000001373 Rises=F Damp=F
 DIIS: error= 1.96D-06 at cycle   8 NSaved=   8.
 NSaved= 8 IEnMin= 8 EnMin= -226.385091893473     IErMin= 8 ErrMin= 1.96D-06
 ErrMax= 1.96D-06  0.00D+00 EMaxC= 1.00D-01 BMatC= 4.11D-11 BMatP= 2.65D-10
 IDIUse=1 WtCom= 1.00D+00 WtEn= 0.00D+00
 Coeff-Com:  0.329D-03-0.254D-02 0.204D-02 0.106D-01 0.664D-02-0.121D+00
 Coeff-Com: -0.855D-01 0.119D+01
 Coeff:      0.329D-03-0.254D-02 0.204D-02 0.106D-01 0.664D-02-0.121D+00
 Coeff:     -0.855D-01 0.119D+01
 Gap=     0.540 Goal=   None    Shift=    0.000
 RMSDP=4.51D-07 MaxDP=3.23D-06 DE=-1.37D-09 OVMax= 1.03D-05

 Cycle   9  Pass 1  IDiag  1:
 E= -226.385091893669     Delta-E=       -0.000000000195 Rises=F Damp=F
 DIIS: error= 8.15D-07 at cycle   9 NSaved=   9.
 NSaved= 9 IEnMin= 9 EnMin= -226.385091893669     IErMin= 9 ErrMin= 8.15D-07
 ErrMax= 8.15D-07  0.00D+00 EMaxC= 1.00D-01 BMatC= 9.32D-12 BMatP= 4.11D-11
 IDIUse=1 WtCom= 1.00D+00 WtEn= 0.00D+00
 Coeff-Com: -0.334D-03 0.507D-02-0.147D-01-0.104D-01 0.610D-01 0.769D-01
 Coeff-Com: -0.405D+00 0.102D+00 0.119D+01
 Coeff:     -0.334D-03 0.507D-02-0.147D-01-0.104D-01 0.610D-01 0.769D-01
 Coeff:     -0.405D+00 0.102D+00 0.119D+01
 Gap=     0.540 Goal=   None    Shift=    0.000
 RMSDP=2.47D-07 MaxDP=1.77D-06 DE=-1.95D-10 OVMax= 5.26D-06

 Cycle  10  Pass 1  IDiag  1:
 E= -226.385091893711     Delta-E=       -0.000000000042 Rises=F Damp=F
 DIIS: error= 2.04D-07 at cycle  10 NSaved=  10.
 NSaved=10 IEnMin=10 EnMin= -226.385091893711     IErMin=10 ErrMin= 2.04D-07
 ErrMax= 2.04D-07  0.00D+00 EMaxC= 1.00D-01 BMatC= 7.75D-13 BMatP= 9.32D-12
 IDIUse=1 WtCom= 1.00D+00 WtEn= 0.00D+00
 Coeff-Com:  0.105D-03-0.195D-02 0.632D-02 0.371D-02-0.284D-01-0.208D-01
 Coeff-Com:  0.192D+00-0.181D+00-0.530D+00 0.156D+01
 Coeff:      0.105D-03-0.195D-02 0.632D-02 0.371D-02-0.284D-01-0.208D-01
 Coeff:      0.192D+00-0.181D+00-0.530D+00 0.156D+01
 Gap=     0.540 Goal=   None    Shift=    0.000
 RMSDP=7.65D-08 MaxDP=5.74D-07 DE=-4.19D-11 OVMax= 1.37D-06

 Cycle  11  Pass 1  IDiag  1:
 E= -226.385091893714     Delta-E=       -0.000000000004 Rises=F Damp=F
 DIIS: error= 3.16D-08 at cycle  11 NSaved=  11.
 NSaved=11 IEnMin=11 EnMin= -226.385091893714     IErMin=11 ErrMin= 3.16D-08
 ErrMax= 3.16D-08  0.00D+00 EMaxC= 1.00D-01 BMatC= 5.06D-14 BMatP= 7.75D-13
 IDIUse=1 WtCom= 1.00D+00 WtEn= 0.00D+00
 Coeff-Com:  0.113D-04-0.127D-03 0.309D-03 0.240D-03-0.988D-03-0.328D-02
 Coeff-Com:  0.650D-02 0.109D-01-0.157D-01-0.180D+00 0.118D+01
 Coeff:      0.113D-04-0.127D-03 0.309D-03 0.240D-03-0.988D-03-0.328D-02
 Coeff:      0.650D-02 0.109D-01-0.157D-01-0.180D+00 0.118D+01
 Gap=     0.540 Goal=   None    Shift=    0.000
 RMSDP=1.47D-08 MaxDP=9.39D-08 DE=-3.69D-12 OVMax= 2.60D-07

 Cycle  12  Pass 1  IDiag  1:
 E= -226.385091893715     Delta-E=       -0.000000000001 Rises=F Damp=F
 DIIS: error= 1.17D-08 at cycle  12 NSaved=  12.
 NSaved=12 IEnMin=12 EnMin= -226.385091893715     IErMin=12 ErrMin= 1.17D-08
 ErrMax= 1.17D-08  0.00D+00 EMaxC= 1.00D-01 BMatC= 8.26D-15 BMatP= 5.06D-14
 IDIUse=1 WtCom= 1.00D+00 WtEn= 0.00D+00
 Coeff-Com: -0.150D-04 0.295D-03-0.971D-03-0.602D-03 0.452D-02 0.261D-02
 Coeff-Com: -0.290D-01 0.300D-01 0.820D-01-0.286D+00 0.228D+00 0.968D+00
 Coeff:     -0.150D-04 0.295D-03-0.971D-03-0.602D-03 0.452D-02 0.261D-02
 Coeff:     -0.290D-01 0.300D-01 0.820D-01-0.286D+00 0.228D+00 0.968D+00
 Gap=     0.540 Goal=   None    Shift=    0.000
 RMSDP=4.72D-09 MaxDP=2.67D-08 DE=-6.25D-13 OVMax= 7.90D-08

 SCF Done:  E(RHF) =  -226.385091894     A.U. after   12 cycles
            NFock= 12  Conv=0.47D-08     -V/T= 2.0035
 KE= 2.255949196977D+02 PE=-7.706077223156D+02 EE= 1.998072495149D+02
 Leave Link  502 at Fri Apr 12 17:22:55 2019, MaxMem=   134217728 cpu:         0.2
 (Enter /cm/shared/c3ddb/gaussian/09.d01/g09/l701.exe)
 Compute integral first derivatives.
 ... and contract with generalized density number  0.
 Leave Link  701 at Fri Apr 12 17:22:56 2019, MaxMem=   134217728 cpu:         0.1
 (Enter /cm/shared/c3ddb/gaussian/09.d01/g09/l702.exe)
 L702 exits ... SP integral derivatives will be done elsewhere.
 Leave Link  702 at Fri Apr 12 17:22:56 2019, MaxMem=   134217728 cpu:         0.1
 (Enter /cm/shared/c3ddb/gaussian/09.d01/g09/l703.exe)
 Compute integral first derivatives, UseDBF=F ICtDFT=           0.
 Integral derivatives from FoFJK, PRISM(SPDF).
 Calling FoFJK, ICntrl=      2127 FMM=F ISym2X=0 I1Cent= 0 IOpClX= 0 NMat=1 NMatS=1 NMatT=0.
 FoFJK:  IHMeth= 1 ICntrl=    2127 DoSepK=F KAlg= 0 I1Cent=   0 FoldK=F
 IRaf=         0 NMat=   1 IRICut=       1 DoRegI=T DoRafI=F ISym2E= 0.
 FoFCou: FMM=F IPFlag=           0 FMFlag=      100000 FMFlg1=         800
         NFxFlg=           0 DoJE=F BraDBF=F KetDBF=F FulRan=T
         wScrn=  0.000000 ICntrl=    2127 IOpCl=  0 I1Cent=           0 NGrid=           0
         NMat0=    1 NMatS0=      1 NMatT0=    0 NMatD0=    1 NMtDS0=    0 NMtDT0=    0
 Symmetry not used in FoFCou.
 Leave Link  703 at Fri Apr 12 17:22:56 2019, MaxMem=   134217728 cpu:         0.2
 (Enter /cm/shared/c3ddb/gaussian/09.d01/g09/l716.exe)
 Dipole        = 1.23776642D+00-3.40977592D-01 4.44628287D-01
 -------------------------------------------------------------------
 Center     Atomic                   Forces (Hartrees/Bohr)
 Number     Number              X              Y              Z
 -------------------------------------------------------------------
      1        6           0.000169633   -0.001787672   -0.005403246
      2        6           0.000147592   -0.000148904    0.001106426
      3        1          -0.000087385    0.000007146    0.000016068
      4        1          -0.000063150    0.000032202   -0.000006599
      5        1          -0.000075863    0.000003508   -0.000108139
      6        8          -0.000264420    0.003207918    0.007086104
      7        8           0.001583701   -0.004393591   -0.006897247
      8        1          -0.001410108    0.003079393    0.004206632
 -------------------------------------------------------------------
 Cartesian Forces:  Max     0.007086104 RMS     0.002834625
 Leave Link  716 at Fri Apr 12 17:22:56 2019, MaxMem=   134217728 cpu:         0.1
 (Enter /cm/shared/c3ddb/gaussian/09.d01/g09/l103.exe)

 GradGradGradGradGradGradGradGradGradGradGradGradGradGradGradGradGradGrad
 Berny optimization.
 Using GEDIIS/GDIIS optimizer.
 FormGI is forming the generalized inverse of G from B-inverse, IUseBI=4.
 Internal  Forces:  Max     0.009669484 RMS     0.002086428
 Search for a local minimum.
 Step number   3 out of a maximum of   32
 All quantities printed in internal units (Hartrees-Bohrs-Radians)
 RMS Force = .91960D-04 SwitMx=.10000D-02 MixMth= 2
 Mixed Optimization -- En-DIIS/RFO-DIIS
 Update second derivatives using D2CorX and points    1    2    3
 DE= -4.93D-05 DEPred=-5.07D-05 R= 9.72D-01
 TightC=F SS=  1.41D+00  RLast= 1.92D-02 DXNew= 5.0454D-01 5.7603D-02
 Trust test= 9.72D-01 RLast= 1.92D-02 DXMaxT set to 3.00D-01
 ITU=  1  0  0
 Use linear search instead of GDIIS.
     Eigenvalues ---    0.02644   0.03250   0.03374   0.15321   0.16000
     Eigenvalues ---    0.16013   0.17155   0.22019   0.31131   0.36999
     Eigenvalues ---    0.37263   0.37279   0.43535   0.50457   0.53160
     Eigenvalues ---    0.650131000.000001000.000001000.000001000.00000
     Eigenvalues --- 1000.000001000.00000
 RFO step:  Lambda=-1.29062726D-06 EMin= 2.64449269D-02
 Quartic linear search produced a step of  0.00829.
 Iteration  1 RMS(Cart)=  0.00138188 RMS(Int)=  0.00000199
 Iteration  2 RMS(Cart)=  0.00000182 RMS(Int)=  0.00000058
 Iteration  3 RMS(Cart)=  0.00000000 RMS(Int)=  0.00000058
 Iteration  1 RMS(Cart)=  0.00000035 RMS(Int)=  0.00000016
 ITry= 1 IFail=0 DXMaxC= 4.03D-03 DCOld= 1.00D+10 DXMaxT= 3.00D-01 DXLimC= 3.00D+00 Rises=F
 Variable       Old X    -DE/DX   Delta X   Delta X   Delta X     New X
                                 (Linear)    (Quad)   (Total)
    R1        2.47981   0.00005   0.00001   0.00007   0.00008   2.47989
    R2        2.02160  -0.00003   0.00000  -0.00008  -0.00008   2.02152
    R3        2.63538   0.00027   0.00002   0.00061   0.00063   2.63602
    R4        2.02153  -0.00006   0.00000  -0.00017  -0.00017   2.02136
    R5        2.02440   0.00004   0.00000   0.00010   0.00010   2.02450
    R6        2.77097  -0.00014   0.00004  -0.00040  -0.00036   2.77060
    R7        1.84513  -0.00003   0.00000  -0.00003  -0.00003   1.84510
    A1        2.16296   0.00011  -0.00001   0.00064   0.00063   2.16359
    A2        2.20626  -0.00002   0.00002  -0.00015  -0.00013   2.20613
    A3        1.91363  -0.00008  -0.00001  -0.00044  -0.00044   1.91319
    A4        2.09410   0.00000   0.00000   0.00000   0.00000   2.09410
    A5        2.13977  -0.00007   0.00000  -0.00056  -0.00056   2.13920
    A6        2.04883   0.00007   0.00000   0.00048   0.00048   2.04930
    A7        1.96823  -0.00003   0.00008  -0.00023  -0.00015   1.96809
    A8        1.81449  -0.00013   0.00006  -0.00090  -0.00084   1.81365
    D1        0.03335  -0.00033  -0.00002  -0.00140  -0.00142   0.03193
    D2       -3.07379  -0.00023   0.00004   0.00162   0.00166  -3.07213
    D3       -3.13900   0.00031   0.00003   0.00087   0.00091  -3.13809
    D4        0.03705   0.00041   0.00009   0.00390   0.00399   0.04104
    D5        0.52360  -0.00116   0.00000   0.00000   0.00000   0.52360
    D6       -2.64509  -0.00060   0.00005   0.00202   0.00207  -2.64302
    D7        0.34907   0.00967   0.00000   0.00000   0.00000   0.34907
         Item               Value     Threshold  Converged?
 Maximum Force            0.000272     0.000015     NO 
 RMS     Force            0.000092     0.000010     NO 
 Maximum Displacement     0.004025     0.000060     NO 
 RMS     Displacement     0.001382     0.000040     NO 
 Predicted change in Energy=-6.469771D-07
 Lowest energy point so far.  Saving SCF results.
 GradGradGradGradGradGradGradGradGradGradGradGradGradGradGradGradGradGrad

 Leave Link  103 at Fri Apr 12 17:22:56 2019, MaxMem=   134217728 cpu:         0.0
 (Enter /cm/shared/c3ddb/gaussian/09.d01/g09/l202.exe)
                          Input orientation:                          
 ---------------------------------------------------------------------
 Center     Atomic      Atomic             Coordinates (Angstroms)
 Number     Number       Type             X           Y           Z
 ---------------------------------------------------------------------
      1          6           0        0.746562    0.578648    0.034634
      2          6           0        1.437152   -0.534938   -0.037102
      3          1           0        1.186159    1.553220    0.070821
      4          1           0        2.506298   -0.502110   -0.033121
      5          1           0        0.973491   -1.495773   -0.134768
      6          8           0       -0.643767    0.691386    0.043572
      7          8           0       -1.303235   -0.470312    0.647830
      8          1           0       -0.600813   -0.887113    1.182814
 ---------------------------------------------------------------------
                    Distance matrix (angstroms):
                    1          2          3          4          5
     1  C    0.000000
     2  C    1.312302   0.000000
     3  H    1.069741   2.105956   0.000000
     4  H    2.066229   1.069657   2.444986   0.000000
     5  H    2.093662   1.071319   3.063308   1.829534   0.000000
     6  O    1.394921   2.416734   2.022901   3.369455   2.725986
     7  O    2.382854   2.825425   3.259555   3.870044   2.616775
     8  H    2.298302   2.401150   3.222580   3.358700   2.141244
                    6          7          8
     6  O    0.000000
     7  O    1.466140   0.000000
     8  H    1.947146   0.976385   0.000000
 Symmetry turned off by external request.
 Stoichiometry    C2H4O2
 Framework group  C1[X(C2H4O2)]
 Deg. of freedom    18
 Full point group                 C1      NOp   1
 Rotational constants (GHZ):     18.8028909      6.4128839      4.9077989
 Leave Link  202 at Fri Apr 12 17:22:56 2019, MaxMem=   134217728 cpu:         0.0
 (Enter /cm/shared/c3ddb/gaussian/09.d01/g09/l301.exe)
 Standard basis: 3-21G (6D, 7F)
 Ernie: Thresh=  0.10000D-02 Tol=  0.10000D-05 Strict=F.
    44 basis functions,    72 primitive gaussians,    44 cartesian basis functions
    16 alpha electrons       16 beta electrons
       nuclear repulsion energy       118.8202166387 Hartrees.
 IExCor=    0 DFT=F Ex=HF Corr=None ExCW=0 ScaHFX=  1.000000
 ScaDFX=  1.000000  1.000000  1.000000  1.000000 ScalE2=  1.000000  1.000000
 IRadAn=      0 IRanWt=     -1 IRanGd=            0 ICorTp=0 IEmpDi=  4
 NAtoms=    8 NActive=    8 NUniq=    8 SFac= 1.00D+00 NAtFMM=   60 NAOKFM=F Big=F
 Integral buffers will be    131072 words long.
 Raffenetti 1 integral format.
 Two-electron integral symmetry is turned off.
 Leave Link  301 at Fri Apr 12 17:22:56 2019, MaxMem=   134217728 cpu:         0.1
 (Enter /cm/shared/c3ddb/gaussian/09.d01/g09/l302.exe)
 NPDir=0 NMtPBC=     1 NCelOv=     1 NCel=       1 NClECP=     1 NCelD=      1
         NCelK=      1 NCelE2=     1 NClLst=     1 CellRange=     0.0.
 One-electron integrals computed using PRISM.
 NBasis=    44 RedAO= T EigKep=  1.21D-02  NBF=    44
 NBsUse=    44 1.00D-06 EigRej= -1.00D+00 NBFU=    44
 Leave Link  302 at Fri Apr 12 17:22:56 2019, MaxMem=   134217728 cpu:         0.1
 (Enter /cm/shared/c3ddb/gaussian/09.d01/g09/l303.exe)
 DipDrv:  MaxL=1.
 Leave Link  303 at Fri Apr 12 17:22:57 2019, MaxMem=   134217728 cpu:         0.0
 (Enter /cm/shared/c3ddb/gaussian/09.d01/g09/l401.exe)
 Initial guess from the checkpoint file:  "TMP_CALCS/scangeom_S02_030_020.chk"
 B after Tr=    -0.000037   -0.000604   -0.000047
         Rot=    1.000000    0.000266   -0.000020   -0.000057 Ang=   0.03 deg.
 Guess basis will be translated and rotated to current coordinates.
 JPrj=2 DoOrth=T DoCkMO=T.
 Leave Link  401 at Fri Apr 12 17:22:57 2019, MaxMem=   134217728 cpu:         0.2
 (Enter /cm/shared/c3ddb/gaussian/09.d01/g09/l502.exe)
 Closed shell SCF:
 Using DIIS extrapolation, IDIIS=  1040.
 Two-electron integral symmetry not used.
 Keep R1 ints in memory in canonical form, NReq=1327488.
 IVT=       24902 IEndB=       24902 NGot=   134217728 MDV=   133702282
 LenX=   133702282 LenY=   133699905
 Requested convergence on RMS density matrix=1.00D-08 within 128 cycles.
 Requested convergence on MAX density matrix=1.00D-06.
 Requested convergence on             energy=1.00D-06.
 No special actions if energy rises.
 FoFCou: FMM=F IPFlag=           0 FMFlag=           0 FMFlg1=           0
         NFxFlg=           0 DoJE=F BraDBF=F KetDBF=F FulRan=T
         wScrn=  0.000000 ICntrl=     600 IOpCl=  0 I1Cent=           0 NGrid=           0
         NMat0=    1 NMatS0=    990 NMatT0=    0 NMatD0=    1 NMtDS0=    0 NMtDT0=    0
 Symmetry not used in FoFCou.

 Cycle   1  Pass 1  IDiag  1:
 E= -226.385090939060    
 DIIS: error= 9.69D-05 at cycle   1 NSaved=   1.
 NSaved= 1 IEnMin= 1 EnMin= -226.385090939060     IErMin= 1 ErrMin= 9.69D-05
 ErrMax= 9.69D-05  0.00D+00 EMaxC= 1.00D-01 BMatC= 8.18D-07 BMatP= 8.18D-07
 IDIUse=1 WtCom= 1.00D+00 WtEn= 0.00D+00
 Coeff-Com:  0.100D+01
 Coeff:      0.100D+01
 Gap=     0.912 Goal=   None    Shift=    0.000
 RMSDP=2.20D-05 MaxDP=1.78D-04              OVMax= 2.88D-04

 Cycle   2  Pass 1  IDiag  1:
 E= -226.385092183437     Delta-E=       -0.000001244377 Rises=F Damp=F
 DIIS: error= 4.62D-05 at cycle   2 NSaved=   2.
 NSaved= 2 IEnMin= 2 EnMin= -226.385092183437     IErMin= 2 ErrMin= 4.62D-05
 ErrMax= 4.62D-05  0.00D+00 EMaxC= 1.00D-01 BMatC= 6.54D-08 BMatP= 8.18D-07
 IDIUse=1 WtCom= 1.00D+00 WtEn= 0.00D+00
 Coeff-Com: -0.200D+00 0.120D+01
 Coeff:     -0.200D+00 0.120D+01
 Gap=     0.540 Goal=   None    Shift=    0.000
 RMSDP=1.02D-05 MaxDP=6.52D-05 DE=-1.24D-06 OVMax= 1.66D-04

 Cycle   3  Pass 1  IDiag  1:
 E= -226.385092375097     Delta-E=       -0.000000191660 Rises=F Damp=F
 DIIS: error= 1.70D-05 at cycle   3 NSaved=   3.
 NSaved= 3 IEnMin= 3 EnMin= -226.385092375097     IErMin= 3 ErrMin= 1.70D-05
 ErrMax= 1.70D-05  0.00D+00 EMaxC= 1.00D-01 BMatC= 1.19D-08 BMatP= 6.54D-08
 IDIUse=1 WtCom= 1.00D+00 WtEn= 0.00D+00
 Coeff-Com: -0.751D-01 0.169D+00 0.906D+00
 Coeff:     -0.751D-01 0.169D+00 0.906D+00
 Gap=     0.540 Goal=   None    Shift=    0.000
 RMSDP=3.82D-06 MaxDP=2.26D-05 DE=-1.92D-07 OVMax= 5.71D-05

 Cycle   4  Pass 1  IDiag  1:
 E= -226.385092399815     Delta-E=       -0.000000024718 Rises=F Damp=F
 DIIS: error= 7.56D-06 at cycle   4 NSaved=   4.
 NSaved= 4 IEnMin= 4 EnMin= -226.385092399815     IErMin= 4 ErrMin= 7.56D-06
 ErrMax= 7.56D-06  0.00D+00 EMaxC= 1.00D-01 BMatC= 2.76D-09 BMatP= 1.19D-08
[...]
 DIIS: error= 1.19D-06 at cycle   3 NSaved=   3.
 NSaved= 3 IEnMin= 3 EnMin= -226.385092503455     IErMin= 3 ErrMin= 1.19D-06
 ErrMax= 1.19D-06  0.00D+00 EMaxC= 1.00D-01 BMatC= 4.92D-11 BMatP= 3.05D-10
 IDIUse=1 WtCom= 1.00D+00 WtEn= 0.00D+00
 Coeff-Com: -0.472D-01 0.590D-01 0.988D+00
 Coeff:     -0.472D-01 0.590D-01 0.988D+00
 Gap=     0.540 Goal=   None    Shift=    0.000
 RMSDP=2.74D-07 MaxDP=1.64D-06 DE=-8.41D-10 OVMax= 4.20D-06

 Cycle   4  Pass 1  IDiag  1:
 E= -226.385092503569     Delta-E=       -0.000000000113 Rises=F Damp=F
 DIIS: error= 4.73D-07 at cycle   4 NSaved=   4.
 NSaved= 4 IEnMin= 4 EnMin= -226.385092503569     IErMin= 4 ErrMin= 4.73D-07
 ErrMax= 4.73D-07  0.00D+00 EMaxC= 1.00D-01 BMatC= 1.35D-11 BMatP= 4.92D-11
 IDIUse=1 WtCom= 1.00D+00 WtEn= 0.00D+00
 Coeff-Com:  0.228D-01-0.239D+00 0.286D+00 0.930D+00
 Coeff:      0.228D-01-0.239D+00 0.286D+00 0.930D+00
 Gap=     0.540 Goal=   None    Shift=    0.000
 RMSDP=1.51D-07 MaxDP=9.14D-07 DE=-1.13D-10 OVMax= 2.33D-06

 Cycle   5  Pass 1  IDiag  1:
 E= -226.385092503598     Delta-E=       -0.000000000029 Rises=F Damp=F
 DIIS: error= 1.13D-07 at cycle   5 NSaved=   5.
 NSaved= 5 IEnMin= 5 EnMin= -226.385092503598     IErMin= 5 ErrMin= 1.13D-07
 ErrMax= 1.13D-07  0.00D+00 EMaxC= 1.00D-01 BMatC= 6.67D-13 BMatP= 1.35D-11
 IDIUse=1 WtCom= 1.00D+00 WtEn= 0.00D+00
 Coeff-Com: -0.908D-03 0.420D-01-0.141D+00-0.188D+00 0.129D+01
 Coeff:     -0.908D-03 0.420D-01-0.141D+00-0.188D+00 0.129D+01
 Gap=     0.540 Goal=   None    Shift=    0.000
 RMSDP=4.95D-08 MaxDP=2.77D-07 DE=-2.90D-11 OVMax= 8.19D-07

 Cycle   6  Pass 1  IDiag  1:
 E= -226.385092503599     Delta-E=       -0.000000000002 Rises=F Damp=F
 DIIS: error= 5.81D-08 at cycle   6 NSaved=   6.
 NSaved= 6 IEnMin= 6 EnMin= -226.385092503599     IErMin= 6 ErrMin= 5.81D-08
 ErrMax= 5.81D-08  0.00D+00 EMaxC= 1.00D-01 BMatC= 9.70D-14 BMatP= 6.67D-13
 IDIUse=1 WtCom= 1.00D+00 WtEn= 0.00D+00
 Coeff-Com: -0.220D-02 0.297D-01-0.502D-01-0.119D+00 0.241D+00 0.901D+00
 Coeff:     -0.220D-02 0.297D-01-0.502D-01-0.119D+00 0.241D+00 0.901D+00
 Gap=     0.540 Goal=   None    Shift=    0.000
 RMSDP=1.21D-08 MaxDP=8.14D-08 DE=-1.82D-12 OVMax= 2.22D-07

 Cycle   7  Pass 1  IDiag  1:
 E= -226.385092503600     Delta-E=       -0.000000000001 Rises=F Damp=F
 DIIS: error= 3.68D-08 at cycle   7 NSaved=   7.
 NSaved= 7 IEnMin= 7 EnMin= -226.385092503600     IErMin= 7 ErrMin= 3.68D-08
 ErrMax= 3.68D-08  0.00D+00 EMaxC= 1.00D-01 BMatC= 1.84D-14 BMatP= 9.70D-14
 IDIUse=1 WtCom= 1.00D+00 WtEn= 0.00D+00
 Coeff-Com:  0.999D-03-0.195D-01 0.475D-01 0.805D-01-0.345D+00-0.338D+00
 Coeff-Com:  0.157D+01
 Coeff:      0.999D-03-0.195D-01 0.475D-01 0.805D-01-0.345D+00-0.338D+00
 Coeff:      0.157D+01
 Gap=     0.540 Goal=   None    Shift=    0.000
 RMSDP=1.11D-08 MaxDP=7.92D-08 DE=-9.09D-13 OVMax= 1.93D-07

 Cycle   8  Pass 1  IDiag  1:
 E= -226.385092503600     Delta-E=        0.000000000000 Rises=F Damp=F
 DIIS: error= 1.48D-08 at cycle   8 NSaved=   8.
 NSaved= 8 IEnMin= 7 EnMin= -226.385092503600     IErMin= 8 ErrMin= 1.48D-08
 ErrMax= 1.48D-08  0.00D+00 EMaxC= 1.00D-01 BMatC= 1.92D-15 BMatP= 1.84D-14
 IDIUse=1 WtCom= 1.00D+00 WtEn= 0.00D+00
 Coeff-Com: -0.195D-03 0.511D-02-0.144D-01-0.216D-01 0.118D+00 0.450D-01
 Coeff-Com: -0.652D+00 0.152D+01
 Coeff:     -0.195D-03 0.511D-02-0.144D-01-0.216D-01 0.118D+00 0.450D-01
 Coeff:     -0.652D+00 0.152D+01
 Gap=     0.540 Goal=   None    Shift=    0.000
 RMSDP=3.84D-09 MaxDP=2.83D-08 DE= 4.55D-13 OVMax= 7.35D-08

 SCF Done:  E(RHF) =  -226.385092504     A.U. after    8 cycles
            NFock=  8  Conv=0.38D-08     -V/T= 2.0035
 KE= 2.255945258215D+02 PE=-7.706030861560D+02 EE= 1.998055957914D+02
 Leave Link  502 at Fri Apr 12 17:23:00 2019, MaxMem=   134217728 cpu:         0.2
 (Enter /cm/shared/c3ddb/gaussian/09.d01/g09/l701.exe)
 Compute integral first derivatives.
 ... and contract with generalized density number  0.
 Leave Link  701 at Fri Apr 12 17:23:01 2019, MaxMem=   134217728 cpu:         0.1
 (Enter /cm/shared/c3ddb/gaussian/09.d01/g09/l702.exe)
 L702 exits ... SP integral derivatives will be done elsewhere.
 Leave Link  702 at Fri Apr 12 17:23:01 2019, MaxMem=   134217728 cpu:         0.0
 (Enter /cm/shared/c3ddb/gaussian/09.d01/g09/l703.exe)
 Compute integral first derivatives, UseDBF=F ICtDFT=           0.
 Integral derivatives from FoFJK, PRISM(SPDF).
 Calling FoFJK, ICntrl=      2127 FMM=F ISym2X=0 I1Cent= 0 IOpClX= 0 NMat=1 NMatS=1 NMatT=0.
 FoFJK:  IHMeth= 1 ICntrl=    2127 DoSepK=F KAlg= 0 I1Cent=   0 FoldK=F
 IRaf=         0 NMat=   1 IRICut=       1 DoRegI=T DoRafI=F ISym2E= 0.
 FoFCou: FMM=F IPFlag=           0 FMFlag=      100000 FMFlg1=         800
         NFxFlg=           0 DoJE=F BraDBF=F KetDBF=F FulRan=T
         wScrn=  0.000000 ICntrl=    2127 IOpCl=  0 I1Cent=           0 NGrid=           0
         NMat0=    1 NMatS0=      1 NMatT0=    0 NMatD0=    1 NMtDS0=    0 NMtDT0=    0
 Symmetry not used in FoFCou.
 Leave Link  703 at Fri Apr 12 17:23:01 2019, MaxMem=   134217728 cpu:         0.2
 (Enter /cm/shared/c3ddb/gaussian/09.d01/g09/l716.exe)
 Dipole        = 1.23892737D+00-3.40037289D-01 4.44016079D-01
 -------------------------------------------------------------------
 Center     Atomic                   Forces (Hartrees/Bohr)
 Number     Number              X              Y              Z
 -------------------------------------------------------------------
      1        6          -0.000175604   -0.001805045   -0.005205519
      2        6          -0.000007246   -0.000049934    0.000893257
      3        1          -0.000003442    0.000000849    0.000001292
      4        1           0.000000048   -0.000001684   -0.000001146
      5        1           0.000003158   -0.000002534   -0.000001979
      6        8           0.000034710    0.003299457    0.006928100
      7        8           0.001590821   -0.004459163   -0.006857341
      8        1          -0.001442445    0.003018055    0.004243336
 -------------------------------------------------------------------
 Cartesian Forces:  Max     0.006928100 RMS     0.002804062
 Leave Link  716 at Fri Apr 12 17:23:01 2019, MaxMem=   134217728 cpu:         0.0
 (Enter /cm/shared/c3ddb/gaussian/09.d01/g09/l103.exe)

 GradGradGradGradGradGradGradGradGradGradGradGradGradGradGradGradGradGrad
 Berny optimization.
 Using GEDIIS/GDIIS optimizer.
 FormGI is forming the generalized inverse of G from B-inverse, IUseBI=4.
 Internal  Forces:  Max     0.009676083 RMS     0.002085070
 Search for a local minimum.
 Step number   6 out of a maximum of   32
 All quantities printed in internal units (Hartrees-Bohrs-Radians)
 RMS Force = .42187D-05 SwitMx=.10000D-02 MixMth= 2
 Mixed Optimization -- En-DIIS/RFO-DIIS
 Swapping is turned off.
 Update second derivatives using D2CorX and points    1    2    3    4    5
                                                      6
 DE= -4.52D-09 DEPred=-5.90D-09 R= 7.66D-01
 Trust test= 7.66D-01 RLast= 3.56D-04 DXMaxT set to 3.00D-01
 ITU=  0  0  0  1  0  0
     Eigenvalues ---    0.02776   0.03256   0.04081   0.12274   0.15685
     Eigenvalues ---    0.16163   0.22107   0.23438   0.32155   0.37106
     Eigenvalues ---    0.37327   0.37471   0.43631   0.50895   0.52923
     Eigenvalues ---    0.650221000.000001000.000001000.000001000.00000
     Eigenvalues --- 1000.000001000.00000
 En-DIIS/RFO-DIIS IScMMF=        0 using points:     6    5    4    3
 RFO step:  Lambda=-3.02523192D-06.
 NNeg= 0 NP= 4 Switch=  2.50D-03 Rises=F DC=  5.13D-07 SmlDif=  1.00D-05
 RMS Error=  0.6641160049D-04 NUsed= 4 EDIIS=F
 DidBck=F Rises=F RFO-DIIS coefs:    0.80458    0.20455   -0.00524   -0.00389
 Iteration  1 RMS(Cart)=  0.00002295 RMS(Int)=  0.00000014
 Iteration  2 RMS(Cart)=  0.00000000 RMS(Int)=  0.00000014
 Iteration  1 RMS(Cart)=  0.00000015 RMS(Int)=  0.00000007
 ITry= 1 IFail=0 DXMaxC= 5.18D-05 DCOld= 1.00D+10 DXMaxT= 3.00D-01 DXLimC= 3.00D+00 Rises=F
 Variable       Old X    -DE/DX   Delta X   Delta X   Delta X     New X
                                 (Linear)    (Quad)   (Total)
    R1        2.47985   0.00000   0.00000  -0.00001  -0.00001   2.47984
    R2        2.02149   0.00000   0.00000   0.00000   0.00000   2.02149
    R3        2.63632  -0.00001  -0.00001   0.00001   0.00000   2.63631
    R4        2.02135   0.00000   0.00000   0.00001   0.00000   2.02136
    R5        2.02451   0.00000   0.00000   0.00000   0.00000   2.02451
    R6        2.77071   0.00000   0.00001  -0.00002  -0.00001   2.77070
    R7        1.84508   0.00000   0.00000  -0.00001   0.00000   1.84508
    A1        2.16395   0.00002  -0.00001   0.00002   0.00002   2.16397
    A2        2.20577   0.00000   0.00000   0.00001   0.00001   2.20578
    A3        1.91316  -0.00001   0.00001  -0.00003  -0.00002   1.91314
    A4        2.09419   0.00000  -0.00001   0.00001   0.00000   2.09419
    A5        2.13894   0.00000   0.00000   0.00002   0.00002   2.13896
    A6        2.04951   0.00000   0.00000  -0.00003  -0.00002   2.04948
    A7        1.96809  -0.00001  -0.00001  -0.00002  -0.00003   1.96806
    A8        1.81400   0.00001   0.00002   0.00002   0.00004   1.81404
    D1        0.03247  -0.00028  -0.00002  -0.00002  -0.00004   0.03243
    D2       -3.07235  -0.00028   0.00003  -0.00002   0.00001  -3.07234
    D3       -3.13823   0.00028   0.00001  -0.00001   0.00000  -3.13823
    D4        0.04013   0.00028   0.00006  -0.00001   0.00004   0.04018
    D5        0.52360  -0.00114   0.00000   0.00000   0.00000   0.52360
    D6       -2.64362  -0.00064   0.00003   0.00001   0.00003  -2.64359
    D7        0.34907   0.00968   0.00000   0.00000   0.00000   0.34907
         Item               Value     Threshold  Converged?
 Maximum Force            0.000012     0.000015     YES
 RMS     Force            0.000004     0.000010     YES
 Maximum Displacement     0.000052     0.000060     YES
 RMS     Displacement     0.000023     0.000040     YES
 Predicted change in Energy=-7.738028D-10
 Optimization completed.
    -- Stationary point found.
                           ----------------------------
                           !   Optimized Parameters   !
                           ! (Angstroms and Degrees)  !
 --------------------------                            --------------------------
 ! Name  Definition              Value          Derivative Info.                !
 --------------------------------------------------------------------------------
 ! R1    R(1,2)                  1.3123         -DE/DX =    0.0                 !
 ! R2    R(1,3)                  1.0697         -DE/DX =    0.0                 !
 ! R3    R(1,6)                  1.3951         -DE/DX =    0.0                 !
 ! R4    R(2,4)                  1.0697         -DE/DX =    0.0                 !
 ! R5    R(2,5)                  1.0713         -DE/DX =    0.0                 !
 ! R6    R(6,7)                  1.4662         -DE/DX =    0.0                 !
 ! R7    R(7,8)                  0.9764         -DE/DX =    0.0                 !
 ! A1    A(2,1,3)              123.9851         -DE/DX =    0.0                 !
 ! A2    A(2,1,6)              126.3815         -DE/DX =    0.0                 !
 ! A3    A(3,1,6)              109.6162         -DE/DX =    0.0                 !
 ! A4    A(1,2,4)              119.9881         -DE/DX =    0.0                 !
 ! A5    A(1,2,5)              122.552          -DE/DX =    0.0                 !
 ! A6    A(4,2,5)              117.4281         -DE/DX =    0.0                 !
 ! A7    A(1,6,7)              112.7633         -DE/DX =    0.0                 !
 ! A8    A(6,7,8)              103.9344         -DE/DX =    0.0                 !
 ! D1    D(3,1,2,4)              1.8605         -DE/DX =   -0.0003              !
 ! D2    D(3,1,2,5)           -176.0327         -DE/DX =   -0.0003              !
 ! D3    D(6,1,2,4)           -179.8075         -DE/DX =    0.0003              !
 ! D4    D(6,1,2,5)              2.2994         -DE/DX =    0.0003              !
 ! D5    D(2,1,6,7)             29.9999         -DE/DX =   -0.0011              !
 ! D6    D(3,1,6,7)           -151.4682         -DE/DX =   -0.0006              !
 ! D7    D(1,6,7,8)             20.0            -DE/DX =    0.0097              !
 --------------------------------------------------------------------------------
 Lowest energy point so far.  Saving SCF results.
 GradGradGradGradGradGradGradGradGradGradGradGradGradGradGradGradGradGrad

 Largest change from initial coordinates is atom    8       0.029 Angstoms.
 Leave Link  103 at Fri Apr 12 17:23:01 2019, MaxMem=   134217728 cpu:         0.0
 (Enter /cm/shared/c3ddb/gaussian/09.d01/g09/l202.exe)
                          Input orientation:                          
 ---------------------------------------------------------------------
 Center     Atomic      Atomic             Coordinates (Angstroms)
 Number     Number       Type             X           Y           Z
 ---------------------------------------------------------------------
      1          6           0        0.746800    0.578865    0.034773
      2          6           0        1.437148   -0.534834   -0.037165
      3          1           0        1.186227    1.553513    0.070588
      4          1           0        2.506301   -0.502314   -0.033271
      5          1           0        0.973000   -1.495501   -0.134231
      6          8           0       -0.643704    0.691416    0.043652
      7          8           0       -1.303073   -0.470542    0.647650
      8          1           0       -0.600851   -0.887594    1.182686
 ---------------------------------------------------------------------
                    Distance matrix (angstroms):
                    1          2          3          4          5
     1  C    0.000000
     2  C    1.312281   0.000000
     3  H    1.069728   2.106126   0.000000
     4  H    2.066258   1.069655   2.445365   0.000000
     5  H    2.093495   1.071324   3.063316   1.829651   0.000000
     6  O    1.395080   2.416643   2.023014   3.369487   2.725432
     7  O    2.383034   2.825228   3.259818   3.869883   2.615796
     8  H    2.298776   2.401232   3.223262   3.358778   2.140287
                    6          7          8
     6  O    0.000000
     7  O    1.466195   0.000000
     8  H    1.947436   0.976377   0.000000
 Symmetry turned off by external request.
 Stoichiometry    C2H4O2
 Framework group  C1[X(C2H4O2)]
 Deg. of freedom    18
 Full point group                 C1      NOp   1
 Rotational constants (GHZ):     18.7994686      6.4134568      4.9078137
 Leave Link  202 at Fri Apr 12 17:23:01 2019, MaxMem=   134217728 cpu:         0.0
 (Enter /cm/shared/c3ddb/gaussian/09.d01/g09/l601.exe)
 Copying SCF densities to generalized density rwf, IOpCl= 0 IROHF=0.

 **********************************************************************

            Population analysis using the SCF density.

 **********************************************************************

 Alpha  occ. eigenvalues --  -20.54297 -20.53090 -11.26249 -11.18505  -1.48232
 Alpha  occ. eigenvalues --   -1.24515  -1.05307  -0.81338  -0.72733  -0.68354
 Alpha  occ. eigenvalues --   -0.63524  -0.58460  -0.55799  -0.53757  -0.47941
 Alpha  occ. eigenvalues --   -0.37768
 Alpha virt. eigenvalues --    0.16276   0.23059   0.27575   0.28775   0.32000
 Alpha virt. eigenvalues --    0.36638   0.49607   0.57195   0.87566   0.95865
 Alpha virt. eigenvalues --    1.00605   1.05000   1.08072   1.11211   1.23192
 Alpha virt. eigenvalues --    1.30849   1.36130   1.53778   1.58937   1.73474
 Alpha virt. eigenvalues --    1.80607   1.89881   1.93420   1.95455   2.09434
 Alpha virt. eigenvalues --    2.32029   3.01977   3.54027
          Condensed to atoms (all electrons):
               1          2          3          4          5          6
     1  C    4.941535   0.436280   0.387096  -0.038583  -0.057972   0.242408
     2  C    0.436280   5.426777  -0.053793   0.378177   0.395384  -0.057606
     3  H    0.387096  -0.053793   0.427996   0.000208   0.001651  -0.033912
     4  H   -0.038583   0.378177   0.000208   0.435121  -0.014330   0.001263
     5  H   -0.057972   0.395384   0.001651  -0.014330   0.436203  -0.003337
     6  O    0.242408  -0.057606  -0.033912   0.001263  -0.003337   8.133066
     7  O   -0.037814  -0.002610   0.001458   0.000128   0.004150   0.132207
     8  H   -0.002037   0.007681   0.000226  -0.000081   0.001075  -0.027373
               7          8
     1  C   -0.037814  -0.002037
     2  C   -0.002610   0.007681
     3  H    0.001458   0.000226
     4  H    0.000128  -0.000081
     5  H    0.004150   0.001075
     6  O    0.132207  -0.027373
     7  O    8.034512   0.232027
     8  H    0.232027   0.380847
 Mulliken charges:
               1
     1  C    0.129086
     2  C   -0.530291
     3  H    0.269070
     4  H    0.238097
     5  H    0.237176
     6  O   -0.386715
     7  O   -0.364058
     8  H    0.407634
 Sum of Mulliken charges =   0.00000
 Mulliken charges with hydrogens summed into heavy atoms:
               1
     1  C    0.398156
     2  C   -0.055017
     6  O   -0.386715
     7  O    0.043576
 Electronic spatial extent (au):  <R**2>=            271.7751
 Charge=              0.0000 electrons
 Dipole moment (field-independent basis, Debye):
    X=              3.1490    Y=             -0.8643    Z=              1.1286  Tot=              3.4550
 Quadrupole moment (field-independent basis, Debye-Ang):
   XX=            -25.7028   YY=            -21.0197   ZZ=            -23.6399
   XY=              1.4689   XZ=              0.2148   YZ=             -1.3680
 Traceless Quadrupole moment (field-independent basis, Debye-Ang):
   XX=             -2.2487   YY=              2.4344   ZZ=             -0.1857
   XY=              1.4689   XZ=              0.2148   YZ=             -1.3680
 Octapole moment (field-independent basis, Debye-Ang**2):
  XXX=             -1.7091  YYY=             -2.1109  ZZZ=             -9.7578  XYY=             -1.1535
  XXY=              0.6330  XXZ=             -5.9774  XZZ=             -6.9502  YZZ=             -2.4591
  YYZ=             -2.6779  XYZ=              1.0098
 Hexadecapole moment (field-independent basis, Debye-Ang**3):
 XXXX=           -195.6894 YYYY=            -72.9191 ZZZZ=            -35.8805 XXXY=              1.3766
 XXXZ=             18.6336 YYYX=              8.7904 YYYZ=              2.8627 ZZZX=             14.6402
 ZZZY=              1.4484 XXYY=            -46.2387 XXZZ=            -45.2830 YYZZ=            -18.2944
 XXYZ=              2.0128 YYXZ=              3.7717 ZZXY=              3.3653
 N-N= 1.188178720394D+02 E-N=-7.706030862284D+02  KE= 2.255945258215D+02
 No NMR shielding tensors so no spin-rotation constants.
 Leave Link  601 at Fri Apr 12 17:23:01 2019, MaxMem=   134217728 cpu:         0.1
 (Enter /cm/shared/c3ddb/gaussian/09.d01/g09/l9999.exe)
 1\1\GINC-NODE029\FOpt\RHF\3-21G\C2H4O2\MATTSJ\12-Apr-2019\0\\#p hf 3-2
 1g scf=tight NoSymmetry guess=read opt=(tight,modredundant)\\Geometry 
 optimization at the 2D-PES\\0,1\C,0.7467999705,0.5788646355,0.03477305
 91\C,1.4371477463,-0.5348343074,-0.0371646739\H,1.1862271074,1.5535129
 527,0.0705877895\H,2.5063008666,-0.5023144776,-0.033271322\H,0.9729998
 25,-1.4955010614,-0.134231266\O,-0.6437041006,0.691415686,0.0436516981
 \O,-1.3030730783,-0.4705421636,0.6476499843\H,-0.6008513369,-0.8875942
 643,1.1826857308\\Version=AS64L-G09RevD.01\HF=-226.3850925\RMSD=3.836e
 -09\RMSF=2.804e-03\Dipole=1.2389274,-0.3400373,0.4440161\Quadrupole=-1
 .6718408,1.8099297,-0.1380889,1.0920835,0.1597033,-1.017097\PG=C01 [X(
 C2H4O2)]\\@


 SEE YOU NOW,
 YOUR BAIT OF FALSEHOOD TAKES THIS CARP OF TRUTH.
 AND THUS DO WE OF WISDOM AND OF REACH...
 BY INDIRECTIONS FIND DIRECTIONS OUT.    -- HAMLET, II, 1
 Job cpu time:       0 days  0 hours  0 minutes 10.2 seconds.
 File lengths (MBytes):  RWF=      5 Int=      0 D2E=      0 Chk=      1 Scr=      1
 Normal termination of Gaussian 09 at Fri Apr 12 17:23:02 2019.
