 Entering Gaussian System, Link 0=/cm/shared/c3ddb/gaussian/09.d01/g09/g09
 Initial command:
 /cm/shared/c3ddb/gaussian/09.d01/g09/l1.exe "/scratch/users/mattsj/g09/S02-7952157/Gau-45781.inp" -scrdir="/scratch/users/mattsj/g09/S02-7952157/"
 Entering Link 1 = /cm/shared/c3ddb/gaussian/09.d01/g09/l1.exe PID=     45782.
  
 Copyright (c) 1988,1990,1992,1993,1995,1998,2003,2009,2013,
            Gaussian, Inc.  All Rights Reserved.
  
 This is part of the Gaussian(R) 09 program.  It is based on
 the Gaussian(R) 03 system (copyright 2003, Gaussian, Inc.),
 the Gaussian(R) 98 system (copyright 1998, Gaussian, Inc.),
 the Gaussian(R) 94 system (copyright 1995, Gaussian, Inc.),
 the Gaussian 92(TM) system (copyright 1992, Gaussian, Inc.),
 the Gaussian 90(TM) system (copyright 1990, Gaussian, Inc.),
 the Gaussian 88(TM) system (copyright 1988, Gaussian, Inc.),
 the Gaussian 86(TM) system (copyright 1986, Carnegie Mellon
 University), and the Gaussian 82(TM) system (copyright 1983,
 Carnegie Mellon University). Gaussian is a federally registered
 trademark of Gaussian, Inc.
  
 This software contains proprietary and confidential information,
 including trade secrets, belonging to Gaussian, Inc.
  
 This software is provided under written license and may be
 used, copied, transmitted, or stored only in accord with that
 written license.
  
 The following legend is applicable only to US Government
 contracts under FAR:
  
                    RESTRICTED RIGHTS LEGEND
  
 Use, reproduction and disclosure by the US Government is
 subject to restrictions as set forth in subparagraphs (a)
 and (c) of the Commercial Computer Software - Restricted
 Rights clause in FAR 52.227-19.
  
 Gaussian, Inc.
 340 Quinnipiac St., Bldg. 40, Wallingford CT 06492
  
  
 ---------------------------------------------------------------
 Warning -- This program may not be used in any manner that
 competes with the business of Gaussian, Inc. or will provide
 assistance to any competitor of Gaussian, Inc.  The licensee
 of this program is prohibited from giving any competitor of
 Gaussian, Inc. access to this program.  By using this program,
 the user acknowledges that Gaussian, Inc. is engaged in the
 business of creating and licensing software in the field of
 computational chemistry and represents and warrants to the
 licensee that it is not a competitor of Gaussian, Inc. and that
 it will not use this program in any manner prohibited above.
 ---------------------------------------------------------------
  

 Cite this work as:
 Gaussian 09, Revision D.01,
 M. J. Frisch, G. W. Trucks, H. B. Schlegel, G. E. Scuseria, 
 M. A. Robb, J. R. Cheeseman, G. Scalmani, V. Barone, B. Mennucci, 
 G. A. Petersson, H. Nakatsuji, M. Caricato, X. Li, H. P. Hratchian, 
 A. F. Izmaylov, J. Bloino, G. Zheng, J. L. Sonnenberg, M. Hada, 
 M. Ehara, K. Toyota, R. Fukuda, J. Hasegawa, M. Ishida, T. Nakajima, 
 Y. Honda, O. Kitao, H. Nakai, T. Vreven, J. A. Montgomery, Jr., 
 J. E. Peralta, F. Ogliaro, M. Bearpark, J. J. Heyd, E. Brothers, 
 K. N. Kudin, V. N. Staroverov, T. Keith, R. Kobayashi, J. Normand, 
 K. Raghavachari, A. Rendell, J. C. Burant, S. S. Iyengar, J. Tomasi, 
 M. Cossi, N. Rega, J. M. Millam, M. Klene, J. E. Knox, J. B. Cross, 
 V. Bakken, C. Adamo, J. Jaramillo, R. Gomperts, R. E. Stratmann, 
 O. Yazyev, A. J. Austin, R. Cammi, C. Pomelli, J. W. Ochterski, 
 R. L. Martin, K. Morokuma, V. G. Zakrzewski, G. A. Voth, 
 P. Salvador, J. J. Dannenberg, S. Dapprich, A. D. Daniels, 
 O. Farkas, J. B. Foresman, J. V. Ortiz, J. Cioslowski, 
 and D. J. Fox, Gaussian, Inc., Wallingford CT, 2013.
 
 ******************************************
 Gaussian 09:  AS64L-G09RevD.01 24-Apr-2013
                12-Apr-2019 
 ******************************************
 %nproc=1
 Will use up to    1 processors via shared memory.
 %mem=1GB
 %chk=TMP_CALCS/scangeom_S02_060_150.chk
 --------------------------------------------------------------------
 #p hf 3-21g scf=tight NoSymmetry guess=read opt=(tight,modredundant)
 --------------------------------------------------------------------
 1/7=10,18=120,19=15,38=1/1,3;
 2/9=110,12=2,15=1,17=6,18=5,40=1/2;
 3/5=5,11=9,16=1,25=1,30=1,71=1,116=-2/1,2,3;
 4/5=1/1;
 5/5=2,32=2,38=6/2;
 6/7=2,8=2,9=2,10=2,28=1/1;
 7/30=1/1,2,3,16;
 1/7=10,18=20,19=15/3(2);
 2/9=110,15=1/2;
 99//99;
 2/9=110,15=1/2;
 3/5=5,11=9,16=1,25=1,30=1,71=1/1,2,3;
 4/5=5,16=3,69=1/1;
 5/5=2,32=2,38=5/2;
 7/30=1/1,2,3,16;
 1/7=10,18=20,19=15/3(-5);
 2/9=110,15=1/2;
 6/7=2,8=2,9=2,10=2,19=2,28=1/1;
 99/9=1/99;
 Leave Link    1 at Fri Apr 12 17:01:13 2019, MaxMem=   134217728 cpu:         0.1
 (Enter /cm/shared/c3ddb/gaussian/09.d01/g09/l101.exe)
 -----------------------------------
 Geometry optimization at the 2D-PES
 -----------------------------------
 Symbolic Z-matrix:
 Charge =  0 Multiplicity = 1
 C                     0.7313    0.60678   0.05129 
 C                     1.38771  -0.52209  -0.01911 
 H                     1.19576   1.5698    0.10122 
 H                     2.45842  -0.52912  -0.01104 
 H                     0.87578  -1.4614   -0.05808 
 O                    -0.67138   0.69332   0.00834 
 O                    -1.20148  -0.07935   1.14786 
 H                    -2.01589   0.42778   1.30811 
 
 The following ModRedundant input section has been read:
 D       2       1       6       7 F                                           
 D       1       6       7       8 F                                           
 
 NAtoms=      8 NQM=        8 NQMF=       0 NMMI=      0 NMMIF=      0
                NMic=       0 NMicF=      0.
                    Isotopes and Nuclear Properties:
 (Nuclear quadrupole moments (NQMom) in fm**2, nuclear magnetic moments (NMagM)
  in nuclear magnetons)

  Atom         1           2           3           4           5           6           7           8
 IAtWgt=          12          12           1           1           1          16          16           1
 AtmWgt=  12.0000000  12.0000000   1.0078250   1.0078250   1.0078250  15.9949146  15.9949146   1.0078250
 NucSpn=           0           0           1           1           1           0           0           1
 AtZEff=   0.0000000   0.0000000   0.0000000   0.0000000   0.0000000   0.0000000   0.0000000   0.0000000
 NQMom=    0.0000000   0.0000000   0.0000000   0.0000000   0.0000000   0.0000000   0.0000000   0.0000000
 NMagM=    0.0000000   0.0000000   2.7928460   2.7928460   2.7928460   0.0000000   0.0000000   2.7928460
 AtZNuc=   6.0000000   6.0000000   1.0000000   1.0000000   1.0000000   8.0000000   8.0000000   1.0000000
 Leave Link  101 at Fri Apr 12 17:01:13 2019, MaxMem=   134217728 cpu:         0.3
 (Enter /cm/shared/c3ddb/gaussian/09.d01/g09/l103.exe)

 GradGradGradGradGradGradGradGradGradGradGradGradGradGradGradGradGradGrad
 Berny optimization.
 Initialization pass.
                           ----------------------------
                           !    Initial Parameters    !
                           ! (Angstroms and Degrees)  !
 --------------------------                            --------------------------
 ! Name  Definition              Value          Derivative Info.                !
 --------------------------------------------------------------------------------
 ! R1    R(1,2)                  1.3077         estimate D2E/DX2                !
 ! R2    R(1,3)                  1.0703         estimate D2E/DX2                !
 ! R3    R(1,6)                  1.406          estimate D2E/DX2                !
 ! R4    R(2,4)                  1.0708         estimate D2E/DX2                !
 ! R5    R(2,5)                  1.0705         estimate D2E/DX2                !
 ! R6    R(6,7)                  1.4753         estimate D2E/DX2                !
 ! R7    R(7,8)                  0.9727         estimate D2E/DX2                !
 ! A1    A(2,1,3)              124.151          estimate D2E/DX2                !
 ! A2    A(2,1,6)              123.5211         estimate D2E/DX2                !
 ! A3    A(3,1,6)              112.2688         estimate D2E/DX2                !
 ! A4    A(1,2,4)              120.476          estimate D2E/DX2                !
 ! A5    A(1,2,5)              121.2905         estimate D2E/DX2                !
 ! A6    A(4,2,5)              118.2111         estimate D2E/DX2                !
 ! A7    A(1,6,7)              107.616          estimate D2E/DX2                !
 ! A8    A(6,7,8)               98.9191         estimate D2E/DX2                !
 ! D1    D(3,1,2,4)              1.1804         estimate D2E/DX2                !
 ! D2    D(3,1,2,5)            179.428          estimate D2E/DX2                !
 ! D3    D(6,1,2,4)            178.1678         estimate D2E/DX2                !
 ! D4    D(6,1,2,5)             -3.5846         estimate D2E/DX2                !
 ! D5    D(2,1,6,7)             60.0            Frozen                          !
 ! D6    D(3,1,6,7)           -122.6938         estimate D2E/DX2                !
 ! D7    D(1,6,7,8)            150.0            Frozen                          !
 --------------------------------------------------------------------------------
 Trust Radius=3.00D-01 FncErr=1.00D-07 GrdErr=1.00D-07
 Number of steps in this run=     32 maximum allowed number of steps=    100.
 GradGradGradGradGradGradGradGradGradGradGradGradGradGradGradGradGradGrad

 Leave Link  103 at Fri Apr 12 17:01:13 2019, MaxMem=   134217728 cpu:         0.0
 (Enter /cm/shared/c3ddb/gaussian/09.d01/g09/l202.exe)
                          Input orientation:                          
 ---------------------------------------------------------------------
 Center     Atomic      Atomic             Coordinates (Angstroms)
 Number     Number       Type             X           Y           Z
 ---------------------------------------------------------------------
      1          6           0        0.731303    0.606780    0.051287
      2          6           0        1.387710   -0.522089   -0.019108
      3          1           0        1.195755    1.569795    0.101221
      4          1           0        2.458424   -0.529118   -0.011040
      5          1           0        0.875783   -1.461396   -0.058084
      6          8           0       -0.671376    0.693321    0.008336
      7          8           0       -1.201481   -0.079351    1.147863
      8          1           0       -2.015889    0.427780    1.308114
 ---------------------------------------------------------------------
                    Distance matrix (angstroms):
                    1          2          3          4          5
     1  C    0.000000
     2  C    1.307735   0.000000
     3  H    1.070330   2.104116   0.000000
     4  H    2.068114   1.070767   2.452014   0.000000
     5  H    2.076099   1.070461   3.052192   1.837419   0.000000
     6  O    1.406002   2.391194   2.064706   3.360116   2.653473
     7  O    2.325706   2.874326   3.092229   3.865262   2.771170
     8  H    3.026338   3.774686   3.615999   4.761859   3.714465
                    6          7          8
     6  O    0.000000
     7  O    1.475315   0.000000
     8  H    1.888822   0.972688   0.000000
 Symmetry turned off by external request.
 Stoichiometry    C2H4O2
 Framework group  C1[X(C2H4O2)]
 Deg. of freedom    18
 Full point group                 C1      NOp   1
 Rotational constants (GHZ):     20.5038404      5.8927784      4.8962780
 Leave Link  202 at Fri Apr 12 17:01:13 2019, MaxMem=   134217728 cpu:         0.0
 (Enter /cm/shared/c3ddb/gaussian/09.d01/g09/l301.exe)
 Standard basis: 3-21G (6D, 7F)
 Ernie: Thresh=  0.10000D-02 Tol=  0.10000D-05 Strict=F.
    44 basis functions,    72 primitive gaussians,    44 cartesian basis functions
    16 alpha electrons       16 beta electrons
       nuclear repulsion energy       117.9003649383 Hartrees.
 IExCor=    0 DFT=F Ex=HF Corr=None ExCW=0 ScaHFX=  1.000000
 ScaDFX=  1.000000  1.000000  1.000000  1.000000 ScalE2=  1.000000  1.000000
 IRadAn=      0 IRanWt=     -1 IRanGd=            0 ICorTp=0 IEmpDi=  4
 NAtoms=    8 NActive=    8 NUniq=    8 SFac= 1.00D+00 NAtFMM=   60 NAOKFM=F Big=F
 Integral buffers will be    131072 words long.
 Raffenetti 1 integral format.
 Two-electron integral symmetry is turned off.
 Leave Link  301 at Fri Apr 12 17:01:14 2019, MaxMem=   134217728 cpu:         0.2
 (Enter /cm/shared/c3ddb/gaussian/09.d01/g09/l302.exe)
 NPDir=0 NMtPBC=     1 NCelOv=     1 NCel=       1 NClECP=     1 NCelD=      1
         NCelK=      1 NCelE2=     1 NClLst=     1 CellRange=     0.0.
 One-electron integrals computed using PRISM.
 NBasis=    44 RedAO= T EigKep=  1.19D-02  NBF=    44
 NBsUse=    44 1.00D-06 EigRej= -1.00D+00 NBFU=    44
 Leave Link  302 at Fri Apr 12 17:01:14 2019, MaxMem=   134217728 cpu:         0.2
 (Enter /cm/shared/c3ddb/gaussian/09.d01/g09/l303.exe)
 DipDrv:  MaxL=1.
 Leave Link  303 at Fri Apr 12 17:01:14 2019, MaxMem=   134217728 cpu:         0.1
 (Enter /cm/shared/c3ddb/gaussian/09.d01/g09/l401.exe)
 Initial guess from the checkpoint file:  "TMP_CALCS/scangeom_S02_060_150.chk"
 B after Tr=    -0.000815    0.004467    0.007344
         Rot=    0.999992    0.001562   -0.003037    0.001880 Ang=   0.45 deg.
 Guess basis will be translated and rotated to current coordinates.
 JPrj=2 DoOrth=T DoCkMO=T.
 Leave Link  401 at Fri Apr 12 17:01:14 2019, MaxMem=   134217728 cpu:         0.2
 (Enter /cm/shared/c3ddb/gaussian/09.d01/g09/l502.exe)
 Closed shell SCF:
 Using DIIS extrapolation, IDIIS=  1040.
 Two-electron integral symmetry not used.
 Keep R1 ints in memory in canonical form, NReq=1327334.
 IVT=       24902 IEndB=       24902 NGot=   134217728 MDV=   133702282
 LenX=   133702282 LenY=   133699905
 Requested convergence on RMS density matrix=1.00D-08 within 128 cycles.
 Requested convergence on MAX density matrix=1.00D-06.
 Requested convergence on             energy=1.00D-06.
 No special actions if energy rises.
 FoFCou: FMM=F IPFlag=           0 FMFlag=           0 FMFlg1=           0
         NFxFlg=           0 DoJE=F BraDBF=F KetDBF=F FulRan=T
         wScrn=  0.000000 ICntrl=     600 IOpCl=  0 I1Cent=           0 NGrid=           0
         NMat0=    1 NMatS0=    990 NMatT0=    0 NMatD0=    1 NMtDS0=    0 NMtDT0=    0
 Symmetry not used in FoFCou.

 Cycle   1  Pass 1  IDiag  1:
 E= -226.388747836879    
 DIIS: error= 7.21D-03 at cycle   1 NSaved=   1.
 NSaved= 1 IEnMin= 1 EnMin= -226.388747836879     IErMin= 1 ErrMin= 7.21D-03
 ErrMax= 7.21D-03  0.00D+00 EMaxC= 1.00D-01 BMatC= 1.91D-03 BMatP= 1.91D-03
 IDIUse=3 WtCom= 9.28D-01 WtEn= 7.21D-02
 Coeff-Com:  0.100D+01
 Coeff-En:   0.100D+01
 Coeff:      0.100D+01
 Gap=     0.534 Goal=   None    Shift=    0.000
 GapD=    0.534 DampG=2.000 DampE=1.000 DampFc=2.0000 IDamp=-1.
 RMSDP=1.12D-03 MaxDP=1.16D-02              OVMax= 1.29D-02

 Cycle   2  Pass 1  IDiag  1:
 E= -226.391733965358     Delta-E=       -0.002986128478 Rises=F Damp=F
 DIIS: error= 3.23D-03 at cycle   2 NSaved=   2.
 NSaved= 2 IEnMin= 2 EnMin= -226.391733965358     IErMin= 2 ErrMin= 3.23D-03
 ErrMax= 3.23D-03  0.00D+00 EMaxC= 1.00D-01 BMatC= 1.88D-04 BMatP= 1.91D-03
 IDIUse=3 WtCom= 9.68D-01 WtEn= 3.23D-02
 Coeff-Com: -0.336D+00 0.134D+01
 Coeff-En:   0.000D+00 0.100D+01
 Coeff:     -0.325D+00 0.133D+01
 Gap=     0.534 Goal=   None    Shift=    0.000
 RMSDP=5.93D-04 MaxDP=4.43D-03 DE=-2.99D-03 OVMax= 9.57D-03

 Cycle   3  Pass 1  IDiag  1:
 E= -226.392237159903     Delta-E=       -0.000503194546 Rises=F Damp=F
 DIIS: error= 1.04D-03 at cycle   3 NSaved=   3.
 NSaved= 3 IEnMin= 3 EnMin= -226.392237159903     IErMin= 3 ErrMin= 1.04D-03
 ErrMax= 1.04D-03  0.00D+00 EMaxC= 1.00D-01 BMatC= 1.71D-05 BMatP= 1.88D-04
 IDIUse=3 WtCom= 9.90D-01 WtEn= 1.04D-02
 Coeff-Com:  0.583D-01-0.381D+00 0.132D+01
 Coeff-En:   0.000D+00 0.000D+00 0.100D+01
 Coeff:      0.576D-01-0.377D+00 0.132D+01
 Gap=     0.535 Goal=   None    Shift=    0.000
 RMSDP=2.36D-04 MaxDP=2.60D-03 DE=-5.03D-04 OVMax= 4.19D-03

 Cycle   4  Pass 1  IDiag  1:
 E= -226.392292953770     Delta-E=       -0.000055793867 Rises=F Damp=F
 DIIS: error= 2.70D-04 at cycle   4 NSaved=   4.
 NSaved= 4 IEnMin= 4 EnMin= -226.392292953770     IErMin= 4 ErrMin= 2.70D-04
 ErrMax= 2.70D-04  0.00D+00 EMaxC= 1.00D-01 BMatC= 3.87D-06 BMatP= 1.71D-05
 IDIUse=3 WtCom= 9.97D-01 WtEn= 2.70D-03
 Coeff-Com:  0.808D-01-0.365D+00 0.393D+00 0.891D+00
 Coeff-En:   0.000D+00 0.000D+00 0.000D+00 0.100D+01
 Coeff:      0.806D-01-0.364D+00 0.392D+00 0.892D+00
 Gap=     0.534 Goal=   None    Shift=    0.000
 RMSDP=9.22D-05 MaxDP=9.97D-04 DE=-5.58D-05 OVMax= 1.63D-03

 Cycle   5  Pass 1  IDiag  1:
 E= -226.392300373333     Delta-E=       -0.000007419562 Rises=F Damp=F
 DIIS: error= 5.82D-05 at cycle   5 NSaved=   5.
 NSaved= 5 IEnMin= 5 EnMin= -226.392300373333     IErMin= 5 ErrMin= 5.82D-05
 ErrMax= 5.82D-05  0.00D+00 EMaxC= 1.00D-01 BMatC= 1.89D-07 BMatP= 3.87D-06
 IDIUse=1 WtCom= 1.00D+00 WtEn= 0.00D+00
 Coeff-Com:  0.370D-02-0.592D-02-0.747D-01 0.111D+00 0.966D+00
 Coeff:      0.370D-02-0.592D-02-0.747D-01 0.111D+00 0.966D+00
 Gap=     0.534 Goal=   None    Shift=    0.000
 RMSDP=1.88D-05 MaxDP=1.71D-04 DE=-7.42D-06 OVMax= 3.45D-04

 Cycle   6  Pass 1  IDiag  1:
 E= -226.392300750138     Delta-E=       -0.000000376806 Rises=F Damp=F
 DIIS: error= 4.32D-05 at cycle   6 NSaved=   6.
 NSaved= 6 IEnMin= 6 EnMin= -226.392300750138     IErMin= 6 ErrMin= 4.32D-05
 ErrMax= 4.32D-05  0.00D+00 EMaxC= 1.00D-01 BMatC= 2.74D-08 BMatP= 1.89D-07
 IDIUse=1 WtCom= 1.00D+00 WtEn= 0.00D+00
 Coeff-Com: -0.587D-02 0.286D-01-0.449D-01-0.522D-01 0.166D+00 0.909D+00
 Coeff:     -0.587D-02 0.286D-01-0.449D-01-0.522D-01 0.166D+00 0.909D+00
 Gap=     0.534 Goal=   None    Shift=    0.000
 RMSDP=5.90D-06 MaxDP=5.36D-05 DE=-3.77D-07 OVMax= 1.38D-04

 Cycle   7  Pass 1  IDiag  1:
 E= -226.392300822995     Delta-E=       -0.000000072857 Rises=F Damp=F
 DIIS: error= 2.73D-05 at cycle   7 NSaved=   7.
 NSaved= 7 IEnMin= 7 EnMin= -226.392300822995     IErMin= 7 ErrMin= 2.73D-05
 ErrMax= 2.73D-05  0.00D+00 EMaxC= 1.00D-01 BMatC= 7.25D-09 BMatP= 2.74D-08
 IDIUse=1 WtCom= 1.00D+00 WtEn= 0.00D+00
 Coeff-Com:  0.356D-02-0.201D-01 0.514D-01 0.995D-02-0.357D+00-0.664D+00
 Coeff-Com:  0.198D+01
 Coeff:      0.356D-02-0.201D-01 0.514D-01 0.995D-02-0.357D+00-0.664D+00
 Coeff:      0.198D+01
 Gap=     0.534 Goal=   None    Shift=    0.000
 RMSDP=8.18D-06 MaxDP=6.89D-05 DE=-7.29D-08 OVMax= 2.03D-04

 Cycle   8  Pass 1  IDiag  1:
 E= -226.392300870094     Delta-E=       -0.000000047099 Rises=F Damp=F
 DIIS: error= 6.80D-06 at cycle   8 NSaved=   8.
 NSaved= 8 IEnMin= 8 EnMin= -226.392300870094     IErMin= 8 ErrMin= 6.80D-06
 ErrMax= 6.80D-06  0.00D+00 EMaxC= 1.00D-01 BMatC= 4.81D-10 BMatP= 7.25D-09
 IDIUse=1 WtCom= 1.00D+00 WtEn= 0.00D+00
 Coeff-Com: -0.581D-05 0.538D-03-0.393D-02 0.400D-02 0.402D-01 0.171D-01
 Coeff-Com: -0.360D+00 0.130D+01
 Coeff:     -0.581D-05 0.538D-03-0.393D-02 0.400D-02 0.402D-01 0.171D-01
 Coeff:     -0.360D+00 0.130D+01
 Gap=     0.534 Goal=   None    Shift=    0.000
 RMSDP=2.21D-06 MaxDP=1.64D-05 DE=-4.71D-08 OVMax= 5.43D-05

 Cycle   9  Pass 1  IDiag  1:
 E= -226.392300873086     Delta-E=       -0.000000002992 Rises=F Damp=F
 DIIS: error= 1.59D-06 at cycle   9 NSaved=   9.
 NSaved= 9 IEnMin= 9 EnMin= -226.392300873086     IErMin= 9 ErrMin= 1.59D-06
 ErrMax= 1.59D-06  0.00D+00 EMaxC= 1.00D-01 BMatC= 5.95D-11 BMatP= 4.81D-10
 IDIUse=1 WtCom= 1.00D+00 WtEn= 0.00D+00
 Coeff-Com: -0.412D-03 0.237D-02-0.621D-02-0.872D-03 0.446D-01 0.803D-01
 Coeff-Com: -0.278D+00 0.172D+00 0.986D+00
 Coeff:     -0.412D-03 0.237D-02-0.621D-02-0.872D-03 0.446D-01 0.803D-01
 Coeff:     -0.278D+00 0.172D+00 0.986D+00
 Gap=     0.534 Goal=   None    Shift=    0.000
 RMSDP=5.32D-07 MaxDP=3.68D-06 DE=-2.99D-09 OVMax= 1.22D-05

 Cycle  10  Pass 1  IDiag  1:
 E= -226.392300873302     Delta-E=       -0.000000000215 Rises=F Damp=F
 DIIS: error= 5.22D-07 at cycle  10 NSaved=  10.
 NSaved=10 IEnMin=10 EnMin= -226.392300873302     IErMin=10 ErrMin= 5.22D-07
 ErrMax= 5.22D-07  0.00D+00 EMaxC= 1.00D-01 BMatC= 9.32D-12 BMatP= 5.95D-11
 IDIUse=1 WtCom= 1.00D+00 WtEn= 0.00D+00
 Coeff-Com:  0.813D-04-0.535D-03 0.178D-02-0.520D-03-0.145D-01-0.162D-01
 Coeff-Com:  0.103D+00-0.217D+00-0.137D+00 0.128D+01
 Coeff:      0.813D-04-0.535D-03 0.178D-02-0.520D-03-0.145D-01-0.162D-01
 Coeff:      0.103D+00-0.217D+00-0.137D+00 0.128D+01
 Gap=     0.534 Goal=   None    Shift=    0.000
 RMSDP=1.76D-07 MaxDP=1.45D-06 DE=-2.15D-10 OVMax= 3.08D-06

 Cycle  11  Pass 1  IDiag  1:
 E= -226.392300873335     Delta-E=       -0.000000000034 Rises=F Damp=F
 DIIS: error= 2.60D-07 at cycle  11 NSaved=  11.
 NSaved=11 IEnMin=11 EnMin= -226.392300873335     IErMin=11 ErrMin= 2.60D-07
 ErrMax= 2.60D-07  0.00D+00 EMaxC= 1.00D-01 BMatC= 1.16D-12 BMatP= 9.32D-12
 IDIUse=1 WtCom= 1.00D+00 WtEn= 0.00D+00
 Coeff-Com:  0.657D-04-0.386D-03 0.104D-02 0.915D-04-0.762D-02-0.137D-01
 Coeff-Com:  0.494D-01-0.373D-01-0.153D+00 0.494D-01 0.111D+01
 Coeff:      0.657D-04-0.386D-03 0.104D-02 0.915D-04-0.762D-02-0.137D-01
 Coeff:      0.494D-01-0.373D-01-0.153D+00 0.494D-01 0.111D+01
 Gap=     0.534 Goal=   None    Shift=    0.000
 RMSDP=5.72D-08 MaxDP=4.93D-07 DE=-3.38D-11 OVMax= 9.74D-07

 Cycle  12  Pass 1  IDiag  1:
 E= -226.392300873339     Delta-E=       -0.000000000004 Rises=F Damp=F
 DIIS: error= 6.08D-08 at cycle  12 NSaved=  12.
 NSaved=12 IEnMin=12 EnMin= -226.392300873339     IErMin=12 ErrMin= 6.08D-08
 ErrMax= 6.08D-08  0.00D+00 EMaxC= 1.00D-01 BMatC= 1.03D-13 BMatP= 1.16D-12
 IDIUse=1 WtCom= 1.00D+00 WtEn= 0.00D+00
 Coeff-Com: -0.256D-04 0.155D-03-0.446D-03 0.429D-04 0.337D-02 0.479D-02
 Coeff-Com: -0.229D-01 0.330D-01 0.512D-01-0.175D+00-0.191D+00 0.130D+01
 Coeff:     -0.256D-04 0.155D-03-0.446D-03 0.429D-04 0.337D-02 0.479D-02
 Coeff:     -0.229D-01 0.330D-01 0.512D-01-0.175D+00-0.191D+00 0.130D+01
 Gap=     0.534 Goal=   None    Shift=    0.000
 RMSDP=2.01D-08 MaxDP=1.52D-07 DE=-3.98D-12 OVMax= 2.93D-07

 Cycle  13  Pass 1  IDiag  1:
 E= -226.392300873340     Delta-E=        0.000000000000 Rises=F Damp=F
 DIIS: error= 1.35D-08 at cycle  13 NSaved=  13.
 NSaved=13 IEnMin=13 EnMin= -226.392300873340     IErMin=13 ErrMin= 1.35D-08
 ErrMax= 1.35D-08  0.00D+00 EMaxC= 1.00D-01 BMatC= 5.21D-15 BMatP= 1.03D-13
 IDIUse=1 WtCom= 1.00D+00 WtEn= 0.00D+00
 Coeff-Com:  0.620D-05-0.378D-04 0.113D-03-0.191D-04-0.883D-03-0.109D-02
 Coeff-Com:  0.606D-02-0.111D-01-0.953D-02 0.600D-01 0.189D-01-0.502D+00
 Coeff-Com:  0.144D+01
 Coeff:      0.620D-05-0.378D-04 0.113D-03-0.191D-04-0.883D-03-0.109D-02
 Coeff:      0.606D-02-0.111D-01-0.953D-02 0.600D-01 0.189D-01-0.502D+00
 Coeff:      0.144D+01
 Gap=     0.534 Goal=   None    Shift=    0.000
 RMSDP=5.02D-09 MaxDP=3.63D-08 DE=-3.41D-13 OVMax= 7.19D-08

 SCF Done:  E(RHF) =  -226.392300873     A.U. after   13 cycles
            NFock= 13  Conv=0.50D-08     -V/T= 2.0034
 KE= 2.256230602323D+02 PE=-7.693471309048D+02 EE= 1.994314048608D+02
 Leave Link  502 at Fri Apr 12 17:01:15 2019, MaxMem=   134217728 cpu:         0.3
 (Enter /cm/shared/c3ddb/gaussian/09.d01/g09/l601.exe)
 Copying SCF densities to generalized density rwf, IOpCl= 0 IROHF=0.

 **********************************************************************

            Population analysis using the SCF density.

 **********************************************************************

 Alpha  occ. eigenvalues --  -20.52356 -20.51775 -11.23583 -11.17054  -1.46203
 Alpha  occ. eigenvalues --   -1.23036  -1.02927  -0.78944  -0.70679  -0.65031
 Alpha  occ. eigenvalues --   -0.64510  -0.59819  -0.54693  -0.50151  -0.45016
 Alpha  occ. eigenvalues --   -0.37286
 Alpha virt. eigenvalues --    0.16152   0.26332   0.29408   0.30647   0.32573
 Alpha virt. eigenvalues --    0.37055   0.50134   0.57267   0.88956   0.97670
 Alpha virt. eigenvalues --    0.99213   1.07132   1.10590   1.12710   1.23709
 Alpha virt. eigenvalues --    1.32594   1.37467   1.57713   1.60896   1.73616
 Alpha virt. eigenvalues --    1.82992   1.91027   1.98647   2.02077   2.07096
 Alpha virt. eigenvalues --    2.25885   3.08617   3.48061
          Condensed to atoms (all electrons):
               1          2          3          4          5          6
     1  C    4.894592   0.468073   0.390026  -0.040228  -0.050127   0.242036
     2  C    0.468073   5.350040  -0.064088   0.373236   0.390853  -0.059245
     3  H    0.390026  -0.064088   0.466915   0.000724   0.001929  -0.037555
     4  H   -0.040228   0.373236   0.000724   0.456617  -0.015702   0.001437
     5  H   -0.050127   0.390853   0.001929  -0.015702   0.422408  -0.003052
     6  O    0.242036  -0.059245  -0.037555   0.001437  -0.003052   8.181856
     7  O   -0.043694   0.000245   0.001567   0.000031   0.002251   0.118120
     8  H    0.002770  -0.000018  -0.000063  -0.000002  -0.000071  -0.022123
               7          8
     1  C   -0.043694   0.002770
     2  C    0.000245  -0.000018
     3  H    0.001567  -0.000063
     4  H    0.000031  -0.000002
     5  H    0.002251  -0.000071
     6  O    0.118120  -0.022123
     7  O    8.066543   0.242480
     8  H    0.242480   0.361404
 Mulliken charges:
               1
     1  C    0.136552
     2  C   -0.459097
     3  H    0.240544
     4  H    0.223887
     5  H    0.251509
     6  O   -0.421475
     7  O   -0.387543
     8  H    0.415622
 Sum of Mulliken charges =   0.00000
 Mulliken charges with hydrogens summed into heavy atoms:
               1
     1  C    0.377096
     2  C    0.016300
     6  O   -0.421475
     7  O    0.028079
 Electronic spatial extent (au):  <R**2>=            287.7857
 Charge=              0.0000 electrons
 Dipole moment (field-independent basis, Debye):
    X=              0.2329    Y=              0.7052    Z=              0.6511  Tot=              0.9877
 Quadrupole moment (field-independent basis, Debye-Ang):
   XX=            -17.1370   YY=            -21.9165   ZZ=            -24.7259
   XY=             -0.8935   XZ=             -2.8909   YZ=              1.7616
 Traceless Quadrupole moment (field-independent basis, Debye-Ang):
   XX=              4.1228   YY=             -0.6567   ZZ=             -3.4661
   XY=             -0.8935   XZ=             -2.8909   YZ=              1.7616
 Octapole moment (field-independent basis, Debye-Ang**2):
  XXX=            -18.5298  YYY=            -10.3400  ZZZ=            -19.7649  XYY=             -1.0100
  XXY=              0.0047  XXZ=              1.4642  XZZ=             -9.6751  YZZ=             -1.5014
  YYZ=             -6.5019  XYZ=             -2.6454
 Hexadecapole moment (field-independent basis, Debye-Ang**3):
 XXXX=           -154.6835 YYYY=            -68.1919 ZZZZ=            -66.1052 XXXY=              3.7818
 XXXZ=              5.9195 YYYX=             15.7847 YYYZ=              0.1016 ZZZX=             18.9761
 ZZZY=              1.1199 XXYY=            -43.0660 XXZZ=            -36.4267 YYZZ=            -23.4051
 XXYZ=              5.4436 YYXZ=              7.4915 ZZXY=              1.5023
 N-N= 1.179003649383D+02 E-N=-7.693471310090D+02  KE= 2.256230602323D+02
 No NMR shielding tensors so no spin-rotation constants.
 Leave Link  601 at Fri Apr 12 17:01:15 2019, MaxMem=   134217728 cpu:         0.1
 (Enter /cm/shared/c3ddb/gaussian/09.d01/g09/l701.exe)
 Compute integral first derivatives.
 ... and contract with generalized density number  0.
 Leave Link  701 at Fri Apr 12 17:01:15 2019, MaxMem=   134217728 cpu:         0.2
 (Enter /cm/shared/c3ddb/gaussian/09.d01/g09/l702.exe)
 L702 exits ... SP integral derivatives will be done elsewhere.
 Leave Link  702 at Fri Apr 12 17:01:15 2019, MaxMem=   134217728 cpu:         0.1
 (Enter /cm/shared/c3ddb/gaussian/09.d01/g09/l703.exe)
 Compute integral first derivatives, UseDBF=F ICtDFT=           0.
 Integral derivatives from FoFJK, PRISM(SPDF).
 Calling FoFJK, ICntrl=      2127 FMM=F ISym2X=0 I1Cent= 0 IOpClX= 0 NMat=1 NMatS=1 NMatT=0.
 FoFJK:  IHMeth= 1 ICntrl=    2127 DoSepK=F KAlg= 0 I1Cent=   0 FoldK=F
 IRaf=         0 NMat=   1 IRICut=       1 DoRegI=T DoRafI=F ISym2E= 0.
 FoFCou: FMM=F IPFlag=           0 FMFlag=      100000 FMFlg1=         800
         NFxFlg=           0 DoJE=F BraDBF=F KetDBF=F FulRan=T
         wScrn=  0.000000 ICntrl=    2127 IOpCl=  0 I1Cent=           0 NGrid=           0
         NMat0=    1 NMatS0=      1 NMatT0=    0 NMatD0=    1 NMtDS0=    0 NMtDT0=    0
 Symmetry not used in FoFCou.
 Leave Link  703 at Fri Apr 12 17:01:16 2019, MaxMem=   134217728 cpu:         0.2
 (Enter /cm/shared/c3ddb/gaussian/09.d01/g09/l716.exe)
 Dipole        = 9.16464878D-02 2.77441087D-01 2.56175386D-01
 -------------------------------------------------------------------
 Center     Atomic                   Forces (Hartrees/Bohr)
 Number     Number              X              Y              Z
 -------------------------------------------------------------------
      1        6           0.000592405   -0.000591541   -0.003420132
      2        6          -0.000019871    0.000022348    0.001740631
      3        1           0.000137645    0.000066025   -0.000064501
      4        1           0.000019740    0.000005427    0.000018995
      5        1          -0.000019192   -0.000016799   -0.000081735
      6        8          -0.000061844    0.001257100    0.002822309
      7        8          -0.000137628    0.000029373   -0.000916551
      8        1          -0.000511255   -0.000771933   -0.000099016
 -------------------------------------------------------------------
 Cartesian Forces:  Max     0.003420132 RMS     0.001055559
 Leave Link  716 at Fri Apr 12 17:01:16 2019, MaxMem=   134217728 cpu:         0.1
 (Enter /cm/shared/c3ddb/gaussian/09.d01/g09/l103.exe)

 GradGradGradGradGradGradGradGradGradGradGradGradGradGradGradGradGradGrad
 Berny optimization.
 FormGI is forming the generalized inverse of G from B-inverse, IUseBI=4.
 Internal  Forces:  Max     0.002191724 RMS     0.000755932
 Search for a local minimum.
 Step number   1 out of a maximum of   32
 All quantities printed in internal units (Hartrees-Bohrs-Radians)
 RMS Force = .39497D-03 SwitMx=.10000D-02 MixMth= 2
 Mixed Optimization -- En-DIIS/RFO-DIIS
 Second derivative matrix not updated -- first step.
 ITU=  0
     Eigenvalues ---    0.02560   0.03309   0.03312   0.15990   0.16000
     Eigenvalues ---    0.16000   0.16000   0.22003   0.25000   0.35112
     Eigenvalues ---    0.37133   0.37172   0.37188   0.44640   0.52831
     Eigenvalues ---    0.650901000.000001000.000001000.000001000.00000
     Eigenvalues --- 1000.000001000.00000
 RFO step:  Lambda=-1.39416873D-05 EMin= 2.55967399D-02
 Linear search not attempted -- first point.
 Iteration  1 RMS(Cart)=  0.00380126 RMS(Int)=  0.00000555
 Iteration  2 RMS(Cart)=  0.00000597 RMS(Int)=  0.00000014
 Iteration  3 RMS(Cart)=  0.00000000 RMS(Int)=  0.00000014
 Iteration  1 RMS(Cart)=  0.00000003 RMS(Int)=  0.00000002
 ITry= 1 IFail=0 DXMaxC= 9.99D-03 DCOld= 1.00D+10 DXMaxT= 3.00D-01 DXLimC= 3.00D+00 Rises=F
 Variable       Old X    -DE/DX   Delta X   Delta X   Delta X     New X
                                 (Linear)    (Quad)   (Total)
    R1        2.47126  -0.00011   0.00000  -0.00017  -0.00017   2.47109
    R2        2.02263   0.00012   0.00000   0.00031   0.00031   2.02294
    R3        2.65696   0.00069   0.00000   0.00154   0.00154   2.65849
    R4        2.02346   0.00002   0.00000   0.00005   0.00005   2.02351
    R5        2.02288   0.00003   0.00000   0.00007   0.00007   2.02295
    R6        2.78794  -0.00016   0.00000  -0.00046  -0.00046   2.78748
    R7        1.83811   0.00001   0.00000   0.00002   0.00002   1.83813
    A1        2.16684  -0.00011   0.00000  -0.00089  -0.00089   2.16595
    A2        2.15585   0.00013   0.00000   0.00053   0.00053   2.15638
    A3        1.95946   0.00003   0.00000   0.00034   0.00034   1.95980
    A4        2.10270  -0.00001   0.00000  -0.00002  -0.00002   2.10268
    A5        2.11692   0.00000   0.00000   0.00000   0.00000   2.11691
    A6        2.06317   0.00001   0.00000   0.00007   0.00007   2.06324
    A7        1.87825   0.00128   0.00000   0.00513   0.00513   1.88338
    A8        1.72646   0.00095   0.00000   0.00593   0.00593   1.73240
    D1        0.02060  -0.00052   0.00000   0.00079   0.00079   0.02139
    D2        3.13161  -0.00047   0.00000   0.00241   0.00241   3.13402
    D3        3.10961   0.00055   0.00000   0.00019   0.00019   3.10981
    D4       -0.06256   0.00061   0.00000   0.00182   0.00182  -0.06075
    D5        1.04720  -0.00219   0.00000   0.00000   0.00000   1.04720
    D6       -2.14141  -0.00123   0.00000  -0.00056  -0.00056  -2.14198
    D7        2.61799   0.00141   0.00000   0.00000   0.00000   2.61799
         Item               Value     Threshold  Converged?
 Maximum Force            0.001283     0.000015     NO 
 RMS     Force            0.000395     0.000010     NO 
 Maximum Displacement     0.009990     0.000060     NO 
 RMS     Displacement     0.003798     0.000040     NO 
 Predicted change in Energy=-6.971148D-06
 Lowest energy point so far.  Saving SCF results.
 GradGradGradGradGradGradGradGradGradGradGradGradGradGradGradGradGradGrad

 Leave Link  103 at Fri Apr 12 17:01:16 2019, MaxMem=   134217728 cpu:         0.0
 (Enter /cm/shared/c3ddb/gaussian/09.d01/g09/l202.exe)
                          Input orientation:                          
 ---------------------------------------------------------------------
 Center     Atomic      Atomic             Coordinates (Angstroms)
 Number     Number       Type             X           Y           Z
 ---------------------------------------------------------------------
      1          6           0        0.732741    0.606155    0.051333
      2          6           0        1.389662   -0.522287   -0.019455
      3          1           0        1.197628    1.569219    0.099813
      4          1           0        2.460416   -0.528693   -0.012504
      5          1           0        0.878170   -1.461845   -0.059138
      6          8           0       -0.670805    0.692667    0.010092
      7          8           0       -1.206408   -0.077762    1.148250
      8          1           0       -2.021175    0.428269    1.310199
 ---------------------------------------------------------------------
                    Distance matrix (angstroms):
                    1          2          3          4          5
     1  C    0.000000
     2  C    1.307646   0.000000
     3  H    1.070496   2.103687   0.000000
     4  H    2.068046   1.070796   2.451220   0.000000
     5  H    2.076049   1.070499   3.051994   1.837512   0.000000
     6  O    1.406815   2.392177   2.065778   3.361068   2.654438
     7  O    2.330509   2.881096   3.096959   3.872504   2.778298
     8  H    3.033224   3.782241   3.623189   4.769694   3.722072
                    6          7          8
     6  O    0.000000
     7  O    1.475071   0.000000
     8  H    1.893062   0.972698   0.000000
 Symmetry turned off by external request.
 Stoichiometry    C2H4O2
 Framework group  C1[X(C2H4O2)]
 Deg. of freedom    18
 Full point group                 C1      NOp   1
 Rotational constants (GHZ):     20.5672342      5.8694685      4.8823515
 Leave Link  202 at Fri Apr 12 17:01:16 2019, MaxMem=   134217728 cpu:         0.0
 (Enter /cm/shared/c3ddb/gaussian/09.d01/g09/l301.exe)
 Standard basis: 3-21G (6D, 7F)
 Ernie: Thresh=  0.10000D-02 Tol=  0.10000D-05 Strict=F.
    44 basis functions,    72 primitive gaussians,    44 cartesian basis functions
    16 alpha electrons       16 beta electrons
       nuclear repulsion energy       117.8269676708 Hartrees.
 IExCor=    0 DFT=F Ex=HF Corr=None ExCW=0 ScaHFX=  1.000000
 ScaDFX=  1.000000  1.000000  1.000000  1.000000 ScalE2=  1.000000  1.000000
 IRadAn=      0 IRanWt=     -1 IRanGd=            0 ICorTp=0 IEmpDi=  4
 NAtoms=    8 NActive=    8 NUniq=    8 SFac= 1.00D+00 NAtFMM=   60 NAOKFM=F Big=F
 Integral buffers will be    131072 words long.
 Raffenetti 1 integral format.
 Two-electron integral symmetry is turned off.
 Leave Link  301 at Fri Apr 12 17:01:16 2019, MaxMem=   134217728 cpu:         0.1
 (Enter /cm/shared/c3ddb/gaussian/09.d01/g09/l302.exe)
 NPDir=0 NMtPBC=     1 NCelOv=     1 NCel=       1 NClECP=     1 NCelD=      1
         NCelK=      1 NCelE2=     1 NClLst=     1 CellRange=     0.0.
 One-electron integrals computed using PRISM.
 NBasis=    44 RedAO= T EigKep=  1.19D-02  NBF=    44
 NBsUse=    44 1.00D-06 EigRej= -1.00D+00 NBFU=    44
 Leave Link  302 at Fri Apr 12 17:01:16 2019, MaxMem=   134217728 cpu:         0.2
 (Enter /cm/shared/c3ddb/gaussian/09.d01/g09/l303.exe)
 DipDrv:  MaxL=1.
 Leave Link  303 at Fri Apr 12 17:01:16 2019, MaxMem=   134217728 cpu:         0.1
 (Enter /cm/shared/c3ddb/gaussian/09.d01/g09/l401.exe)
 Initial guess from the checkpoint file:  "TMP_CALCS/scangeom_S02_060_150.chk"
 B after Tr=    -0.000667    0.000266    0.000732
         Rot=    1.000000   -0.000091    0.000211    0.000212 Ang=  -0.04 deg.
 Guess basis will be translated and rotated to current coordinates.
 JPrj=2 DoOrth=T DoCkMO=T.
 Leave Link  401 at Fri Apr 12 17:01:17 2019, MaxMem=   134217728 cpu:         0.2
 (Enter /cm/shared/c3ddb/gaussian/09.d01/g09/l502.exe)
 Closed shell SCF:
 Using DIIS extrapolation, IDIIS=  1040.
 Two-electron integral symmetry not used.
 Keep R1 ints in memory in canonical form, NReq=1327319.
 IVT=       24902 IEndB=       24902 NGot=   134217728 MDV=   133702282
 LenX=   133702282 LenY=   133699905
 Requested convergence on RMS density matrix=1.00D-08 within 128 cycles.
 Requested convergence on MAX density matrix=1.00D-06.
 Requested convergence on             energy=1.00D-06.
 No special actions if energy rises.
 FoFCou: FMM=F IPFlag=           0 FMFlag=           0 FMFlg1=           0
         NFxFlg=           0 DoJE=F BraDBF=F KetDBF=F FulRan=T
         wScrn=  0.000000 ICntrl=     600 IOpCl=  0 I1Cent=           0 NGrid=           0
         NMat0=    1 NMatS0=    990 NMatT0=    0 NMatD0=    1 NMtDS0=    0 NMtDT0=    0
 Symmetry not used in FoFCou.

 Cycle   1  Pass 1  IDiag  1:
 E= -226.392296847335    
 DIIS: error= 2.14D-04 at cycle   1 NSaved=   1.
 NSaved= 1 IEnMin= 1 EnMin= -226.392296847335     IErMin= 1 ErrMin= 2.14D-04
 ErrMax= 2.14D-04  0.00D+00 EMaxC= 1.00D-01 BMatC= 4.88D-06 BMatP= 4.88D-06
 IDIUse=3 WtCom= 9.98D-01 WtEn= 2.14D-03
 Coeff-Com:  0.100D+01
 Coeff-En:   0.100D+01
 Coeff:      0.100D+01
 Gap=     0.977 Goal=   None    Shift=    0.000
 RMSDP=5.18D-05 MaxDP=3.78D-04              OVMax= 4.21D-04

 Cycle   2  Pass 1  IDiag  1:
 E= -226.392302333649     Delta-E=       -0.000005486313 Rises=F Damp=F
 DIIS: error= 9.63D-05 at cycle   2 NSaved=   2.
 NSaved= 2 IEnMin= 2 EnMin= -226.392302333649     IErMin= 2 ErrMin= 9.63D-05
 ErrMax= 9.63D-05  0.00D+00 EMaxC= 1.00D-01 BMatC= 2.96D-07 BMatP= 4.88D-06
 IDIUse=1 WtCom= 1.00D+00 WtEn= 0.00D+00
 Coeff-Com: -0.123D+00 0.112D+01
 Coeff:     -0.123D+00 0.112D+01
 Gap=     0.534 Goal=   None    Shift=    0.000
 RMSDP=2.02D-05 MaxDP=9.67D-05 DE=-5.49D-06 OVMax= 3.26D-04

 Cycle   3  Pass 1  IDiag  1:
 E= -226.392303170111     Delta-E=       -0.000000836463 Rises=F Damp=F
 DIIS: error= 4.22D-05 at cycle   3 NSaved=   3.
 NSaved= 3 IEnMin= 3 EnMin= -226.392303170111     IErMin= 3 ErrMin= 4.22D-05
 ErrMax= 4.22D-05  0.00D+00 EMaxC= 1.00D-01 BMatC= 6.07D-08 BMatP= 2.96D-07
 IDIUse=1 WtCom= 1.00D+00 WtEn= 0.00D+00
 Coeff-Com: -0.354D-01 0.512D-02 0.103D+01
 Coeff:     -0.354D-01 0.512D-02 0.103D+01
 Gap=     0.534 Goal=   None    Shift=    0.000
 RMSDP=9.05D-06 MaxDP=5.48D-05 DE=-8.36D-07 OVMax= 1.26D-04

 Cycle   4  Pass 1  IDiag  1:
 E= -226.392303324751     Delta-E=       -0.000000154640 Rises=F Damp=F
 DIIS: error= 2.41D-05 at cycle   4 NSaved=   4.
 NSaved= 4 IEnMin= 4 EnMin= -226.392303324751     IErMin= 4 ErrMin= 2.41D-05
 ErrMax= 2.41D-05  0.00D+00 EMaxC= 1.00D-01 BMatC= 1.90D-08 BMatP= 6.07D-08
 IDIUse=1 WtCom= 1.00D+00 WtEn= 0.00D+00
 Coeff-Com:  0.235D-01-0.295D+00 0.275D+00 0.997D+00
 Coeff:      0.235D-01-0.295D+00 0.275D+00 0.997D+00
 Gap=     0.534 Goal=   None    Shift=    0.000
 RMSDP=5.94D-06 MaxDP=4.04D-05 DE=-1.55D-07 OVMax= 1.05D-04

 Cycle   5  Pass 1  IDiag  1:
 E= -226.392303373716     Delta-E=       -0.000000048965 Rises=F Damp=F
 DIIS: error= 1.23D-05 at cycle   5 NSaved=   5.
 NSaved= 5 IEnMin= 5 EnMin= -226.392303373716     IErMin= 5 ErrMin= 1.23D-05
 ErrMax= 1.23D-05  0.00D+00 EMaxC= 1.00D-01 BMatC= 1.72D-09 BMatP= 1.90D-08
 IDIUse=1 WtCom= 1.00D+00 WtEn= 0.00D+00
 Coeff-Com:  0.257D-04 0.430D-01-0.139D+00-0.132D+00 0.123D+01
 Coeff:      0.257D-04 0.430D-01-0.139D+00-0.132D+00 0.123D+01
 Gap=     0.534 Goal=   None    Shift=    0.000
 RMSDP=2.33D-06 MaxDP=1.94D-05 DE=-4.90D-08 OVMax= 5.43D-05

 Cycle   6  Pass 1  IDiag  1:
 E= -226.392303380934     Delta-E=       -0.000000007218 Rises=F Damp=F
 DIIS: error= 6.63D-06 at cycle   6 NSaved=   6.
 NSaved= 6 IEnMin= 6 EnMin= -226.392303380934     IErMin= 6 ErrMin= 6.63D-06
 ErrMax= 6.63D-06  0.00D+00 EMaxC= 1.00D-01 BMatC= 4.52D-10 BMatP= 1.72D-09
 IDIUse=1 WtCom= 1.00D+00 WtEn= 0.00D+00
 Coeff-Com: -0.453D-02 0.621D-01-0.673D-01-0.206D+00 0.742D-01 0.114D+01
 Coeff:     -0.453D-02 0.621D-01-0.673D-01-0.206D+00 0.742D-01 0.114D+01
 Gap=     0.534 Goal=   None    Shift=    0.000
 RMSDP=1.39D-06 MaxDP=1.07D-05 DE=-7.22D-09 OVMax= 3.58D-05

 Cycle   7  Pass 1  IDiag  1:
 E= -226.392303383076     Delta-E=       -0.000000002141 Rises=F Damp=F
 DIIS: error= 3.05D-06 at cycle   7 NSaved=   7.
 NSaved= 7 IEnMin= 7 EnMin= -226.392303383076     IErMin= 7 ErrMin= 3.05D-06
 ErrMax= 3.05D-06  0.00D+00 EMaxC= 1.00D-01 BMatC= 9.19D-11 BMatP= 4.52D-10
 IDIUse=1 WtCom= 1.00D+00 WtEn= 0.00D+00
 Coeff-Com:  0.165D-02-0.353D-01 0.631D-01 0.114D+00-0.361D+00-0.448D+00
 Coeff-Com:  0.167D+01
 Coeff:      0.165D-02-0.353D-01 0.631D-01 0.114D+00-0.361D+00-0.448D+00
 Coeff:      0.167D+01
 Gap=     0.534 Goal=   None    Shift=    0.000
 RMSDP=1.02D-06 MaxDP=7.64D-06 DE=-2.14D-09 OVMax= 2.54D-05

 Cycle   8  Pass 1  IDiag  1:
 E= -226.392303383666     Delta-E=       -0.000000000590 Rises=F Damp=F
 DIIS: error= 4.01D-07 at cycle   8 NSaved=   8.
 NSaved= 8 IEnMin= 8 EnMin= -226.392303383666     IErMin= 8 ErrMin= 4.01D-07
 ErrMax= 4.01D-07  0.00D+00 EMaxC= 1.00D-01 BMatC= 5.04D-12 BMatP= 9.19D-11
 IDIUse=1 WtCom= 1.00D+00 WtEn= 0.00D+00
 Coeff-Com:  0.369D-03-0.504D-02 0.511D-02 0.168D-01-0.271D-02-0.104D+00
 Coeff-Com:  0.126D-01 0.108D+01
 Coeff:      0.369D-03-0.504D-02 0.511D-02 0.168D-01-0.271D-02-0.104D+00
 Coeff:      0.126D-01 0.108D+01
 Gap=     0.534 Goal=   None    Shift=    0.000
 RMSDP=1.57D-07 MaxDP=1.11D-06 DE=-5.90D-10 OVMax= 3.58D-06

 Cycle   9  Pass 1  IDiag  1:
 E= -226.392303383684     Delta-E=       -0.000000000018 Rises=F Damp=F
 DIIS: error= 9.07D-08 at cycle   9 NSaved=   9.
 NSaved= 9 IEnMin= 9 EnMin= -226.392303383684     IErMin= 9 ErrMin= 9.07D-08
 ErrMax= 9.07D-08  0.00D+00 EMaxC= 1.00D-01 BMatC= 6.39D-13 BMatP= 5.04D-12
 IDIUse=1 WtCom= 1.00D+00 WtEn= 0.00D+00
 Coeff-Com: -0.190D-03 0.465D-02-0.879D-02-0.152D-01 0.558D-01 0.524D-01
 Coeff-Com: -0.249D+00 0.134D+00 0.103D+01
 Coeff:     -0.190D-03 0.465D-02-0.879D-02-0.152D-01 0.558D-01 0.524D-01
 Coeff:     -0.249D+00 0.134D+00 0.103D+01
 Gap=     0.534 Goal=   None    Shift=    0.000
 RMSDP=4.39D-08 MaxDP=2.60D-07 DE=-1.84D-11 OVMax= 7.47D-07

 Cycle  10  Pass 1  IDiag  1:
 E= -226.392303383686     Delta-E=       -0.000000000002 Rises=F Damp=F
 DIIS: error= 2.15D-08 at cycle  10 NSaved=  10.
 NSaved=10 IEnMin=10 EnMin= -226.392303383686     IErMin=10 ErrMin= 2.15D-08
 ErrMax= 2.15D-08  0.00D+00 EMaxC= 1.00D-01 BMatC= 3.11D-14 BMatP= 6.39D-13
 IDIUse=1 WtCom= 1.00D+00 WtEn= 0.00D+00
 Coeff-Com: -0.782D-05-0.227D-04 0.319D-03-0.739D-04-0.349D-02 0.397D-02
 Coeff-Com:  0.138D-01-0.783D-01-0.360D-01 0.110D+01
 Coeff:     -0.782D-05-0.227D-04 0.319D-03-0.739D-04-0.349D-02 0.397D-02
 Coeff:      0.138D-01-0.783D-01-0.360D-01 0.110D+01
 Gap=     0.534 Goal=   None    Shift=    0.000
 RMSDP=8.00D-09 MaxDP=4.40D-08 DE=-1.65D-12 OVMax= 9.71D-08

 SCF Done:  E(RHF) =  -226.392303384     A.U. after   10 cycles
            NFock= 10  Conv=0.80D-08     -V/T= 2.0034
 KE= 2.256186394892D+02 PE=-7.691997593916D+02 EE= 1.993618488480D+02
 Leave Link  502 at Fri Apr 12 17:01:17 2019, MaxMem=   134217728 cpu:         0.2
 (Enter /cm/shared/c3ddb/gaussian/09.d01/g09/l701.exe)
 Compute integral first derivatives.
 ... and contract with generalized density number  0.
 Leave Link  701 at Fri Apr 12 17:01:17 2019, MaxMem=   134217728 cpu:         0.1
 (Enter /cm/shared/c3ddb/gaussian/09.d01/g09/l702.exe)
 L702 exits ... SP integral derivatives will be done elsewhere.
 Leave Link  702 at Fri Apr 12 17:01:17 2019, MaxMem=   134217728 cpu:         0.1
 (Enter /cm/shared/c3ddb/gaussian/09.d01/g09/l703.exe)
 Compute integral first derivatives, UseDBF=F ICtDFT=           0.
 Integral derivatives from FoFJK, PRISM(SPDF).
 Calling FoFJK, ICntrl=      2127 FMM=F ISym2X=0 I1Cent= 0 IOpClX= 0 NMat=1 NMatS=1 NMatT=0.
 FoFJK:  IHMeth= 1 ICntrl=    2127 DoSepK=F KAlg= 0 I1Cent=   0 FoldK=F
 IRaf=         0 NMat=   1 IRICut=       1 DoRegI=T DoRafI=F ISym2E= 0.
 FoFCou: FMM=F IPFlag=           0 FMFlag=      100000 FMFlg1=         800
         NFxFlg=           0 DoJE=F BraDBF=F KetDBF=F FulRan=T
         wScrn=  0.000000 ICntrl=    2127 IOpCl=  0 I1Cent=           0 NGrid=           0
         NMat0=    1 NMatS0=      1 NMatT0=    0 NMatD0=    1 NMtDS0=    0 NMtDT0=    0
 Symmetry not used in FoFCou.
 Leave Link  703 at Fri Apr 12 17:01:18 2019, MaxMem=   134217728 cpu:         0.2
 (Enter /cm/shared/c3ddb/gaussian/09.d01/g09/l716.exe)
 Dipole        = 9.32114305D-02 2.77088304D-01 2.55278625D-01
 -------------------------------------------------------------------
 Center     Atomic                   Forces (Hartrees/Bohr)
 Number     Number              X              Y              Z
 -------------------------------------------------------------------
      1        6          -0.000119775   -0.000694975   -0.002777263
      2        6          -0.000113016   -0.000175677    0.001634239
      3        1          -0.000093420    0.000017262    0.000004436
      4        1          -0.000003250    0.000005602   -0.000027375
      5        1           0.000000777   -0.000012308    0.000040695
      6        8          -0.000386748    0.001879909    0.002391473
      7        8           0.000929707   -0.000812465   -0.000484912
      8        1          -0.000214274   -0.000207349   -0.000781293
 -------------------------------------------------------------------
 Cartesian Forces:  Max     0.002777263 RMS     0.000974642
 Leave Link  716 at Fri Apr 12 17:01:18 2019, MaxMem=   134217728 cpu:         0.1
 (Enter /cm/shared/c3ddb/gaussian/09.d01/g09/l103.exe)

 GradGradGradGradGradGradGradGradGradGradGradGradGradGradGradGradGradGrad
 Berny optimization.
 Using GEDIIS/GDIIS optimizer.
 FormGI is forming the generalized inverse of G from B-inverse, IUseBI=4.
 Internal  Forces:  Max     0.002225180 RMS     0.000713984
 Search for a local minimum.
 Step number   2 out of a maximum of   32
 All quantities printed in internal units (Hartrees-Bohrs-Radians)
 RMS Force = .29879D-03 SwitMx=.10000D-02 MixMth= 2
 Mixed Optimization -- En-DIIS/RFO-DIIS
 Swapping is turned off.
 Update second derivatives using D2CorX and points    1    2
 DE= -2.51D-06 DEPred=-6.97D-06 R= 3.60D-01
 Trust test= 3.60D-01 RLast= 8.69D-03 DXMaxT set to 3.00D-01
 ITU=  0  0
     Eigenvalues ---    0.02550   0.03307   0.03330   0.15987   0.15999
     Eigenvalues ---    0.16000   0.18694   0.22004   0.27733   0.37102
     Eigenvalues ---    0.37137   0.37172   0.39897   0.49588   0.52966
     Eigenvalues ---    0.650761000.000001000.000001000.000001000.00000
     Eigenvalues --- 1000.000001000.00000
 En-DIIS/RFO-DIIS IScMMF=        0 using points:     2    1
 RFO step:  Lambda=-3.03171153D-06.
 NNeg= 0 NP= 2 Switch=  2.50D-03 Rises=F DC=  2.51D-06 SmlDif=  1.00D-05
 RMS Error=  0.4419363910D-03 NUsed= 2 EDIIS=F
 DidBck=T Rises=F RFO-DIIS coefs:    0.61064    0.38936
 Iteration  1 RMS(Cart)=  0.00136814 RMS(Int)=  0.00000075
 Iteration  2 RMS(Cart)=  0.00000059 RMS(Int)=  0.00000034
 Iteration  1 RMS(Cart)=  0.00000022 RMS(Int)=  0.00000011
 ITry= 1 IFail=0 DXMaxC= 3.67D-03 DCOld= 1.00D+10 DXMaxT= 3.00D-01 DXLimC= 3.00D+00 Rises=F
 Variable       Old X    -DE/DX   Delta X   Delta X   Delta X     New X
                                 (Linear)    (Quad)   (Total)
    R1        2.47109   0.00001   0.00007  -0.00007   0.00000   2.47109
    R2        2.02294  -0.00002  -0.00012   0.00010  -0.00002   2.02292
    R3        2.65849  -0.00031  -0.00060   0.00027  -0.00033   2.65816
    R4        2.02351   0.00000  -0.00002   0.00002   0.00000   2.02351
    R5        2.02295   0.00001  -0.00003   0.00005   0.00002   2.02297
    R6        2.78748  -0.00070   0.00018  -0.00143  -0.00125   2.78623
    R7        1.83813  -0.00006  -0.00001  -0.00006  -0.00007   1.83807
    A1        2.16595   0.00017   0.00035   0.00001   0.00036   2.16631
    A2        2.15638  -0.00004  -0.00020   0.00010  -0.00011   2.15627
    A3        1.95980  -0.00009  -0.00013  -0.00015  -0.00028   1.95952
    A4        2.10268  -0.00001   0.00001  -0.00004  -0.00003   2.10265
    A5        2.11691   0.00001   0.00000   0.00003   0.00003   2.11695
    A6        2.06324   0.00000  -0.00003   0.00002   0.00000   2.06324
    A7        1.88338  -0.00077  -0.00200   0.00043  -0.00157   1.88181
    A8        1.73240  -0.00076  -0.00231  -0.00023  -0.00254   1.72985
    D1        0.02139  -0.00056  -0.00031   0.00026  -0.00004   0.02134
    D2        3.13402  -0.00057  -0.00094   0.00078  -0.00016   3.13386
    D3        3.10981   0.00051  -0.00008  -0.00071  -0.00079   3.10902
    D4       -0.06075   0.00050  -0.00071  -0.00020  -0.00091  -0.06165
    D5        1.04720  -0.00223   0.00000   0.00000   0.00000   1.04720
    D6       -2.14198  -0.00126   0.00022  -0.00087  -0.00065  -2.14263
    D7        2.61799   0.00132   0.00000   0.00000   0.00000   2.61799
         Item               Value     Threshold  Converged?
 Maximum Force            0.000767     0.000015     NO 
 RMS     Force            0.000299     0.000010     NO 
 Maximum Displacement     0.003673     0.000060     NO 
 RMS     Displacement     0.001368     0.000040     NO 
 Predicted change in Energy=-2.144667D-06
 Lowest energy point so far.  Saving SCF results.
 GradGradGradGradGradGradGradGradGradGradGradGradGradGradGradGradGradGrad

 Leave Link  103 at Fri Apr 12 17:01:18 2019, MaxMem=   134217728 cpu:         0.0
 (Enter /cm/shared/c3ddb/gaussian/09.d01/g09/l202.exe)
                          Input orientation:                          
 ---------------------------------------------------------------------
 Center     Atomic      Atomic             Coordinates (Angstroms)
 Number     Number       Type             X           Y           Z
 ---------------------------------------------------------------------
      1          6           0        0.732219    0.606229    0.051822
      2          6           0        1.389031   -0.522262   -0.019194
      3          1           0        1.196845    1.569409    0.100215
      4          1           0        2.459786   -0.528711   -0.012590
      5          1           0        0.877484   -1.461812   -0.058620
      6          8           0       -0.671137    0.692764    0.010109
      7          8           0       -1.204768   -0.078315    1.147893
      8          1           0       -2.019231    0.428421    1.308954
 ---------------------------------------------------------------------
                    Distance matrix (angstroms):
                    1          2          3          4          5
     1  C    0.000000
     2  C    1.307646   0.000000
     3  H    1.070484   2.103873   0.000000
     4  H    2.068024   1.070794   2.451500   0.000000
     5  H    2.076076   1.070509   3.052134   1.837519   0.000000
     6  O    1.406640   2.391953   2.065426   3.360833   2.654270
     7  O    2.328496   2.878711   3.095218   3.870211   2.775880
     8  H    3.030260   3.779422   3.620228   4.766988   3.719435
                    6          7          8
     6  O    0.000000
     7  O    1.474408   0.000000
     8  H    1.890564   0.972662   0.000000
 Symmetry turned off by external request.
 Stoichiometry    C2H4O2
 Framework group  C1[X(C2H4O2)]
 Deg. of freedom    18
 Full point group                 C1      NOp   1
 Rotational constants (GHZ):     20.5588804      5.8776073      4.8876725
 Leave Link  202 at Fri Apr 12 17:01:18 2019, MaxMem=   134217728 cpu:         0.0
 (Enter /cm/shared/c3ddb/gaussian/09.d01/g09/l301.exe)
 Standard basis: 3-21G (6D, 7F)
 Ernie: Thresh=  0.10000D-02 Tol=  0.10000D-05 Strict=F.
    44 basis functions,    72 primitive gaussians,    44 cartesian basis functions
    16 alpha electrons       16 beta electrons
       nuclear repulsion energy       117.8654123872 Hartrees.
 IExCor=    0 DFT=F Ex=HF Corr=None ExCW=0 ScaHFX=  1.000000
 ScaDFX=  1.000000  1.000000  1.000000  1.000000 ScalE2=  1.000000  1.000000
 IRadAn=      0 IRanWt=     -1 IRanGd=            0 ICorTp=0 IEmpDi=  4
 NAtoms=    8 NActive=    8 NUniq=    8 SFac= 1.00D+00 NAtFMM=   60 NAOKFM=F Big=F
 Integral buffers will be    131072 words long.
 Raffenetti 1 integral format.
 Two-electron integral symmetry is turned off.
 Leave Link  301 at Fri Apr 12 17:01:18 2019, MaxMem=   134217728 cpu:         0.1
 (Enter /cm/shared/c3ddb/gaussian/09.d01/g09/l302.exe)
 NPDir=0 NMtPBC=     1 NCelOv=     1 NCel=       1 NClECP=     1 NCelD=      1
         NCelK=      1 NCelE2=     1 NClLst=     1 CellRange=     0.0.
 One-electron integrals computed using PRISM.
 NBasis=    44 RedAO= T EigKep=  1.19D-02  NBF=    44
 NBsUse=    44 1.00D-06 EigRej= -1.00D+00 NBFU=    44
 Leave Link  302 at Fri Apr 12 17:01:19 2019, MaxMem=   134217728 cpu:         0.2
 (Enter /cm/shared/c3ddb/gaussian/09.d01/g09/l303.exe)
 DipDrv:  MaxL=1.
 Leave Link  303 at Fri Apr 12 17:01:19 2019, MaxMem=   134217728 cpu:         0.1
 (Enter /cm/shared/c3ddb/gaussian/09.d01/g09/l401.exe)
 Initial guess from the checkpoint file:  "TMP_CALCS/scangeom_S02_060_150.chk"
 B after Tr=     0.000179   -0.000090    0.000047
         Rot=    1.000000   -0.000055   -0.000045   -0.000056 Ang=  -0.01 deg.
 Guess basis will be translated and rotated to current coordinates.
 JPrj=2 DoOrth=T DoCkMO=T.
 Leave Link  401 at Fri Apr 12 17:01:19 2019, MaxMem=   134217728 cpu:         0.2
 (Enter /cm/shared/c3ddb/gaussian/09.d01/g09/l502.exe)
 Closed shell SCF:
 Using DIIS extrapolation, IDIIS=  1040.
 Two-electron integral symmetry not used.
 Keep R1 ints in memory in canonical form, NReq=1327334.
 IVT=       24902 IEndB=       24902 NGot=   134217728 MDV=   133702282
 LenX=   133702282 LenY=   133699905
 Requested convergence on RMS density matrix=1.00D-08 within 128 cycles.
 Requested convergence on MAX density matrix=1.00D-06.
 Requested convergence on             energy=1.00D-06.
 No special actions if energy rises.
 FoFCou: FMM=F IPFlag=           0 FMFlag=           0 FMFlg1=           0
         NFxFlg=           0 DoJE=F BraDBF=F KetDBF=F FulRan=T
         wScrn=  0.000000 ICntrl=     600 IOpCl=  0 I1Cent=           0 NGrid=           0
         NMat0=    1 NMatS0=    990 NMatT0=    0 NMatD0=    1 NMtDS0=    0 NMtDT0=    0
 Symmetry not used in FoFCou.

 Cycle   1  Pass 1  IDiag  1:
 E= -226.392304873842    
 DIIS: error= 1.01D-04 at cycle   1 NSaved=   1.
 NSaved= 1 IEnMin= 1 EnMin= -226.392304873842     IErMin= 1 ErrMin= 1.01D-04
 ErrMax= 1.01D-04  0.00D+00 EMaxC= 1.00D-01 BMatC= 6.63D-07 BMatP= 6.63D-07
 IDIUse=3 WtCom= 9.99D-01 WtEn= 1.01D-03
 Coeff-Com:  0.100D+01
 Coeff-En:   0.100D+01
 Coeff:      0.100D+01
 Gap=     0.977 Goal=   None    Shift=    0.000
 RMSDP=1.93D-05 MaxDP=1.66D-04              OVMax= 1.33D-04

 Cycle   2  Pass 1  IDiag  1:
 E= -226.392305370394     Delta-E=       -0.000000496552 Rises=F Damp=F
 DIIS: error= 2.25D-05 at cycle   2 NSaved=   2.
 NSaved= 2 IEnMin= 2 EnMin= -226.392305370394     IErMin= 2 ErrMin= 2.25D-05
 ErrMax= 2.25D-05  0.00D+00 EMaxC= 1.00D-01 BMatC= 2.61D-08 BMatP= 6.63D-07
 IDIUse=1 WtCom= 1.00D+00 WtEn= 0.00D+00
 Coeff-Com: -0.684D-01 0.107D+01
 Coeff:     -0.684D-01 0.107D+01
 Gap=     0.534 Goal=   None    Shift=    0.000
 RMSDP=6.02D-06 MaxDP=4.07D-05 DE=-4.97D-07 OVMax= 8.25D-05

 Cycle   3  Pass 1  IDiag  1:
 E= -226.392305430229     Delta-E=       -0.000000059834 Rises=F Damp=F
 DIIS: error= 1.32D-05 at cycle   3 NSaved=   3.
 NSaved= 3 IEnMin= 3 EnMin= -226.392305430229     IErMin= 3 ErrMin= 1.32D-05
 ErrMax= 1.32D-05  0.00D+00 EMaxC= 1.00D-01 BMatC= 6.20D-09 BMatP= 2.61D-08
 IDIUse=1 WtCom= 1.00D+00 WtEn= 0.00D+00
 Coeff-Com: -0.343D-01 0.157D+00 0.877D+00
 Coeff:     -0.343D-01 0.157D+00 0.877D+00
 Gap=     0.534 Goal=   None    Shift=    0.000
 RMSDP=2.55D-06 MaxDP=1.75D-05 DE=-5.98D-08 OVMax= 3.64D-05

 Cycle   4  Pass 1  IDiag  1:
 E= -226.392305443452     Delta-E=       -0.000000013223 Rises=F Damp=F
 DIIS: error= 1.06D-05 at cycle   4 NSaved=   4.
 NSaved= 4 IEnMin= 4 EnMin= -226.392305443452     IErMin= 4 ErrMin= 1.06D-05
 ErrMax= 1.06D-05  0.00D+00 EMaxC= 1.00D-01 BMatC= 1.76D-09 BMatP= 6.20D-09
 IDIUse=1 WtCom= 1.00D+00 WtEn= 0.00D+00
 Coeff-Com:  0.154D-01-0.253D+00 0.183D-01 0.122D+01
 Coeff:      0.154D-01-0.253D+00 0.183D-01 0.122D+01
 Gap=     0.535 Goal=   None    Shift=    0.000
 RMSDP=2.37D-06 MaxDP=1.82D-05 DE=-1.32D-08 OVMax= 4.75D-05

 Cycle   5  Pass 1  IDiag  1:
 E= -226.392305450129     Delta-E=       -0.000000006677 Rises=F Damp=F
 DIIS: error= 5.16D-06 at cycle   5 NSaved=   5.
 NSaved= 5 IEnMin= 5 EnMin= -226.392305450129     IErMin= 5 ErrMin= 5.16D-06
 ErrMax= 5.16D-06  0.00D+00 EMaxC= 1.00D-01 BMatC= 3.35D-10 BMatP= 1.76D-09
 IDIUse=1 WtCom= 1.00D+00 WtEn= 0.00D+00
 Coeff-Com:  0.648D-02-0.422D-01-0.133D+00 0.123D+00 0.105D+01
 Coeff:      0.648D-02-0.422D-01-0.133D+00 0.123D+00 0.105D+01
 Gap=     0.535 Goal=   None    Shift=    0.000
 RMSDP=9.89D-07 MaxDP=8.34D-06 DE=-6.68D-09 OVMax= 2.28D-05

 Cycle   6  Pass 1  IDiag  1:
 E= -226.392305451404     Delta-E=       -0.000000001275 Rises=F Damp=F
 DIIS: error= 2.83D-06 at cycle   6 NSaved=   6.
 NSaved= 6 IEnMin= 6 EnMin= -226.392305451404     IErMin= 6 ErrMin= 2.83D-06
 ErrMax= 2.83D-06  0.00D+00 EMaxC= 1.00D-01 BMatC= 8.02D-11 BMatP= 3.35D-10
 IDIUse=1 WtCom= 1.00D+00 WtEn= 0.00D+00
 Coeff-Com: -0.453D-02 0.763D-01-0.933D-02-0.359D+00-0.295D-01 0.133D+01
 Coeff:     -0.453D-02 0.763D-01-0.933D-02-0.359D+00-0.295D-01 0.133D+01
 Gap=     0.535 Goal=   None    Shift=    0.000
 RMSDP=7.51D-07 MaxDP=6.08D-06 DE=-1.27D-09 OVMax= 1.94D-05

 Cycle   7  Pass 1  IDiag  1:
 E= -226.392305451840     Delta-E=       -0.000000000436 Rises=F Damp=F
 DIIS: error= 8.63D-07 at cycle   7 NSaved=   7.
 NSaved= 7 IEnMin= 7 EnMin= -226.392305451840     IErMin= 7 ErrMin= 8.63D-07
 ErrMax= 8.63D-07  0.00D+00 EMaxC= 1.00D-01 BMatC= 9.12D-12 BMatP= 8.02D-11
 IDIUse=1 WtCom= 1.00D+00 WtEn= 0.00D+00
 Coeff-Com:  0.131D-02-0.330D-01 0.255D-01 0.167D+00-0.150D+00-0.677D+00
 Coeff-Com:  0.167D+01
 Coeff:      0.131D-02-0.330D-01 0.255D-01 0.167D+00-0.150D+00-0.677D+00
 Coeff:      0.167D+01
 Gap=     0.535 Goal=   None    Shift=    0.000
 RMSDP=3.03D-07 MaxDP=2.39D-06 DE=-4.36D-10 OVMax= 7.54D-06

 Cycle   8  Pass 1  IDiag  1:
 E= -226.392305451895     Delta-E=       -0.000000000054 Rises=F Damp=F
 DIIS: error= 1.00D-07 at cycle   8 NSaved=   8.
 NSaved= 8 IEnMin= 8 EnMin= -226.392305451895     IErMin= 8 ErrMin= 1.00D-07
 ErrMax= 1.00D-07  0.00D+00 EMaxC= 1.00D-01 BMatC= 4.44D-13 BMatP= 9.12D-12
 IDIUse=1 WtCom= 1.00D+00 WtEn= 0.00D+00
 Coeff-Com:  0.169D-03-0.183D-02-0.208D-02 0.714D-02 0.233D-01-0.375D-01
 Coeff-Com: -0.145D+00 0.116D+01
 Coeff:      0.169D-03-0.183D-02-0.208D-02 0.714D-02 0.233D-01-0.375D-01
 Coeff:     -0.145D+00 0.116D+01
 Gap=     0.535 Goal=   None    Shift=    0.000
 RMSDP=4.42D-08 MaxDP=2.93D-07 DE=-5.45D-11 OVMax= 8.77D-07

 Cycle   9  Pass 1  IDiag  1:
 E= -226.392305451896     Delta-E=       -0.000000000002 Rises=F Damp=F
 DIIS: error= 4.31D-08 at cycle   9 NSaved=   9.
 NSaved= 9 IEnMin= 9 EnMin= -226.392305451896     IErMin= 9 ErrMin= 4.31D-08
 ErrMax= 4.31D-08  0.00D+00 EMaxC= 1.00D-01 BMatC= 5.37D-14 BMatP= 4.44D-13
 IDIUse=1 WtCom= 1.00D+00 WtEn= 0.00D+00
 Coeff-Com: -0.175D-03 0.448D-02-0.295D-02-0.234D-01 0.198D-01 0.904D-01
 Coeff-Com: -0.209D+00-0.704D-01 0.119D+01
 Coeff:     -0.175D-03 0.448D-02-0.295D-02-0.234D-01 0.198D-01 0.904D-01
 Coeff:     -0.209D+00-0.704D-01 0.119D+01
 Gap=     0.535 Goal=   None    Shift=    0.000
 RMSDP=1.39D-08 MaxDP=1.06D-07 DE=-1.82D-12 OVMax= 2.50D-07

 Cycle  10  Pass 1  IDiag  1:
 E= -226.392305451897     Delta-E=        0.000000000000 Rises=F Damp=F
 DIIS: error= 1.57D-08 at cycle  10 NSaved=  10.
 NSaved=10 IEnMin=10 EnMin= -226.392305451897     IErMin=10 ErrMin= 1.57D-08
 ErrMax= 1.57D-08  0.00D+00 EMaxC= 1.00D-01 BMatC= 4.52D-15 BMatP= 5.37D-14
 IDIUse=1 WtCom= 1.00D+00 WtEn= 0.00D+00
 Coeff-Com:  0.401D-04-0.123D-02 0.126D-02 0.630D-02-0.793D-02-0.241D-01
 Coeff-Com:  0.751D-01-0.722D-01-0.343D+00 0.137D+01
 Coeff:      0.401D-04-0.123D-02 0.126D-02 0.630D-02-0.793D-02-0.241D-01
 Coeff:      0.751D-01-0.722D-01-0.343D+00 0.137D+01
 Gap=     0.535 Goal=   None    Shift=    0.000
 RMSDP=3.84D-09 MaxDP=2.59D-08 DE=-2.27D-13 OVMax= 8.40D-08

 SCF Done:  E(RHF) =  -226.392305452     A.U. after   10 cycles
            NFock= 10  Conv=0.38D-08     -V/T= 2.0034
 KE= 2.256215278438D+02 PE=-7.692772568851D+02 EE= 1.993980112022D+02
 Leave Link  502 at Fri Apr 12 17:01:19 2019, MaxMem=   134217728 cpu:         0.2
 (Enter /cm/shared/c3ddb/gaussian/09.d01/g09/l701.exe)
 Compute integral first derivatives.
 ... and contract with generalized density number  0.
 Leave Link  701 at Fri Apr 12 17:01:19 2019, MaxMem=   134217728 cpu:         0.1
 (Enter /cm/shared/c3ddb/gaussian/09.d01/g09/l702.exe)
 L702 exits ... SP integral derivatives will be done elsewhere.
 Leave Link  702 at Fri Apr 12 17:01:19 2019, MaxMem=   134217728 cpu:         0.1
 (Enter /cm/shared/c3ddb/gaussian/09.d01/g09/l703.exe)
 Compute integral first derivatives, UseDBF=F ICtDFT=           0.
 Integral derivatives from FoFJK, PRISM(SPDF).
 Calling FoFJK, ICntrl=      2127 FMM=F ISym2X=0 I1Cent= 0 IOpClX= 0 NMat=1 NMatS=1 NMatT=0.
 FoFJK:  IHMeth= 1 ICntrl=    2127 DoSepK=F KAlg= 0 I1Cent=   0 FoldK=F
 IRaf=         0 NMat=   1 IRICut=       1 DoRegI=T DoRafI=F ISym2E= 0.
 FoFCou: FMM=F IPFlag=           0 FMFlag=      100000 FMFlg1=         800
         NFxFlg=           0 DoJE=F BraDBF=F KetDBF=F FulRan=T
         wScrn=  0.000000 ICntrl=    2127 IOpCl=  0 I1Cent=           0 NGrid=           0
         NMat0=    1 NMatS0=      1 NMatT0=    0 NMatD0=    1 NMtDS0=    0 NMtDT0=    0
 Symmetry not used in FoFCou.
 Leave Link  703 at Fri Apr 12 17:01:20 2019, MaxMem=   134217728 cpu:         0.2
 (Enter /cm/shared/c3ddb/gaussian/09.d01/g09/l716.exe)
 Dipole        = 9.28313247D-02 2.77520114D-01 2.54950346D-01
 -------------------------------------------------------------------
 Center     Atomic                   Forces (Hartrees/Bohr)
 Number     Number              X              Y              Z
 -------------------------------------------------------------------
      1        6           0.000065949   -0.000563718   -0.003096535
      2        6          -0.000075618   -0.000148198    0.001659343
      3        1          -0.000025189   -0.000003368    0.000003330
      4        1          -0.000002486    0.000000301    0.000013378
      5        1           0.000003718    0.000000433    0.000008730
      6        8           0.000079716    0.001910537    0.002134497
      7        8           0.000312121   -0.000734325   -0.000265884
      8        1          -0.000358212   -0.000461663   -0.000456857
 -------------------------------------------------------------------
 Cartesian Forces:  Max     0.003096535 RMS     0.000960963
 Leave Link  716 at Fri Apr 12 17:01:20 2019, MaxMem=   134217728 cpu:         0.1
 (Enter /cm/shared/c3ddb/gaussian/09.d01/g09/l103.exe)

 GradGradGradGradGradGradGradGradGradGradGradGradGradGradGradGradGradGrad
 Berny optimization.
 Using GEDIIS/GDIIS optimizer.
 FormGI is forming the generalized inverse of G from B-inverse, IUseBI=4.
 Internal  Forces:  Max     0.002245023 RMS     0.000662646
 Search for a local minimum.
 Step number   3 out of a maximum of   32
 All quantities printed in internal units (Hartrees-Bohrs-Radians)
 RMS Force = .24518D-04 SwitMx=.10000D-02 MixMth= 2
 Mixed Optimization -- En-DIIS/RFO-DIIS
 Swapping is turned off.
 Update second derivatives using D2CorX and points    1    2    3
 DE= -2.07D-06 DEPred=-2.14D-06 R= 9.64D-01
 TightC=F SS=  1.41D+00  RLast= 3.57D-03 DXNew= 5.0454D-01 1.0707D-02
 Trust test= 9.64D-01 RLast= 3.57D-03 DXMaxT set to 3.00D-01
 ITU=  1  0  0
     Eigenvalues ---    0.02566   0.03320   0.03335   0.15926   0.16000
     Eigenvalues ---    0.16000   0.18986   0.22014   0.28147   0.37133
     Eigenvalues ---    0.37171   0.37194   0.42220   0.49870   0.52804
     Eigenvalues ---    0.650751000.000001000.000001000.000001000.00000
     Eigenvalues --- 1000.000001000.00000
 En-DIIS/RFO-DIIS IScMMF=        0 using points:     3    2    1
 RFO step:  Lambda=-3.27590914D-07.
 NNeg= 0 NP= 3 Switch=  2.50D-03 Rises=F DC=  2.51D-06 SmlDif=  1.00D-05
 RMS Error=  0.5155854021D-04 NUsed= 3 EDIIS=F
 DidBck=F Rises=F RFO-DIIS coefs:    0.82357    0.10589    0.07055
 Iteration  1 RMS(Cart)=  0.00018723 RMS(Int)=  0.00000029
 Iteration  2 RMS(Cart)=  0.00000003 RMS(Int)=  0.00000028
 Iteration  1 RMS(Cart)=  0.00000026 RMS(Int)=  0.00000013
 ITry= 1 IFail=0 DXMaxC= 4.78D-04 DCOld= 1.00D+10 DXMaxT= 3.00D-01 DXLimC= 3.00D+00 Rises=F
 Variable       Old X    -DE/DX   Delta X   Delta X   Delta X     New X
                                 (Linear)    (Quad)   (Total)
    R1        2.47109   0.00000   0.00001  -0.00001   0.00000   2.47109
    R2        2.02292  -0.00001  -0.00002  -0.00002  -0.00003   2.02289
    R3        2.65816  -0.00003  -0.00005  -0.00002  -0.00007   2.65809
    R4        2.02351   0.00000   0.00000   0.00000  -0.00001   2.02350
    R5        2.02297   0.00000  -0.00001   0.00000  -0.00001   2.02296
    R6        2.78623   0.00008   0.00025  -0.00006   0.00019   2.78642
    R7        1.83807  -0.00002   0.00001  -0.00004  -0.00003   1.83804
    A1        2.16631   0.00008   0.00000   0.00014   0.00014   2.16645
    A2        2.15627   0.00000  -0.00002  -0.00002  -0.00003   2.15623
    A3        1.95952  -0.00003   0.00003  -0.00012  -0.00010   1.95942
    A4        2.10265   0.00000   0.00001  -0.00003  -0.00002   2.10263
    A5        2.11695   0.00000  -0.00001   0.00002   0.00002   2.11697
    A6        2.06324   0.00000   0.00000  -0.00001  -0.00001   2.06323
    A7        1.88181  -0.00002  -0.00008  -0.00003  -0.00012   1.88170
    A8        1.72985   0.00004   0.00003   0.00011   0.00014   1.72999
    D1        0.02134  -0.00055  -0.00005   0.00024   0.00019   0.02154
    D2        3.13386  -0.00057  -0.00014  -0.00016  -0.00030   3.13356
    D3        3.10902   0.00057   0.00013   0.00025   0.00037   3.10939
    D4       -0.06165   0.00055   0.00003  -0.00015  -0.00012  -0.06177
    D5        1.04720  -0.00225   0.00000   0.00000   0.00000   1.04720
    D6       -2.14263  -0.00124   0.00015   0.00001   0.00017  -2.14246
    D7        2.61799   0.00135   0.00000   0.00000   0.00000   2.61799
         Item               Value     Threshold  Converged?
 Maximum Force            0.000084     0.000015     NO 
 RMS     Force            0.000025     0.000010     NO 
 Maximum Displacement     0.000478     0.000060     NO 
 RMS     Displacement     0.000187     0.000040     NO 
 Predicted change in Energy=-2.442806D-08
 Lowest energy point so far.  Saving SCF results.
 GradGradGradGradGradGradGradGradGradGradGradGradGradGradGradGradGradGrad

 Leave Link  103 at Fri Apr 12 17:01:20 2019, MaxMem=   134217728 cpu:         0.0
 (Enter /cm/shared/c3ddb/gaussian/09.d01/g09/l202.exe)
                          Input orientation:                          
 ---------------------------------------------------------------------
 Center     Atomic      Atomic             Coordinates (Angstroms)
 Number     Number       Type             X           Y           Z
 ---------------------------------------------------------------------
      1          6           0        0.732226    0.606269    0.051693
      2          6           0        1.388973   -0.522261   -0.019303
      3          1           0        1.196769    1.569461    0.100249
      4          1           0        2.459722   -0.528773   -0.012336
      5          1           0        0.877393   -1.461794   -0.058621
      6          8           0       -0.671089    0.692835    0.009956
      7          8           0       -1.204637   -0.078313    1.147866
      8          1           0       -2.019129    0.428299    1.309086
 ---------------------------------------------------------------------
                    Distance matrix (angstroms):
                    1          2          3          4          5
     1  C    0.000000
     2  C    1.307646   0.000000
     3  H    1.070466   2.103934   0.000000
     4  H    2.068009   1.070791   2.451594   0.000000
     5  H    2.076085   1.070506   3.052172   1.837508   0.000000
     6  O    1.406602   2.391897   2.065313   3.360774   2.654228
     7  O    2.328451   2.878574   3.095062   3.869949   2.775694
     8  H    3.030291   3.779331   3.620157   4.766786   3.719263
                    6          7          8
     6  O    0.000000
     7  O    1.474511   0.000000
     8  H    1.890749   0.972649   0.000000
 Symmetry turned off by external request.
 Stoichiometry    C2H4O2
 Framework group  C1[X(C2H4O2)]
 Deg. of freedom    18
 Full point group                 C1      NOp   1
 Rotational constants (GHZ):     20.5555542      5.8781295      4.8879177
 Leave Link  202 at Fri Apr 12 17:01:20 2019, MaxMem=   134217728 cpu:         0.0
 (Enter /cm/shared/c3ddb/gaussian/09.d01/g09/l301.exe)
 Standard basis: 3-21G (6D, 7F)
 Ernie: Thresh=  0.10000D-02 Tol=  0.10000D-05 Strict=F.
    44 basis functions,    72 primitive gaussians,    44 cartesian basis functions
    16 alpha electrons       16 beta electrons
       nuclear repulsion energy       117.8654752964 Hartrees.
 IExCor=    0 DFT=F Ex=HF Corr=None ExCW=0 ScaHFX=  1.000000
 ScaDFX=  1.000000  1.000000  1.000000  1.000000 ScalE2=  1.000000  1.000000
 IRadAn=      0 IRanWt=     -1 IRanGd=            0 ICorTp=0 IEmpDi=  4
 NAtoms=    8 NActive=    8 NUniq=    8 SFac= 1.00D+00 NAtFMM=   60 NAOKFM=F Big=F
 Integral buffers will be    131072 words long.
 Raffenetti 1 integral format.
 Two-electron integral symmetry is turned off.
 Leave Link  301 at Fri Apr 12 17:01:20 2019, MaxMem=   134217728 cpu:         0.1
 (Enter /cm/shared/c3ddb/gaussian/09.d01/g09/l302.exe)
 NPDir=0 NMtPBC=     1 NCelOv=     1 NCel=       1 NClECP=     1 NCelD=      1
         NCelK=      1 NCelE2=     1 NClLst=     1 CellRange=     0.0.
 One-electron integrals computed using PRISM.
 NBasis=    44 RedAO= T EigKep=  1.19D-02  NBF=    44
 NBsUse=    44 1.00D-06 EigRej= -1.00D+00 NBFU=    44
 Leave Link  302 at Fri Apr 12 17:01:21 2019, MaxMem=   134217728 cpu:         0.2
 (Enter /cm/shared/c3ddb/gaussian/09.d01/g09/l303.exe)
 DipDrv:  MaxL=1.
 Leave Link  303 at Fri Apr 12 17:01:21 2019, MaxMem=   134217728 cpu:         0.1
 (Enter /cm/shared/c3ddb/gaussian/09.d01/g09/l401.exe)
 Initial guess from the checkpoint file:  "TMP_CALCS/scangeom_S02_060_150.chk"
 B after Tr=     0.000045    0.000033   -0.000140
         Rot=    1.000000    0.000007   -0.000011    0.000002 Ang=   0.00 deg.
 Guess basis will be translated and rotated to current coordinates.
 JPrj=2 DoOrth=T DoCkMO=T.
 Leave Link  401 at Fri Apr 12 17:01:21 2019, MaxMem=   134217728 cpu:         0.2
 (Enter /cm/shared/c3ddb/gaussian/09.d01/g09/l502.exe)
 Closed shell SCF:
 Using DIIS extrapolation, IDIIS=  1040.
 Two-electron integral symmetry not used.
 Keep R1 ints in memory in canonical form, NReq=1327334.
 IVT=       24902 IEndB=       24902 NGot=   134217728 MDV=   133702282
 LenX=   133702282 LenY=   133699905
 Requested convergence on RMS density matrix=1.00D-08 within 128 cycles.
 Requested convergence on MAX density matrix=1.00D-06.
 Requested convergence on             energy=1.00D-06.
 No special actions if energy rises.
 FoFCou: FMM=F IPFlag=           0 FMFlag=           0 FMFlg1=           0
         NFxFlg=           0 DoJE=F BraDBF=F KetDBF=F FulRan=T
         wScrn=  0.000000 ICntrl=     600 IOpCl=  0 I1Cent=           0 NGrid=           0
         NMat0=    1 NMatS0=    990 NMatT0=    0 NMatD0=    1 NMtDS0=    0 NMtDT0=    0
 Symmetry not used in FoFCou.

 Cycle   1  Pass 1  IDiag  1:
 E= -226.392305445198    
 DIIS: error= 1.34D-05 at cycle   1 NSaved=   1.
 NSaved= 1 IEnMin= 1 EnMin= -226.392305445198     IErMin= 1 ErrMin= 1.34D-05
 ErrMax= 1.34D-05  0.00D+00 EMaxC= 1.00D-01 BMatC= 1.69D-08 BMatP= 1.69D-08
 IDIUse=1 WtCom= 1.00D+00 WtEn= 0.00D+00
 Coeff-Com:  0.100D+01
 Coeff:      0.100D+01
 Gap=     0.978 Goal=   None    Shift=    0.000
 RMSDP=2.92D-06 MaxDP=2.21D-05              OVMax= 3.30D-05

 Cycle   2  Pass 1  IDiag  1:
 E= -226.392305468075     Delta-E=       -0.000000022877 Rises=F Damp=F
 DIIS: error= 4.58D-06 at cycle   2 NSaved=   2.
 NSaved= 2 IEnMin= 2 EnMin= -226.392305468075     IErMin= 2 ErrMin= 4.58D-06
 ErrMax= 4.58D-06  0.00D+00 EMaxC= 1.00D-01 BMatC= 1.13D-09 BMatP= 1.69D-08
 IDIUse=1 WtCom= 1.00D+00 WtEn= 0.00D+00
 Coeff-Com: -0.198D+00 0.120D+01
 Coeff:     -0.198D+00 0.120D+01
 Gap=     0.534 Goal=   None    Shift=    0.000
 RMSDP=1.25D-06 MaxDP=8.65D-06 DE=-2.29D-08 OVMax= 1.92D-05

 Cycle   3  Pass 1  IDiag  1:
 E= -226.392305471184     Delta-E=       -0.000000003109 Rises=F Damp=F
 DIIS: error= 1.71D-06 at cycle   3 NSaved=   3.
 NSaved= 3 IEnMin= 3 EnMin= -226.392305471184     IErMin= 3 ErrMin= 1.71D-06
 ErrMax= 1.71D-06  0.00D+00 EMaxC= 1.00D-01 BMatC= 1.22D-10 BMatP= 1.13D-09
 IDIUse=1 WtCom= 1.00D+00 WtEn= 0.00D+00
 Coeff-Com: -0.162D-01-0.121D+00 0.114D+01
 Coeff:     -0.162D-01-0.121D+00 0.114D+01
 Gap=     0.534 Goal=   None    Shift=    0.000
 RMSDP=4.67D-07 MaxDP=3.02D-06 DE=-3.11D-09 OVMax= 7.85D-06

 Cycle   4  Pass 1  IDiag  1:
 E= -226.392305471538     Delta-E=       -0.000000000354 Rises=F Damp=F
 DIIS: error= 5.68D-07 at cycle   4 NSaved=   4.
 NSaved= 4 IEnMin= 4 EnMin= -226.392305471538     IErMin= 4 ErrMin= 5.68D-07
 ErrMax= 5.68D-07  0.00D+00 EMaxC= 1.00D-01 BMatC= 2.52D-11 BMatP= 1.22D-10
 IDIUse=1 WtCom= 1.00D+00 WtEn= 0.00D+00
 Coeff-Com:  0.239D-01-0.199D+00 0.260D+00 0.915D+00
 Coeff:      0.239D-01-0.199D+00 0.260D+00 0.915D+00
 Gap=     0.534 Goal=   None    Shift=    0.000
 RMSDP=1.84D-07 MaxDP=1.10D-06 DE=-3.54D-10 OVMax= 3.04D-06

 Cycle   5  Pass 1  IDiag  1:
 E= -226.392305471593     Delta-E=       -0.000000000055 Rises=F Damp=F
 DIIS: error= 1.92D-07 at cycle   5 NSaved=   5.
 NSaved= 5 IEnMin= 5 EnMin= -226.392305471593     IErMin= 5 ErrMin= 1.92D-07
 ErrMax= 1.92D-07  0.00D+00 EMaxC= 1.00D-01 BMatC= 2.04D-12 BMatP= 2.52D-11
 IDIUse=1 WtCom= 1.00D+00 WtEn= 0.00D+00
 Coeff-Com: -0.841D-03 0.344D-01-0.146D+00-0.878D-01 0.120D+01
 Coeff:     -0.841D-03 0.344D-01-0.146D+00-0.878D-01 0.120D+01
 Gap=     0.534 Goal=   None    Shift=    0.000
 RMSDP=6.73D-08 MaxDP=4.00D-07 DE=-5.47D-11 OVMax= 8.86D-07

 Cycle   6  Pass 1  IDiag  1:
 E= -226.392305471599     Delta-E=       -0.000000000006 Rises=F Damp=F
 DIIS: error= 1.05D-07 at cycle   6 NSaved=   6.
 NSaved= 6 IEnMin= 6 EnMin= -226.392305471599     IErMin= 6 ErrMin= 1.05D-07
 ErrMax= 1.05D-07  0.00D+00 EMaxC= 1.00D-01 BMatC= 3.04D-13 BMatP= 2.04D-12
 IDIUse=1 WtCom= 1.00D+00 WtEn= 0.00D+00
 Coeff-Com: -0.260D-02 0.278D-01-0.631D-01-0.110D+00 0.301D+00 0.847D+00
 Coeff:     -0.260D-02 0.278D-01-0.631D-01-0.110D+00 0.301D+00 0.847D+00
 Gap=     0.534 Goal=   None    Shift=    0.000
 RMSDP=1.94D-08 MaxDP=1.63D-07 DE=-5.80D-12 OVMax= 3.88D-07

 Cycle   7  Pass 1  IDiag  1:
 E= -226.392305471599     Delta-E=       -0.000000000001 Rises=F Damp=F
 DIIS: error= 3.75D-08 at cycle   7 NSaved=   7.
 NSaved= 7 IEnMin= 7 EnMin= -226.392305471599     IErMin= 7 ErrMin= 3.75D-08
 ErrMax= 3.75D-08  0.00D+00 EMaxC= 1.00D-01 BMatC= 4.81D-14 BMatP= 3.04D-13
 IDIUse=1 WtCom= 1.00D+00 WtEn= 0.00D+00
 Coeff-Com:  0.575D-03-0.100D-01 0.343D-01 0.332D-01-0.261D+00-0.753D-01
 Coeff-Com:  0.128D+01
 Coeff:      0.575D-03-0.100D-01 0.343D-01 0.332D-01-0.261D+00-0.753D-01
 Coeff:      0.128D+01
 Gap=     0.534 Goal=   None    Shift=    0.000
 RMSDP=1.20D-08 MaxDP=7.83D-08 DE=-6.82D-13 OVMax= 2.22D-07

 Cycle   8  Pass 1  IDiag  1:
 E= -226.392305471600     Delta-E=        0.000000000000 Rises=F Damp=F
 DIIS: error= 1.49D-08 at cycle   8 NSaved=   8.
 NSaved= 8 IEnMin= 8 EnMin= -226.392305471600     IErMin= 8 ErrMin= 1.49D-08
 ErrMax= 1.49D-08  0.00D+00 EMaxC= 1.00D-01 BMatC= 5.18D-15 BMatP= 4.81D-14
 IDIUse=1 WtCom= 1.00D+00 WtEn= 0.00D+00
 Coeff-Com:  0.356D-03-0.411D-02 0.106D-01 0.154D-01-0.601D-01-0.944D-01
 Coeff-Com:  0.113D+00 0.102D+01
 Coeff:      0.356D-03-0.411D-02 0.106D-01 0.154D-01-0.601D-01-0.944D-01
 Coeff:      0.113D+00 0.102D+01
 Gap=     0.534 Goal=   None    Shift=    0.000
 RMSDP=3.59D-09 MaxDP=3.01D-08 DE=-2.84D-13 OVMax= 7.65D-08

 SCF Done:  E(RHF) =  -226.392305472     A.U. after    8 cycles
            NFock=  8  Conv=0.36D-08     -V/T= 2.0034
 KE= 2.256214938235D+02 PE=-7.692774567970D+02 EE= 1.993981822055D+02
 Leave Link  502 at Fri Apr 12 17:01:21 2019, MaxMem=   134217728 cpu:         0.2
 (Enter /cm/shared/c3ddb/gaussian/09.d01/g09/l701.exe)
 Compute integral first derivatives.
 ... and contract with generalized density number  0.
 Leave Link  701 at Fri Apr 12 17:01:22 2019, MaxMem=   134217728 cpu:         0.2
 (Enter /cm/shared/c3ddb/gaussian/09.d01/g09/l702.exe)
 L702 exits ... SP integral derivatives will be done elsewhere.
 Leave Link  702 at Fri Apr 12 17:01:22 2019, MaxMem=   134217728 cpu:         0.1
 (Enter /cm/shared/c3ddb/gaussian/09.d01/g09/l703.exe)
 Compute integral first derivatives, UseDBF=F ICtDFT=           0.
 Integral derivatives from FoFJK, PRISM(SPDF).
 Calling FoFJK, ICntrl=      2127 FMM=F ISym2X=0 I1Cent= 0 IOpClX= 0 NMat=1 NMatS=1 NMatT=0.
 FoFJK:  IHMeth= 1 ICntrl=    2127 DoSepK=F KAlg= 0 I1Cent=   0 FoldK=F
 IRaf=         0 NMat=   1 IRICut=       1 DoRegI=T DoRafI=F ISym2E= 0.
 FoFCou: FMM=F IPFlag=           0 FMFlag=      100000 FMFlg1=         800
         NFxFlg=           0 DoJE=F BraDBF=F KetDBF=F FulRan=T
         wScrn=  0.000000 ICntrl=    2127 IOpCl=  0 I1Cent=           0 NGrid=           0
         NMat0=    1 NMatS0=      1 NMatT0=    0 NMatD0=    1 NMtDS0=    0 NMtDT0=    0
 Symmetry not used in FoFCou.
 Leave Link  703 at Fri Apr 12 17:01:22 2019, MaxMem=   134217728 cpu:         0.2
 (Enter /cm/shared/c3ddb/gaussian/09.d01/g09/l716.exe)
 Dipole        = 9.27811235D-02 2.77420562D-01 2.55245706D-01
 -------------------------------------------------------------------
 Center     Atomic                   Forces (Hartrees/Bohr)
 Number     Number              X              Y              Z
 -------------------------------------------------------------------
      1        6           0.000067224   -0.000569832   -0.003091627
      2        6          -0.000060606   -0.000139755    0.001695134
      3        1          -0.000000299   -0.000000730   -0.000002633
      4        1           0.000001223   -0.000000475   -0.000004801
      5        1           0.000000080    0.000001677   -0.000004159
      6        8           0.000003839    0.001868706    0.002197022
      7        8           0.000354441   -0.000719461   -0.000316985
      8        1          -0.000365901   -0.000440130   -0.000471951
 -------------------------------------------------------------------
 Cartesian Forces:  Max     0.003091627 RMS     0.000966031
 Leave Link  716 at Fri Apr 12 17:01:22 2019, MaxMem=   134217728 cpu:         0.1
[...]
 No special actions if energy rises.
 FoFCou: FMM=F IPFlag=           0 FMFlag=           0 FMFlg1=           0
         NFxFlg=           0 DoJE=F BraDBF=F KetDBF=F FulRan=T
         wScrn=  0.000000 ICntrl=     600 IOpCl=  0 I1Cent=           0 NGrid=           0
         NMat0=    1 NMatS0=    990 NMatT0=    0 NMatD0=    1 NMtDS0=    0 NMtDT0=    0
 Symmetry not used in FoFCou.

 Cycle   1  Pass 1  IDiag  1:
 E= -226.392305471279    
 DIIS: error= 3.27D-06 at cycle   1 NSaved=   1.
 NSaved= 1 IEnMin= 1 EnMin= -226.392305471279     IErMin= 1 ErrMin= 3.27D-06
 ErrMax= 3.27D-06  0.00D+00 EMaxC= 1.00D-01 BMatC= 6.68D-10 BMatP= 6.68D-10
 IDIUse=1 WtCom= 1.00D+00 WtEn= 0.00D+00
 Coeff-Com:  0.100D+01
 Coeff:      0.100D+01
 Gap=     0.978 Goal=   None    Shift=    0.000
 RMSDP=5.99D-07 MaxDP=5.93D-06              OVMax= 9.08D-06

 Cycle   2  Pass 1  IDiag  1:
 E= -226.392305472386     Delta-E=       -0.000000001107 Rises=F Damp=F
 DIIS: error= 1.12D-06 at cycle   2 NSaved=   2.
 NSaved= 2 IEnMin= 2 EnMin= -226.392305472386     IErMin= 2 ErrMin= 1.12D-06
 ErrMax= 1.12D-06  0.00D+00 EMaxC= 1.00D-01 BMatC= 5.05D-11 BMatP= 6.68D-10
 IDIUse=1 WtCom= 1.00D+00 WtEn= 0.00D+00
 Coeff-Com: -0.245D+00 0.124D+01
 Coeff:     -0.245D+00 0.124D+01
 Gap=     0.534 Goal=   None    Shift=    0.000
 RMSDP=2.83D-07 MaxDP=2.14D-06 DE=-1.11D-09 OVMax= 4.80D-06

 Cycle   3  Pass 1  IDiag  1:
 E= -226.392305472524     Delta-E=       -0.000000000138 Rises=F Damp=F
 DIIS: error= 2.85D-07 at cycle   3 NSaved=   3.
 NSaved= 3 IEnMin= 3 EnMin= -226.392305472524     IErMin= 3 ErrMin= 2.85D-07
 ErrMax= 2.85D-07  0.00D+00 EMaxC= 1.00D-01 BMatC= 3.97D-12 BMatP= 5.05D-11
 IDIUse=1 WtCom= 1.00D+00 WtEn= 0.00D+00
 Coeff-Com: -0.283D-01-0.249D-01 0.105D+01
 Coeff:     -0.283D-01-0.249D-01 0.105D+01
 Gap=     0.534 Goal=   None    Shift=    0.000
 RMSDP=8.56D-08 MaxDP=6.43D-07 DE=-1.38D-10 OVMax= 1.61D-06

 Cycle   4  Pass 1  IDiag  1:
 E= -226.392305472534     Delta-E=       -0.000000000010 Rises=F Damp=F
 DIIS: error= 1.48D-07 at cycle   4 NSaved=   4.
 NSaved= 4 IEnMin= 4 EnMin= -226.392305472534     IErMin= 4 ErrMin= 1.48D-07
 ErrMax= 1.48D-07  0.00D+00 EMaxC= 1.00D-01 BMatC= 1.16D-12 BMatP= 3.97D-12
 IDIUse=1 WtCom= 1.00D+00 WtEn= 0.00D+00
 Coeff-Com:  0.265D-01-0.187D+00 0.338D+00 0.822D+00
 Coeff:      0.265D-01-0.187D+00 0.338D+00 0.822D+00
 Gap=     0.534 Goal=   None    Shift=    0.000
 RMSDP=3.62D-08 MaxDP=2.51D-07 DE=-1.02D-11 OVMax= 6.50D-07

 Cycle   5  Pass 1  IDiag  1:
 E= -226.392305472536     Delta-E=       -0.000000000001 Rises=F Damp=F
 DIIS: error= 4.33D-08 at cycle   5 NSaved=   5.
 NSaved= 5 IEnMin= 5 EnMin= -226.392305472536     IErMin= 5 ErrMin= 4.33D-08
 ErrMax= 4.33D-08  0.00D+00 EMaxC= 1.00D-01 BMatC= 6.55D-14 BMatP= 1.16D-12
 IDIUse=1 WtCom= 1.00D+00 WtEn= 0.00D+00
 Coeff-Com: -0.103D-03 0.191D-01-0.127D+00-0.989D-01 0.121D+01
 Coeff:     -0.103D-03 0.191D-01-0.127D+00-0.989D-01 0.121D+01
 Gap=     0.534 Goal=   None    Shift=    0.000
 RMSDP=1.46D-08 MaxDP=8.53D-08 DE=-1.36D-12 OVMax= 2.89D-07

 Cycle   6  Pass 1  IDiag  1:
 E= -226.392305472536     Delta-E=        0.000000000000 Rises=F Damp=F
 DIIS: error= 1.27D-08 at cycle   6 NSaved=   6.
 NSaved= 6 IEnMin= 5 EnMin= -226.392305472536     IErMin= 6 ErrMin= 1.27D-08
 ErrMax= 1.27D-08  0.00D+00 EMaxC= 1.00D-01 BMatC= 9.90D-15 BMatP= 6.55D-14
 IDIUse=1 WtCom= 1.00D+00 WtEn= 0.00D+00
 Coeff-Com: -0.337D-02 0.273D-01-0.668D-01-0.127D+00 0.253D+00 0.917D+00
 Coeff:     -0.337D-02 0.273D-01-0.668D-01-0.127D+00 0.253D+00 0.917D+00
 Gap=     0.534 Goal=   None    Shift=    0.000
 RMSDP=4.20D-09 MaxDP=2.51D-08 DE= 0.00D+00 OVMax= 6.16D-08

 SCF Done:  E(RHF) =  -226.392305473     A.U. after    6 cycles
            NFock=  6  Conv=0.42D-08     -V/T= 2.0034
 KE= 2.256214752296D+02 PE=-7.692768879064D+02 EE= 1.993979165161D+02
 Leave Link  502 at Fri Apr 12 17:01:23 2019, MaxMem=   134217728 cpu:         0.2
 (Enter /cm/shared/c3ddb/gaussian/09.d01/g09/l701.exe)
 Compute integral first derivatives.
 ... and contract with generalized density number  0.
 Leave Link  701 at Fri Apr 12 17:01:24 2019, MaxMem=   134217728 cpu:         0.2
 (Enter /cm/shared/c3ddb/gaussian/09.d01/g09/l702.exe)
 L702 exits ... SP integral derivatives will be done elsewhere.
 Leave Link  702 at Fri Apr 12 17:01:24 2019, MaxMem=   134217728 cpu:         0.1
 (Enter /cm/shared/c3ddb/gaussian/09.d01/g09/l703.exe)
 Compute integral first derivatives, UseDBF=F ICtDFT=           0.
 Integral derivatives from FoFJK, PRISM(SPDF).
 Calling FoFJK, ICntrl=      2127 FMM=F ISym2X=0 I1Cent= 0 IOpClX= 0 NMat=1 NMatS=1 NMatT=0.
 FoFJK:  IHMeth= 1 ICntrl=    2127 DoSepK=F KAlg= 0 I1Cent=   0 FoldK=F
 IRaf=         0 NMat=   1 IRICut=       1 DoRegI=T DoRafI=F ISym2E= 0.
 FoFCou: FMM=F IPFlag=           0 FMFlag=      100000 FMFlg1=         800
         NFxFlg=           0 DoJE=F BraDBF=F KetDBF=F FulRan=T
         wScrn=  0.000000 ICntrl=    2127 IOpCl=  0 I1Cent=           0 NGrid=           0
         NMat0=    1 NMatS0=      1 NMatT0=    0 NMatD0=    1 NMtDS0=    0 NMtDT0=    0
 Symmetry not used in FoFCou.
 Leave Link  703 at Fri Apr 12 17:01:24 2019, MaxMem=   134217728 cpu:         0.2
 (Enter /cm/shared/c3ddb/gaussian/09.d01/g09/l716.exe)
 Dipole        = 9.27849066D-02 2.77431487D-01 2.55170702D-01
 -------------------------------------------------------------------
 Center     Atomic                   Forces (Hartrees/Bohr)
 Number     Number              X              Y              Z
 -------------------------------------------------------------------
      1        6           0.000062099   -0.000570556   -0.003096029
      2        6          -0.000058732   -0.000139468    0.001682923
      3        1          -0.000000459    0.000000179    0.000000322
      4        1           0.000000104   -0.000000266    0.000001164
      5        1          -0.000000217    0.000000291    0.000000611
      6        8           0.000007228    0.001867033    0.002202830
      7        8           0.000357075   -0.000717371   -0.000320625
      8        1          -0.000367097   -0.000439842   -0.000471196
 -------------------------------------------------------------------
 Cartesian Forces:  Max     0.003096029 RMS     0.000966165
 Leave Link  716 at Fri Apr 12 17:01:24 2019, MaxMem=   134217728 cpu:         0.1
 (Enter /cm/shared/c3ddb/gaussian/09.d01/g09/l103.exe)

 GradGradGradGradGradGradGradGradGradGradGradGradGradGradGradGradGradGrad
 Berny optimization.
 Using GEDIIS/GDIIS optimizer.
 FormGI is forming the generalized inverse of G from B-inverse, IUseBI=4.
 Internal  Forces:  Max     0.002240545 RMS     0.000661260
 Search for a local minimum.
 Step number   5 out of a maximum of   32
 All quantities printed in internal units (Hartrees-Bohrs-Radians)
 RMS Force = .13049D-05 SwitMx=.10000D-02 MixMth= 2
 Mixed Optimization -- En-DIIS/RFO-DIIS
 Swapping is turned off.
 Update second derivatives using D2CorX and points    1    2    3    4    5
 DE= -9.36D-10 DEPred=-1.15D-09 R= 8.12D-01
 Trust test= 8.12D-01 RLast= 1.97D-04 DXMaxT set to 3.00D-01
 ITU=  0  0  1  0  0
     Eigenvalues ---    0.02650   0.03309   0.05397   0.15631   0.16003
     Eigenvalues ---    0.16026   0.18938   0.21989   0.28447   0.37026
     Eigenvalues ---    0.37146   0.37193   0.42852   0.48388   0.52795
     Eigenvalues ---    0.649461000.000001000.000001000.000001000.00000
     Eigenvalues --- 1000.000001000.00000
 En-DIIS/RFO-DIIS IScMMF=        0 using points:     5    4    3    2    1
 RFO step:  Lambda=-3.04268063D-07.
 NNeg= 0 NP= 5 Switch=  2.50D-03 Rises=F DC=  2.51D-06 SmlDif=  1.00D-05
 RMS Error=  0.2106286029D-04 NUsed= 5 EDIIS=F
 DidBck=F Rises=F RFO-DIIS coefs:    0.81069    0.16742    0.02254   -0.00016   -0.00049
 Iteration  1 RMS(Cart)=  0.00000680 RMS(Int)=  0.00000029
 Iteration  2 RMS(Cart)=  0.00000000 RMS(Int)=  0.00000029
 Iteration  1 RMS(Cart)=  0.00000030 RMS(Int)=  0.00000015
 ITry= 1 IFail=0 DXMaxC= 1.62D-05 DCOld= 1.00D+10 DXMaxT= 3.00D-01 DXLimC= 3.00D+00 Rises=F
 Variable       Old X    -DE/DX   Delta X   Delta X   Delta X     New X
                                 (Linear)    (Quad)   (Total)
    R1        2.47109   0.00000   0.00000   0.00000   0.00000   2.47109
    R2        2.02288   0.00000   0.00000   0.00000   0.00000   2.02288
    R3        2.65811   0.00000   0.00000   0.00001   0.00001   2.65812
    R4        2.02350   0.00000   0.00000   0.00000   0.00000   2.02351
    R5        2.02296   0.00000   0.00000   0.00000   0.00000   2.02296
    R6        2.78643   0.00000  -0.00001   0.00000   0.00000   2.78643
    R7        1.83804   0.00000   0.00000   0.00000   0.00000   1.83804
    A1        2.16645   0.00005   0.00000   0.00001   0.00000   2.16646
    A2        2.15623   0.00001   0.00000   0.00000   0.00000   2.15623
    A3        1.95942  -0.00002   0.00000  -0.00001   0.00000   1.95942
    A4        2.10263   0.00000   0.00000   0.00000   0.00000   2.10264
    A5        2.11696   0.00000   0.00000   0.00000   0.00000   2.11696
    A6        2.06323   0.00000   0.00000   0.00000   0.00000   2.06323
    A7        1.88170   0.00000   0.00000   0.00000   0.00000   1.88171
    A8        1.72998   0.00000   0.00000  -0.00001  -0.00001   1.72998
    D1        0.02149  -0.00056   0.00001   0.00001   0.00001   0.02150
    D2        3.13368  -0.00056  -0.00001   0.00000  -0.00001   3.13367
    D3        3.10927   0.00056   0.00002   0.00001   0.00002   3.10929
    D4       -0.06173   0.00056   0.00000   0.00001   0.00000  -0.06173
    D5        1.04720  -0.00224   0.00000   0.00000   0.00000   1.04720
    D6       -2.14253  -0.00124   0.00001   0.00000   0.00001  -2.14251
    D7        2.61799   0.00135   0.00000   0.00000   0.00000   2.61799
         Item               Value     Threshold  Converged?
 Maximum Force            0.000005     0.000015     YES
 RMS     Force            0.000001     0.000010     YES
 Maximum Displacement     0.000016     0.000060     YES
 RMS     Displacement     0.000007     0.000040     YES
 Predicted change in Energy=-1.345203D-10
 Optimization completed.
    -- Stationary point found.
                           ----------------------------
                           !   Optimized Parameters   !
                           ! (Angstroms and Degrees)  !
 --------------------------                            --------------------------
 ! Name  Definition              Value          Derivative Info.                !
 --------------------------------------------------------------------------------
 ! R1    R(1,2)                  1.3076         -DE/DX =    0.0                 !
 ! R2    R(1,3)                  1.0705         -DE/DX =    0.0                 !
 ! R3    R(1,6)                  1.4066         -DE/DX =    0.0                 !
 ! R4    R(2,4)                  1.0708         -DE/DX =    0.0                 !
 ! R5    R(2,5)                  1.0705         -DE/DX =    0.0                 !
 ! R6    R(6,7)                  1.4745         -DE/DX =    0.0                 !
 ! R7    R(7,8)                  0.9726         -DE/DX =    0.0                 !
 ! A1    A(2,1,3)              124.1287         -DE/DX =    0.0001              !
 ! A2    A(2,1,6)              123.5428         -DE/DX =    0.0                 !
 ! A3    A(3,1,6)              112.2667         -DE/DX =    0.0                 !
 ! A4    A(1,2,4)              120.4721         -DE/DX =    0.0                 !
 ! A5    A(1,2,5)              121.293          -DE/DX =    0.0                 !
 ! A6    A(4,2,5)              118.2142         -DE/DX =    0.0                 !
 ! A7    A(1,6,7)              107.8135         -DE/DX =    0.0                 !
 ! A8    A(6,7,8)               99.1208         -DE/DX =    0.0                 !
 ! D1    D(3,1,2,4)              1.2311         -DE/DX =   -0.0006              !
 ! D2    D(3,1,2,5)            179.5465         -DE/DX =   -0.0006              !
 ! D3    D(6,1,2,4)            178.1479         -DE/DX =    0.0006              !
 ! D4    D(6,1,2,5)             -3.5368         -DE/DX =    0.0006              !
 ! D5    D(2,1,6,7)             60.0            -DE/DX =   -0.0022              !
 ! D6    D(3,1,6,7)           -122.7577         -DE/DX =   -0.0012              !
 ! D7    D(1,6,7,8)            150.0            -DE/DX =    0.0013              !
 --------------------------------------------------------------------------------
 Lowest energy point so far.  Saving SCF results.
 GradGradGradGradGradGradGradGradGradGradGradGradGradGradGradGradGradGrad

 Largest change from initial coordinates is atom    8       0.003 Angstoms.
 Leave Link  103 at Fri Apr 12 17:01:24 2019, MaxMem=   134217728 cpu:         0.0
 (Enter /cm/shared/c3ddb/gaussian/09.d01/g09/l202.exe)
                          Input orientation:                          
 ---------------------------------------------------------------------
 Center     Atomic      Atomic             Coordinates (Angstroms)
 Number     Number       Type             X           Y           Z
 ---------------------------------------------------------------------
      1          6           0        0.732238    0.606270    0.051728
      2          6           0        1.388980   -0.522262   -0.019258
      3          1           0        1.196778    1.569465    0.100226
      4          1           0        2.459731   -0.528779   -0.012390
      5          1           0        0.877393   -1.461787   -0.058622
      6          8           0       -0.671084    0.692834    0.009967
      7          8           0       -1.204657   -0.078318    1.147870
      8          1           0       -2.019150    0.428298    1.309068
 ---------------------------------------------------------------------
                    Distance matrix (angstroms):
                    1          2          3          4          5
     1  C    0.000000
     2  C    1.307644   0.000000
     3  H    1.070465   2.103934   0.000000
     4  H    2.068014   1.070793   2.451604   0.000000
     5  H    2.076080   1.070504   3.052168   1.837508   0.000000
     6  O    1.406609   2.391898   2.065318   3.360780   2.654219
     7  O    2.328464   2.878581   3.095098   3.869994   2.775706
     8  H    3.030299   3.779334   3.620186   4.766825   3.719268
                    6          7          8
     6  O    0.000000
     7  O    1.474516   0.000000
     8  H    1.890747   0.972647   0.000000
 Symmetry turned off by external request.
 Stoichiometry    C2H4O2
 Framework group  C1[X(C2H4O2)]
 Deg. of freedom    18
 Full point group                 C1      NOp   1
 Rotational constants (GHZ):     20.5555907      5.8780863      4.8878819
 Leave Link  202 at Fri Apr 12 17:01:24 2019, MaxMem=   134217728 cpu:         0.0
 (Enter /cm/shared/c3ddb/gaussian/09.d01/g09/l601.exe)
 Copying SCF densities to generalized density rwf, IOpCl= 0 IROHF=0.

 **********************************************************************

            Population analysis using the SCF density.

 **********************************************************************

 Alpha  occ. eigenvalues --  -20.52340 -20.51756 -11.23595 -11.17063  -1.46190
 Alpha  occ. eigenvalues --   -1.23011  -1.02936  -0.78946  -0.70654  -0.65068
 Alpha  occ. eigenvalues --   -0.64502  -0.59815  -0.54695  -0.50113  -0.45003
 Alpha  occ. eigenvalues --   -0.37292
 Alpha virt. eigenvalues --    0.16156   0.26324   0.29425   0.30652   0.32567
 Alpha virt. eigenvalues --    0.37072   0.50126   0.57266   0.88940   0.97655
 Alpha virt. eigenvalues --    0.99188   1.07130   1.10592   1.12679   1.23686
 Alpha virt. eigenvalues --    1.32588   1.37456   1.57707   1.60904   1.73608
 Alpha virt. eigenvalues --    1.82960   1.90984   1.98659   2.02085   2.07088
 Alpha virt. eigenvalues --    2.26028   3.08625   3.47967
          Condensed to atoms (all electrons):
               1          2          3          4          5          6
     1  C    4.894457   0.467828   0.389999  -0.040217  -0.050103   0.242223
     2  C    0.467828   5.350442  -0.064186   0.373228   0.390803  -0.059165
     3  H    0.389999  -0.064186   0.466911   0.000725   0.001932  -0.037473
     4  H   -0.040217   0.373228   0.000725   0.456526  -0.015690   0.001435
     5  H   -0.050103   0.390803   0.001932  -0.015690   0.422390  -0.003041
     6  O    0.242223  -0.059165  -0.037473   0.001435  -0.003041   8.181393
     7  O   -0.043369   0.000297   0.001557   0.000030   0.002222   0.117982
     8  H    0.002745  -0.000022  -0.000061  -0.000002  -0.000070  -0.022081
               7          8
     1  C   -0.043369   0.002745
     2  C    0.000297  -0.000022
     3  H    0.001557  -0.000061
     4  H    0.000030  -0.000002
     5  H    0.002222  -0.000070
     6  O    0.117982  -0.022081
     7  O    8.066388   0.242576
     8  H    0.242576   0.361291
 Mulliken charges:
               1
     1  C    0.136437
     2  C   -0.459225
     3  H    0.240597
     4  H    0.223966
     5  H    0.251557
     6  O   -0.421273
     7  O   -0.387684
     8  H    0.415625
 Sum of Mulliken charges =   0.00000
 Mulliken charges with hydrogens summed into heavy atoms:
               1
     1  C    0.377034
     2  C    0.016298
     6  O   -0.421273
     7  O    0.027942
 Electronic spatial extent (au):  <R**2>=            288.1482
 Charge=              0.0000 electrons
 Dipole moment (field-independent basis, Debye):
    X=              0.2358    Y=              0.7052    Z=              0.6486  Tot=              0.9867
 Quadrupole moment (field-independent basis, Debye-Ang):
   XX=            -17.1169   YY=            -21.9157   ZZ=            -24.7245
   XY=             -0.8987   XZ=             -2.8977   YZ=              1.7635
 Traceless Quadrupole moment (field-independent basis, Debye-Ang):
   XX=              4.1355   YY=             -0.6633   ZZ=             -3.4722
   XY=             -0.8987   XZ=             -2.8977   YZ=              1.7635
 Octapole moment (field-independent basis, Debye-Ang**2):
  XXX=            -18.5676  YYY=            -10.3414  ZZZ=            -19.7894  XYY=             -1.0070
  XXY=              0.0277  XXZ=              1.4708  XZZ=             -9.6832  YZZ=             -1.4966
  YYZ=             -6.5142  XYZ=             -2.6536
 Hexadecapole moment (field-independent basis, Debye-Ang**3):
 XXXX=           -154.9085 YYYY=            -68.1522 ZZZZ=            -66.1157 XXXY=              3.7596
 XXXZ=              5.8862 YYYX=             15.8075 YYYZ=              0.0593 ZZZX=             19.0475
 ZZZY=              1.0891 XXYY=            -43.1192 XXZZ=            -36.4602 YYZZ=            -23.4006
 XXYZ=              5.4551 YYXZ=              7.5109 ZZXY=              1.4964
 N-N= 1.178651906882D+02 E-N=-7.692768876190D+02  KE= 2.256214752296D+02
 No NMR shielding tensors so no spin-rotation constants.
 Leave Link  601 at Fri Apr 12 17:01:24 2019, MaxMem=   134217728 cpu:         0.1
 (Enter /cm/shared/c3ddb/gaussian/09.d01/g09/l9999.exe)
 1\1\GINC-NODE029\FOpt\RHF\3-21G\C2H4O2\MATTSJ\12-Apr-2019\0\\#p hf 3-2
 1g scf=tight NoSymmetry guess=read opt=(tight,modredundant)\\Geometry 
 optimization at the 2D-PES\\0,1\C,0.7322377322,0.6062700869,0.05172823
 56\C,1.3889803215,-0.5222616589,-0.0192582533\H,1.196777623,1.56946536
 29,0.1002262021\H,2.4597310328,-0.5287787123,-0.0123898171\H,0.8773928
 548,-1.4617871017,-0.0586224392\O,-0.6710843181,0.6928338291,0.0099668
 266\O,-1.2046567287,-0.0783177877,1.1478697457\H,-2.0191495175,0.42829
 79817,1.3090684997\\Version=AS64L-G09RevD.01\HF=-226.3923055\RMSD=4.20
 3e-09\RMSF=9.662e-04\Dipole=0.0927849,0.2774315,0.2551707\Quadrupole=3
 .0746344,-0.4931733,-2.5814611,-0.6681811,-2.154337,1.3111089\PG=C01 [
 X(C2H4O2)]\\@


 I SUPPOSE A BABY LLAMA HAS A MMAMA AND A PPOPA.
     -- RICHARD AMOUR
 Job cpu time:       0 days  0 hours  0 minutes 10.3 seconds.
 File lengths (MBytes):  RWF=      5 Int=      0 D2E=      0 Chk=      1 Scr=      1
 Normal termination of Gaussian 09 at Fri Apr 12 17:01:24 2019.
