 Entering Gaussian System, Link 0=/cm/shared/c3ddb/gaussian/09.d01/g09/g09
 Initial command:
 /cm/shared/c3ddb/gaussian/09.d01/g09/l1.exe "/scratch/users/mattsj/g09/S02-7952157/Gau-43189.inp" -scrdir="/scratch/users/mattsj/g09/S02-7952157/"
 Entering Link 1 = /cm/shared/c3ddb/gaussian/09.d01/g09/l1.exe PID=     43190.
  
 Copyright (c) 1988,1990,1992,1993,1995,1998,2003,2009,2013,
            Gaussian, Inc.  All Rights Reserved.
  
 This is part of the Gaussian(R) 09 program.  It is based on
 the Gaussian(R) 03 system (copyright 2003, Gaussian, Inc.),
 the Gaussian(R) 98 system (copyright 1998, Gaussian, Inc.),
 the Gaussian(R) 94 system (copyright 1995, Gaussian, Inc.),
 the Gaussian 92(TM) system (copyright 1992, Gaussian, Inc.),
 the Gaussian 90(TM) system (copyright 1990, Gaussian, Inc.),
 the Gaussian 88(TM) system (copyright 1988, Gaussian, Inc.),
 the Gaussian 86(TM) system (copyright 1986, Carnegie Mellon
 University), and the Gaussian 82(TM) system (copyright 1983,
 Carnegie Mellon University). Gaussian is a federally registered
 trademark of Gaussian, Inc.
  
 This software contains proprietary and confidential information,
 including trade secrets, belonging to Gaussian, Inc.
  
 This software is provided under written license and may be
 used, copied, transmitted, or stored only in accord with that
 written license.
  
 The following legend is applicable only to US Government
 contracts under FAR:
  
                    RESTRICTED RIGHTS LEGEND
  
 Use, reproduction and disclosure by the US Government is
 subject to restrictions as set forth in subparagraphs (a)
 and (c) of the Commercial Computer Software - Restricted
 Rights clause in FAR 52.227-19.
  
 Gaussian, Inc.
 340 Quinnipiac St., Bldg. 40, Wallingford CT 06492
  
  
 ---------------------------------------------------------------
 Warning -- This program may not be used in any manner that
 competes with the business of Gaussian, Inc. or will provide
 assistance to any competitor of Gaussian, Inc.  The licensee
 of this program is prohibited from giving any competitor of
 Gaussian, Inc. access to this program.  By using this program,
 the user acknowledges that Gaussian, Inc. is engaged in the
 business of creating and licensing software in the field of
 computational chemistry and represents and warrants to the
 licensee that it is not a competitor of Gaussian, Inc. and that
 it will not use this program in any manner prohibited above.
 ---------------------------------------------------------------
  

 Cite this work as:
 Gaussian 09, Revision D.01,
 M. J. Frisch, G. W. Trucks, H. B. Schlegel, G. E. Scuseria, 
 M. A. Robb, J. R. Cheeseman, G. Scalmani, V. Barone, B. Mennucci, 
 G. A. Petersson, H. Nakatsuji, M. Caricato, X. Li, H. P. Hratchian, 
 A. F. Izmaylov, J. Bloino, G. Zheng, J. L. Sonnenberg, M. Hada, 
 M. Ehara, K. Toyota, R. Fukuda, J. Hasegawa, M. Ishida, T. Nakajima, 
 Y. Honda, O. Kitao, H. Nakai, T. Vreven, J. A. Montgomery, Jr., 
 J. E. Peralta, F. Ogliaro, M. Bearpark, J. J. Heyd, E. Brothers, 
 K. N. Kudin, V. N. Staroverov, T. Keith, R. Kobayashi, J. Normand, 
 K. Raghavachari, A. Rendell, J. C. Burant, S. S. Iyengar, J. Tomasi, 
 M. Cossi, N. Rega, J. M. Millam, M. Klene, J. E. Knox, J. B. Cross, 
 V. Bakken, C. Adamo, J. Jaramillo, R. Gomperts, R. E. Stratmann, 
 O. Yazyev, A. J. Austin, R. Cammi, C. Pomelli, J. W. Ochterski, 
 R. L. Martin, K. Morokuma, V. G. Zakrzewski, G. A. Voth, 
 P. Salvador, J. J. Dannenberg, S. Dapprich, A. D. Daniels, 
 O. Farkas, J. B. Foresman, J. V. Ortiz, J. Cioslowski, 
 and D. J. Fox, Gaussian, Inc., Wallingford CT, 2013.
 
 ******************************************
 Gaussian 09:  AS64L-G09RevD.01 24-Apr-2013
                12-Apr-2019 
 ******************************************
 %nproc=1
 Will use up to    1 processors via shared memory.
 %mem=1GB
 %chk=TMP_CALCS/scangeom_S02_170_120.chk
 --------------------------------------------------------------------
 #p hf 3-21g scf=tight NoSymmetry guess=read opt=(tight,modredundant)
 --------------------------------------------------------------------
 1/7=10,18=120,19=15,38=1/1,3;
 2/9=110,12=2,15=1,17=6,18=5,40=1/2;
 3/5=5,11=9,16=1,25=1,30=1,71=1,116=-2/1,2,3;
 4/5=1/1;
 5/5=2,32=2,38=6/2;
 6/7=2,8=2,9=2,10=2,28=1/1;
 7/30=1/1,2,3,16;
 1/7=10,18=20,19=15/3(2);
 2/9=110,15=1/2;
 99//99;
 2/9=110,15=1/2;
 3/5=5,11=9,16=1,25=1,30=1,71=1/1,2,3;
 4/5=5,16=3,69=1/1;
 5/5=2,32=2,38=5/2;
 7/30=1/1,2,3,16;
 1/7=10,18=20,19=15/3(-5);
 2/9=110,15=1/2;
 6/7=2,8=2,9=2,10=2,19=2,28=1/1;
 99/9=1/99;
 Leave Link    1 at Fri Apr 12 15:46:34 2019, MaxMem=   134217728 cpu:         0.2
 (Enter /cm/shared/c3ddb/gaussian/09.d01/g09/l101.exe)
 -----------------------------------
 Geometry optimization at the 2D-PES
 -----------------------------------
 Symbolic Z-matrix:
 Charge =  0 Multiplicity = 1
 C                     0.73497   0.63647   0.04345 
 C                     1.37077  -0.50659  -0.00648 
 H                     1.19826   1.59644   0.10947 
 H                     2.44071  -0.52868  -0.00422 
 H                     0.84497  -1.43833  -0.05111 
 O                    -0.66726   0.68113   0.00638 
 O                    -1.07336   2.04948   0.31861 
 H                    -1.55504   2.28454  -0.49334 
 
 The following ModRedundant input section has been read:
 D       2       1       6       7 F                                           
 D       1       6       7       8 F                                           
 
 NAtoms=      8 NQM=        8 NQMF=       0 NMMI=      0 NMMIF=      0
                NMic=       0 NMicF=      0.
                    Isotopes and Nuclear Properties:
 (Nuclear quadrupole moments (NQMom) in fm**2, nuclear magnetic moments (NMagM)
  in nuclear magnetons)

  Atom         1           2           3           4           5           6           7           8
 IAtWgt=          12          12           1           1           1          16          16           1
 AtmWgt=  12.0000000  12.0000000   1.0078250   1.0078250   1.0078250  15.9949146  15.9949146   1.0078250
 NucSpn=           0           0           1           1           1           0           0           1
 AtZEff=   0.0000000   0.0000000   0.0000000   0.0000000   0.0000000   0.0000000   0.0000000   0.0000000
 NQMom=    0.0000000   0.0000000   0.0000000   0.0000000   0.0000000   0.0000000   0.0000000   0.0000000
 NMagM=    0.0000000   0.0000000   2.7928460   2.7928460   2.7928460   0.0000000   0.0000000   2.7928460
 AtZNuc=   6.0000000   6.0000000   1.0000000   1.0000000   1.0000000   8.0000000   8.0000000   1.0000000
 Leave Link  101 at Fri Apr 12 15:46:35 2019, MaxMem=   134217728 cpu:         1.2
 (Enter /cm/shared/c3ddb/gaussian/09.d01/g09/l103.exe)

 GradGradGradGradGradGradGradGradGradGradGradGradGradGradGradGradGradGrad
 Berny optimization.
 Initialization pass.
                           ----------------------------
                           !    Initial Parameters    !
                           ! (Angstroms and Degrees)  !
 --------------------------                            --------------------------
 ! Name  Definition              Value          Derivative Info.                !
 --------------------------------------------------------------------------------
 ! R1    R(1,2)                  1.3089         estimate D2E/DX2                !
 ! R2    R(1,3)                  1.068          estimate D2E/DX2                !
 ! R3    R(1,6)                  1.4034         estimate D2E/DX2                !
 ! R4    R(2,4)                  1.0702         estimate D2E/DX2                !
 ! R5    R(2,5)                  1.0708         estimate D2E/DX2                !
 ! R6    R(6,7)                  1.4611         estimate D2E/DX2                !
 ! R7    R(7,8)                  0.9729         estimate D2E/DX2                !
 ! A1    A(2,1,3)              125.2119         estimate D2E/DX2                !
 ! A2    A(2,1,6)              120.8043         estimate D2E/DX2                !
 ! A3    A(3,1,6)              113.9832         estimate D2E/DX2                !
 ! A4    A(1,2,4)              120.2372         estimate D2E/DX2                !
 ! A5    A(1,2,5)              121.53           estimate D2E/DX2                !
 ! A6    A(4,2,5)              118.2329         estimate D2E/DX2                !
 ! A7    A(1,6,7)              107.5695         estimate D2E/DX2                !
 ! A8    A(6,7,8)              100.6923         estimate D2E/DX2                !
 ! D1    D(3,1,2,4)             -1.3806         estimate D2E/DX2                !
 ! D2    D(3,1,2,5)            178.6667         estimate D2E/DX2                !
 ! D3    D(6,1,2,4)            178.3462         estimate D2E/DX2                !
 ! D4    D(6,1,2,5)             -1.6065         estimate D2E/DX2                !
 ! D5    D(2,1,6,7)            170.0            Frozen                          !
 ! D6    D(3,1,6,7)            -10.2443         estimate D2E/DX2                !
 ! D7    D(1,6,7,8)            120.0            Frozen                          !
 --------------------------------------------------------------------------------
 Trust Radius=3.00D-01 FncErr=1.00D-07 GrdErr=1.00D-07
 Number of steps in this run=     32 maximum allowed number of steps=    100.
 GradGradGradGradGradGradGradGradGradGradGradGradGradGradGradGradGradGrad

 Leave Link  103 at Fri Apr 12 15:46:36 2019, MaxMem=   134217728 cpu:         0.1
 (Enter /cm/shared/c3ddb/gaussian/09.d01/g09/l202.exe)
                          Input orientation:                          
 ---------------------------------------------------------------------
 Center     Atomic      Atomic             Coordinates (Angstroms)
 Number     Number       Type             X           Y           Z
 ---------------------------------------------------------------------
      1          6           0        0.734969    0.636469    0.043451
      2          6           0        1.370772   -0.506586   -0.006477
      3          1           0        1.198263    1.596435    0.109465
      4          1           0        2.440705   -0.528675   -0.004219
      5          1           0        0.844973   -1.438334   -0.051110
      6          8           0       -0.667260    0.681131    0.006380
      7          8           0       -1.073359    2.049482    0.318610
      8          1           0       -1.555036    2.284541   -0.493341
 ---------------------------------------------------------------------
                    Distance matrix (angstroms):
                    1          2          3          4          5
     1  C    0.000000
     2  C    1.308936   0.000000
     3  H    1.067958   2.113267   0.000000
     4  H    2.066245   1.070163   2.464281   0.000000
     5  H    2.079868   1.070799   3.059481   1.837400   0.000000
     6  O    1.403430   2.358900   2.080525   3.335145   2.604282
     7  O    2.311356   3.551470   2.325782   4.370327   3.997693
     8  H    2.872005   4.072810   2.901296   4.911148   4.451450
                    6          7          8
     6  O    0.000000
     7  O    1.461092   0.000000
     8  H    1.899682   0.972898   0.000000
 Symmetry turned off by external request.
 Stoichiometry    C2H4O2
 Framework group  C1[X(C2H4O2)]
 Deg. of freedom    18
 Full point group                 C1      NOp   1
 Rotational constants (GHZ):     43.8364717      4.5296482      4.1579467
 Leave Link  202 at Fri Apr 12 15:46:36 2019, MaxMem=   134217728 cpu:         0.1
 (Enter /cm/shared/c3ddb/gaussian/09.d01/g09/l301.exe)
 Standard basis: 3-21G (6D, 7F)
 Ernie: Thresh=  0.10000D-02 Tol=  0.10000D-05 Strict=F.
    44 basis functions,    72 primitive gaussians,    44 cartesian basis functions
    16 alpha electrons       16 beta electrons
       nuclear repulsion energy       116.5398377915 Hartrees.
 IExCor=    0 DFT=F Ex=HF Corr=None ExCW=0 ScaHFX=  1.000000
 ScaDFX=  1.000000  1.000000  1.000000  1.000000 ScalE2=  1.000000  1.000000
 IRadAn=      0 IRanWt=     -1 IRanGd=            0 ICorTp=0 IEmpDi=  4
 NAtoms=    8 NActive=    8 NUniq=    8 SFac= 1.00D+00 NAtFMM=   60 NAOKFM=F Big=F
 Integral buffers will be    131072 words long.
 Raffenetti 1 integral format.
 Two-electron integral symmetry is turned off.
 Leave Link  301 at Fri Apr 12 15:46:37 2019, MaxMem=   134217728 cpu:         0.5
 (Enter /cm/shared/c3ddb/gaussian/09.d01/g09/l302.exe)
 NPDir=0 NMtPBC=     1 NCelOv=     1 NCel=       1 NClECP=     1 NCelD=      1
         NCelK=      1 NCelE2=     1 NClLst=     1 CellRange=     0.0.
 One-electron integrals computed using PRISM.
 NBasis=    44 RedAO= T EigKep=  1.13D-02  NBF=    44
 NBsUse=    44 1.00D-06 EigRej= -1.00D+00 NBFU=    44
 Leave Link  302 at Fri Apr 12 15:46:37 2019, MaxMem=   134217728 cpu:         0.4
 (Enter /cm/shared/c3ddb/gaussian/09.d01/g09/l303.exe)
 DipDrv:  MaxL=1.
 Leave Link  303 at Fri Apr 12 15:46:38 2019, MaxMem=   134217728 cpu:         0.2
 (Enter /cm/shared/c3ddb/gaussian/09.d01/g09/l401.exe)
 Initial guess from the checkpoint file:  "TMP_CALCS/scangeom_S02_170_120.chk"
 B after Tr=    -0.002682   -0.004749    0.014367
         Rot=    0.999979    0.003497   -0.004935   -0.002519 Ang=   0.75 deg.
 Guess basis will be translated and rotated to current coordinates.
 JPrj=2 DoOrth=T DoCkMO=T.
 Leave Link  401 at Fri Apr 12 15:46:38 2019, MaxMem=   134217728 cpu:         0.5
 (Enter /cm/shared/c3ddb/gaussian/09.d01/g09/l502.exe)
 Closed shell SCF:
 Using DIIS extrapolation, IDIIS=  1040.
 Two-electron integral symmetry not used.
 Keep R1 ints in memory in canonical form, NReq=1327190.
 IVT=       24902 IEndB=       24902 NGot=   134217728 MDV=   133702282
 LenX=   133702282 LenY=   133699905
 Requested convergence on RMS density matrix=1.00D-08 within 128 cycles.
 Requested convergence on MAX density matrix=1.00D-06.
 Requested convergence on             energy=1.00D-06.
 No special actions if energy rises.
 FoFCou: FMM=F IPFlag=           0 FMFlag=           0 FMFlg1=           0
         NFxFlg=           0 DoJE=F BraDBF=F KetDBF=F FulRan=T
         wScrn=  0.000000 ICntrl=     600 IOpCl=  0 I1Cent=           0 NGrid=           0
         NMat0=    1 NMatS0=    990 NMatT0=    0 NMatD0=    1 NMtDS0=    0 NMtDT0=    0
 Symmetry not used in FoFCou.

 Cycle   1  Pass 1  IDiag  1:
 E= -226.391928716703    
 DIIS: error= 6.65D-03 at cycle   1 NSaved=   1.
 NSaved= 1 IEnMin= 1 EnMin= -226.391928716703     IErMin= 1 ErrMin= 6.65D-03
 ErrMax= 6.65D-03  0.00D+00 EMaxC= 1.00D-01 BMatC= 1.78D-03 BMatP= 1.78D-03
 IDIUse=3 WtCom= 9.34D-01 WtEn= 6.65D-02
 Coeff-Com:  0.100D+01
 Coeff-En:   0.100D+01
 Coeff:      0.100D+01
 Gap=     0.552 Goal=   None    Shift=    0.000
 GapD=    0.552 DampG=2.000 DampE=1.000 DampFc=2.0000 IDamp=-1.
 RMSDP=1.11D-03 MaxDP=1.49D-02              OVMax= 1.38D-02

 Cycle   2  Pass 1  IDiag  1:
 E= -226.394711684094     Delta-E=       -0.002782967391 Rises=F Damp=F
 DIIS: error= 3.05D-03 at cycle   2 NSaved=   2.
 NSaved= 2 IEnMin= 2 EnMin= -226.394711684094     IErMin= 2 ErrMin= 3.05D-03
 ErrMax= 3.05D-03  0.00D+00 EMaxC= 1.00D-01 BMatC= 1.74D-04 BMatP= 1.78D-03
 IDIUse=3 WtCom= 9.69D-01 WtEn= 3.05D-02
 Coeff-Com: -0.339D+00 0.134D+01
 Coeff-En:   0.000D+00 0.100D+01
 Coeff:     -0.329D+00 0.133D+01
 Gap=     0.552 Goal=   None    Shift=    0.000
 RMSDP=5.81D-04 MaxDP=5.66D-03 DE=-2.78D-03 OVMax= 9.83D-03

 Cycle   3  Pass 1  IDiag  1:
 E= -226.395174906640     Delta-E=       -0.000463222546 Rises=F Damp=F
 DIIS: error= 9.11D-04 at cycle   3 NSaved=   3.
 NSaved= 3 IEnMin= 3 EnMin= -226.395174906640     IErMin= 3 ErrMin= 9.11D-04
 ErrMax= 9.11D-04  0.00D+00 EMaxC= 1.00D-01 BMatC= 1.51D-05 BMatP= 1.74D-04
 IDIUse=3 WtCom= 9.91D-01 WtEn= 9.11D-03
 Coeff-Com:  0.717D-01-0.427D+00 0.136D+01
 Coeff-En:   0.000D+00 0.000D+00 0.100D+01
 Coeff:      0.711D-01-0.423D+00 0.135D+01
 Gap=     0.552 Goal=   None    Shift=    0.000
 RMSDP=2.26D-04 MaxDP=3.27D-03 DE=-4.63D-04 OVMax= 4.21D-03

 Cycle   4  Pass 1  IDiag  1:
 E= -226.395223792029     Delta-E=       -0.000048885389 Rises=F Damp=F
 DIIS: error= 2.77D-04 at cycle   4 NSaved=   4.
 NSaved= 4 IEnMin= 4 EnMin= -226.395223792029     IErMin= 4 ErrMin= 2.77D-04
 ErrMax= 2.77D-04  0.00D+00 EMaxC= 1.00D-01 BMatC= 3.46D-06 BMatP= 1.51D-05
 IDIUse=3 WtCom= 9.97D-01 WtEn= 2.77D-03
 Coeff-Com:  0.823D-01-0.372D+00 0.447D+00 0.843D+00
 Coeff-En:   0.000D+00 0.000D+00 0.000D+00 0.100D+01
 Coeff:      0.821D-01-0.371D+00 0.446D+00 0.844D+00
 Gap=     0.552 Goal=   None    Shift=    0.000
 RMSDP=7.89D-05 MaxDP=1.10D-03 DE=-4.89D-05 OVMax= 1.44D-03

 Cycle   5  Pass 1  IDiag  1:
 E= -226.395229649457     Delta-E=       -0.000005857427 Rises=F Damp=F
 DIIS: error= 5.30D-05 at cycle   5 NSaved=   5.
 NSaved= 5 IEnMin= 5 EnMin= -226.395229649457     IErMin= 5 ErrMin= 5.30D-05
 ErrMax= 5.30D-05  0.00D+00 EMaxC= 1.00D-01 BMatC= 1.24D-07 BMatP= 3.46D-06
 IDIUse=1 WtCom= 1.00D+00 WtEn= 0.00D+00
 Coeff-Com: -0.439D-02 0.301D-01-0.114D+00 0.365D-01 0.105D+01
 Coeff:     -0.439D-02 0.301D-01-0.114D+00 0.365D-01 0.105D+01
 Gap=     0.552 Goal=   None    Shift=    0.000
 RMSDP=1.71D-05 MaxDP=2.18D-04 DE=-5.86D-06 OVMax= 2.98D-04

 Cycle   6  Pass 1  IDiag  1:
 E= -226.395229898446     Delta-E=       -0.000000248989 Rises=F Damp=F
 DIIS: error= 1.97D-05 at cycle   6 NSaved=   6.
 NSaved= 6 IEnMin= 6 EnMin= -226.395229898446     IErMin= 6 ErrMin= 1.97D-05
 ErrMax= 1.97D-05  0.00D+00 EMaxC= 1.00D-01 BMatC= 1.30D-08 BMatP= 1.24D-07
 IDIUse=1 WtCom= 1.00D+00 WtEn= 0.00D+00
 Coeff-Com: -0.396D-02 0.201D-01-0.399D-01-0.244D-01 0.197D+00 0.851D+00
 Coeff:     -0.396D-02 0.201D-01-0.399D-01-0.244D-01 0.197D+00 0.851D+00
 Gap=     0.552 Goal=   None    Shift=    0.000
 RMSDP=3.62D-06 MaxDP=2.62D-05 DE=-2.49D-07 OVMax= 7.26D-05

 Cycle   7  Pass 1  IDiag  1:
 E= -226.395229926972     Delta-E=       -0.000000028526 Rises=F Damp=F
 DIIS: error= 1.29D-05 at cycle   7 NSaved=   7.
 NSaved= 7 IEnMin= 7 EnMin= -226.395229926972     IErMin= 7 ErrMin= 1.29D-05
 ErrMax= 1.29D-05  0.00D+00 EMaxC= 1.00D-01 BMatC= 3.33D-09 BMatP= 1.30D-08
 IDIUse=1 WtCom= 1.00D+00 WtEn= 0.00D+00
 Coeff-Com:  0.242D-02-0.143D-01 0.425D-01-0.994D-03-0.353D+00-0.216D+00
 Coeff-Com:  0.154D+01
 Coeff:      0.242D-02-0.143D-01 0.425D-01-0.994D-03-0.353D+00-0.216D+00
 Coeff:      0.154D+01
 Gap=     0.552 Goal=   None    Shift=    0.000
 RMSDP=4.08D-06 MaxDP=3.56D-05 DE=-2.85D-08 OVMax= 8.95D-05

 Cycle   8  Pass 1  IDiag  1:
 E= -226.395229942398     Delta-E=       -0.000000015426 Rises=F Damp=F
 DIIS: error= 4.34D-06 at cycle   8 NSaved=   8.
 NSaved= 8 IEnMin= 8 EnMin= -226.395229942398     IErMin= 8 ErrMin= 4.34D-06
 ErrMax= 4.34D-06  0.00D+00 EMaxC= 1.00D-01 BMatC= 2.48D-10 BMatP= 3.33D-09
 IDIUse=1 WtCom= 1.00D+00 WtEn= 0.00D+00
 Coeff-Com: -0.101D-03 0.993D-03-0.487D-02 0.277D-02 0.555D-01-0.482D-01
 Coeff-Com: -0.349D+00 0.134D+01
 Coeff:     -0.101D-03 0.993D-03-0.487D-02 0.277D-02 0.555D-01-0.482D-01
 Coeff:     -0.349D+00 0.134D+01
 Gap=     0.552 Goal=   None    Shift=    0.000
 RMSDP=1.32D-06 MaxDP=1.17D-05 DE=-1.54D-08 OVMax= 3.08D-05

 Cycle   9  Pass 1  IDiag  1:
 E= -226.395229943724     Delta-E=       -0.000000001326 Rises=F Damp=F
 DIIS: error= 1.36D-06 at cycle   9 NSaved=   9.
 NSaved= 9 IEnMin= 9 EnMin= -226.395229943724     IErMin= 9 ErrMin= 1.36D-06
 ErrMax= 1.36D-06  0.00D+00 EMaxC= 1.00D-01 BMatC= 2.63D-11 BMatP= 2.48D-10
 IDIUse=1 WtCom= 1.00D+00 WtEn= 0.00D+00
 Coeff-Com: -0.249D-03 0.146D-02-0.417D-02-0.716D-04 0.338D-01 0.241D-01
 Coeff-Com: -0.145D+00-0.803D-01 0.117D+01
 Coeff:     -0.249D-03 0.146D-02-0.417D-02-0.716D-04 0.338D-01 0.241D-01
 Coeff:     -0.145D+00-0.803D-01 0.117D+01
 Gap=     0.552 Goal=   None    Shift=    0.000
 RMSDP=3.78D-07 MaxDP=2.72D-06 DE=-1.33D-09 OVMax= 8.73D-06

 Cycle  10  Pass 1  IDiag  1:
 E= -226.395229943841     Delta-E=       -0.000000000116 Rises=F Damp=F
 DIIS: error= 4.84D-07 at cycle  10 NSaved=  10.
 NSaved=10 IEnMin=10 EnMin= -226.395229943841     IErMin=10 ErrMin= 4.84D-07
 ErrMax= 4.84D-07  0.00D+00 EMaxC= 1.00D-01 BMatC= 3.67D-12 BMatP= 2.63D-11
 IDIUse=1 WtCom= 1.00D+00 WtEn= 0.00D+00
 Coeff-Com:  0.104D-03-0.661D-03 0.214D-02-0.298D-03-0.198D-01-0.114D-02
 Coeff-Com:  0.984D-01-0.158D+00-0.327D+00 0.141D+01
 Coeff:      0.104D-03-0.661D-03 0.214D-02-0.298D-03-0.198D-01-0.114D-02
 Coeff:      0.984D-01-0.158D+00-0.327D+00 0.141D+01
 Gap=     0.552 Goal=   None    Shift=    0.000
 RMSDP=1.36D-07 MaxDP=9.68D-07 DE=-1.16D-10 OVMax= 2.41D-06

 Cycle  11  Pass 1  IDiag  1:
 E= -226.395229943857     Delta-E=       -0.000000000016 Rises=F Damp=F
 DIIS: error= 1.58D-07 at cycle  11 NSaved=  11.
 NSaved=11 IEnMin=11 EnMin= -226.395229943857     IErMin=11 ErrMin= 1.58D-07
 ErrMax= 1.58D-07  0.00D+00 EMaxC= 1.00D-01 BMatC= 4.12D-13 BMatP= 3.67D-12
 IDIUse=1 WtCom= 1.00D+00 WtEn= 0.00D+00
 Coeff-Com:  0.378D-05-0.926D-05-0.408D-04 0.118D-03 0.717D-03-0.217D-02
 Coeff-Com: -0.704D-02 0.439D-01-0.391D-01-0.326D+00 0.133D+01
 Coeff:      0.378D-05-0.926D-05-0.408D-04 0.118D-03 0.717D-03-0.217D-02
 Coeff:     -0.704D-02 0.439D-01-0.391D-01-0.326D+00 0.133D+01
 Gap=     0.552 Goal=   None    Shift=    0.000
 RMSDP=4.25D-08 MaxDP=4.04D-07 DE=-1.64D-11 OVMax= 8.07D-07

 Cycle  12  Pass 1  IDiag  1:
 E= -226.395229943859     Delta-E=       -0.000000000002 Rises=F Damp=F
 DIIS: error= 5.81D-08 at cycle  12 NSaved=  12.
 NSaved=12 IEnMin=12 EnMin= -226.395229943859     IErMin=12 ErrMin= 5.81D-08
 ErrMax= 5.81D-08  0.00D+00 EMaxC= 1.00D-01 BMatC= 6.68D-14 BMatP= 4.12D-13
 IDIUse=1 WtCom= 1.00D+00 WtEn= 0.00D+00
 Coeff-Com: -0.191D-04 0.121D-03-0.391D-03 0.635D-04 0.362D-02 0.143D-04
 Coeff-Com: -0.184D-01 0.322D-01 0.504D-01-0.264D+00 0.113D+00 0.108D+01
 Coeff:     -0.191D-04 0.121D-03-0.391D-03 0.635D-04 0.362D-02 0.143D-04
 Coeff:     -0.184D-01 0.322D-01 0.504D-01-0.264D+00 0.113D+00 0.108D+01
 Gap=     0.552 Goal=   None    Shift=    0.000
 RMSDP=1.64D-08 MaxDP=1.60D-07 DE=-1.99D-12 OVMax= 3.04D-07

 Cycle  13  Pass 1  IDiag  1:
 E= -226.395229943859     Delta-E=        0.000000000000 Rises=F Damp=F
 DIIS: error= 1.87D-08 at cycle  13 NSaved=  13.
 NSaved=13 IEnMin=13 EnMin= -226.395229943859     IErMin=13 ErrMin= 1.87D-08
 ErrMax= 1.87D-08  0.00D+00 EMaxC= 1.00D-01 BMatC= 7.33D-15 BMatP= 6.68D-14
 IDIUse=1 WtCom= 1.00D+00 WtEn= 0.00D+00
 Coeff-Com:  0.638D-05-0.412D-04 0.142D-03-0.431D-04-0.130D-02 0.200D-03
 Coeff-Com:  0.698D-02-0.163D-01-0.101D-01 0.125D+00-0.237D+00-0.253D+00
 Coeff-Com:  0.138D+01
 Coeff:      0.638D-05-0.412D-04 0.142D-03-0.431D-04-0.130D-02 0.200D-03
 Coeff:      0.698D-02-0.163D-01-0.101D-01 0.125D+00-0.237D+00-0.253D+00
 Coeff:      0.138D+01
 Gap=     0.552 Goal=   None    Shift=    0.000
 RMSDP=6.28D-09 MaxDP=5.91D-08 DE=-3.41D-13 OVMax= 1.14D-07

 SCF Done:  E(RHF) =  -226.395229944     A.U. after   13 cycles
            NFock= 13  Conv=0.63D-08     -V/T= 2.0035
 KE= 2.256072210059D+02 PE=-7.663785567253D+02 EE= 1.978362679841D+02
 Leave Link  502 at Fri Apr 12 15:46:39 2019, MaxMem=   134217728 cpu:         0.6
 (Enter /cm/shared/c3ddb/gaussian/09.d01/g09/l601.exe)
 Copying SCF densities to generalized density rwf, IOpCl= 0 IROHF=0.

 **********************************************************************

            Population analysis using the SCF density.

 **********************************************************************

 Alpha  occ. eigenvalues --  -20.53783 -20.53052 -11.24403 -11.16400  -1.48088
 Alpha  occ. eigenvalues --   -1.24081  -1.02807  -0.79841  -0.71263  -0.67392
 Alpha  occ. eigenvalues --   -0.65060  -0.57136  -0.55096  -0.52078  -0.48539
 Alpha  occ. eigenvalues --   -0.35921
 Alpha virt. eigenvalues --    0.19245   0.22455   0.27580   0.32042   0.33878
 Alpha virt. eigenvalues --    0.35876   0.49686   0.57687   0.90275   0.96982
 Alpha virt. eigenvalues --    1.00302   1.06333   1.10920   1.12534   1.22268
 Alpha virt. eigenvalues --    1.32617   1.37099   1.57673   1.60093   1.74345
 Alpha virt. eigenvalues --    1.80359   1.91206   1.95545   2.00046   2.04691
 Alpha virt. eigenvalues --    2.29176   3.06785   3.50489
          Condensed to atoms (all electrons):
               1          2          3          4          5          6
     1  C    4.885915   0.519335   0.362642  -0.047527  -0.051193   0.201118
     2  C    0.519335   5.300790  -0.041814   0.388030   0.390446  -0.050227
     3  H    0.362642  -0.041814   0.448395  -0.000887   0.002241  -0.034532
     4  H   -0.047527   0.388030  -0.000887   0.447894  -0.015255   0.001326
     5  H   -0.051193   0.390446   0.002241  -0.015255   0.434956  -0.000652
     6  O    0.201118  -0.050227  -0.034532   0.001326  -0.000652   8.198589
     7  O   -0.028755   0.002720   0.004648  -0.000025  -0.000016   0.118713
     8  H    0.000132  -0.000254   0.000336   0.000003   0.000002  -0.023752
               7          8
     1  C   -0.028755   0.000132
     2  C    0.002720  -0.000254
     3  H    0.004648   0.000336
     4  H   -0.000025   0.000003
     5  H   -0.000016   0.000002
     6  O    0.118713  -0.023752
     7  O    8.039495   0.243722
     8  H    0.243722   0.362912
 Mulliken charges:
               1
     1  C    0.158332
     2  C   -0.509026
     3  H    0.258970
     4  H    0.226440
     5  H    0.239470
     6  O   -0.410584
     7  O   -0.380503
     8  H    0.416900
 Sum of Mulliken charges =   0.00000
 Mulliken charges with hydrogens summed into heavy atoms:
               1
     1  C    0.417303
     2  C   -0.043116
     6  O   -0.410584
     7  O    0.036397
 Electronic spatial extent (au):  <R**2>=            370.8774
 Charge=              0.0000 electrons
 Dipole moment (field-independent basis, Debye):
    X=              0.6939    Y=              0.9400    Z=             -1.6287  Tot=              2.0044
 Quadrupole moment (field-independent basis, Debye-Ang):
   XX=            -20.4299   YY=            -19.3217   ZZ=            -25.3534
   XY=             -1.7287   XZ=              2.6023   YZ=             -3.6828
 Traceless Quadrupole moment (field-independent basis, Debye-Ang):
   XX=              1.2718   YY=              2.3800   ZZ=             -3.6518
   XY=             -1.7287   XZ=              2.6023   YZ=             -3.6828
 Octapole moment (field-independent basis, Debye-Ang**2):
  XXX=            -12.5654  YYY=            -39.8659  ZZZ=             -5.7057  XYY=             -9.7837
  XXY=             -9.0233  XXZ=             -5.3111  XZZ=             -6.9818  YZZ=            -15.0481
  YYZ=            -10.5477  XYZ=              5.8983
 Hexadecapole moment (field-independent basis, Debye-Ang**3):
 XXXX=           -162.4602 YYYY=           -195.0264 ZZZZ=            -25.6389 XXXY=             38.9825
 XXXZ=              9.8692 YYYX=             34.0989 YYYZ=            -29.2370 ZZZX=              4.8563
 ZZZY=            -11.1611 XXYY=            -48.7857 XXZZ=            -37.9418 YYZZ=            -40.6761
 XXYZ=            -11.2098 YYXZ=             14.0677 ZZXY=             16.9685
 N-N= 1.165398377915D+02 E-N=-7.663785568871D+02  KE= 2.256072210059D+02
 No NMR shielding tensors so no spin-rotation constants.
 Leave Link  601 at Fri Apr 12 15:46:39 2019, MaxMem=   134217728 cpu:         0.2
 (Enter /cm/shared/c3ddb/gaussian/09.d01/g09/l701.exe)
 Compute integral first derivatives.
 ... and contract with generalized density number  0.
 Leave Link  701 at Fri Apr 12 15:46:40 2019, MaxMem=   134217728 cpu:         0.3
 (Enter /cm/shared/c3ddb/gaussian/09.d01/g09/l702.exe)
 L702 exits ... SP integral derivatives will be done elsewhere.
 Leave Link  702 at Fri Apr 12 15:46:40 2019, MaxMem=   134217728 cpu:         0.1
 (Enter /cm/shared/c3ddb/gaussian/09.d01/g09/l703.exe)
 Compute integral first derivatives, UseDBF=F ICtDFT=           0.
 Integral derivatives from FoFJK, PRISM(SPDF).
 Calling FoFJK, ICntrl=      2127 FMM=F ISym2X=0 I1Cent= 0 IOpClX= 0 NMat=1 NMatS=1 NMatT=0.
 FoFJK:  IHMeth= 1 ICntrl=    2127 DoSepK=F KAlg= 0 I1Cent=   0 FoldK=F
 IRaf=         0 NMat=   1 IRICut=       1 DoRegI=T DoRafI=F ISym2E= 0.
 FoFCou: FMM=F IPFlag=           0 FMFlag=      100000 FMFlg1=         800
         NFxFlg=           0 DoJE=F BraDBF=F KetDBF=F FulRan=T
         wScrn=  0.000000 ICntrl=    2127 IOpCl=  0 I1Cent=           0 NGrid=           0
         NMat0=    1 NMatS0=      1 NMatT0=    0 NMatD0=    1 NMtDS0=    0 NMtDT0=    0
 Symmetry not used in FoFCou.
 Leave Link  703 at Fri Apr 12 15:46:40 2019, MaxMem=   134217728 cpu:         0.3
 (Enter /cm/shared/c3ddb/gaussian/09.d01/g09/l716.exe)
 Dipole        = 2.73017645D-01 3.69808111D-01-6.40768308D-01
 -------------------------------------------------------------------
 Center     Atomic                   Forces (Hartrees/Bohr)
 Number     Number              X              Y              Z
 -------------------------------------------------------------------
      1        6          -0.000859030    0.000670847    0.001631738
      2        6          -0.000150692   -0.000244951   -0.000018830
      3        1          -0.000298602    0.000073781   -0.000221009
      4        1          -0.000031121    0.000034366    0.000023368
      5        1           0.000043161   -0.000035751   -0.000056378
      6        8           0.000102835   -0.000667038   -0.002324921
      7        8           0.002111628    0.001713591    0.000183021
      8        1          -0.000918178   -0.001544845    0.000783010
 -------------------------------------------------------------------
 Cartesian Forces:  Max     0.002324921 RMS     0.000940266
 Leave Link  716 at Fri Apr 12 15:46:40 2019, MaxMem=   134217728 cpu:         0.1
 (Enter /cm/shared/c3ddb/gaussian/09.d01/g09/l103.exe)

 GradGradGradGradGradGradGradGradGradGradGradGradGradGradGradGradGradGrad
 Berny optimization.
 FormGI is forming the generalized inverse of G from B-inverse, IUseBI=4.
 Internal  Forces:  Max     0.002936686 RMS     0.000921251
 Search for a local minimum.
 Step number   1 out of a maximum of   32
 All quantities printed in internal units (Hartrees-Bohrs-Radians)
 RMS Force = .70863D-03 SwitMx=.10000D-02 MixMth= 2
 Mixed Optimization -- En-DIIS/RFO-DIIS
 Second derivative matrix not updated -- first step.
 ITU=  0
     Eigenvalues ---    0.02562   0.03293   0.03293   0.16000   0.16000
     Eigenvalues ---    0.16000   0.16000   0.22000   0.25000   0.36828
     Eigenvalues ---    0.37129   0.37209   0.37489   0.45057   0.52789
     Eigenvalues ---    0.647711000.000001000.000001000.000001000.00000
     Eigenvalues --- 1000.000001000.00000
 RFO step:  Lambda=-4.53951248D-05 EMin= 2.56160227D-02
 Linear search not attempted -- first point.
 Iteration  1 RMS(Cart)=  0.00693051 RMS(Int)=  0.00002107
 Iteration  2 RMS(Cart)=  0.00002471 RMS(Int)=  0.00000247
 Iteration  3 RMS(Cart)=  0.00000000 RMS(Int)=  0.00000247
 Iteration  1 RMS(Cart)=  0.00000120 RMS(Int)=  0.00000057
 Iteration  2 RMS(Cart)=  0.00000043 RMS(Int)=  0.00000064
 ITry= 1 IFail=0 DXMaxC= 1.94D-02 DCOld= 1.00D+10 DXMaxT= 3.00D-01 DXLimC= 3.00D+00 Rises=F
 Variable       Old X    -DE/DX   Delta X   Delta X   Delta X     New X
                                 (Linear)    (Quad)   (Total)
    R1        2.47353   0.00015   0.00000   0.00023   0.00023   2.47376
    R2        2.01815  -0.00008   0.00000  -0.00021  -0.00021   2.01794
    R3        2.65210  -0.00128   0.00000  -0.00283  -0.00283   2.64927
    R4        2.02232  -0.00003   0.00000  -0.00009  -0.00009   2.02223
    R5        2.02352   0.00001   0.00000   0.00003   0.00003   2.02355
    R6        2.76106   0.00003   0.00000   0.00009   0.00009   2.76115
    R7        1.83851  -0.00057   0.00000  -0.00108  -0.00108   1.83743
    A1        2.18536   0.00034   0.00000   0.00206   0.00205   2.18741
    A2        2.10843  -0.00008   0.00000  -0.00035  -0.00036   2.10808
    A3        1.98938  -0.00027   0.00000  -0.00173  -0.00174   1.98765
    A4        2.09853  -0.00008   0.00000  -0.00053  -0.00053   2.09800
    A5        2.12110   0.00010   0.00000   0.00062   0.00062   2.12172
    A6        2.06355  -0.00001   0.00000  -0.00009  -0.00009   2.06346
    A7        1.87744  -0.00220   0.00000  -0.00880  -0.00880   1.86864
    A8        1.75741  -0.00172   0.00000  -0.01073  -0.01073   1.74668
    D1       -0.02410   0.00009   0.00000   0.00374   0.00374  -0.02036
    D2        3.11832   0.00012   0.00000   0.00459   0.00459   3.12291
    D3        3.11273  -0.00005   0.00000  -0.00258  -0.00258   3.11015
    D4       -0.02804  -0.00002   0.00000  -0.00172  -0.00172  -0.02976
    D5        2.96706  -0.00005   0.00000   0.00000   0.00000   2.96706
    D6       -0.17880  -0.00017   0.00000  -0.00563  -0.00563  -0.18442
    D7        2.09439   0.00294   0.00000   0.00000   0.00000   2.09439
         Item               Value     Threshold  Converged?
 Maximum Force            0.002201     0.000015     NO 
 RMS     Force            0.000709     0.000010     NO 
 Maximum Displacement     0.019398     0.000060     NO 
 RMS     Displacement     0.006933     0.000040     NO 
 Predicted change in Energy=-2.270295D-05
 Lowest energy point so far.  Saving SCF results.
 GradGradGradGradGradGradGradGradGradGradGradGradGradGradGradGradGradGrad

 Leave Link  103 at Fri Apr 12 15:46:40 2019, MaxMem=   134217728 cpu:         0.0
 (Enter /cm/shared/c3ddb/gaussian/09.d01/g09/l202.exe)
                          Input orientation:                          
 ---------------------------------------------------------------------
 Center     Atomic      Atomic             Coordinates (Angstroms)
 Number     Number       Type             X           Y           Z
 ---------------------------------------------------------------------
      1          6           0        0.731138    0.636814    0.044793
      2          6           0        1.368873   -0.505257   -0.006206
      3          1           0        1.190921    1.598551    0.107745
      4          1           0        2.438809   -0.524993   -0.004694
      5          1           0        0.845173   -1.438162   -0.051760
      6          8           0       -0.669618    0.678798    0.005651
      7          8           0       -1.066498    2.049203    0.320931
      8          1           0       -1.544771    2.279509   -0.493702
 ---------------------------------------------------------------------
                    Distance matrix (angstroms):
                    1          2          3          4          5
     1  C    0.000000
     2  C    1.309058   0.000000
     3  H    1.067849   2.114394   0.000000
     4  H    2.066006   1.070118   2.465625   0.000000
     5  H    2.080349   1.070817   3.060492   1.837326   0.000000
     6  O    1.401932   2.357451   2.077974   3.333397   2.603729
     7  O    2.302736   3.544477   2.311812   4.361157   3.994383
     8  H    2.858004   4.059791   2.882612   4.896250   4.441646
                    6          7          8
     6  O    0.000000
     7  O    1.461139   0.000000
     8  H    1.891434   0.972324   0.000000
 Symmetry turned off by external request.
 Stoichiometry    C2H4O2
 Framework group  C1[X(C2H4O2)]
 Deg. of freedom    18
 Full point group                 C1      NOp   1
 Rotational constants (GHZ):     43.5738887      4.5495396      4.1726449
 Leave Link  202 at Fri Apr 12 15:46:41 2019, MaxMem=   134217728 cpu:         0.0
 (Enter /cm/shared/c3ddb/gaussian/09.d01/g09/l301.exe)
 Standard basis: 3-21G (6D, 7F)
 Ernie: Thresh=  0.10000D-02 Tol=  0.10000D-05 Strict=F.
    44 basis functions,    72 primitive gaussians,    44 cartesian basis functions
    16 alpha electrons       16 beta electrons
       nuclear repulsion energy       116.6575696154 Hartrees.
 IExCor=    0 DFT=F Ex=HF Corr=None ExCW=0 ScaHFX=  1.000000
 ScaDFX=  1.000000  1.000000  1.000000  1.000000 ScalE2=  1.000000  1.000000
 IRadAn=      0 IRanWt=     -1 IRanGd=            0 ICorTp=0 IEmpDi=  4
 NAtoms=    8 NActive=    8 NUniq=    8 SFac= 1.00D+00 NAtFMM=   60 NAOKFM=F Big=F
 Integral buffers will be    131072 words long.
 Raffenetti 1 integral format.
 Two-electron integral symmetry is turned off.
 Leave Link  301 at Fri Apr 12 15:46:41 2019, MaxMem=   134217728 cpu:         0.2
 (Enter /cm/shared/c3ddb/gaussian/09.d01/g09/l302.exe)
 NPDir=0 NMtPBC=     1 NCelOv=     1 NCel=       1 NClECP=     1 NCelD=      1
         NCelK=      1 NCelE2=     1 NClLst=     1 CellRange=     0.0.
 One-electron integrals computed using PRISM.
 NBasis=    44 RedAO= T EigKep=  1.13D-02  NBF=    44
 NBsUse=    44 1.00D-06 EigRej= -1.00D+00 NBFU=    44
 Leave Link  302 at Fri Apr 12 15:46:41 2019, MaxMem=   134217728 cpu:         0.2
 (Enter /cm/shared/c3ddb/gaussian/09.d01/g09/l303.exe)
 DipDrv:  MaxL=1.
 Leave Link  303 at Fri Apr 12 15:46:41 2019, MaxMem=   134217728 cpu:         0.1
 (Enter /cm/shared/c3ddb/gaussian/09.d01/g09/l401.exe)
 Initial guess from the checkpoint file:  "TMP_CALCS/scangeom_S02_170_120.chk"
 B after Tr=    -0.000975   -0.000454    0.000569
         Rot=    1.000000   -0.000203   -0.000117    0.000384 Ang=  -0.05 deg.
 Guess basis will be translated and rotated to current coordinates.
 JPrj=2 DoOrth=T DoCkMO=T.
 Leave Link  401 at Fri Apr 12 15:46:42 2019, MaxMem=   134217728 cpu:         0.2
 (Enter /cm/shared/c3ddb/gaussian/09.d01/g09/l502.exe)
 Closed shell SCF:
 Using DIIS extrapolation, IDIIS=  1040.
 Two-electron integral symmetry not used.
 Keep R1 ints in memory in canonical form, NReq=1327190.
 IVT=       24902 IEndB=       24902 NGot=   134217728 MDV=   133702282
 LenX=   133702282 LenY=   133699905
 Requested convergence on RMS density matrix=1.00D-08 within 128 cycles.
 Requested convergence on MAX density matrix=1.00D-06.
 Requested convergence on             energy=1.00D-06.
 No special actions if energy rises.
 FoFCou: FMM=F IPFlag=           0 FMFlag=           0 FMFlg1=           0
         NFxFlg=           0 DoJE=F BraDBF=F KetDBF=F FulRan=T
         wScrn=  0.000000 ICntrl=     600 IOpCl=  0 I1Cent=           0 NGrid=           0
         NMat0=    1 NMatS0=    990 NMatT0=    0 NMatD0=    1 NMtDS0=    0 NMtDT0=    0
 Symmetry not used in FoFCou.

 Cycle   1  Pass 1  IDiag  1:
 E= -226.395211599797    
 DIIS: error= 3.94D-04 at cycle   1 NSaved=   1.
 NSaved= 1 IEnMin= 1 EnMin= -226.395211599797     IErMin= 1 ErrMin= 3.94D-04
 ErrMax= 3.94D-04  0.00D+00 EMaxC= 1.00D-01 BMatC= 1.88D-05 BMatP= 1.88D-05
 IDIUse=3 WtCom= 9.96D-01 WtEn= 3.94D-03
 Coeff-Com:  0.100D+01
 Coeff-En:   0.100D+01
 Coeff:      0.100D+01
 Gap=     0.933 Goal=   None    Shift=    0.000
 RMSDP=1.04D-04 MaxDP=7.73D-04              OVMax= 8.27D-04

 Cycle   2  Pass 1  IDiag  1:
 E= -226.395232747450     Delta-E=       -0.000021147653 Rises=F Damp=F
 DIIS: error= 2.07D-04 at cycle   2 NSaved=   2.
 NSaved= 2 IEnMin= 2 EnMin= -226.395232747450     IErMin= 2 ErrMin= 2.07D-04
 ErrMax= 2.07D-04  0.00D+00 EMaxC= 1.00D-01 BMatC= 1.22D-06 BMatP= 1.88D-05
 IDIUse=3 WtCom= 9.98D-01 WtEn= 2.07D-03
 Coeff-Com: -0.134D+00 0.113D+01
 Coeff-En:   0.000D+00 0.100D+01
 Coeff:     -0.134D+00 0.113D+01
 Gap=     0.552 Goal=   None    Shift=    0.000
 RMSDP=4.40D-05 MaxDP=2.53D-04 DE=-2.11D-05 OVMax= 5.35D-04

 Cycle   3  Pass 1  IDiag  1:
 E= -226.395236289680     Delta-E=       -0.000003542229 Rises=F Damp=F
 DIIS: error= 1.30D-04 at cycle   3 NSaved=   3.
 NSaved= 3 IEnMin= 3 EnMin= -226.395236289680     IErMin= 3 ErrMin= 1.30D-04
 ErrMax= 1.30D-04  0.00D+00 EMaxC= 1.00D-01 BMatC= 2.55D-07 BMatP= 1.22D-06
 IDIUse=3 WtCom= 9.99D-01 WtEn= 1.30D-03
 Coeff-Com: -0.147D-01-0.182D+00 0.120D+01
 Coeff-En:   0.000D+00 0.000D+00 0.100D+01
 Coeff:     -0.147D-01-0.182D+00 0.120D+01
 Gap=     0.552 Goal=   None    Shift=    0.000
 RMSDP=2.35D-05 MaxDP=1.70D-04 DE=-3.54D-06 OVMax= 3.75D-04

 Cycle   4  Pass 1  IDiag  1:
 E= -226.395237193938     Delta-E=       -0.000000904258 Rises=F Damp=F
 DIIS: error= 7.08D-05 at cycle   4 NSaved=   4.
 NSaved= 4 IEnMin= 4 EnMin= -226.395237193938     IErMin= 4 ErrMin= 7.08D-05
 ErrMax= 7.08D-05  0.00D+00 EMaxC= 1.00D-01 BMatC= 7.29D-08 BMatP= 2.55D-07
 IDIUse=1 WtCom= 1.00D+00 WtEn= 0.00D+00
 Coeff-Com:  0.300D-01-0.284D+00 0.129D+00 0.112D+01
 Coeff:      0.300D-01-0.284D+00 0.129D+00 0.112D+01
 Gap=     0.552 Goal=   None    Shift=    0.000
 RMSDP=1.54D-05 MaxDP=1.22D-04 DE=-9.04D-07 OVMax= 2.67D-04

 Cycle   5  Pass 1  IDiag  1:
 E= -226.395237477503     Delta-E=       -0.000000283566 Rises=F Damp=F
 DIIS: error= 3.27D-05 at cycle   5 NSaved=   5.
 NSaved= 5 IEnMin= 5 EnMin= -226.395237477503     IErMin= 5 ErrMin= 3.27D-05
 ErrMax= 3.27D-05  0.00D+00 EMaxC= 1.00D-01 BMatC= 1.13D-08 BMatP= 7.29D-08
 IDIUse=1 WtCom= 1.00D+00 WtEn= 0.00D+00
 Coeff-Com: -0.169D-02 0.785D-01-0.230D+00-0.174D+00 0.133D+01
 Coeff:     -0.169D-02 0.785D-01-0.230D+00-0.174D+00 0.133D+01
 Gap=     0.552 Goal=   None    Shift=    0.000
 RMSDP=7.48D-06 MaxDP=5.94D-05 DE=-2.84D-07 OVMax= 1.60D-04

 Cycle   6  Pass 1  IDiag  1:
 E= -226.395237528966     Delta-E=       -0.000000051462 Rises=F Damp=F
 DIIS: error= 1.10D-05 at cycle   6 NSaved=   6.
 NSaved= 6 IEnMin= 6 EnMin= -226.395237528966     IErMin= 6 ErrMin= 1.10D-05
 ErrMax= 1.10D-05  0.00D+00 EMaxC= 1.00D-01 BMatC= 2.38D-09 BMatP= 1.13D-08
 IDIUse=1 WtCom= 1.00D+00 WtEn= 0.00D+00
 Coeff-Com: -0.510D-02 0.675D-01-0.868D-01-0.233D+00 0.394D+00 0.863D+00
 Coeff:     -0.510D-02 0.675D-01-0.868D-01-0.233D+00 0.394D+00 0.863D+00
 Gap=     0.552 Goal=   None    Shift=    0.000
 RMSDP=2.41D-06 MaxDP=1.57D-05 DE=-5.15D-08 OVMax= 4.77D-05

 Cycle   7  Pass 1  IDiag  1:
 E= -226.395237535417     Delta-E=       -0.000000006452 Rises=F Damp=F
 DIIS: error= 4.41D-06 at cycle   7 NSaved=   7.
 NSaved= 7 IEnMin= 7 EnMin= -226.395237535417     IErMin= 7 ErrMin= 4.41D-06
 ErrMax= 4.41D-06  0.00D+00 EMaxC= 1.00D-01 BMatC= 2.93D-10 BMatP= 2.38D-09
 IDIUse=1 WtCom= 1.00D+00 WtEn= 0.00D+00
 Coeff-Com:  0.154D-02-0.323D-01 0.698D-01 0.844D-01-0.361D+00-0.222D+00
 Coeff-Com:  0.146D+01
 Coeff:      0.154D-02-0.323D-01 0.698D-01 0.844D-01-0.361D+00-0.222D+00
 Coeff:      0.146D+01
 Gap=     0.552 Goal=   None    Shift=    0.000
 RMSDP=1.37D-06 MaxDP=7.98D-06 DE=-6.45D-09 OVMax= 3.06D-05

 Cycle   8  Pass 1  IDiag  1:
 E= -226.395237536754     Delta-E=       -0.000000001336 Rises=F Damp=F
 DIIS: error= 7.21D-07 at cycle   8 NSaved=   8.
 NSaved= 8 IEnMin= 8 EnMin= -226.395237536754     IErMin= 8 ErrMin= 7.21D-07
 ErrMax= 7.21D-07  0.00D+00 EMaxC= 1.00D-01 BMatC= 1.86D-11 BMatP= 2.93D-10
 IDIUse=1 WtCom= 1.00D+00 WtEn= 0.00D+00
 Coeff-Com:  0.456D-03-0.666D-02 0.991D-02 0.212D-01-0.456D-01-0.828D-01
 Coeff-Com:  0.877D-01 0.102D+01
 Coeff:      0.456D-03-0.666D-02 0.991D-02 0.212D-01-0.456D-01-0.828D-01
 Coeff:      0.877D-01 0.102D+01
 Gap=     0.552 Goal=   None    Shift=    0.000
 RMSDP=2.27D-07 MaxDP=1.36D-06 DE=-1.34D-09 OVMax= 4.23D-06

 Cycle   9  Pass 1  IDiag  1:
 E= -226.395237536808     Delta-E=       -0.000000000054 Rises=F Damp=F
 DIIS: error= 2.53D-07 at cycle   9 NSaved=   9.
 NSaved= 9 IEnMin= 9 EnMin= -226.395237536808     IErMin= 9 ErrMin= 2.53D-07
 ErrMax= 2.53D-07  0.00D+00 EMaxC= 1.00D-01 BMatC= 2.59D-12 BMatP= 1.86D-11
 IDIUse=1 WtCom= 1.00D+00 WtEn= 0.00D+00
 Coeff-Com: -0.187D-03 0.443D-02-0.100D-01-0.115D-01 0.543D-01 0.227D-01
 Coeff-Com: -0.222D+00 0.113D+00 0.105D+01
 Coeff:     -0.187D-03 0.443D-02-0.100D-01-0.115D-01 0.543D-01 0.227D-01
 Coeff:     -0.222D+00 0.113D+00 0.105D+01
 Gap=     0.552 Goal=   None    Shift=    0.000
 RMSDP=8.99D-08 MaxDP=5.48D-07 DE=-5.39D-11 OVMax= 1.20D-06

 Cycle  10  Pass 1  IDiag  1:
 E= -226.395237536815     Delta-E=       -0.000000000007 Rises=F Damp=F
 DIIS: error= 7.35D-08 at cycle  10 NSaved=  10.
 NSaved=10 IEnMin=10 EnMin= -226.395237536815     IErMin=10 ErrMin= 7.35D-08
 ErrMax= 7.35D-08  0.00D+00 EMaxC= 1.00D-01 BMatC= 1.59D-13 BMatP= 2.59D-12
 IDIUse=1 WtCom= 1.00D+00 WtEn= 0.00D+00
 Coeff-Com:  0.512D-07-0.223D-03 0.831D-03 0.183D-03-0.425D-02 0.140D-02
 Coeff-Com:  0.242D-01-0.776D-01-0.117D+00 0.117D+01
 Coeff:      0.512D-07-0.223D-03 0.831D-03 0.183D-03-0.425D-02 0.140D-02
 Coeff:      0.242D-01-0.776D-01-0.117D+00 0.117D+01
 Gap=     0.552 Goal=   None    Shift=    0.000
 RMSDP=2.05D-08 MaxDP=1.44D-07 DE=-7.05D-12 OVMax= 3.20D-07

 Cycle  11  Pass 1  IDiag  1:
 E= -226.395237536815     Delta-E=       -0.000000000001 Rises=F Damp=F
 DIIS: error= 3.75D-08 at cycle  11 NSaved=  11.
 NSaved=11 IEnMin=11 EnMin= -226.395237536815     IErMin=11 ErrMin= 3.75D-08
 ErrMax= 3.75D-08  0.00D+00 EMaxC= 1.00D-01 BMatC= 2.63D-14 BMatP= 1.59D-13
 IDIUse=1 WtCom= 1.00D+00 WtEn= 0.00D+00
 Coeff-Com:  0.273D-04-0.654D-03 0.147D-02 0.175D-02-0.797D-02-0.365D-02
 Coeff-Com:  0.323D-01-0.134D-01-0.149D+00-0.568D-01 0.120D+01
 Coeff:      0.273D-04-0.654D-03 0.147D-02 0.175D-02-0.797D-02-0.365D-02
 Coeff:      0.323D-01-0.134D-01-0.149D+00-0.568D-01 0.120D+01
 Gap=     0.552 Goal=   None    Shift=    0.000
 RMSDP=9.32D-09 MaxDP=7.40D-08 DE=-6.82D-13 OVMax= 1.50D-07

 SCF Done:  E(RHF) =  -226.395237537     A.U. after   11 cycles
            NFock= 11  Conv=0.93D-08     -V/T= 2.0034
 KE= 2.256169838959D+02 PE=-7.666146736352D+02 EE= 1.979448825870D+02
 Leave Link  502 at Fri Apr 12 15:46:42 2019, MaxMem=   134217728 cpu:         0.4
 (Enter /cm/shared/c3ddb/gaussian/09.d01/g09/l701.exe)
 Compute integral first derivatives.
 ... and contract with generalized density number  0.
 Leave Link  701 at Fri Apr 12 15:46:42 2019, MaxMem=   134217728 cpu:         0.2
 (Enter /cm/shared/c3ddb/gaussian/09.d01/g09/l702.exe)
 L702 exits ... SP integral derivatives will be done elsewhere.
 Leave Link  702 at Fri Apr 12 15:46:43 2019, MaxMem=   134217728 cpu:         0.1
 (Enter /cm/shared/c3ddb/gaussian/09.d01/g09/l703.exe)
 Compute integral first derivatives, UseDBF=F ICtDFT=           0.
 Integral derivatives from FoFJK, PRISM(SPDF).
 Calling FoFJK, ICntrl=      2127 FMM=F ISym2X=0 I1Cent= 0 IOpClX= 0 NMat=1 NMatS=1 NMatT=0.
 FoFJK:  IHMeth= 1 ICntrl=    2127 DoSepK=F KAlg= 0 I1Cent=   0 FoldK=F
 IRaf=         0 NMat=   1 IRICut=       1 DoRegI=T DoRafI=F ISym2E= 0.
 FoFCou: FMM=F IPFlag=           0 FMFlag=      100000 FMFlg1=         800
         NFxFlg=           0 DoJE=F BraDBF=F KetDBF=F FulRan=T
         wScrn=  0.000000 ICntrl=    2127 IOpCl=  0 I1Cent=           0 NGrid=           0
         NMat0=    1 NMatS0=      1 NMatT0=    0 NMatD0=    1 NMtDS0=    0 NMtDT0=    0
 Symmetry not used in FoFCou.
 Leave Link  703 at Fri Apr 12 15:46:43 2019, MaxMem=   134217728 cpu:         0.2
 (Enter /cm/shared/c3ddb/gaussian/09.d01/g09/l716.exe)
 Dipole        = 2.72656897D-01 3.69380862D-01-6.41843584D-01
 -------------------------------------------------------------------
 Center     Atomic                   Forces (Hartrees/Bohr)
 Number     Number              X              Y              Z
 -------------------------------------------------------------------
      1        6           0.000264018   -0.000983941    0.000874464
      2        6           0.000219829    0.000047237    0.000075261
      3        1          -0.000002392   -0.000119930    0.000013981
      4        1           0.000032018   -0.000042004    0.000035634
      5        1           0.000003897    0.000024158    0.000028121
      6        8           0.000494327   -0.000101320   -0.001235020
      7        8           0.000638337    0.001131678   -0.000719063
      8        1          -0.001650035    0.000044122    0.000926622
 -------------------------------------------------------------------
 Cartesian Forces:  Max     0.001650035 RMS     0.000627399
 Leave Link  716 at Fri Apr 12 15:46:43 2019, MaxMem=   134217728 cpu:         0.1
 (Enter /cm/shared/c3ddb/gaussian/09.d01/g09/l103.exe)

 GradGradGradGradGradGradGradGradGradGradGradGradGradGradGradGradGradGrad
 Berny optimization.
 Using GEDIIS/GDIIS optimizer.
 FormGI is forming the generalized inverse of G from B-inverse, IUseBI=4.
 Internal  Forces:  Max     0.003186229 RMS     0.000881689
 Search for a local minimum.
 Step number   2 out of a maximum of   32
 All quantities printed in internal units (Hartrees-Bohrs-Radians)
 RMS Force = .58689D-03 SwitMx=.10000D-02 MixMth= 2
 Mixed Optimization -- En-DIIS/RFO-DIIS
 Swapping is turned off.
 Update second derivatives using D2CorX and points    1    2
 DE= -7.59D-06 DEPred=-2.27D-05 R= 3.34D-01
 Trust test= 3.34D-01 RLast= 1.69D-02 DXMaxT set to 3.00D-01
 ITU=  0  0
     Eigenvalues ---    0.02534   0.03287   0.03297   0.15871   0.16000
     Eigenvalues ---    0.16000   0.17878   0.21983   0.29513   0.37129
     Eigenvalues ---    0.37208   0.37479   0.41319   0.51538   0.53259
     Eigenvalues ---    0.647481000.000001000.000001000.000001000.00000
     Eigenvalues --- 1000.000001000.00000
 En-DIIS/RFO-DIIS IScMMF=        0 using points:     2    1
 RFO step:  Lambda=-1.04037121D-05.
 NNeg= 0 NP= 2 Switch=  2.50D-03 Rises=F DC=  7.59D-06 SmlDif=  1.00D-05
 RMS Error=  0.8260093201D-03 NUsed= 2 EDIIS=F
 DidBck=T Rises=F RFO-DIIS coefs:    0.59862    0.40138
 Iteration  1 RMS(Cart)=  0.00275078 RMS(Int)=  0.00000300
 Iteration  2 RMS(Cart)=  0.00000328 RMS(Int)=  0.00000098
 Iteration  3 RMS(Cart)=  0.00000000 RMS(Int)=  0.00000098
 Iteration  1 RMS(Cart)=  0.00000037 RMS(Int)=  0.00000018
 ITry= 1 IFail=0 DXMaxC= 6.92D-03 DCOld= 1.00D+10 DXMaxT= 3.00D-01 DXLimC= 3.00D+00 Rises=F
 Variable       Old X    -DE/DX   Delta X   Delta X   Delta X     New X
                                 (Linear)    (Quad)   (Total)
    R1        2.47376   0.00009  -0.00009   0.00019   0.00010   2.47386
    R2        2.01794  -0.00011   0.00008  -0.00027  -0.00019   2.01776
    R3        2.64927   0.00058   0.00114  -0.00054   0.00059   2.64986
    R4        2.02223   0.00003   0.00003   0.00001   0.00005   2.02228
    R5        2.02355  -0.00002  -0.00001  -0.00002  -0.00004   2.02351
    R6        2.76115   0.00142  -0.00004   0.00235   0.00232   2.76347
    R7        1.83743   0.00005   0.00043  -0.00045  -0.00001   1.83741
    A1        2.18741  -0.00020  -0.00082   0.00034  -0.00048   2.18694
    A2        2.10808   0.00031   0.00014   0.00067   0.00081   2.10889
    A3        1.98765  -0.00010   0.00070  -0.00103  -0.00034   1.98731
    A4        2.09800   0.00006   0.00021  -0.00002   0.00019   2.09820
    A5        2.12172  -0.00004  -0.00025   0.00014  -0.00011   2.12161
    A6        2.06346  -0.00002   0.00004  -0.00012  -0.00008   2.06338
    A7        1.86864   0.00165   0.00353  -0.00012   0.00342   1.87206
    A8        1.74668   0.00127   0.00431  -0.00021   0.00410   1.75078
    D1       -0.02036  -0.00003  -0.00150   0.00204   0.00054  -0.01982
    D2        3.12291  -0.00009  -0.00184   0.00142  -0.00043   3.12249
    D3        3.11015   0.00009   0.00104  -0.00031   0.00072   3.11087
    D4       -0.02976   0.00004   0.00069  -0.00093  -0.00024  -0.03001
    D5        2.96706  -0.00020   0.00000   0.00000   0.00000   2.96706
    D6       -0.18442  -0.00009   0.00226  -0.00209   0.00016  -0.18426
    D7        2.09439   0.00319   0.00000   0.00000   0.00000   2.09439
         Item               Value     Threshold  Converged?
 Maximum Force            0.001653     0.000015     NO 
 RMS     Force            0.000587     0.000010     NO 
 Maximum Displacement     0.006924     0.000060     NO 
 RMS     Displacement     0.002751     0.000040     NO 
 Predicted change in Energy=-7.500082D-06
 Lowest energy point so far.  Saving SCF results.
 GradGradGradGradGradGradGradGradGradGradGradGradGradGradGradGradGradGrad

 Leave Link  103 at Fri Apr 12 15:46:43 2019, MaxMem=   134217728 cpu:         0.0
 (Enter /cm/shared/c3ddb/gaussian/09.d01/g09/l202.exe)
                          Input orientation:                          
 ---------------------------------------------------------------------
 Center     Atomic      Atomic             Coordinates (Angstroms)
 Number     Number       Type             X           Y           Z
 ---------------------------------------------------------------------
      1          6           0        0.732288    0.636093    0.044540
      2          6           0        1.369914   -0.506107   -0.006291
      3          1           0        1.192599    1.597468    0.107505
      4          1           0        2.439866   -0.526204   -0.004113
      5          1           0        0.846012   -1.438894   -0.051487
      6          8           0       -0.668745    0.679387    0.005448
      7          8           0       -1.069472    2.050065    0.320363
      8          1           0       -1.548435    2.282655   -0.493207
 ---------------------------------------------------------------------
                    Distance matrix (angstroms):
                    1          2          3          4          5
     1  C    0.000000
     2  C    1.309111   0.000000
     3  H    1.067751   2.114100   0.000000
     4  H    2.066187   1.070143   2.465384   0.000000
     5  H    2.080318   1.070797   3.060211   1.837286   0.000000
     6  O    1.402247   2.358318   2.077953   3.334217   2.604773
     7  O    2.306888   3.548425   2.316704   4.365536   3.997522
     8  H    2.863919   4.065838   2.888529   4.902596   4.447293
                    6          7          8
     6  O    0.000000
     7  O    1.462365   0.000000
     8  H    1.895515   0.972316   0.000000
 Symmetry turned off by external request.
 Stoichiometry    C2H4O2
 Framework group  C1[X(C2H4O2)]
 Deg. of freedom    18
 Full point group                 C1      NOp   1
 Rotational constants (GHZ):     43.6730884      4.5390556      4.1646488
 Leave Link  202 at Fri Apr 12 15:46:43 2019, MaxMem=   134217728 cpu:         0.0
 (Enter /cm/shared/c3ddb/gaussian/09.d01/g09/l301.exe)
 Standard basis: 3-21G (6D, 7F)
 Ernie: Thresh=  0.10000D-02 Tol=  0.10000D-05 Strict=F.
    44 basis functions,    72 primitive gaussians,    44 cartesian basis functions
    16 alpha electrons       16 beta electrons
       nuclear repulsion energy       116.5865603645 Hartrees.
 IExCor=    0 DFT=F Ex=HF Corr=None ExCW=0 ScaHFX=  1.000000
 ScaDFX=  1.000000  1.000000  1.000000  1.000000 ScalE2=  1.000000  1.000000
 IRadAn=      0 IRanWt=     -1 IRanGd=            0 ICorTp=0 IEmpDi=  4
 NAtoms=    8 NActive=    8 NUniq=    8 SFac= 1.00D+00 NAtFMM=   60 NAOKFM=F Big=F
 Integral buffers will be    131072 words long.
 Raffenetti 1 integral format.
 Two-electron integral symmetry is turned off.
 Leave Link  301 at Fri Apr 12 15:46:44 2019, MaxMem=   134217728 cpu:         0.1
 (Enter /cm/shared/c3ddb/gaussian/09.d01/g09/l302.exe)
 NPDir=0 NMtPBC=     1 NCelOv=     1 NCel=       1 NClECP=     1 NCelD=      1
         NCelK=      1 NCelE2=     1 NClLst=     1 CellRange=     0.0.
 One-electron integrals computed using PRISM.
 NBasis=    44 RedAO= T EigKep=  1.13D-02  NBF=    44
 NBsUse=    44 1.00D-06 EigRej= -1.00D+00 NBFU=    44
 Leave Link  302 at Fri Apr 12 15:46:44 2019, MaxMem=   134217728 cpu:         0.5
 (Enter /cm/shared/c3ddb/gaussian/09.d01/g09/l303.exe)
 DipDrv:  MaxL=1.
 Leave Link  303 at Fri Apr 12 15:46:44 2019, MaxMem=   134217728 cpu:         0.1
 (Enter /cm/shared/c3ddb/gaussian/09.d01/g09/l401.exe)
 Initial guess from the checkpoint file:  "TMP_CALCS/scangeom_S02_170_120.chk"
 B after Tr=     0.000148    0.000120   -0.000508
         Rot=    1.000000   -0.000021    0.000140   -0.000114 Ang=  -0.02 deg.
 Guess basis will be translated and rotated to current coordinates.
 JPrj=2 DoOrth=T DoCkMO=T.
 Leave Link  401 at Fri Apr 12 15:46:45 2019, MaxMem=   134217728 cpu:         0.8
 (Enter /cm/shared/c3ddb/gaussian/09.d01/g09/l502.exe)
 Closed shell SCF:
 Using DIIS extrapolation, IDIIS=  1040.
 Two-electron integral symmetry not used.
 Keep R1 ints in memory in canonical form, NReq=1327190.
 IVT=       24902 IEndB=       24902 NGot=   134217728 MDV=   133702282
 LenX=   133702282 LenY=   133699905
 Requested convergence on RMS density matrix=1.00D-08 within 128 cycles.
 Requested convergence on MAX density matrix=1.00D-06.
 Requested convergence on             energy=1.00D-06.
 No special actions if energy rises.
 FoFCou: FMM=F IPFlag=           0 FMFlag=           0 FMFlg1=           0
         NFxFlg=           0 DoJE=F BraDBF=F KetDBF=F FulRan=T
         wScrn=  0.000000 ICntrl=     600 IOpCl=  0 I1Cent=           0 NGrid=           0
         NMat0=    1 NMatS0=    990 NMatT0=    0 NMatD0=    1 NMtDS0=    0 NMtDT0=    0
 Symmetry not used in FoFCou.

 Cycle   1  Pass 1  IDiag  1:
 E= -226.395241713378    
 DIIS: error= 1.99D-04 at cycle   1 NSaved=   1.
 NSaved= 1 IEnMin= 1 EnMin= -226.395241713378     IErMin= 1 ErrMin= 1.99D-04
 ErrMax= 1.99D-04  0.00D+00 EMaxC= 1.00D-01 BMatC= 3.05D-06 BMatP= 3.05D-06
 IDIUse=3 WtCom= 9.98D-01 WtEn= 1.99D-03
 Coeff-Com:  0.100D+01
 Coeff-En:   0.100D+01
 Coeff:      0.100D+01
 Gap=     0.933 Goal=   None    Shift=    0.000
 RMSDP=3.96D-05 MaxDP=2.99D-04              OVMax= 3.29D-04

 Cycle   2  Pass 1  IDiag  1:
 E= -226.395244119956     Delta-E=       -0.000002406577 Rises=F Damp=F
 DIIS: error= 7.68D-05 at cycle   2 NSaved=   2.
 NSaved= 2 IEnMin= 2 EnMin= -226.395244119956     IErMin= 2 ErrMin= 7.68D-05
 ErrMax= 7.68D-05  0.00D+00 EMaxC= 1.00D-01 BMatC= 1.48D-07 BMatP= 3.05D-06
 IDIUse=1 WtCom= 1.00D+00 WtEn= 0.00D+00
 Coeff-Com: -0.756D-01 0.108D+01
 Coeff:     -0.756D-01 0.108D+01
 Gap=     0.552 Goal=   None    Shift=    0.000
 RMSDP=1.46D-05 MaxDP=9.54D-05 DE=-2.41D-06 OVMax= 2.07D-04

 Cycle   3  Pass 1  IDiag  1:
 E= -226.395244526885     Delta-E=       -0.000000406929 Rises=F Damp=F
 DIIS: error= 5.10D-05 at cycle   3 NSaved=   3.
 NSaved= 3 IEnMin= 3 EnMin= -226.395244526885     IErMin= 3 ErrMin= 5.10D-05
 ErrMax= 5.10D-05  0.00D+00 EMaxC= 1.00D-01 BMatC= 3.83D-08 BMatP= 1.48D-07
 IDIUse=1 WtCom= 1.00D+00 WtEn= 0.00D+00
 Coeff-Com: -0.260D-01-0.382D-01 0.106D+01
 Coeff:     -0.260D-01-0.382D-01 0.106D+01
 Gap=     0.552 Goal=   None    Shift=    0.000
 RMSDP=7.90D-06 MaxDP=6.07D-05 DE=-4.07D-07 OVMax= 1.40D-04

 Cycle   4  Pass 1  IDiag  1:
 E= -226.395244649032     Delta-E=       -0.000000122147 Rises=F Damp=F
 DIIS: error= 3.04D-05 at cycle   4 NSaved=   4.
 NSaved= 4 IEnMin= 4 EnMin= -226.395244649032     IErMin= 4 ErrMin= 3.04D-05
 ErrMax= 3.04D-05  0.00D+00 EMaxC= 1.00D-01 BMatC= 1.26D-08 BMatP= 3.83D-08
 IDIUse=1 WtCom= 1.00D+00 WtEn= 0.00D+00
 Coeff-Com:  0.237D-01-0.326D+00-0.431D-02 0.131D+01
 Coeff:      0.237D-01-0.326D+00-0.431D-02 0.131D+01
 Gap=     0.552 Goal=   None    Shift=    0.000
 RMSDP=7.37D-06 MaxDP=6.10D-05 DE=-1.22D-07 OVMax= 1.37D-04

 Cycle   5  Pass 1  IDiag  1:
 E= -226.395244704995     Delta-E=       -0.000000055964 Rises=F Damp=F
 DIIS: error= 1.19D-05 at cycle   5 NSaved=   5.
 NSaved= 5 IEnMin= 5 EnMin= -226.395244704995     IErMin= 5 ErrMin= 1.19D-05
 ErrMax= 1.19D-05  0.00D+00 EMaxC= 1.00D-01 BMatC= 1.70D-09 BMatP= 1.26D-08
 IDIUse=1 WtCom= 1.00D+00 WtEn= 0.00D+00
 Coeff-Com:  0.376D-02 0.128D-01-0.151D+00-0.195D-01 0.115D+01
 Coeff:      0.376D-02 0.128D-01-0.151D+00-0.195D-01 0.115D+01
 Gap=     0.552 Goal=   None    Shift=    0.000
 RMSDP=2.55D-06 MaxDP=2.07D-05 DE=-5.60D-08 OVMax= 5.67D-05

 Cycle   6  Pass 1  IDiag  1:
 E= -226.395244711670     Delta-E=       -0.000000006675 Rises=F Damp=F
 DIIS: error= 4.51D-06 at cycle   6 NSaved=   6.
 NSaved= 6 IEnMin= 6 EnMin= -226.395244711670     IErMin= 6 ErrMin= 4.51D-06
 ErrMax= 4.51D-06  0.00D+00 EMaxC= 1.00D-01 BMatC= 3.95D-10 BMatP= 1.70D-09
 IDIUse=1 WtCom= 1.00D+00 WtEn= 0.00D+00
 Coeff-Com: -0.400D-02 0.751D-01-0.394D-01-0.299D+00 0.329D+00 0.939D+00
 Coeff:     -0.400D-02 0.751D-01-0.394D-01-0.299D+00 0.329D+00 0.939D+00
 Gap=     0.552 Goal=   None    Shift=    0.000
 RMSDP=1.11D-06 MaxDP=7.50D-06 DE=-6.67D-09 OVMax= 2.25D-05

 Cycle   7  Pass 1  IDiag  1:
 E= -226.395244712822     Delta-E=       -0.000000001152 Rises=F Damp=F
 DIIS: error= 1.47D-06 at cycle   7 NSaved=   7.
 NSaved= 7 IEnMin= 7 EnMin= -226.395244712822     IErMin= 7 ErrMin= 1.47D-06
 ErrMax= 1.47D-06  0.00D+00 EMaxC= 1.00D-01 BMatC= 3.26D-11 BMatP= 3.95D-10
 IDIUse=1 WtCom= 1.00D+00 WtEn= 0.00D+00
 Coeff-Com:  0.111D-02-0.311D-01 0.365D-01 0.112D+00-0.267D+00-0.375D+00
 Coeff-Com:  0.152D+01
 Coeff:      0.111D-02-0.311D-01 0.365D-01 0.112D+00-0.267D+00-0.375D+00
 Coeff:      0.152D+01
 Gap=     0.552 Goal=   None    Shift=    0.000
 RMSDP=4.64D-07 MaxDP=2.84D-06 DE=-1.15D-09 OVMax= 9.89D-06

 Cycle   8  Pass 1  IDiag  1:
 E= -226.395244712978     Delta-E=       -0.000000000156 Rises=F Damp=F
 DIIS: error= 2.71D-07 at cycle   8 NSaved=   8.
 NSaved= 8 IEnMin= 8 EnMin= -226.395244712978     IErMin= 8 ErrMin= 2.71D-07
 ErrMax= 2.71D-07  0.00D+00 EMaxC= 1.00D-01 BMatC= 2.31D-12 BMatP= 3.26D-11
 IDIUse=1 WtCom= 1.00D+00 WtEn= 0.00D+00
 Coeff-Com:  0.289D-03-0.519D-02 0.192D-02 0.218D-01-0.176D-01-0.803D-01
 Coeff-Com: -0.105D-01 0.109D+01
 Coeff:      0.289D-03-0.519D-02 0.192D-02 0.218D-01-0.176D-01-0.803D-01
 Coeff:     -0.105D-01 0.109D+01
 Gap=     0.552 Goal=   None    Shift=    0.000
 RMSDP=8.71D-08 MaxDP=5.90D-07 DE=-1.56D-10 OVMax= 1.48D-06

 Cycle   9  Pass 1  IDiag  1:
 E= -226.395244712986     Delta-E=       -0.000000000008 Rises=F Damp=F
 DIIS: error= 1.02D-07 at cycle   9 NSaved=   9.
 NSaved= 9 IEnMin= 9 EnMin= -226.395244712986     IErMin= 9 ErrMin= 1.02D-07
 ErrMax= 1.02D-07  0.00D+00 EMaxC= 1.00D-01 BMatC= 2.95D-13 BMatP= 2.31D-12
 IDIUse=1 WtCom= 1.00D+00 WtEn= 0.00D+00
 Coeff-Com: -0.151D-03 0.451D-02-0.541D-02-0.165D-01 0.406D-01 0.499D-01
 Coeff-Com: -0.216D+00 0.212D-01 0.112D+01
 Coeff:     -0.151D-03 0.451D-02-0.541D-02-0.165D-01 0.406D-01 0.499D-01
 Coeff:     -0.216D+00 0.212D-01 0.112D+01
 Gap=     0.552 Goal=   None    Shift=    0.000
 RMSDP=3.14D-08 MaxDP=2.23D-07 DE=-7.62D-12 OVMax= 4.80D-07

 Cycle  10  Pass 1  IDiag  1:
 E= -226.395244712987     Delta-E=       -0.000000000001 Rises=F Damp=F
 DIIS: error= 3.51D-08 at cycle  10 NSaved=  10.
 NSaved=10 IEnMin=10 EnMin= -226.395244712987     IErMin=10 ErrMin= 3.51D-08
 ErrMax= 3.51D-08  0.00D+00 EMaxC= 1.00D-01 BMatC= 3.06D-14 BMatP= 2.95D-13
 IDIUse=1 WtCom= 1.00D+00 WtEn= 0.00D+00
 Coeff-Com: -0.299D-04 0.633D-03-0.372D-03-0.261D-02 0.360D-02 0.889D-02
 Coeff-Com: -0.106D-01-0.882D-01 0.712D-01 0.102D+01
 Coeff:     -0.299D-04 0.633D-03-0.372D-03-0.261D-02 0.360D-02 0.889D-02
 Coeff:     -0.106D-01-0.882D-01 0.712D-01 0.102D+01
 Gap=     0.552 Goal=   None    Shift=    0.000
 RMSDP=7.85D-09 MaxDP=5.98D-08 DE=-1.25D-12 OVMax= 1.24D-07

 SCF Done:  E(RHF) =  -226.395244713     A.U. after   10 cycles
            NFock= 10  Conv=0.79D-08     -V/T= 2.0035
 KE= 2.256112616335D+02 PE=-7.664707115152D+02 EE= 1.978776448042D+02
 Leave Link  502 at Fri Apr 12 15:46:46 2019, MaxMem=   134217728 cpu:         0.3
 (Enter /cm/shared/c3ddb/gaussian/09.d01/g09/l701.exe)
 Compute integral first derivatives.
 ... and contract with generalized density number  0.
 Leave Link  701 at Fri Apr 12 15:46:46 2019, MaxMem=   134217728 cpu:         0.4
 (Enter /cm/shared/c3ddb/gaussian/09.d01/g09/l702.exe)
 L702 exits ... SP integral derivatives will be done elsewhere.
 Leave Link  702 at Fri Apr 12 15:46:46 2019, MaxMem=   134217728 cpu:         0.1
 (Enter /cm/shared/c3ddb/gaussian/09.d01/g09/l703.exe)
 Compute integral first derivatives, UseDBF=F ICtDFT=           0.
 Integral derivatives from FoFJK, PRISM(SPDF).
 Calling FoFJK, ICntrl=      2127 FMM=F ISym2X=0 I1Cent= 0 IOpClX= 0 NMat=1 NMatS=1 NMatT=0.
 FoFJK:  IHMeth= 1 ICntrl=    2127 DoSepK=F KAlg= 0 I1Cent=   0 FoldK=F
 IRaf=         0 NMat=   1 IRICut=       1 DoRegI=T DoRafI=F ISym2E= 0.
 FoFCou: FMM=F IPFlag=           0 FMFlag=      100000 FMFlg1=         800
         NFxFlg=           0 DoJE=F BraDBF=F KetDBF=F FulRan=T
         wScrn=  0.000000 ICntrl=    2127 IOpCl=  0 I1Cent=           0 NGrid=           0
         NMat0=    1 NMatS0=      1 NMatT0=    0 NMatD0=    1 NMtDS0=    0 NMtDT0=    0
 Symmetry not used in FoFCou.
 Leave Link  703 at Fri Apr 12 15:46:47 2019, MaxMem=   134217728 cpu:         0.3
 (Enter /cm/shared/c3ddb/gaussian/09.d01/g09/l716.exe)
 Dipole        = 2.72632546D-01 3.70282920D-01-6.41326763D-01
 -------------------------------------------------------------------
 Center     Atomic                   Forces (Hartrees/Bohr)
 Number     Number              X              Y              Z
 -------------------------------------------------------------------
      1        6          -0.000038897   -0.000295263    0.000983094
      2        6          -0.000021641    0.000033436    0.000141805
      3        1           0.000057374   -0.000004430    0.000021760
      4        1          -0.000000293    0.000007327    0.000002154
      5        1           0.000001826   -0.000000929    0.000002012
      6        8          -0.000212800    0.000437133   -0.001494196
      7        8           0.001692130    0.000424181   -0.000293177
      8        1          -0.001477697   -0.000601455    0.000636549
 -------------------------------------------------------------------
 Cartesian Forces:  Max     0.001692130 RMS     0.000633424
 Leave Link  716 at Fri Apr 12 15:46:47 2019, MaxMem=   134217728 cpu:         0.1
 (Enter /cm/shared/c3ddb/gaussian/09.d01/g09/l103.exe)

 GradGradGradGradGradGradGradGradGradGradGradGradGradGradGradGradGradGrad
 Berny optimization.
 Using GEDIIS/GDIIS optimizer.
 FormGI is forming the generalized inverse of G from B-inverse, IUseBI=4.
 Internal  Forces:  Max     0.003103247 RMS     0.000664817
 Search for a local minimum.
 Step number   3 out of a maximum of   32
 All quantities printed in internal units (Hartrees-Bohrs-Radians)
 RMS Force = .44885D-04 SwitMx=.10000D-02 MixMth= 2
 Mixed Optimization -- En-DIIS/RFO-DIIS
 Swapping is turned off.
 Update second derivatives using D2CorX and points    1    2    3
 DE= -7.18D-06 DEPred=-7.50D-06 R= 9.57D-01
 TightC=F SS=  1.41D+00  RLast= 6.03D-03 DXNew= 5.0454D-01 1.8100D-02
 Trust test= 9.57D-01 RLast= 6.03D-03 DXMaxT set to 3.00D-01
 ITU=  1  0  0
     Eigenvalues ---    0.02567   0.03285   0.03296   0.15991   0.16000
     Eigenvalues ---    0.16078   0.17936   0.22003   0.29625   0.37129
     Eigenvalues ---    0.37209   0.37485   0.43189   0.52722   0.53421
     Eigenvalues ---    0.650211000.000001000.000001000.000001000.00000
     Eigenvalues --- 1000.000001000.00000
 En-DIIS/RFO-DIIS IScMMF=        0 using points:     3    2    1
 RFO step:  Lambda=-3.74925310D-07.
 NNeg= 0 NP= 3 Switch=  2.50D-03 Rises=F DC=  7.59D-06 SmlDif=  1.00D-05
 RMS Error=  0.8162080665D-04 NUsed= 3 EDIIS=F
 DidBck=F Rises=F RFO-DIIS coefs:    0.82715    0.10459    0.06826
 Iteration  1 RMS(Cart)=  0.00024659 RMS(Int)=  0.00000013
 Iteration  2 RMS(Cart)=  0.00000007 RMS(Int)=  0.00000011
 Iteration  1 RMS(Cart)=  0.00000013 RMS(Int)=  0.00000006
 ITry= 1 IFail=0 DXMaxC= 6.69D-04 DCOld= 1.00D+10 DXMaxT= 3.00D-01 DXLimC= 3.00D+00 Rises=F
 Variable       Old X    -DE/DX   Delta X   Delta X   Delta X     New X
                                 (Linear)    (Quad)   (Total)
    R1        2.47386  -0.00005  -0.00003  -0.00003  -0.00007   2.47380
    R2        2.01776   0.00002   0.00005   0.00000   0.00005   2.01781
    R3        2.64986   0.00004   0.00009   0.00001   0.00010   2.64996
    R4        2.02228   0.00000   0.00000   0.00000   0.00000   2.02228
    R5        2.02351   0.00000   0.00000  -0.00001   0.00000   2.02351
    R6        2.76347  -0.00015  -0.00041   0.00008  -0.00032   2.76315
    R7        1.83741   0.00005   0.00008   0.00001   0.00009   1.83750
    A1        2.18694  -0.00005  -0.00006  -0.00023  -0.00029   2.18665
    A2        2.10889  -0.00001  -0.00012   0.00010  -0.00002   2.10888
    A3        1.98731   0.00006   0.00018   0.00013   0.00031   1.98762
    A4        2.09820  -0.00001   0.00000  -0.00006  -0.00005   2.09814
    A5        2.12161   0.00001  -0.00002   0.00006   0.00003   2.12164
    A6        2.06338   0.00000   0.00002   0.00000   0.00002   2.06340
    A7        1.87206  -0.00002   0.00001   0.00004   0.00005   1.87211
    A8        1.75078  -0.00006   0.00002  -0.00019  -0.00017   1.75061
    D1       -0.01982  -0.00005  -0.00035   0.00005  -0.00029  -0.02011
    D2        3.12249  -0.00006  -0.00024  -0.00015  -0.00039   3.12209
    D3        3.11087   0.00006   0.00005   0.00032   0.00037   3.11125
    D4       -0.03001   0.00005   0.00016   0.00011   0.00027  -0.02973
    D5        2.96706  -0.00018   0.00000   0.00000   0.00000   2.96706
    D6       -0.18426  -0.00009   0.00036   0.00024   0.00059  -0.18367
    D7        2.09439   0.00310   0.00000   0.00000   0.00000   2.09439
         Item               Value     Threshold  Converged?
 Maximum Force            0.000151     0.000015     NO 
 RMS     Force            0.000045     0.000010     NO 
 Maximum Displacement     0.000669     0.000060     NO 
 RMS     Displacement     0.000247     0.000040     NO 
 Predicted change in Energy=-6.808462D-08
 Lowest energy point so far.  Saving SCF results.
 GradGradGradGradGradGradGradGradGradGradGradGradGradGradGradGradGradGrad

 Leave Link  103 at Fri Apr 12 15:46:47 2019, MaxMem=   134217728 cpu:         0.0
 (Enter /cm/shared/c3ddb/gaussian/09.d01/g09/l202.exe)
                          Input orientation:                          
 ---------------------------------------------------------------------
 Center     Atomic      Atomic             Coordinates (Angstroms)
 Number     Number       Type             X           Y           Z
 ---------------------------------------------------------------------
      1          6           0        0.732302    0.636165    0.044404
      2          6           0        1.369841   -0.506047   -0.006367
      3          1           0        1.192953    1.597385    0.107680
      4          1           0        2.439793   -0.526159   -0.004072
      5          1           0        0.845913   -1.438820   -0.051535
      6          8           0       -0.668791    0.679503    0.005608
      7          8           0       -1.069430    2.050068    0.320327
      8          1           0       -1.548556    2.282368   -0.493286
 ---------------------------------------------------------------------
                    Distance matrix (angstroms):
                    1          2          3          4          5
     1  C    0.000000
     2  C    1.309077   0.000000
     3  H    1.067777   2.113936   0.000000
     4  H    2.066125   1.070143   2.465064   0.000000
     5  H    2.080306   1.070797   3.060119   1.837296   0.000000
     6  O    1.402300   2.358324   2.078225   3.334218   2.604781
     7  O    2.306837   3.548309   2.317006   4.365413   3.997394
     8  H    2.863811   4.065636   2.888985   4.902457   4.447007
                    6          7          8
     6  O    0.000000
     7  O    1.462194   0.000000
     8  H    1.895273   0.972364   0.000000
 Symmetry turned off by external request.
 Stoichiometry    C2H4O2
 Framework group  C1[X(C2H4O2)]
 Deg. of freedom    18
 Full point group                 C1      NOp   1
 Rotational constants (GHZ):     43.6741300      4.5392946      4.1648477
 Leave Link  202 at Fri Apr 12 15:46:47 2019, MaxMem=   134217728 cpu:         0.0
 (Enter /cm/shared/c3ddb/gaussian/09.d01/g09/l301.exe)
 Standard basis: 3-21G (6D, 7F)
 Ernie: Thresh=  0.10000D-02 Tol=  0.10000D-05 Strict=F.
    44 basis functions,    72 primitive gaussians,    44 cartesian basis functions
    16 alpha electrons       16 beta electrons
       nuclear repulsion energy       116.5892351335 Hartrees.
 IExCor=    0 DFT=F Ex=HF Corr=None ExCW=0 ScaHFX=  1.000000
 ScaDFX=  1.000000  1.000000  1.000000  1.000000 ScalE2=  1.000000  1.000000
 IRadAn=      0 IRanWt=     -1 IRanGd=            0 ICorTp=0 IEmpDi=  4
 NAtoms=    8 NActive=    8 NUniq=    8 SFac= 1.00D+00 NAtFMM=   60 NAOKFM=F Big=F
 Integral buffers will be    131072 words long.
 Raffenetti 1 integral format.
 Two-electron integral symmetry is turned off.
 Leave Link  301 at Fri Apr 12 15:46:47 2019, MaxMem=   134217728 cpu:         0.2
 (Enter /cm/shared/c3ddb/gaussian/09.d01/g09/l302.exe)
 NPDir=0 NMtPBC=     1 NCelOv=     1 NCel=       1 NClECP=     1 NCelD=      1
         NCelK=      1 NCelE2=     1 NClLst=     1 CellRange=     0.0.
 One-electron integrals computed using PRISM.
 NBasis=    44 RedAO= T EigKep=  1.13D-02  NBF=    44
 NBsUse=    44 1.00D-06 EigRej= -1.00D+00 NBFU=    44
 Leave Link  302 at Fri Apr 12 15:46:48 2019, MaxMem=   134217728 cpu:         0.2
 (Enter /cm/shared/c3ddb/gaussian/09.d01/g09/l303.exe)
 DipDrv:  MaxL=1.
 Leave Link  303 at Fri Apr 12 15:46:48 2019, MaxMem=   134217728 cpu:         0.1
 (Enter /cm/shared/c3ddb/gaussian/09.d01/g09/l401.exe)
 Initial guess from the checkpoint file:  "TMP_CALCS/scangeom_S02_170_120.chk"
 B after Tr=    -0.000041    0.000079    0.000097
         Rot=    1.000000    0.000034   -0.000045    0.000003 Ang=   0.01 deg.
 Guess basis will be translated and rotated to current coordinates.
 JPrj=2 DoOrth=T DoCkMO=T.
 Leave Link  401 at Fri Apr 12 15:46:49 2019, MaxMem=   134217728 cpu:         0.7
 (Enter /cm/shared/c3ddb/gaussian/09.d01/g09/l502.exe)
 Closed shell SCF:
 Using DIIS extrapolation, IDIIS=  1040.
 Two-electron integral symmetry not used.
 Keep R1 ints in memory in canonical form, NReq=1327190.
 IVT=       24902 IEndB=       24902 NGot=   134217728 MDV=   133702282
 LenX=   133702282 LenY=   133699905
 Requested convergence on RMS density matrix=1.00D-08 within 128 cycles.
 Requested convergence on MAX density matrix=1.00D-06.
 Requested convergence on             energy=1.00D-06.
 No special actions if energy rises.
 FoFCou: FMM=F IPFlag=           0 FMFlag=           0 FMFlg1=           0
         NFxFlg=           0 DoJE=F BraDBF=F KetDBF=F FulRan=T
         wScrn=  0.000000 ICntrl=     600 IOpCl=  0 I1Cent=           0 NGrid=           0
         NMat0=    1 NMatS0=    990 NMatT0=    0 NMatD0=    1 NMtDS0=    0 NMtDT0=    0
 Symmetry not used in FoFCou.

 Cycle   1  Pass 1  IDiag  1:
 E= -226.395244723983    
 DIIS: error= 1.65D-05 at cycle   1 NSaved=   1.
 NSaved= 1 IEnMin= 1 EnMin= -226.395244723983     IErMin= 1 ErrMin= 1.65D-05
 ErrMax= 1.65D-05  0.00D+00 EMaxC= 1.00D-01 BMatC= 3.67D-08 BMatP= 3.67D-08
 IDIUse=1 WtCom= 1.00D+00 WtEn= 0.00D+00
 Coeff-Com:  0.100D+01
 Coeff:      0.100D+01
 Gap=     0.933 Goal=   None    Shift=    0.000
 RMSDP=5.10D-06 MaxDP=2.40D-05              OVMax= 3.53D-05

 Cycle   2  Pass 1  IDiag  1:
 E= -226.395244767565     Delta-E=       -0.000000043582 Rises=F Damp=F
 DIIS: error= 6.57D-06 at cycle   2 NSaved=   2.
 NSaved= 2 IEnMin= 2 EnMin= -226.395244767565     IErMin= 2 ErrMin= 6.57D-06
 ErrMax= 6.57D-06  0.00D+00 EMaxC= 1.00D-01 BMatC= 2.10D-09 BMatP= 3.67D-08
 IDIUse=1 WtCom= 1.00D+00 WtEn= 0.00D+00
 Coeff-Com: -0.190D+00 0.119D+01
 Coeff:     -0.190D+00 0.119D+01
 Gap=     0.552 Goal=   None    Shift=    0.000
 RMSDP=1.81D-06 MaxDP=1.33D-05 DE=-4.36D-08 OVMax= 2.31D-05

 Cycle   3  Pass 1  IDiag  1:
 E= -226.395244772700     Delta-E=       -0.000000005135 Rises=F Damp=F
 DIIS: error= 2.44D-06 at cycle   3 NSaved=   3.
 NSaved= 3 IEnMin= 3 EnMin= -226.395244772700     IErMin= 3 ErrMin= 2.44D-06
 ErrMax= 2.44D-06  0.00D+00 EMaxC= 1.00D-01 BMatC= 2.24D-10 BMatP= 2.10D-09
 IDIUse=1 WtCom= 1.00D+00 WtEn= 0.00D+00
 Coeff-Com: -0.192D-01-0.670D-01 0.109D+01
 Coeff:     -0.192D-01-0.670D-01 0.109D+01
 Gap=     0.552 Goal=   None    Shift=    0.000
 RMSDP=6.24D-07 MaxDP=3.70D-06 DE=-5.14D-09 OVMax= 7.97D-06

 Cycle   4  Pass 1  IDiag  1:
 E= -226.395244773267     Delta-E=       -0.000000000567 Rises=F Damp=F
 DIIS: error= 9.75D-07 at cycle   4 NSaved=   4.
 NSaved= 4 IEnMin= 4 EnMin= -226.395244773267     IErMin= 4 ErrMin= 9.75D-07
 ErrMax= 9.75D-07  0.00D+00 EMaxC= 1.00D-01 BMatC= 5.25D-11 BMatP= 2.24D-10
 IDIUse=1 WtCom= 1.00D+00 WtEn= 0.00D+00
 Coeff-Com:  0.237D-01-0.201D+00 0.260D+00 0.917D+00
 Coeff:      0.237D-01-0.201D+00 0.260D+00 0.917D+00
 Gap=     0.552 Goal=   None    Shift=    0.000
 RMSDP=2.92D-07 MaxDP=1.68D-06 DE=-5.67D-10 OVMax= 4.26D-06

 Cycle   5  Pass 1  IDiag  1:
 E= -226.395244773379     Delta-E=       -0.000000000112 Rises=F Damp=F
 DIIS: error= 2.66D-07 at cycle   5 NSaved=   5.
 NSaved= 5 IEnMin= 5 EnMin= -226.395244773379     IErMin= 5 ErrMin= 2.66D-07
 ErrMax= 2.66D-07  0.00D+00 EMaxC= 1.00D-01 BMatC= 4.52D-12 BMatP= 5.25D-11
 IDIUse=1 WtCom= 1.00D+00 WtEn= 0.00D+00
 Coeff-Com:  0.233D-03 0.237D-01-0.152D+00-0.229D-01 0.115D+01
 Coeff:      0.233D-03 0.237D-01-0.152D+00-0.229D-01 0.115D+01
 Gap=     0.552 Goal=   None    Shift=    0.000
 RMSDP=1.10D-07 MaxDP=7.62D-07 DE=-1.12D-10 OVMax= 1.81D-06

 Cycle   6  Pass 1  IDiag  1:
 E= -226.395244773391     Delta-E=       -0.000000000012 Rises=F Damp=F
 DIIS: error= 8.77D-08 at cycle   6 NSaved=   6.
 NSaved= 6 IEnMin= 6 EnMin= -226.395244773391     IErMin= 6 ErrMin= 8.77D-08
 ErrMax= 8.77D-08  0.00D+00 EMaxC= 1.00D-01 BMatC= 5.33D-13 BMatP= 4.52D-12
 IDIUse=1 WtCom= 1.00D+00 WtEn= 0.00D+00
 Coeff-Com: -0.222D-02 0.257D-01-0.698D-01-0.900D-01 0.292D+00 0.844D+00
 Coeff:     -0.222D-02 0.257D-01-0.698D-01-0.900D-01 0.292D+00 0.844D+00
 Gap=     0.552 Goal=   None    Shift=    0.000
 RMSDP=2.96D-08 MaxDP=1.86D-07 DE=-1.24D-11 OVMax= 4.27D-07

 Cycle   7  Pass 1  IDiag  1:
 E= -226.395244773392     Delta-E=       -0.000000000001 Rises=F Damp=F
 DIIS: error= 3.78D-08 at cycle   7 NSaved=   7.
 NSaved= 7 IEnMin= 7 EnMin= -226.395244773392     IErMin= 7 ErrMin= 3.78D-08
 ErrMax= 3.78D-08  0.00D+00 EMaxC= 1.00D-01 BMatC= 3.97D-14 BMatP= 5.33D-13
 IDIUse=1 WtCom= 1.00D+00 WtEn= 0.00D+00
 Coeff-Com:  0.784D-04-0.330D-02 0.165D-01 0.119D-01-0.129D+00-0.178D-01
 Coeff-Com:  0.112D+01
 Coeff:      0.784D-04-0.330D-02 0.165D-01 0.119D-01-0.129D+00-0.178D-01
 Coeff:      0.112D+01
 Gap=     0.552 Goal=   None    Shift=    0.000
 RMSDP=1.01D-08 MaxDP=7.53D-08 DE=-7.39D-13 OVMax= 1.72D-07

 Cycle   8  Pass 1  IDiag  1:
 E= -226.395244773392     Delta-E=        0.000000000000 Rises=F Damp=F
 DIIS: error= 2.10D-08 at cycle   8 NSaved=   8.
 NSaved= 8 IEnMin= 7 EnMin= -226.395244773392     IErMin= 8 ErrMin= 2.10D-08
 ErrMax= 2.10D-08  0.00D+00 EMaxC= 1.00D-01 BMatC= 5.22D-15 BMatP= 3.97D-14
 IDIUse=1 WtCom= 1.00D+00 WtEn= 0.00D+00
 Coeff-Com:  0.238D-03-0.291D-02 0.817D-02 0.112D-01-0.410D-01-0.893D-01
 Coeff-Com:  0.593D-01 0.105D+01
 Coeff:      0.238D-03-0.291D-02 0.817D-02 0.112D-01-0.410D-01-0.893D-01
 Coeff:      0.593D-01 0.105D+01
 Gap=     0.552 Goal=   None    Shift=    0.000
 RMSDP=3.87D-09 MaxDP=2.58D-08 DE= 2.84D-13 OVMax= 6.29D-08

 SCF Done:  E(RHF) =  -226.395244773     A.U. after    8 cycles
            NFock=  8  Conv=0.39D-08     -V/T= 2.0035
 KE= 2.256115160309D+02 PE=-7.664762717157D+02 EE= 1.978802757779D+02
 Leave Link  502 at Fri Apr 12 15:46:49 2019, MaxMem=   134217728 cpu:         0.5
 (Enter /cm/shared/c3ddb/gaussian/09.d01/g09/l701.exe)
 Compute integral first derivatives.
 ... and contract with generalized density number  0.
 Leave Link  701 at Fri Apr 12 15:46:50 2019, MaxMem=   134217728 cpu:         0.4
 (Enter /cm/shared/c3ddb/gaussian/09.d01/g09/l702.exe)
 L702 exits ... SP integral derivatives will be done elsewhere.
 Leave Link  702 at Fri Apr 12 15:46:50 2019, MaxMem=   134217728 cpu:         0.2
 (Enter /cm/shared/c3ddb/gaussian/09.d01/g09/l703.exe)
 Compute integral first derivatives, UseDBF=F ICtDFT=           0.
 Integral derivatives from FoFJK, PRISM(SPDF).
 Calling FoFJK, ICntrl=      2127 FMM=F ISym2X=0 I1Cent= 0 IOpClX= 0 NMat=1 NMatS=1 NMatT=0.
 FoFJK:  IHMeth= 1 ICntrl=    2127 DoSepK=F KAlg= 0 I1Cent=   0 FoldK=F
 IRaf=         0 NMat=   1 IRICut=       1 DoRegI=T DoRafI=F ISym2E= 0.
 FoFCou: FMM=F IPFlag=           0 FMFlag=      100000 FMFlg1=         800
         NFxFlg=           0 DoJE=F BraDBF=F KetDBF=F FulRan=T
         wScrn=  0.000000 ICntrl=    2127 IOpCl=  0 I1Cent=           0 NGrid=           0
         NMat0=    1 NMatS0=      1 NMatT0=    0 NMatD0=    1 NMtDS0=    0 NMtDT0=    0
 Symmetry not used in FoFCou.
 Leave Link  703 at Fri Apr 12 15:46:51 2019, MaxMem=   134217728 cpu:         0.4
 (Enter /cm/shared/c3ddb/gaussian/09.d01/g09/l716.exe)
 Dipole        = 2.72619239D-01 3.70023005D-01-6.41301984D-01
 -------------------------------------------------------------------
[...]
 Coeff-Com:  0.100D+01
 Coeff:      0.100D+01
 Gap=     0.933 Goal=   None    Shift=    0.000
 RMSDP=9.42D-07 MaxDP=5.82D-06              OVMax= 8.39D-06

 Cycle   2  Pass 1  IDiag  1:
 E= -226.395244774797     Delta-E=       -0.000000002282 Rises=F Damp=F
 DIIS: error= 1.15D-06 at cycle   2 NSaved=   2.
 NSaved= 2 IEnMin= 2 EnMin= -226.395244774797     IErMin= 2 ErrMin= 1.15D-06
 ErrMax= 1.15D-06  0.00D+00 EMaxC= 1.00D-01 BMatC= 1.14D-10 BMatP= 1.61D-09
 IDIUse=1 WtCom= 1.00D+00 WtEn= 0.00D+00
 Coeff-Com: -0.215D+00 0.122D+01
 Coeff:     -0.215D+00 0.122D+01
 Gap=     0.552 Goal=   None    Shift=    0.000
 RMSDP=4.23D-07 MaxDP=2.35D-06 DE=-2.28D-09 OVMax= 4.98D-06

 Cycle   3  Pass 1  IDiag  1:
 E= -226.395244775088     Delta-E=       -0.000000000291 Rises=F Damp=F
 DIIS: error= 4.87D-07 at cycle   3 NSaved=   3.
 NSaved= 3 IEnMin= 3 EnMin= -226.395244775088     IErMin= 3 ErrMin= 4.87D-07
 ErrMax= 4.87D-07  0.00D+00 EMaxC= 1.00D-01 BMatC= 1.37D-11 BMatP= 1.14D-10
 IDIUse=1 WtCom= 1.00D+00 WtEn= 0.00D+00
 Coeff-Com: -0.434D-01 0.398D-01 0.100D+01
 Coeff:     -0.434D-01 0.398D-01 0.100D+01
 Gap=     0.552 Goal=   None    Shift=    0.000
 RMSDP=1.45D-07 MaxDP=8.68D-07 DE=-2.91D-10 OVMax= 2.02D-06

 Cycle   4  Pass 1  IDiag  1:
 E= -226.395244775120     Delta-E=       -0.000000000032 Rises=F Damp=F
 DIIS: error= 2.29D-07 at cycle   4 NSaved=   4.
 NSaved= 4 IEnMin= 4 EnMin= -226.395244775120     IErMin= 4 ErrMin= 2.29D-07
 ErrMax= 2.29D-07  0.00D+00 EMaxC= 1.00D-01 BMatC= 3.98D-12 BMatP= 1.37D-11
 IDIUse=1 WtCom= 1.00D+00 WtEn= 0.00D+00
 Coeff-Com:  0.309D-01-0.220D+00 0.251D+00 0.938D+00
 Coeff:      0.309D-01-0.220D+00 0.251D+00 0.938D+00
 Gap=     0.552 Goal=   None    Shift=    0.000
 RMSDP=7.94D-08 MaxDP=5.47D-07 DE=-3.19D-11 OVMax= 1.08D-06

 Cycle   5  Pass 1  IDiag  1:
 E= -226.395244775129     Delta-E=       -0.000000000009 Rises=F Damp=F
 DIIS: error= 1.39D-07 at cycle   5 NSaved=   5.
 NSaved= 5 IEnMin= 5 EnMin= -226.395244775129     IErMin= 5 ErrMin= 1.39D-07
 ErrMax= 1.39D-07  0.00D+00 EMaxC= 1.00D-01 BMatC= 4.68D-13 BMatP= 3.98D-12
 IDIUse=1 WtCom= 1.00D+00 WtEn= 0.00D+00
 Coeff-Com:  0.172D-02 0.234D-01-0.173D+00-0.146D+00 0.129D+01
 Coeff:      0.172D-02 0.234D-01-0.173D+00-0.146D+00 0.129D+01
 Gap=     0.552 Goal=   None    Shift=    0.000
 RMSDP=4.23D-08 MaxDP=3.47D-07 DE=-9.49D-12 OVMax= 8.55D-07

 Cycle   6  Pass 1  IDiag  1:
 E= -226.395244775131     Delta-E=       -0.000000000002 Rises=F Damp=F
 DIIS: error= 6.29D-08 at cycle   6 NSaved=   6.
 NSaved= 6 IEnMin= 6 EnMin= -226.395244775131     IErMin= 6 ErrMin= 6.29D-08
 ErrMax= 6.29D-08  0.00D+00 EMaxC= 1.00D-01 BMatC= 8.92D-14 BMatP= 4.68D-13
 IDIUse=1 WtCom= 1.00D+00 WtEn= 0.00D+00
 Coeff-Com: -0.472D-02 0.417D-01-0.722D-01-0.193D+00 0.265D+00 0.963D+00
 Coeff:     -0.472D-02 0.417D-01-0.722D-01-0.193D+00 0.265D+00 0.963D+00
 Gap=     0.552 Goal=   None    Shift=    0.000
 RMSDP=1.55D-08 MaxDP=1.22D-07 DE=-2.05D-12 OVMax= 3.31D-07

 Cycle   7  Pass 1  IDiag  1:
 E= -226.395244775132     Delta-E=        0.000000000000 Rises=F Damp=F
 DIIS: error= 2.92D-08 at cycle   7 NSaved=   7.
 NSaved= 7 IEnMin= 7 EnMin= -226.395244775132     IErMin= 7 ErrMin= 2.92D-08
 ErrMax= 2.92D-08  0.00D+00 EMaxC= 1.00D-01 BMatC= 1.15D-14 BMatP= 8.92D-14
 IDIUse=1 WtCom= 1.00D+00 WtEn= 0.00D+00
 Coeff-Com:  0.146D-02-0.185D-01 0.545D-01 0.850D-01-0.285D+00-0.382D+00
 Coeff-Com:  0.154D+01
 Coeff:      0.146D-02-0.185D-01 0.545D-01 0.850D-01-0.285D+00-0.382D+00
 Coeff:      0.154D+01
 Gap=     0.552 Goal=   None    Shift=    0.000
 RMSDP=8.62D-09 MaxDP=6.51D-08 DE=-2.84D-13 OVMax= 2.12D-07

 SCF Done:  E(RHF) =  -226.395244775     A.U. after    7 cycles
            NFock=  7  Conv=0.86D-08     -V/T= 2.0035
 KE= 2.256115268408D+02 PE=-7.664770254801D+02 EE= 1.978806307034D+02
 Leave Link  502 at Fri Apr 12 15:46:55 2019, MaxMem=   134217728 cpu:         0.6
 (Enter /cm/shared/c3ddb/gaussian/09.d01/g09/l701.exe)
 Compute integral first derivatives.
 ... and contract with generalized density number  0.
 Leave Link  701 at Fri Apr 12 15:46:56 2019, MaxMem=   134217728 cpu:         0.4
 (Enter /cm/shared/c3ddb/gaussian/09.d01/g09/l702.exe)
 L702 exits ... SP integral derivatives will be done elsewhere.
 Leave Link  702 at Fri Apr 12 15:46:56 2019, MaxMem=   134217728 cpu:         0.2
 (Enter /cm/shared/c3ddb/gaussian/09.d01/g09/l703.exe)
 Compute integral first derivatives, UseDBF=F ICtDFT=           0.
 Integral derivatives from FoFJK, PRISM(SPDF).
 Calling FoFJK, ICntrl=      2127 FMM=F ISym2X=0 I1Cent= 0 IOpClX= 0 NMat=1 NMatS=1 NMatT=0.
 FoFJK:  IHMeth= 1 ICntrl=    2127 DoSepK=F KAlg= 0 I1Cent=   0 FoldK=F
 IRaf=         0 NMat=   1 IRICut=       1 DoRegI=T DoRafI=F ISym2E= 0.
 FoFCou: FMM=F IPFlag=           0 FMFlag=      100000 FMFlg1=         800
         NFxFlg=           0 DoJE=F BraDBF=F KetDBF=F FulRan=T
         wScrn=  0.000000 ICntrl=    2127 IOpCl=  0 I1Cent=           0 NGrid=           0
         NMat0=    1 NMatS0=      1 NMatT0=    0 NMatD0=    1 NMtDS0=    0 NMtDT0=    0
 Symmetry not used in FoFCou.
 Leave Link  703 at Fri Apr 12 15:46:56 2019, MaxMem=   134217728 cpu:         0.3
 (Enter /cm/shared/c3ddb/gaussian/09.d01/g09/l716.exe)
 Dipole        = 2.72613693D-01 3.70082015D-01-6.41342771D-01
 -------------------------------------------------------------------
 Center     Atomic                   Forces (Hartrees/Bohr)
 Number     Number              X              Y              Z
 -------------------------------------------------------------------
      1        6          -0.000047454   -0.000281088    0.001035191
      2        6          -0.000003571   -0.000009562    0.000123018
      3        1           0.000000837   -0.000000722    0.000000046
      4        1           0.000000644    0.000000184    0.000001326
      5        1           0.000001539   -0.000000320    0.000000751
      6        8          -0.000108808    0.000325302   -0.001516441
      7        8           0.001613363    0.000551726   -0.000335292
      8        1          -0.001456551   -0.000585520    0.000691401
 -------------------------------------------------------------------
 Cartesian Forces:  Max     0.001613363 RMS     0.000630726
 Leave Link  716 at Fri Apr 12 15:46:57 2019, MaxMem=   134217728 cpu:         0.1
 (Enter /cm/shared/c3ddb/gaussian/09.d01/g09/l103.exe)

 GradGradGradGradGradGradGradGradGradGradGradGradGradGradGradGradGradGrad
 Berny optimization.
 Using GEDIIS/GDIIS optimizer.
 FormGI is forming the generalized inverse of G from B-inverse, IUseBI=4.
 Internal  Forces:  Max     0.003101115 RMS     0.000662746
 Search for a local minimum.
 Step number   5 out of a maximum of   32
 All quantities printed in internal units (Hartrees-Bohrs-Radians)
 RMS Force = .22217D-05 SwitMx=.10000D-02 MixMth= 2
 Mixed Optimization -- En-DIIS/RFO-DIIS
 Swapping is turned off.
 Update second derivatives using D2CorX and points    1    2    3    4    5
 DE= -1.74D-09 DEPred=-1.93D-09 R= 9.01D-01
 Trust test= 9.01D-01 RLast= 2.11D-04 DXMaxT set to 3.00D-01
 ITU=  0  0  1  0  0
     Eigenvalues ---    0.02708   0.03287   0.04137   0.13375   0.16005
     Eigenvalues ---    0.16210   0.20753   0.21227   0.30951   0.37123
     Eigenvalues ---    0.37181   0.37556   0.42725   0.51901   0.52985
     Eigenvalues ---    0.653171000.000001000.000001000.000001000.00000
     Eigenvalues --- 1000.000001000.00000
 En-DIIS/RFO-DIIS IScMMF=        0 using points:     5    4    3    2    1
 RFO step:  Lambda=-3.05764304D-07.
 NNeg= 0 NP= 5 Switch=  2.50D-03 Rises=F DC=  7.59D-06 SmlDif=  1.00D-05
 RMS Error=  0.2141121824D-04 NUsed= 5 EDIIS=F
 DidBck=F Rises=F RFO-DIIS coefs:    1.08646   -0.02120   -0.05084   -0.00859   -0.00583
 Iteration  1 RMS(Cart)=  0.00002003 RMS(Int)=  0.00000003
 Iteration  2 RMS(Cart)=  0.00000000 RMS(Int)=  0.00000003
 Iteration  1 RMS(Cart)=  0.00000001 RMS(Int)=  0.00000000
 ITry= 1 IFail=0 DXMaxC= 4.39D-05 DCOld= 1.00D+10 DXMaxT= 3.00D-01 DXLimC= 3.00D+00 Rises=F
 Variable       Old X    -DE/DX   Delta X   Delta X   Delta X     New X
                                 (Linear)    (Quad)   (Total)
    R1        2.47380   0.00000   0.00000   0.00001   0.00001   2.47381
    R2        2.01782   0.00000   0.00000   0.00000   0.00000   2.01782
    R3        2.64994  -0.00001   0.00000  -0.00002  -0.00002   2.64991
    R4        2.02228   0.00000   0.00000   0.00000   0.00000   2.02228
    R5        2.02351   0.00000   0.00000   0.00000   0.00000   2.02351
    R6        2.76314   0.00000   0.00001  -0.00001   0.00000   2.76314
    R7        1.83751   0.00000   0.00000   0.00000   0.00000   1.83751
    A1        2.18661   0.00000  -0.00002  -0.00001  -0.00002   2.18659
    A2        2.10889   0.00000   0.00001   0.00001   0.00002   2.10891
    A3        1.98764   0.00000   0.00001   0.00000   0.00000   1.98764
    A4        2.09812   0.00000  -0.00001  -0.00001  -0.00001   2.09810
    A5        2.12168   0.00000   0.00001   0.00001   0.00002   2.12170
    A6        2.06339   0.00000   0.00000  -0.00001  -0.00001   2.06338
    A7        1.87208   0.00000   0.00000   0.00001   0.00000   1.87208
    A8        1.75066   0.00000  -0.00001   0.00000  -0.00001   1.75065
    D1       -0.02016  -0.00004   0.00001   0.00002   0.00002  -0.02014
    D2        3.12218  -0.00004   0.00000  -0.00002  -0.00002   3.12216
    D3        3.11110   0.00004   0.00001   0.00002   0.00003   3.11113
    D4       -0.02974   0.00004   0.00000  -0.00002  -0.00001  -0.02975
    D5        2.96706  -0.00017   0.00000   0.00000   0.00000   2.96706
    D6       -0.18375  -0.00010   0.00000   0.00000   0.00000  -0.18375
    D7        2.09439   0.00310   0.00000   0.00000   0.00000   2.09439
         Item               Value     Threshold  Converged?
 Maximum Force            0.000007     0.000015     YES
 RMS     Force            0.000002     0.000010     YES
 Maximum Displacement     0.000044     0.000060     YES
 RMS     Displacement     0.000020     0.000040     YES
 Predicted change in Energy=-2.305887D-10
 Optimization completed.
    -- Stationary point found.
                           ----------------------------
                           !   Optimized Parameters   !
                           ! (Angstroms and Degrees)  !
 --------------------------                            --------------------------
 ! Name  Definition              Value          Derivative Info.                !
 --------------------------------------------------------------------------------
 ! R1    R(1,2)                  1.3091         -DE/DX =    0.0                 !
 ! R2    R(1,3)                  1.0678         -DE/DX =    0.0                 !
 ! R3    R(1,6)                  1.4023         -DE/DX =    0.0                 !
 ! R4    R(2,4)                  1.0701         -DE/DX =    0.0                 !
 ! R5    R(2,5)                  1.0708         -DE/DX =    0.0                 !
 ! R6    R(6,7)                  1.4622         -DE/DX =    0.0                 !
 ! R7    R(7,8)                  0.9724         -DE/DX =    0.0                 !
 ! A1    A(2,1,3)              125.2838         -DE/DX =    0.0                 !
 ! A2    A(2,1,6)              120.8307         -DE/DX =    0.0                 !
 ! A3    A(3,1,6)              113.8832         -DE/DX =    0.0                 !
 ! A4    A(1,2,4)              120.2133         -DE/DX =    0.0                 !
 ! A5    A(1,2,5)              121.5632         -DE/DX =    0.0                 !
 ! A6    A(4,2,5)              118.2235         -DE/DX =    0.0                 !
 ! A7    A(1,6,7)              107.2621         -DE/DX =    0.0                 !
 ! A8    A(6,7,8)              100.3051         -DE/DX =    0.0                 !
 ! D1    D(3,1,2,4)             -1.1552         -DE/DX =    0.0                 !
 ! D2    D(3,1,2,5)            178.8878         -DE/DX =    0.0                 !
 ! D3    D(6,1,2,4)            178.2531         -DE/DX =    0.0                 !
 ! D4    D(6,1,2,5)             -1.7039         -DE/DX =    0.0                 !
 ! D5    D(2,1,6,7)            170.0            -DE/DX =   -0.0002              !
 ! D6    D(3,1,6,7)            -10.5281         -DE/DX =   -0.0001              !
 ! D7    D(1,6,7,8)            120.0            -DE/DX =    0.0031              !
 --------------------------------------------------------------------------------
 Lowest energy point so far.  Saving SCF results.
 GradGradGradGradGradGradGradGradGradGradGradGradGradGradGradGradGradGrad

 Largest change from initial coordinates is atom    8       0.007 Angstoms.
 Leave Link  103 at Fri Apr 12 15:46:57 2019, MaxMem=   134217728 cpu:         0.0
 (Enter /cm/shared/c3ddb/gaussian/09.d01/g09/l202.exe)
                          Input orientation:                          
 ---------------------------------------------------------------------
 Center     Atomic      Atomic             Coordinates (Angstroms)
 Number     Number       Type             X           Y           Z
 ---------------------------------------------------------------------
      1          6           0        0.732266    0.636148    0.044438
      2          6           0        1.369832   -0.506053   -0.006326
      3          1           0        1.192932    1.597370    0.107668
      4          1           0        2.439786   -0.526111   -0.004120
      5          1           0        0.845956   -1.438854   -0.051525
      6          8           0       -0.668811    0.679483    0.005590
      7          8           0       -1.069415    2.050054    0.320321
      8          1           0       -1.548519    2.282426   -0.493288
 ---------------------------------------------------------------------
                    Distance matrix (angstroms):
                    1          2          3          4          5
     1  C    0.000000
     2  C    1.309080   0.000000
     3  H    1.067782   2.113924   0.000000
     4  H    2.066114   1.070144   2.465017   0.000000
     5  H    2.080329   1.070797   3.060129   1.837291   0.000000
     6  O    1.402285   2.358327   2.078226   3.334206   2.604829
     7  O    2.306793   3.548282   2.316972   4.365361   3.997423
     8  H    2.863802   4.065651   2.888945   4.902422   4.447087
                    6          7          8
     6  O    0.000000
     7  O    1.462191   0.000000
     8  H    1.895307   0.972367   0.000000
 Symmetry turned off by external request.
 Stoichiometry    C2H4O2
 Framework group  C1[X(C2H4O2)]
 Deg. of freedom    18
 Full point group                 C1      NOp   1
 Rotational constants (GHZ):     43.6734448      4.5393574      4.1648953
 Leave Link  202 at Fri Apr 12 15:46:57 2019, MaxMem=   134217728 cpu:         0.0
 (Enter /cm/shared/c3ddb/gaussian/09.d01/g09/l601.exe)
 Copying SCF densities to generalized density rwf, IOpCl= 0 IROHF=0.

 **********************************************************************

            Population analysis using the SCF density.

 **********************************************************************

 Alpha  occ. eigenvalues --  -20.53811 -20.53083 -11.24388 -11.16391  -1.48137
 Alpha  occ. eigenvalues --   -1.24137  -1.02792  -0.79867  -0.71246  -0.67438
 Alpha  occ. eigenvalues --   -0.65078  -0.57090  -0.55089  -0.52142  -0.48609
 Alpha  occ. eigenvalues --   -0.35915
 Alpha virt. eigenvalues --    0.19240   0.22470   0.27559   0.32052   0.33859
 Alpha virt. eigenvalues --    0.35877   0.49721   0.57696   0.90326   0.96985
 Alpha virt. eigenvalues --    1.00372   1.06327   1.10924   1.12577   1.22382
 Alpha virt. eigenvalues --    1.32629   1.37121   1.57632   1.60077   1.74377
 Alpha virt. eigenvalues --    1.80358   1.91199   1.95584   1.99975   2.04653
 Alpha virt. eigenvalues --    2.28945   3.06862   3.50705
          Condensed to atoms (all electrons):
               1          2          3          4          5          6
     1  C    4.886286   0.519237   0.362705  -0.047556  -0.051129   0.200759
     2  C    0.519237   5.300986  -0.041638   0.387995   0.390504  -0.050355
     3  H    0.362705  -0.041638   0.448105  -0.000886   0.002231  -0.034718
     4  H   -0.047556   0.387995  -0.000886   0.448125  -0.015279   0.001333
     5  H   -0.051129   0.390504   0.002231  -0.015279   0.435004  -0.000673
     6  O    0.200759  -0.050355  -0.034718   0.001333  -0.000673   8.199727
     7  O   -0.029217   0.002758   0.004715  -0.000025  -0.000016   0.118891
     8  H    0.000116  -0.000262   0.000358   0.000003   0.000002  -0.023853
               7          8
     1  C   -0.029217   0.000116
     2  C    0.002758  -0.000262
     3  H    0.004715   0.000358
     4  H   -0.000025   0.000003
     5  H   -0.000016   0.000002
     6  O    0.118891  -0.023853
     7  O    8.039396   0.243755
     8  H    0.243755   0.362863
 Mulliken charges:
               1
     1  C    0.158799
     2  C   -0.509225
     3  H    0.259128
     4  H    0.226290
     5  H    0.239356
     6  O   -0.411110
     7  O   -0.380257
     8  H    0.417019
 Sum of Mulliken charges =   0.00000
 Mulliken charges with hydrogens summed into heavy atoms:
               1
     1  C    0.417927
     2  C   -0.043579
     6  O   -0.411110
     7  O    0.036762
 Electronic spatial extent (au):  <R**2>=            370.4493
 Charge=              0.0000 electrons
 Dipole moment (field-independent basis, Debye):
    X=              0.6929    Y=              0.9407    Z=             -1.6301  Tot=              2.0056
 Quadrupole moment (field-independent basis, Debye-Ang):
   XX=            -20.4718   YY=            -19.3286   ZZ=            -25.3535
   XY=             -1.7144   XZ=              2.5883   YZ=             -3.6837
 Traceless Quadrupole moment (field-independent basis, Debye-Ang):
   XX=              1.2462   YY=              2.3894   ZZ=             -3.6356
   XY=             -1.7144   XZ=              2.5883   YZ=             -3.6837
 Octapole moment (field-independent basis, Debye-Ang**2):
  XXX=            -12.5000  YYY=            -39.8824  ZZZ=             -5.7376  XYY=             -9.7274
  XXY=             -9.0954  XXZ=             -5.2988  XZZ=             -6.9724  YZZ=            -15.0465
  YYZ=            -10.5606  XYZ=              5.8705
 Hexadecapole moment (field-independent basis, Debye-Ang**3):
 XXXX=           -162.1791 YYYY=           -195.0428 ZZZZ=            -25.6728 XXXY=             39.0546
 XXXZ=              9.7987 YYYX=             34.1379 YYYZ=            -29.2725 ZZZX=              4.8481
 ZZZY=            -11.2176 XXYY=            -48.9209 XXZZ=            -37.8664 YYZZ=            -40.6813
 XXYZ=            -11.1709 YYXZ=             13.9968 ZZXY=             16.9338
 N-N= 1.165896231608D+02 E-N=-7.664770253058D+02  KE= 2.256115268408D+02
 No NMR shielding tensors so no spin-rotation constants.
 Leave Link  601 at Fri Apr 12 15:46:57 2019, MaxMem=   134217728 cpu:         0.2
 (Enter /cm/shared/c3ddb/gaussian/09.d01/g09/l9999.exe)
 1\1\GINC-NODE029\FOpt\RHF\3-21G\C2H4O2\MATTSJ\12-Apr-2019\0\\#p hf 3-2
 1g scf=tight NoSymmetry guess=read opt=(tight,modredundant)\\Geometry 
 optimization at the 2D-PES\\0,1\C,0.7322658535,0.6361482689,0.04443805
 38\C,1.3698320641,-0.5060530803,-0.006325936\H,1.1929320383,1.59736959
 76,0.1076683888\H,2.4397859723,-0.5261108448,-0.0041195101\H,0.8459562
 791,-1.4388536985,-0.0515252508\O,-0.6688111625,0.6794833471,0.0055898
 788\O,-1.0694147439,2.0500538187,0.3203214168\H,-1.5485193009,2.282425
 5913,-0.4932880414\\Version=AS64L-G09RevD.01\HF=-226.3952448\RMSD=8.62
 2e-09\RMSF=6.307e-04\Dipole=0.2726137,0.370082,-0.6413428\Quadrupole=0
 .9265209,1.7764419,-2.7029628,-1.2746356,1.9243551,-2.7387434\PG=C01 [
 X(C2H4O2)]\\@


 THE LENGTH OF A MEETING IS PROPORTIONAL TO THE
 SQUARE OF THE PARTICIPANTS.
 Job cpu time:       0 days  0 hours  0 minutes 22.3 seconds.
 File lengths (MBytes):  RWF=      5 Int=      0 D2E=      0 Chk=      1 Scr=      1
 Normal termination of Gaussian 09 at Fri Apr 12 15:46:58 2019.
