 Entering Gaussian System, Link 0=/cm/shared/c3ddb/gaussian/09.d01/g09/g09
 Initial command:
 /cm/shared/c3ddb/gaussian/09.d01/g09/l1.exe "/scratch/users/mattsj/g09/S02-7952157/Gau-41337.inp" -scrdir="/scratch/users/mattsj/g09/S02-7952157/"
 Entering Link 1 = /cm/shared/c3ddb/gaussian/09.d01/g09/l1.exe PID=     41338.
  
 Copyright (c) 1988,1990,1992,1993,1995,1998,2003,2009,2013,
            Gaussian, Inc.  All Rights Reserved.
  
 This is part of the Gaussian(R) 09 program.  It is based on
 the Gaussian(R) 03 system (copyright 2003, Gaussian, Inc.),
 the Gaussian(R) 98 system (copyright 1998, Gaussian, Inc.),
 the Gaussian(R) 94 system (copyright 1995, Gaussian, Inc.),
 the Gaussian 92(TM) system (copyright 1992, Gaussian, Inc.),
 the Gaussian 90(TM) system (copyright 1990, Gaussian, Inc.),
 the Gaussian 88(TM) system (copyright 1988, Gaussian, Inc.),
 the Gaussian 86(TM) system (copyright 1986, Carnegie Mellon
 University), and the Gaussian 82(TM) system (copyright 1983,
 Carnegie Mellon University). Gaussian is a federally registered
 trademark of Gaussian, Inc.
  
 This software contains proprietary and confidential information,
 including trade secrets, belonging to Gaussian, Inc.
  
 This software is provided under written license and may be
 used, copied, transmitted, or stored only in accord with that
 written license.
  
 The following legend is applicable only to US Government
 contracts under FAR:
  
                    RESTRICTED RIGHTS LEGEND
  
 Use, reproduction and disclosure by the US Government is
 subject to restrictions as set forth in subparagraphs (a)
 and (c) of the Commercial Computer Software - Restricted
 Rights clause in FAR 52.227-19.
  
 Gaussian, Inc.
 340 Quinnipiac St., Bldg. 40, Wallingford CT 06492
  
  
 ---------------------------------------------------------------
 Warning -- This program may not be used in any manner that
 competes with the business of Gaussian, Inc. or will provide
 assistance to any competitor of Gaussian, Inc.  The licensee
 of this program is prohibited from giving any competitor of
 Gaussian, Inc. access to this program.  By using this program,
 the user acknowledges that Gaussian, Inc. is engaged in the
 business of creating and licensing software in the field of
 computational chemistry and represents and warrants to the
 licensee that it is not a competitor of Gaussian, Inc. and that
 it will not use this program in any manner prohibited above.
 ---------------------------------------------------------------
  

 Cite this work as:
 Gaussian 09, Revision D.01,
 M. J. Frisch, G. W. Trucks, H. B. Schlegel, G. E. Scuseria, 
 M. A. Robb, J. R. Cheeseman, G. Scalmani, V. Barone, B. Mennucci, 
 G. A. Petersson, H. Nakatsuji, M. Caricato, X. Li, H. P. Hratchian, 
 A. F. Izmaylov, J. Bloino, G. Zheng, J. L. Sonnenberg, M. Hada, 
 M. Ehara, K. Toyota, R. Fukuda, J. Hasegawa, M. Ishida, T. Nakajima, 
 Y. Honda, O. Kitao, H. Nakai, T. Vreven, J. A. Montgomery, Jr., 
 J. E. Peralta, F. Ogliaro, M. Bearpark, J. J. Heyd, E. Brothers, 
 K. N. Kudin, V. N. Staroverov, T. Keith, R. Kobayashi, J. Normand, 
 K. Raghavachari, A. Rendell, J. C. Burant, S. S. Iyengar, J. Tomasi, 
 M. Cossi, N. Rega, J. M. Millam, M. Klene, J. E. Knox, J. B. Cross, 
 V. Bakken, C. Adamo, J. Jaramillo, R. Gomperts, R. E. Stratmann, 
 O. Yazyev, A. J. Austin, R. Cammi, C. Pomelli, J. W. Ochterski, 
 R. L. Martin, K. Morokuma, V. G. Zakrzewski, G. A. Voth, 
 P. Salvador, J. J. Dannenberg, S. Dapprich, A. D. Daniels, 
 O. Farkas, J. B. Foresman, J. V. Ortiz, J. Cioslowski, 
 and D. J. Fox, Gaussian, Inc., Wallingford CT, 2013.
 
 ******************************************
 Gaussian 09:  AS64L-G09RevD.01 24-Apr-2013
                12-Apr-2019 
 ******************************************
 %nproc=1
 Will use up to    1 processors via shared memory.
 %mem=1GB
 %chk=TMP_CALCS/scangeom_S02_270_050.chk
 --------------------------------------------------------------------
 #p hf 3-21g scf=tight NoSymmetry guess=read opt=(tight,modredundant)
 --------------------------------------------------------------------
 1/7=10,18=120,19=15,38=1/1,3;
 2/9=110,12=2,15=1,17=6,18=5,40=1/2;
 3/5=5,11=9,16=1,25=1,30=1,71=1,116=-2/1,2,3;
 4/5=1/1;
 5/5=2,32=2,38=6/2;
 6/7=2,8=2,9=2,10=2,28=1/1;
 7/30=1/1,2,3,16;
 1/7=10,18=20,19=15/3(2);
 2/9=110,15=1/2;
 99//99;
 2/9=110,15=1/2;
 3/5=5,11=9,16=1,25=1,30=1,71=1/1,2,3;
 4/5=5,16=3,69=1/1;
 5/5=2,32=2,38=5/2;
 7/30=1/1,2,3,16;
 1/7=10,18=20,19=15/3(-5);
 2/9=110,15=1/2;
 6/7=2,8=2,9=2,10=2,19=2,28=1/1;
 99/9=1/99;
 Leave Link    1 at Fri Apr 12 15:05:24 2019, MaxMem=   134217728 cpu:         0.1
 (Enter /cm/shared/c3ddb/gaussian/09.d01/g09/l101.exe)
 -----------------------------------
 Geometry optimization at the 2D-PES
 -----------------------------------
 Symbolic Z-matrix:
 Charge =  0 Multiplicity = 1
 C                     0.73188   0.62907   0.03691 
 C                     1.38451  -0.50656  -0.01343 
 H                     1.19688   1.59197   0.06615 
 H                     2.45516  -0.52464  -0.00224 
 H                     0.86492  -1.44442  -0.03076 
 O                    -0.67952   0.65545   0.03877 
 O                    -1.15318   0.72584  -1.35823 
 H                    -0.65883   0.00675  -1.79498 
 
 The following ModRedundant input section has been read:
 D       2       1       6       7 F                                           
 D       1       6       7       8 F                                           
 
 NAtoms=      8 NQM=        8 NQMF=       0 NMMI=      0 NMMIF=      0
                NMic=       0 NMicF=      0.
                    Isotopes and Nuclear Properties:
 (Nuclear quadrupole moments (NQMom) in fm**2, nuclear magnetic moments (NMagM)
  in nuclear magnetons)

  Atom         1           2           3           4           5           6           7           8
 IAtWgt=          12          12           1           1           1          16          16           1
 AtmWgt=  12.0000000  12.0000000   1.0078250   1.0078250   1.0078250  15.9949146  15.9949146   1.0078250
 NucSpn=           0           0           1           1           1           0           0           1
 AtZEff=   0.0000000   0.0000000   0.0000000   0.0000000   0.0000000   0.0000000   0.0000000   0.0000000
 NQMom=    0.0000000   0.0000000   0.0000000   0.0000000   0.0000000   0.0000000   0.0000000   0.0000000
 NMagM=    0.0000000   0.0000000   2.7928460   2.7928460   2.7928460   0.0000000   0.0000000   2.7928460
 AtZNuc=   6.0000000   6.0000000   1.0000000   1.0000000   1.0000000   8.0000000   8.0000000   1.0000000
 Leave Link  101 at Fri Apr 12 15:05:25 2019, MaxMem=   134217728 cpu:         0.2
 (Enter /cm/shared/c3ddb/gaussian/09.d01/g09/l103.exe)

 GradGradGradGradGradGradGradGradGradGradGradGradGradGradGradGradGradGrad
 Berny optimization.
 Initialization pass.
                           ----------------------------
                           !    Initial Parameters    !
                           ! (Angstroms and Degrees)  !
 --------------------------                            --------------------------
 ! Name  Definition              Value          Derivative Info.                !
 --------------------------------------------------------------------------------
 ! R1    R(1,2)                  1.3108         estimate D2E/DX2                !
 ! R2    R(1,3)                  1.0697         estimate D2E/DX2                !
 ! R3    R(1,6)                  1.4116         estimate D2E/DX2                !
 ! R4    R(2,4)                  1.0709         estimate D2E/DX2                !
 ! R5    R(2,5)                  1.0723         estimate D2E/DX2                !
 ! R6    R(6,7)                  1.4768         estimate D2E/DX2                !
 ! R7    R(7,8)                  0.9758         estimate D2E/DX2                !
 ! A1    A(2,1,3)              124.3675         estimate D2E/DX2                !
 ! A2    A(2,1,6)              120.934          estimate D2E/DX2                !
 ! A3    A(3,1,6)              114.6938         estimate D2E/DX2                !
 ! A4    A(1,2,4)              120.7987         estimate D2E/DX2                !
 ! A5    A(1,2,5)              121.1389         estimate D2E/DX2                !
 ! A6    A(4,2,5)              118.0254         estimate D2E/DX2                !
 ! A7    A(1,6,7)              108.6825         estimate D2E/DX2                !
 ! A8    A(6,7,8)              103.0487         estimate D2E/DX2                !
 ! D1    D(3,1,2,4)              1.6179         estimate D2E/DX2                !
 ! D2    D(3,1,2,5)            179.3598         estimate D2E/DX2                !
 ! D3    D(6,1,2,4)           -179.2209         estimate D2E/DX2                !
 ! D4    D(6,1,2,5)             -1.479          estimate D2E/DX2                !
 ! D5    D(2,1,6,7)            -90.0            Frozen                          !
 ! D6    D(3,1,6,7)             89.238          estimate D2E/DX2                !
 ! D7    D(1,6,7,8)             50.0            Frozen                          !
 --------------------------------------------------------------------------------
 Trust Radius=3.00D-01 FncErr=1.00D-07 GrdErr=1.00D-07
 Number of steps in this run=     32 maximum allowed number of steps=    100.
 GradGradGradGradGradGradGradGradGradGradGradGradGradGradGradGradGradGrad

 Leave Link  103 at Fri Apr 12 15:05:25 2019, MaxMem=   134217728 cpu:         0.0
 (Enter /cm/shared/c3ddb/gaussian/09.d01/g09/l202.exe)
                          Input orientation:                          
 ---------------------------------------------------------------------
 Center     Atomic      Atomic             Coordinates (Angstroms)
 Number     Number       Type             X           Y           Z
 ---------------------------------------------------------------------
      1          6           0        0.731884    0.629070    0.036911
      2          6           0        1.384511   -0.506561   -0.013427
      3          1           0        1.196883    1.591968    0.066149
      4          1           0        2.455158   -0.524639   -0.002235
      5          1           0        0.864916   -1.444421   -0.030761
      6          8           0       -0.679518    0.655449    0.038773
      7          8           0       -1.153179    0.725841   -1.358226
      8          1           0       -0.658826    0.006749   -1.794977
 ---------------------------------------------------------------------
                    Distance matrix (angstroms):
                    1          2          3          4          5
     1  C    0.000000
     2  C    1.310768   0.000000
     3  H    1.069697   2.108402   0.000000
     4  H    2.074187   1.070858   2.463322   0.000000
     5  H    2.078856   1.072316   3.056019   1.837303   0.000000
     6  O    1.411650   2.369221   2.097307   3.349699   2.607598
     7  O    2.347176   3.125247   2.881286   4.052469   3.247292
     8  H    2.382682   2.759100   3.069261   3.632244   2.745932
                    6          7          8
     6  O    0.000000
     7  O    1.476792   0.000000
     8  H    1.945220   0.975823   0.000000
 Symmetry turned off by external request.
 Stoichiometry    C2H4O2
 Framework group  C1[X(C2H4O2)]
 Deg. of freedom    18
 Full point group                 C1      NOp   1
 Rotational constants (GHZ):     22.5341248      5.3513052      4.8822392
 Leave Link  202 at Fri Apr 12 15:05:25 2019, MaxMem=   134217728 cpu:         0.0
 (Enter /cm/shared/c3ddb/gaussian/09.d01/g09/l301.exe)
 Standard basis: 3-21G (6D, 7F)
 Ernie: Thresh=  0.10000D-02 Tol=  0.10000D-05 Strict=F.
    44 basis functions,    72 primitive gaussians,    44 cartesian basis functions
    16 alpha electrons       16 beta electrons
       nuclear repulsion energy       117.4968256086 Hartrees.
 IExCor=    0 DFT=F Ex=HF Corr=None ExCW=0 ScaHFX=  1.000000
 ScaDFX=  1.000000  1.000000  1.000000  1.000000 ScalE2=  1.000000  1.000000
 IRadAn=      0 IRanWt=     -1 IRanGd=            0 ICorTp=0 IEmpDi=  4
 NAtoms=    8 NActive=    8 NUniq=    8 SFac= 1.00D+00 NAtFMM=   60 NAOKFM=F Big=F
 Integral buffers will be    131072 words long.
 Raffenetti 1 integral format.
 Two-electron integral symmetry is turned off.
 Leave Link  301 at Fri Apr 12 15:05:25 2019, MaxMem=   134217728 cpu:         0.1
 (Enter /cm/shared/c3ddb/gaussian/09.d01/g09/l302.exe)
 NPDir=0 NMtPBC=     1 NCelOv=     1 NCel=       1 NClECP=     1 NCelD=      1
         NCelK=      1 NCelE2=     1 NClLst=     1 CellRange=     0.0.
 One-electron integrals computed using PRISM.
 NBasis=    44 RedAO= T EigKep=  1.19D-02  NBF=    44
 NBsUse=    44 1.00D-06 EigRej= -1.00D+00 NBFU=    44
 Leave Link  302 at Fri Apr 12 15:05:25 2019, MaxMem=   134217728 cpu:         0.2
 (Enter /cm/shared/c3ddb/gaussian/09.d01/g09/l303.exe)
 DipDrv:  MaxL=1.
 Leave Link  303 at Fri Apr 12 15:05:25 2019, MaxMem=   134217728 cpu:         0.1
 (Enter /cm/shared/c3ddb/gaussian/09.d01/g09/l401.exe)
 Initial guess from the checkpoint file:  "TMP_CALCS/scangeom_S02_270_050.chk"
 B after Tr=    -0.003713    0.002134    0.010810
         Rot=    0.999975    0.005979   -0.003426    0.001480 Ang=   0.81 deg.
 Guess basis will be translated and rotated to current coordinates.
 JPrj=2 DoOrth=T DoCkMO=T.
 Leave Link  401 at Fri Apr 12 15:05:25 2019, MaxMem=   134217728 cpu:         0.2
 (Enter /cm/shared/c3ddb/gaussian/09.d01/g09/l502.exe)
 Closed shell SCF:
 Using DIIS extrapolation, IDIIS=  1040.
 Two-electron integral symmetry not used.
 Keep R1 ints in memory in canonical form, NReq=1327429.
 IVT=       24902 IEndB=       24902 NGot=   134217728 MDV=   133702282
 LenX=   133702282 LenY=   133699905
 Requested convergence on RMS density matrix=1.00D-08 within 128 cycles.
 Requested convergence on MAX density matrix=1.00D-06.
 Requested convergence on             energy=1.00D-06.
 No special actions if energy rises.
 FoFCou: FMM=F IPFlag=           0 FMFlag=           0 FMFlg1=           0
         NFxFlg=           0 DoJE=F BraDBF=F KetDBF=F FulRan=T
         wScrn=  0.000000 ICntrl=     600 IOpCl=  0 I1Cent=           0 NGrid=           0
         NMat0=    1 NMatS0=    990 NMatT0=    0 NMatD0=    1 NMtDS0=    0 NMtDT0=    0
 Symmetry not used in FoFCou.

 Cycle   1  Pass 1  IDiag  1:
 E= -226.382644054676    
 DIIS: error= 6.28D-03 at cycle   1 NSaved=   1.
 NSaved= 1 IEnMin= 1 EnMin= -226.382644054676     IErMin= 1 ErrMin= 6.28D-03
 ErrMax= 6.28D-03  0.00D+00 EMaxC= 1.00D-01 BMatC= 1.97D-03 BMatP= 1.97D-03
 IDIUse=3 WtCom= 9.37D-01 WtEn= 6.28D-02
 Coeff-Com:  0.100D+01
 Coeff-En:   0.100D+01
 Coeff:      0.100D+01
 Gap=     0.542 Goal=   None    Shift=    0.000
 GapD=    0.542 DampG=2.000 DampE=1.000 DampFc=2.0000 IDamp=-1.
 RMSDP=1.13D-03 MaxDP=1.28D-02              OVMax= 1.17D-02

 Cycle   2  Pass 1  IDiag  1:
 E= -226.385630585078     Delta-E=       -0.002986530402 Rises=F Damp=F
 DIIS: error= 2.86D-03 at cycle   2 NSaved=   2.
 NSaved= 2 IEnMin= 2 EnMin= -226.385630585078     IErMin= 2 ErrMin= 2.86D-03
 ErrMax= 2.86D-03  0.00D+00 EMaxC= 1.00D-01 BMatC= 1.84D-04 BMatP= 1.97D-03
 IDIUse=3 WtCom= 9.71D-01 WtEn= 2.86D-02
 Coeff-Com: -0.318D+00 0.132D+01
 Coeff-En:   0.000D+00 0.100D+01
 Coeff:     -0.309D+00 0.131D+01
 Gap=     0.542 Goal=   None    Shift=    0.000
 RMSDP=5.81D-04 MaxDP=5.51D-03 DE=-2.99D-03 OVMax= 8.68D-03

 Cycle   3  Pass 1  IDiag  1:
 E= -226.386121365479     Delta-E=       -0.000490780401 Rises=F Damp=F
 DIIS: error= 9.53D-04 at cycle   3 NSaved=   3.
 NSaved= 3 IEnMin= 3 EnMin= -226.386121365479     IErMin= 3 ErrMin= 9.53D-04
 ErrMax= 9.53D-04  0.00D+00 EMaxC= 1.00D-01 BMatC= 1.65D-05 BMatP= 1.84D-04
 IDIUse=3 WtCom= 9.90D-01 WtEn= 9.53D-03
 Coeff-Com:  0.642D-01-0.423D+00 0.136D+01
 Coeff-En:   0.000D+00 0.000D+00 0.100D+01
 Coeff:      0.636D-01-0.419D+00 0.136D+01
 Gap=     0.542 Goal=   None    Shift=    0.000
 RMSDP=2.40D-04 MaxDP=2.77D-03 DE=-4.91D-04 OVMax= 4.07D-03

 Cycle   4  Pass 1  IDiag  1:
 E= -226.386176700315     Delta-E=       -0.000055334837 Rises=F Damp=F
 DIIS: error= 2.18D-04 at cycle   4 NSaved=   4.
 NSaved= 4 IEnMin= 4 EnMin= -226.386176700315     IErMin= 4 ErrMin= 2.18D-04
 ErrMax= 2.18D-04  0.00D+00 EMaxC= 1.00D-01 BMatC= 3.08D-06 BMatP= 1.65D-05
 IDIUse=3 WtCom= 9.98D-01 WtEn= 2.18D-03
 Coeff-Com:  0.631D-01-0.305D+00 0.361D+00 0.881D+00
 Coeff-En:   0.000D+00 0.000D+00 0.000D+00 0.100D+01
 Coeff:      0.629D-01-0.305D+00 0.361D+00 0.881D+00
 Gap=     0.542 Goal=   None    Shift=    0.000
 RMSDP=8.01D-05 MaxDP=9.88D-04 DE=-5.53D-05 OVMax= 1.32D-03

 Cycle   5  Pass 1  IDiag  1:
 E= -226.386182609670     Delta-E=       -0.000005909355 Rises=F Damp=F
 DIIS: error= 5.61D-05 at cycle   5 NSaved=   5.
 NSaved= 5 IEnMin= 5 EnMin= -226.386182609670     IErMin= 5 ErrMin= 5.61D-05
 ErrMax= 5.61D-05  0.00D+00 EMaxC= 1.00D-01 BMatC= 1.78D-07 BMatP= 3.08D-06
 IDIUse=1 WtCom= 1.00D+00 WtEn= 0.00D+00
 Coeff-Com: -0.266D-02 0.272D-01-0.138D+00 0.919D-01 0.102D+01
 Coeff:     -0.266D-02 0.272D-01-0.138D+00 0.919D-01 0.102D+01
 Gap=     0.542 Goal=   None    Shift=    0.000
 RMSDP=2.11D-05 MaxDP=2.49D-04 DE=-5.91D-06 OVMax= 3.60D-04

 Cycle   6  Pass 1  IDiag  1:
 E= -226.386182917411     Delta-E=       -0.000000307741 Rises=F Damp=F
 DIIS: error= 1.18D-05 at cycle   6 NSaved=   6.
 NSaved= 6 IEnMin= 6 EnMin= -226.386182917411     IErMin= 6 ErrMin= 1.18D-05
 ErrMax= 1.18D-05  0.00D+00 EMaxC= 1.00D-01 BMatC= 9.20D-09 BMatP= 1.78D-07
 IDIUse=1 WtCom= 1.00D+00 WtEn= 0.00D+00
 Coeff-Com: -0.228D-02 0.151D-01-0.473D-01 0.514D-02 0.273D+00 0.756D+00
 Coeff:     -0.228D-02 0.151D-01-0.473D-01 0.514D-02 0.273D+00 0.756D+00
 Gap=     0.542 Goal=   None    Shift=    0.000
 RMSDP=2.55D-06 MaxDP=1.52D-05 DE=-3.08D-07 OVMax= 4.01D-05

 Cycle   7  Pass 1  IDiag  1:
 E= -226.386182930619     Delta-E=       -0.000000013207 Rises=F Damp=F
 DIIS: error= 8.46D-06 at cycle   7 NSaved=   7.
 NSaved= 7 IEnMin= 7 EnMin= -226.386182930619     IErMin= 7 ErrMin= 8.46D-06
 ErrMax= 8.46D-06  0.00D+00 EMaxC= 1.00D-01 BMatC= 1.35D-09 BMatP= 9.20D-09
 IDIUse=1 WtCom= 1.00D+00 WtEn= 0.00D+00
 Coeff-Com:  0.777D-03-0.662D-02 0.281D-01-0.126D-01-0.206D+00-0.160D+00
 Coeff-Com:  0.136D+01
 Coeff:      0.777D-03-0.662D-02 0.281D-01-0.126D-01-0.206D+00-0.160D+00
 Coeff:      0.136D+01
 Gap=     0.542 Goal=   None    Shift=    0.000
 RMSDP=2.13D-06 MaxDP=1.38D-05 DE=-1.32D-08 OVMax= 4.57D-05

 Cycle   8  Pass 1  IDiag  1:
 E= -226.386182936145     Delta-E=       -0.000000005526 Rises=F Damp=F
 DIIS: error= 4.39D-06 at cycle   8 NSaved=   8.
 NSaved= 8 IEnMin= 8 EnMin= -226.386182936145     IErMin= 8 ErrMin= 4.39D-06
 ErrMax= 4.39D-06  0.00D+00 EMaxC= 1.00D-01 BMatC= 2.29D-10 BMatP= 1.35D-09
 IDIUse=1 WtCom= 1.00D+00 WtEn= 0.00D+00
 Coeff-Com:  0.212D-03-0.117D-02 0.265D-02 0.114D-02-0.939D-02-0.853D-01
 Coeff-Com: -0.196D+00 0.129D+01
 Coeff:      0.212D-03-0.117D-02 0.265D-02 0.114D-02-0.939D-02-0.853D-01
 Coeff:     -0.196D+00 0.129D+01
 Gap=     0.542 Goal=   None    Shift=    0.000
 RMSDP=1.04D-06 MaxDP=7.69D-06 DE=-5.53D-09 OVMax= 2.61D-05

 Cycle   9  Pass 1  IDiag  1:
 E= -226.386182937326     Delta-E=       -0.000000001181 Rises=F Damp=F
 DIIS: error= 1.99D-06 at cycle   9 NSaved=   9.
 NSaved= 9 IEnMin= 9 EnMin= -226.386182937326     IErMin= 9 ErrMin= 1.99D-06
 ErrMax= 1.99D-06  0.00D+00 EMaxC= 1.00D-01 BMatC= 4.44D-11 BMatP= 2.29D-10
 IDIUse=1 WtCom= 1.00D+00 WtEn= 0.00D+00
 Coeff-Com: -0.157D-03 0.133D-02-0.551D-02 0.231D-02 0.401D-01 0.384D-01
 Coeff-Com: -0.269D+00-0.100D+00 0.129D+01
 Coeff:     -0.157D-03 0.133D-02-0.551D-02 0.231D-02 0.401D-01 0.384D-01
 Coeff:     -0.269D+00-0.100D+00 0.129D+01
 Gap=     0.542 Goal=   None    Shift=    0.000
 RMSDP=5.71D-07 MaxDP=3.93D-06 DE=-1.18D-09 OVMax= 1.50D-05

 Cycle  10  Pass 1  IDiag  1:
 E= -226.386182937574     Delta-E=       -0.000000000249 Rises=F Damp=F
 DIIS: error= 6.05D-07 at cycle  10 NSaved=  10.
 NSaved=10 IEnMin=10 EnMin= -226.386182937574     IErMin=10 ErrMin= 6.05D-07
 ErrMax= 6.05D-07  0.00D+00 EMaxC= 1.00D-01 BMatC= 5.64D-12 BMatP= 4.44D-11
 IDIUse=1 WtCom= 1.00D+00 WtEn= 0.00D+00
 Coeff-Com: -0.728D-05-0.257D-04 0.437D-03-0.535D-03-0.466D-02 0.980D-02
 Coeff-Com:  0.535D-01-0.148D+00-0.180D+00 0.127D+01
 Coeff:     -0.728D-05-0.257D-04 0.437D-03-0.535D-03-0.466D-02 0.980D-02
 Coeff:      0.535D-01-0.148D+00-0.180D+00 0.127D+01
 Gap=     0.542 Goal=   None    Shift=    0.000
 RMSDP=1.82D-07 MaxDP=1.05D-06 DE=-2.49D-10 OVMax= 4.88D-06

 Cycle  11  Pass 1  IDiag  1:
 E= -226.386182937601     Delta-E=       -0.000000000026 Rises=F Damp=F
 DIIS: error= 1.55D-07 at cycle  11 NSaved=  11.
 NSaved=11 IEnMin=11 EnMin= -226.386182937601     IErMin=11 ErrMin= 1.55D-07
 ErrMax= 1.55D-07  0.00D+00 EMaxC= 1.00D-01 BMatC= 8.77D-13 BMatP= 5.64D-12
 IDIUse=1 WtCom= 1.00D+00 WtEn= 0.00D+00
 Coeff-Com:  0.324D-04-0.273D-03 0.113D-02-0.493D-03-0.838D-02-0.518D-02
 Coeff-Com:  0.513D-01 0.120D-01-0.239D+00 0.110D+00 0.108D+01
 Coeff:      0.324D-04-0.273D-03 0.113D-02-0.493D-03-0.838D-02-0.518D-02
 Coeff:      0.513D-01 0.120D-01-0.239D+00 0.110D+00 0.108D+01
 Gap=     0.542 Goal=   None    Shift=    0.000
 RMSDP=5.25D-08 MaxDP=3.45D-07 DE=-2.65D-11 OVMax= 1.28D-06

 Cycle  12  Pass 1  IDiag  1:
 E= -226.386182937603     Delta-E=       -0.000000000003 Rises=F Damp=F
 DIIS: error= 4.50D-08 at cycle  12 NSaved=  12.
 NSaved=12 IEnMin=12 EnMin= -226.386182937603     IErMin=12 ErrMin= 4.50D-08
 ErrMax= 4.50D-08  0.00D+00 EMaxC= 1.00D-01 BMatC= 6.76D-14 BMatP= 8.77D-13
 IDIUse=1 WtCom= 1.00D+00 WtEn= 0.00D+00
 Coeff-Com: -0.934D-05 0.853D-04-0.384D-03 0.212D-03 0.294D-02 0.618D-03
 Coeff-Com: -0.225D-01 0.181D-01 0.855D-01-0.185D+00-0.290D+00 0.139D+01
 Coeff:     -0.934D-05 0.853D-04-0.384D-03 0.212D-03 0.294D-02 0.618D-03
 Coeff:     -0.225D-01 0.181D-01 0.855D-01-0.185D+00-0.290D+00 0.139D+01
 Gap=     0.542 Goal=   None    Shift=    0.000
 RMSDP=1.76D-08 MaxDP=1.38D-07 DE=-2.61D-12 OVMax= 3.63D-07

 Cycle  13  Pass 1  IDiag  1:
 E= -226.386182937603     Delta-E=        0.000000000000 Rises=F Damp=F
 DIIS: error= 8.43D-09 at cycle  13 NSaved=  13.
 NSaved=13 IEnMin=12 EnMin= -226.386182937603     IErMin=13 ErrMin= 8.43D-09
 ErrMax= 8.43D-09  0.00D+00 EMaxC= 1.00D-01 BMatC= 2.29D-15 BMatP= 6.76D-14
 IDIUse=1 WtCom= 1.00D+00 WtEn= 0.00D+00
 Coeff-Com:  0.190D-05-0.184D-04 0.879D-04-0.491D-04-0.700D-03-0.497D-04
 Coeff-Com:  0.570D-02-0.677D-02-0.201D-01 0.585D-01 0.532D-01-0.472D+00
 Coeff-Com:  0.138D+01
 Coeff:      0.190D-05-0.184D-04 0.879D-04-0.491D-04-0.700D-03-0.497D-04
 Coeff:      0.570D-02-0.677D-02-0.201D-01 0.585D-01 0.532D-01-0.472D+00
 Coeff:      0.138D+01
 Gap=     0.542 Goal=   None    Shift=    0.000
 RMSDP=3.62D-09 MaxDP=2.86D-08 DE= 5.68D-14 OVMax= 6.95D-08

 SCF Done:  E(RHF) =  -226.386182938     A.U. after   13 cycles
            NFock= 13  Conv=0.36D-08     -V/T= 2.0035
 KE= 2.256061619292D+02 PE=-7.681974264927D+02 EE= 1.987082560174D+02
 Leave Link  502 at Fri Apr 12 15:05:26 2019, MaxMem=   134217728 cpu:         0.2
 (Enter /cm/shared/c3ddb/gaussian/09.d01/g09/l601.exe)
 Copying SCF densities to generalized density rwf, IOpCl= 0 IROHF=0.

 **********************************************************************

            Population analysis using the SCF density.

 **********************************************************************

 Alpha  occ. eigenvalues --  -20.52936 -20.52114 -11.25087 -11.19429  -1.46677
 Alpha  occ. eigenvalues --   -1.23357  -1.04879  -0.80693  -0.72529  -0.66293
 Alpha  occ. eigenvalues --   -0.62860  -0.59572  -0.56295  -0.50974  -0.45064
 Alpha  occ. eigenvalues --   -0.39979
 Alpha virt. eigenvalues --    0.14183   0.25028   0.27834   0.30307   0.30732
 Alpha virt. eigenvalues --    0.36052   0.49095   0.55118   0.87752   0.96231
 Alpha virt. eigenvalues --    0.98436   1.05175   1.08487   1.10532   1.23908
 Alpha virt. eigenvalues --    1.30722   1.36221   1.56198   1.59220   1.76118
 Alpha virt. eigenvalues --    1.80917   1.84824   1.97111   2.07489   2.08597
 Alpha virt. eigenvalues --    2.18488   3.07539   3.47550
          Condensed to atoms (all electrons):
               1          2          3          4          5          6
     1  C    4.945663   0.452046   0.380196  -0.037692  -0.051282   0.249425
     2  C    0.452046   5.387699  -0.066736   0.370090   0.387295  -0.064938
     3  H    0.380196  -0.066736   0.470479   0.001388   0.002174  -0.037971
     4  H   -0.037692   0.370090   0.001388   0.442017  -0.014541   0.001493
     5  H   -0.051282   0.387295   0.002174  -0.014541   0.431137  -0.000484
     6  O    0.249425  -0.064938  -0.037971   0.001493  -0.000484   8.137475
     7  O   -0.036810  -0.002765   0.001863  -0.000015   0.000031   0.126325
     8  H   -0.001381   0.006219  -0.000044  -0.000051   0.000595  -0.026150
               7          8
     1  C   -0.036810  -0.001381
     2  C   -0.002765   0.006219
     3  H    0.001863  -0.000044
     4  H   -0.000015  -0.000051
     5  H    0.000031   0.000595
     6  O    0.126325  -0.026150
     7  O    8.051449   0.233759
     8  H    0.233759   0.390009
 Mulliken charges:
               1
     1  C    0.099836
     2  C   -0.468910
     3  H    0.248652
     4  H    0.237311
     5  H    0.245076
     6  O   -0.385175
     7  O   -0.373836
     8  H    0.397047
 Sum of Mulliken charges =   0.00000
 Mulliken charges with hydrogens summed into heavy atoms:
               1
     1  C    0.348488
     2  C    0.013477
     6  O   -0.385175
     7  O    0.023210
 Electronic spatial extent (au):  <R**2>=            310.0955
 Charge=              0.0000 electrons
 Dipole moment (field-independent basis, Debye):
    X=              3.0829    Y=             -1.5996    Z=             -1.0020  Tot=              3.6148
 Quadrupole moment (field-independent basis, Debye-Ang):
   XX=            -24.7163   YY=            -23.0419   ZZ=            -22.7383
   XY=              2.8326   XZ=             -0.5435   YZ=              2.1208
 Traceless Quadrupole moment (field-independent basis, Debye-Ang):
   XX=             -1.2174   YY=              0.4569   ZZ=              0.7605
   XY=              2.8326   XZ=             -0.5435   YZ=              2.1208
 Octapole moment (field-independent basis, Debye-Ang**2):
  XXX=             -2.8361  YYY=            -23.4031  ZZZ=             16.8399  XYY=             -0.0641
  XXY=            -10.3297  XXZ=             10.3676  XZZ=             -6.0107  YZZ=            -10.6929
  YYZ=              9.6474  XYZ=             -2.2527
 Hexadecapole moment (field-independent basis, Debye-Ang**3):
 XXXX=           -176.5206 YYYY=            -83.7804 ZZZZ=            -73.1894 XXXY=             26.9728
 XXXZ=            -30.6557 YYYX=             30.0377 YYYZ=             16.6776 ZZZX=            -24.2230
 ZZZY=             19.2197 XXYY=            -45.9551 XXZZ=            -52.1654 YYZZ=            -33.3958
 XXYZ=              7.9866 YYXZ=            -10.6696 ZZXY=             12.5867
 N-N= 1.174968256086D+02 E-N=-7.681974265588D+02  KE= 2.256061619292D+02
 No NMR shielding tensors so no spin-rotation constants.
 Leave Link  601 at Fri Apr 12 15:05:26 2019, MaxMem=   134217728 cpu:         0.1
 (Enter /cm/shared/c3ddb/gaussian/09.d01/g09/l701.exe)
 Compute integral first derivatives.
 ... and contract with generalized density number  0.
 Leave Link  701 at Fri Apr 12 15:05:26 2019, MaxMem=   134217728 cpu:         0.2
 (Enter /cm/shared/c3ddb/gaussian/09.d01/g09/l702.exe)
 L702 exits ... SP integral derivatives will be done elsewhere.
 Leave Link  702 at Fri Apr 12 15:05:26 2019, MaxMem=   134217728 cpu:         0.1
 (Enter /cm/shared/c3ddb/gaussian/09.d01/g09/l703.exe)
 Compute integral first derivatives, UseDBF=F ICtDFT=           0.
 Integral derivatives from FoFJK, PRISM(SPDF).
 Calling FoFJK, ICntrl=      2127 FMM=F ISym2X=0 I1Cent= 0 IOpClX= 0 NMat=1 NMatS=1 NMatT=0.
 FoFJK:  IHMeth= 1 ICntrl=    2127 DoSepK=F KAlg= 0 I1Cent=   0 FoldK=F
 IRaf=         0 NMat=   1 IRICut=       1 DoRegI=T DoRafI=F ISym2E= 0.
 FoFCou: FMM=F IPFlag=           0 FMFlag=      100000 FMFlg1=         800
         NFxFlg=           0 DoJE=F BraDBF=F KetDBF=F FulRan=T
         wScrn=  0.000000 ICntrl=    2127 IOpCl=  0 I1Cent=           0 NGrid=           0
         NMat0=    1 NMatS0=      1 NMatT0=    0 NMatD0=    1 NMtDS0=    0 NMtDT0=    0
 Symmetry not used in FoFCou.
 Leave Link  703 at Fri Apr 12 15:05:27 2019, MaxMem=   134217728 cpu:         0.2
 (Enter /cm/shared/c3ddb/gaussian/09.d01/g09/l716.exe)
 Dipole        = 1.21290573D+00-6.29348482D-01-3.94218593D-01
 -------------------------------------------------------------------
 Center     Atomic                   Forces (Hartrees/Bohr)
 Number     Number              X              Y              Z
 -------------------------------------------------------------------
      1        6           0.000416455    0.003518136   -0.004352969
      2        6          -0.000151870    0.000355660    0.002419257
      3        1          -0.000155066   -0.000126347   -0.000138492
      4        1          -0.000064272   -0.000100142    0.000084185
      5        1           0.000116601   -0.000163121    0.000004836
      6        8          -0.001826468   -0.007261828   -0.000136970
      7        8           0.004209990    0.006424646    0.000245450
      8        1          -0.002545370   -0.002647005    0.001874702
 -------------------------------------------------------------------
 Cartesian Forces:  Max     0.007261828 RMS     0.002659663
 Leave Link  716 at Fri Apr 12 15:05:27 2019, MaxMem=   134217728 cpu:         0.1
 (Enter /cm/shared/c3ddb/gaussian/09.d01/g09/l103.exe)

 GradGradGradGradGradGradGradGradGradGradGradGradGradGradGradGradGradGrad
 Berny optimization.
 FormGI is forming the generalized inverse of G from B-inverse, IUseBI=4.
 Internal  Forces:  Max     0.007145621 RMS     0.001981715
 Search for a local minimum.
 Step number   1 out of a maximum of   32
 All quantities printed in internal units (Hartrees-Bohrs-Radians)
 RMS Force = .88935D-03 SwitMx=.10000D-02 MixMth= 2
 Mixed Optimization -- En-DIIS/RFO-DIIS
 Second derivative matrix not updated -- first step.
 ITU=  0
     Eigenvalues ---    0.02487   0.03269   0.03274   0.15999   0.16000
     Eigenvalues ---    0.16000   0.16000   0.22000   0.25000   0.34939
     Eigenvalues ---    0.36939   0.37122   0.37268   0.43743   0.52205
     Eigenvalues ---    0.642891000.000001000.000001000.000001000.00000
     Eigenvalues --- 1000.000001000.00000
 RFO step:  Lambda=-6.64289728D-05 EMin= 2.48657622D-02
 Linear search not attempted -- first point.
 Iteration  1 RMS(Cart)=  0.01075557 RMS(Int)=  0.00006162
 Iteration  2 RMS(Cart)=  0.00005890 RMS(Int)=  0.00000068
 Iteration  3 RMS(Cart)=  0.00000000 RMS(Int)=  0.00000068
 Iteration  1 RMS(Cart)=  0.00000018 RMS(Int)=  0.00000007
 ITry= 1 IFail=0 DXMaxC= 2.97D-02 DCOld= 1.00D+10 DXMaxT= 3.00D-01 DXLimC= 3.00D+00 Rises=F
 Variable       Old X    -DE/DX   Delta X   Delta X   Delta X     New X
                                 (Linear)    (Quad)   (Total)
    R1        2.47699  -0.00023   0.00000  -0.00035  -0.00035   2.47664
    R2        2.02143  -0.00018   0.00000  -0.00050  -0.00050   2.02094
    R3        2.66763   0.00010   0.00000   0.00023   0.00023   2.66786
    R4        2.02363  -0.00006   0.00000  -0.00017  -0.00017   2.02346
    R5        2.02638   0.00009   0.00000   0.00023   0.00023   2.02662
    R6        2.79073  -0.00236   0.00000  -0.00675  -0.00675   2.78398
    R7        1.84404  -0.00018   0.00000  -0.00034  -0.00034   1.84370
    A1        2.17062   0.00001   0.00000   0.00006   0.00006   2.17068
    A2        2.11070   0.00020   0.00000   0.00086   0.00086   2.11155
    A3        2.00178  -0.00019   0.00000  -0.00096  -0.00096   2.00082
    A4        2.10833   0.00001   0.00000   0.00003   0.00003   2.10836
    A5        2.11427   0.00018   0.00000   0.00109   0.00109   2.11536
    A6        2.05993  -0.00019   0.00000  -0.00120  -0.00120   2.05873
    A7        1.89687  -0.00246   0.00000  -0.00984  -0.00984   1.88703
    A8        1.79854  -0.00197   0.00000  -0.01233  -0.01233   1.78620
    D1        0.02824  -0.00077   0.00000   0.00402   0.00402   0.03226
    D2        3.13042  -0.00085   0.00000   0.00150   0.00150   3.13191
    D3       -3.12800   0.00092   0.00000   0.00056   0.00056  -3.12744
    D4       -0.02581   0.00083   0.00000  -0.00197  -0.00197  -0.02778
    D5       -1.57080  -0.00355   0.00000   0.00000   0.00000  -1.57080
    D6        1.55750  -0.00202   0.00000  -0.00314  -0.00314   1.55436
    D7        0.87266   0.00715   0.00000   0.00000   0.00000   0.87266
         Item               Value     Threshold  Converged?
 Maximum Force            0.002461     0.000015     NO 
 RMS     Force            0.000889     0.000010     NO 
 Maximum Displacement     0.029734     0.000060     NO 
 RMS     Displacement     0.010751     0.000040     NO 
 Predicted change in Energy=-3.322364D-05
 Lowest energy point so far.  Saving SCF results.
 GradGradGradGradGradGradGradGradGradGradGradGradGradGradGradGradGradGrad

 Leave Link  103 at Fri Apr 12 15:05:27 2019, MaxMem=   134217728 cpu:         0.0
 (Enter /cm/shared/c3ddb/gaussian/09.d01/g09/l202.exe)
                          Input orientation:                          
 ---------------------------------------------------------------------
 Center     Atomic      Atomic             Coordinates (Angstroms)
 Number     Number       Type             X           Y           Z
 ---------------------------------------------------------------------
      1          6           0        0.727686    0.628782    0.035313
      2          6           0        1.380665   -0.506331   -0.017252
      3          1           0        1.192053    1.591785    0.061343
      4          1           0        2.451248   -0.523952   -0.007712
      5          1           0        0.862498   -1.445157   -0.032550
      6          8           0       -0.683819    0.655688    0.040080
      7          8           0       -1.145411    0.727165   -1.357132
      8          1           0       -0.643092    0.005477   -1.779884
 ---------------------------------------------------------------------
                    Distance matrix (angstroms):
                    1          2          3          4          5
     1  C    0.000000
     2  C    1.310582   0.000000
     3  H    1.069434   2.108042   0.000000
     4  H    2.073961   1.070770   2.463064   0.000000
     5  H    2.079423   1.072439   3.056213   1.836671   0.000000
     6  O    1.411770   2.369741   2.096575   3.349998   2.609583
     7  O    2.336038   3.114138   2.867643   4.040072   3.241172
     8  H    2.358492   2.732108   3.045365   3.604973   2.724760
                    6          7          8
     6  O    0.000000
     7  O    1.473220   0.000000
     8  H    1.933055   0.975642   0.000000
 Symmetry turned off by external request.
 Stoichiometry    C2H4O2
 Framework group  C1[X(C2H4O2)]
 Deg. of freedom    18
 Full point group                 C1      NOp   1
 Rotational constants (GHZ):     22.4843538      5.3836731      4.9103557
 Leave Link  202 at Fri Apr 12 15:05:27 2019, MaxMem=   134217728 cpu:         0.0
 (Enter /cm/shared/c3ddb/gaussian/09.d01/g09/l301.exe)
 Standard basis: 3-21G (6D, 7F)
 Ernie: Thresh=  0.10000D-02 Tol=  0.10000D-05 Strict=F.
    44 basis functions,    72 primitive gaussians,    44 cartesian basis functions
    16 alpha electrons       16 beta electrons
       nuclear repulsion energy       117.6874581629 Hartrees.
 IExCor=    0 DFT=F Ex=HF Corr=None ExCW=0 ScaHFX=  1.000000
 ScaDFX=  1.000000  1.000000  1.000000  1.000000 ScalE2=  1.000000  1.000000
 IRadAn=      0 IRanWt=     -1 IRanGd=            0 ICorTp=0 IEmpDi=  4
 NAtoms=    8 NActive=    8 NUniq=    8 SFac= 1.00D+00 NAtFMM=   60 NAOKFM=F Big=F
 Integral buffers will be    131072 words long.
 Raffenetti 1 integral format.
 Two-electron integral symmetry is turned off.
 Leave Link  301 at Fri Apr 12 15:05:27 2019, MaxMem=   134217728 cpu:         0.1
 (Enter /cm/shared/c3ddb/gaussian/09.d01/g09/l302.exe)
 NPDir=0 NMtPBC=     1 NCelOv=     1 NCel=       1 NClECP=     1 NCelD=      1
         NCelK=      1 NCelE2=     1 NClLst=     1 CellRange=     0.0.
 One-electron integrals computed using PRISM.
 NBasis=    44 RedAO= T EigKep=  1.19D-02  NBF=    44
 NBsUse=    44 1.00D-06 EigRej= -1.00D+00 NBFU=    44
 Leave Link  302 at Fri Apr 12 15:05:27 2019, MaxMem=   134217728 cpu:         0.2
 (Enter /cm/shared/c3ddb/gaussian/09.d01/g09/l303.exe)
 DipDrv:  MaxL=1.
 Leave Link  303 at Fri Apr 12 15:05:27 2019, MaxMem=   134217728 cpu:         0.0
 (Enter /cm/shared/c3ddb/gaussian/09.d01/g09/l401.exe)
 Initial guess from the checkpoint file:  "TMP_CALCS/scangeom_S02_270_050.chk"
 B after Tr=    -0.001829   -0.000468   -0.001778
         Rot=    1.000000   -0.000777    0.000537    0.000086 Ang=  -0.11 deg.
 Guess basis will be translated and rotated to current coordinates.
 JPrj=2 DoOrth=T DoCkMO=T.
 Generating alternative initial guess.
 ExpMin= 1.83D-01 ExpMax= 3.22D+02 ExpMxC= 3.22D+02 IAcc=1 IRadAn=         1 AccDes= 0.00D+00
 Harris functional with IExCor=  205 and IRadAn=       1 diagonalized for initial guess.
 HarFok:  IExCor=  205 AccDes= 0.00D+00 IRadAn=         1 IDoV= 1 UseB2=F ITyADJ=14
 ICtDFT=  3500011 ScaDFX=  1.000000  1.000000  1.000000  1.000000
 FoFCou: FMM=F IPFlag=           0 FMFlag=      100000 FMFlg1=           0
         NFxFlg=           0 DoJE=T BraDBF=F KetDBF=T FulRan=T
         wScrn=  0.000000 ICntrl=     500 IOpCl=  0 I1Cent=   200000004 NGrid=           0
         NMat0=    1 NMatS0=      1 NMatT0=    0 NMatD0=    1 NMtDS0=    0 NMtDT0=    0
 Symmetry not used in FoFCou.
 Harris En= -226.610077208981    
 Leave Link  401 at Fri Apr 12 15:05:28 2019, MaxMem=   134217728 cpu:         0.4
 (Enter /cm/shared/c3ddb/gaussian/09.d01/g09/l502.exe)
 Closed shell SCF:
 Using DIIS extrapolation, IDIIS=  1040.
 Two-electron integral symmetry not used.
 Keep R1 ints in memory in canonical form, NReq=1327429.
 IVT=       24902 IEndB=       24902 NGot=   134217728 MDV=   133702282
 LenX=   133702282 LenY=   133699905
 Requested convergence on RMS density matrix=1.00D-08 within 128 cycles.
 Requested convergence on MAX density matrix=1.00D-06.
 Requested convergence on             energy=1.00D-06.
 No special actions if energy rises.
 FoFCou: FMM=F IPFlag=           0 FMFlag=           0 FMFlg1=           0
         NFxFlg=           0 DoJE=F BraDBF=F KetDBF=F FulRan=T
         wScrn=  0.000000 ICntrl=     600 IOpCl=  0 I1Cent=           0 NGrid=           0
         NMat0=    1 NMatS0=    990 NMatT0=    0 NMatD0=    1 NMtDS0=    0 NMtDT0=    0
 Symmetry not used in FoFCou.

 Cycle   1  Pass 1  IDiag  1:
 E= -226.386134297179    
 DIIS: error= 7.48D-04 at cycle   1 NSaved=   1.
 NSaved= 1 IEnMin= 1 EnMin= -226.386134297179     IErMin= 1 ErrMin= 7.48D-04
 ErrMax= 7.48D-04  0.00D+00 EMaxC= 1.00D-01 BMatC= 3.95D-05 BMatP= 3.95D-05
 IDIUse=3 WtCom= 9.93D-01 WtEn= 7.48D-03
 Coeff-Com:  0.100D+01
 Coeff-En:   0.100D+01
 Coeff:      0.100D+01
 Gap=     0.954 Goal=   None    Shift=    0.000
 RMSDP=1.40D-04 MaxDP=9.01D-04              OVMax= 1.26D-03

 Cycle   2  Pass 1  IDiag  1:
 E= -226.386184978843     Delta-E=       -0.000050681664 Rises=F Damp=F
 DIIS: error= 3.06D-04 at cycle   2 NSaved=   2.
 NSaved= 2 IEnMin= 2 EnMin= -226.386184978843     IErMin= 2 ErrMin= 3.06D-04
 ErrMax= 3.06D-04  0.00D+00 EMaxC= 1.00D-01 BMatC= 2.88D-06 BMatP= 3.95D-05
 IDIUse=3 WtCom= 9.97D-01 WtEn= 3.06D-03
 Coeff-Com: -0.182D+00 0.118D+01
 Coeff-En:   0.000D+00 0.100D+01
 Coeff:     -0.181D+00 0.118D+01
 Gap=     0.543 Goal=   None    Shift=    0.000
 RMSDP=6.14D-05 MaxDP=4.99D-04 DE=-5.07D-05 OVMax= 9.32D-04

 Cycle   3  Pass 1  IDiag  1:
 E= -226.386193438592     Delta-E=       -0.000008459749 Rises=F Damp=F
 DIIS: error= 1.14D-04 at cycle   3 NSaved=   3.
 NSaved= 3 IEnMin= 3 EnMin= -226.386193438592     IErMin= 3 ErrMin= 1.14D-04
 ErrMax= 1.14D-04  0.00D+00 EMaxC= 1.00D-01 BMatC= 4.60D-07 BMatP= 2.88D-06
 IDIUse=3 WtCom= 9.99D-01 WtEn= 1.14D-03
 Coeff-Com: -0.132D-01-0.198D+00 0.121D+01
 Coeff-En:   0.000D+00 0.000D+00 0.100D+01
 Coeff:     -0.132D-01-0.198D+00 0.121D+01
 Gap=     0.543 Goal=   None    Shift=    0.000
 RMSDP=2.86D-05 MaxDP=2.55D-04 DE=-8.46D-06 OVMax= 5.04D-04

 Cycle   4  Pass 1  IDiag  1:
 E= -226.386194879219     Delta-E=       -0.000001440627 Rises=F Damp=F
 DIIS: error= 5.78D-05 at cycle   4 NSaved=   4.
 NSaved= 4 IEnMin= 4 EnMin= -226.386194879219     IErMin= 4 ErrMin= 5.78D-05
 ErrMax= 5.78D-05  0.00D+00 EMaxC= 1.00D-01 BMatC= 1.42D-07 BMatP= 4.60D-07
 IDIUse=1 WtCom= 1.00D+00 WtEn= 0.00D+00
 Coeff-Com:  0.291D-01-0.286D+00 0.412D+00 0.844D+00
 Coeff:      0.291D-01-0.286D+00 0.412D+00 0.844D+00
 Gap=     0.543 Goal=   None    Shift=    0.000
 RMSDP=1.28D-05 MaxDP=1.17D-04 DE=-1.44D-06 OVMax= 2.55D-04

 Cycle   5  Pass 1  IDiag  1:
 E= -226.386195168942     Delta-E=       -0.000000289724 Rises=F Damp=F
 DIIS: error= 3.05D-05 at cycle   5 NSaved=   5.
 NSaved= 5 IEnMin= 5 EnMin= -226.386195168942     IErMin= 5 ErrMin= 3.05D-05
 ErrMax= 3.05D-05  0.00D+00 EMaxC= 1.00D-01 BMatC= 1.23D-08 BMatP= 1.42D-07
 IDIUse=1 WtCom= 1.00D+00 WtEn= 0.00D+00
 Coeff-Com: -0.541D-02 0.103D+00-0.278D+00-0.263D+00 0.144D+01
 Coeff:     -0.541D-02 0.103D+00-0.278D+00-0.263D+00 0.144D+01
 Gap=     0.543 Goal=   None    Shift=    0.000
 RMSDP=7.12D-06 MaxDP=6.51D-05 DE=-2.90D-07 OVMax= 1.68D-04

 Cycle   6  Pass 1  IDiag  1:
 E= -226.386195224130     Delta-E=       -0.000000055188 Rises=F Damp=F
 DIIS: error= 8.89D-06 at cycle   6 NSaved=   6.
 NSaved= 6 IEnMin= 6 EnMin= -226.386195224130     IErMin= 6 ErrMin= 8.89D-06
 ErrMax= 8.89D-06  0.00D+00 EMaxC= 1.00D-01 BMatC= 1.38D-09 BMatP= 1.23D-08
 IDIUse=1 WtCom= 1.00D+00 WtEn= 0.00D+00
 Coeff-Com: -0.225D-02 0.210D-01-0.230D-01-0.693D-01-0.606D-01 0.113D+01
 Coeff:     -0.225D-02 0.210D-01-0.230D-01-0.693D-01-0.606D-01 0.113D+01
 Gap=     0.543 Goal=   None    Shift=    0.000
 RMSDP=2.08D-06 MaxDP=1.62D-05 DE=-5.52D-08 OVMax= 4.61D-05

 Cycle   7  Pass 1  IDiag  1:
 E= -226.386195229711     Delta-E=       -0.000000005580 Rises=F Damp=F
 DIIS: error= 3.28D-06 at cycle   7 NSaved=   7.
 NSaved= 7 IEnMin= 7 EnMin= -226.386195229711     IErMin= 7 ErrMin= 3.28D-06
 ErrMax= 3.28D-06  0.00D+00 EMaxC= 1.00D-01 BMatC= 2.66D-10 BMatP= 1.38D-09
 IDIUse=1 WtCom= 1.00D+00 WtEn= 0.00D+00
 Coeff-Com:  0.122D-02-0.218D-01 0.574D-01 0.579D-01-0.310D+00-0.249D-02
 Coeff-Com:  0.122D+01
 Coeff:      0.122D-02-0.218D-01 0.574D-01 0.579D-01-0.310D+00-0.249D-02
 Coeff:      0.122D+01
 Gap=     0.543 Goal=   None    Shift=    0.000
 RMSDP=1.14D-06 MaxDP=7.98D-06 DE=-5.58D-09 OVMax= 2.21D-05

 Cycle   8  Pass 1  IDiag  1:
 E= -226.386195230909     Delta-E=       -0.000000001198 Rises=F Damp=F
 DIIS: error= 1.38D-06 at cycle   8 NSaved=   8.
 NSaved= 8 IEnMin= 8 EnMin= -226.386195230909     IErMin= 8 ErrMin= 1.38D-06
 ErrMax= 1.38D-06  0.00D+00 EMaxC= 1.00D-01 BMatC= 3.21D-11 BMatP= 2.66D-10
 IDIUse=1 WtCom= 1.00D+00 WtEn= 0.00D+00
 Coeff-Com:  0.165D-03-0.954D-03-0.152D-02 0.776D-02 0.168D-01-0.117D+00
 Coeff-Com: -0.536D-01 0.115D+01
 Coeff:      0.165D-03-0.954D-03-0.152D-02 0.776D-02 0.168D-01-0.117D+00
 Coeff:     -0.536D-01 0.115D+01
 Gap=     0.543 Goal=   None    Shift=    0.000
 RMSDP=3.32D-07 MaxDP=2.06D-06 DE=-1.20D-09 OVMax= 7.83D-06

 Cycle   9  Pass 1  IDiag  1:
 E= -226.386195231032     Delta-E=       -0.000000000123 Rises=F Damp=F
 DIIS: error= 6.60D-07 at cycle   9 NSaved=   9.
 NSaved= 9 IEnMin= 9 EnMin= -226.386195231032     IErMin= 9 ErrMin= 6.60D-07
 ErrMax= 6.60D-07  0.00D+00 EMaxC= 1.00D-01 BMatC= 6.60D-12 BMatP= 3.21D-11
 IDIUse=1 WtCom= 1.00D+00 WtEn= 0.00D+00
 Coeff-Com: -0.277D-03 0.501D-02-0.135D-01-0.120D-01 0.679D-01 0.946D-02
 Coeff-Com: -0.272D+00-0.480D-02 0.122D+01
 Coeff:     -0.277D-03 0.501D-02-0.135D-01-0.120D-01 0.679D-01 0.946D-02
 Coeff:     -0.272D+00-0.480D-02 0.122D+01
 Gap=     0.543 Goal=   None    Shift=    0.000
 RMSDP=1.71D-07 MaxDP=1.05D-06 DE=-1.23D-10 OVMax= 4.36D-06

 Cycle  10  Pass 1  IDiag  1:
 E= -226.386195231060     Delta-E=       -0.000000000028 Rises=F Damp=F
 DIIS: error= 2.61D-07 at cycle  10 NSaved=  10.
 NSaved=10 IEnMin=10 EnMin= -226.386195231060     IErMin=10 ErrMin= 2.61D-07
 ErrMax= 2.61D-07  0.00D+00 EMaxC= 1.00D-01 BMatC= 8.42D-13 BMatP= 6.60D-12
 IDIUse=1 WtCom= 1.00D+00 WtEn= 0.00D+00
 Coeff-Com:  0.768D-04-0.174D-02 0.531D-02 0.370D-02-0.285D-01 0.134D-01
 Coeff-Com:  0.105D+00-0.141D+00-0.482D+00 0.153D+01
 Coeff:      0.768D-04-0.174D-02 0.531D-02 0.370D-02-0.285D-01 0.134D-01
 Coeff:      0.105D+00-0.141D+00-0.482D+00 0.153D+01
 Gap=     0.543 Goal=   None    Shift=    0.000
 RMSDP=7.82D-08 MaxDP=6.03D-07 DE=-2.82D-11 OVMax= 2.01D-06

 Cycle  11  Pass 1  IDiag  1:
 E= -226.386195231066     Delta-E=       -0.000000000005 Rises=F Damp=F
 DIIS: error= 7.15D-08 at cycle  11 NSaved=  11.
 NSaved=11 IEnMin=11 EnMin= -226.386195231066     IErMin=11 ErrMin= 7.15D-08
 ErrMax= 7.15D-08  0.00D+00 EMaxC= 1.00D-01 BMatC= 1.13D-13 BMatP= 8.42D-13
 IDIUse=1 WtCom= 1.00D+00 WtEn= 0.00D+00
 Coeff-Com:  0.388D-04-0.736D-03 0.205D-02 0.168D-02-0.103D-01-0.304D-05
 Coeff-Com:  0.415D-01-0.655D-02-0.206D+00 0.141D+00 0.104D+01
 Coeff:      0.388D-04-0.736D-03 0.205D-02 0.168D-02-0.103D-01-0.304D-05
 Coeff:      0.415D-01-0.655D-02-0.206D+00 0.141D+00 0.104D+01
 Gap=     0.543 Goal=   None    Shift=    0.000
 RMSDP=2.12D-08 MaxDP=1.83D-07 DE=-5.34D-12 OVMax= 5.07D-07

 Cycle  12  Pass 1  IDiag  1:
 E= -226.386195231065     Delta-E=        0.000000000000 Rises=F Damp=F
 DIIS: error= 2.34D-08 at cycle  12 NSaved=  12.
 NSaved=12 IEnMin=11 EnMin= -226.386195231066     IErMin=12 ErrMin= 2.34D-08
 ErrMax= 2.34D-08  0.00D+00 EMaxC= 1.00D-01 BMatC= 1.54D-14 BMatP= 1.13D-13
 IDIUse=1 WtCom= 1.00D+00 WtEn= 0.00D+00
 Coeff-Com: -0.200D-04 0.454D-03-0.134D-02-0.103D-02 0.718D-02-0.278D-02
 Coeff-Com: -0.272D-01 0.317D-01 0.124D+00-0.338D+00-0.107D+00 0.131D+01
 Coeff:     -0.200D-04 0.454D-03-0.134D-02-0.103D-02 0.718D-02-0.278D-02
 Coeff:     -0.272D-01 0.317D-01 0.124D+00-0.338D+00-0.107D+00 0.131D+01
 Gap=     0.543 Goal=   None    Shift=    0.000
 RMSDP=9.77D-09 MaxDP=8.35D-08 DE= 5.68D-14 OVMax= 2.20D-07

 SCF Done:  E(RHF) =  -226.386195231     A.U. after   12 cycles
            NFock= 12  Conv=0.98D-08     -V/T= 2.0034
 KE= 2.256190600777D+02 PE=-7.685746302146D+02 EE= 1.988819167429D+02
 Leave Link  502 at Fri Apr 12 15:05:28 2019, MaxMem=   134217728 cpu:         0.2
 (Enter /cm/shared/c3ddb/gaussian/09.d01/g09/l701.exe)
 Compute integral first derivatives.
 ... and contract with generalized density number  0.
 Leave Link  701 at Fri Apr 12 15:05:28 2019, MaxMem=   134217728 cpu:         0.1
 (Enter /cm/shared/c3ddb/gaussian/09.d01/g09/l702.exe)
 L702 exits ... SP integral derivatives will be done elsewhere.
 Leave Link  702 at Fri Apr 12 15:05:28 2019, MaxMem=   134217728 cpu:         0.1
 (Enter /cm/shared/c3ddb/gaussian/09.d01/g09/l703.exe)
 Compute integral first derivatives, UseDBF=F ICtDFT=           0.
 Integral derivatives from FoFJK, PRISM(SPDF).
 Calling FoFJK, ICntrl=      2127 FMM=F ISym2X=0 I1Cent= 0 IOpClX= 0 NMat=1 NMatS=1 NMatT=0.
 FoFJK:  IHMeth= 1 ICntrl=    2127 DoSepK=F KAlg= 0 I1Cent=   0 FoldK=F
 IRaf=         0 NMat=   1 IRICut=       1 DoRegI=T DoRafI=F ISym2E= 0.
 FoFCou: FMM=F IPFlag=           0 FMFlag=      100000 FMFlg1=         800
         NFxFlg=           0 DoJE=F BraDBF=F KetDBF=F FulRan=T
         wScrn=  0.000000 ICntrl=    2127 IOpCl=  0 I1Cent=           0 NGrid=           0
         NMat0=    1 NMatS0=      1 NMatT0=    0 NMatD0=    1 NMtDS0=    0 NMtDT0=    0
 Symmetry not used in FoFCou.
 Leave Link  703 at Fri Apr 12 15:05:29 2019, MaxMem=   134217728 cpu:         0.2
 (Enter /cm/shared/c3ddb/gaussian/09.d01/g09/l716.exe)
 Dipole        = 1.21630305D+00-6.28475138D-01-3.84229964D-01
 -------------------------------------------------------------------
 Center     Atomic                   Forces (Hartrees/Bohr)
 Number     Number              X              Y              Z
 -------------------------------------------------------------------
      1        6           0.000560910    0.003849427   -0.003156970
      2        6          -0.000135922   -0.000041030    0.002641127
      3        1          -0.000004867    0.000016399   -0.000050155
      4        1           0.000010076   -0.000022151   -0.000126528
      5        1           0.000045346   -0.000066397    0.000095331
      6        8          -0.000468247   -0.006791753    0.002373404
      7        8           0.003557237    0.005432350   -0.001866414
      8        1          -0.003564532   -0.002376845    0.000090205
 -------------------------------------------------------------------
 Cartesian Forces:  Max     0.006791753 RMS     0.002484295
 Leave Link  716 at Fri Apr 12 15:05:29 2019, MaxMem=   134217728 cpu:         0.0
 (Enter /cm/shared/c3ddb/gaussian/09.d01/g09/l103.exe)

 GradGradGradGradGradGradGradGradGradGradGradGradGradGradGradGradGradGrad
 Berny optimization.
 Using GEDIIS/GDIIS optimizer.
 FormGI is forming the generalized inverse of G from B-inverse, IUseBI=4.
 Internal  Forces:  Max     0.007517774 RMS     0.001964940
 Search for a local minimum.
 Step number   2 out of a maximum of   32
 All quantities printed in internal units (Hartrees-Bohrs-Radians)
 RMS Force = .61715D-03 SwitMx=.10000D-02 MixMth= 2
 Mixed Optimization -- En-DIIS/RFO-DIIS
 Swapping is turned off.
 Update second derivatives using D2CorX and points    1    2
 DE= -1.23D-05 DEPred=-3.32D-05 R= 3.70D-01
 Trust test= 3.70D-01 RLast= 1.82D-02 DXMaxT set to 3.00D-01
 ITU=  0  0
     Eigenvalues ---    0.02432   0.03267   0.03294   0.15887   0.15999
     Eigenvalues ---    0.16000   0.19284   0.22018   0.26074   0.36928
     Eigenvalues ---    0.37120   0.37252   0.42688   0.47848   0.52233
     Eigenvalues ---    0.642491000.000001000.000001000.000001000.00000
     Eigenvalues --- 1000.000001000.00000
 En-DIIS/RFO-DIIS IScMMF=        0 using points:     2    1
 RFO step:  Lambda=-1.44162618D-05.
 NNeg= 0 NP= 2 Switch=  2.50D-03 Rises=F DC=  1.23D-05 SmlDif=  1.00D-05
 RMS Error=  0.9517530874D-03 NUsed= 2 EDIIS=F
 DidBck=T Rises=F RFO-DIIS coefs:    0.60999    0.39001
 Iteration  1 RMS(Cart)=  0.00385893 RMS(Int)=  0.00001057
 Iteration  2 RMS(Cart)=  0.00000873 RMS(Int)=  0.00000068
 Iteration  3 RMS(Cart)=  0.00000000 RMS(Int)=  0.00000068
 Iteration  1 RMS(Cart)=  0.00000042 RMS(Int)=  0.00000017
 ITry= 1 IFail=0 DXMaxC= 1.24D-02 DCOld= 1.00D+10 DXMaxT= 3.00D-01 DXLimC= 3.00D+00 Rises=F
 Variable       Old X    -DE/DX   Delta X   Delta X   Delta X     New X
                                 (Linear)    (Quad)   (Total)
    R1        2.47664  -0.00003   0.00014  -0.00019  -0.00005   2.47659
    R2        2.02094   0.00001   0.00019  -0.00020  -0.00001   2.02093
    R3        2.66786   0.00041  -0.00009   0.00067   0.00058   2.66844
    R4        2.02346   0.00001   0.00006  -0.00006   0.00001   2.02347
    R5        2.02662   0.00003  -0.00009   0.00016   0.00007   2.02669
    R6        2.78398   0.00184   0.00263   0.00024   0.00287   2.78685
    R7        1.84370  -0.00012   0.00013  -0.00029  -0.00015   1.84354
    A1        2.17068   0.00007  -0.00002   0.00014   0.00011   2.17080
    A2        2.11155  -0.00007  -0.00033   0.00017  -0.00017   2.11139
    A3        2.00082   0.00001   0.00038  -0.00038   0.00000   2.00081
    A4        2.10836  -0.00001  -0.00001  -0.00001  -0.00002   2.10834
    A5        2.11536   0.00007  -0.00042   0.00076   0.00034   2.11570
    A6        2.05873  -0.00006   0.00047  -0.00077  -0.00030   2.05843
    A7        1.88703   0.00090   0.00384  -0.00212   0.00172   1.88874
    A8        1.78620   0.00178   0.00481   0.00134   0.00616   1.79236
    D1        0.03226  -0.00095  -0.00157   0.00159   0.00002   0.03228
    D2        3.13191  -0.00092  -0.00058   0.00096   0.00038   3.13229
    D3       -3.12744   0.00073  -0.00022  -0.00368  -0.00390  -3.13134
    D4       -0.02778   0.00075   0.00077  -0.00431  -0.00354  -0.03133
    D5       -1.57080  -0.00367   0.00000   0.00000   0.00000  -1.57080
    D6        1.55436  -0.00215   0.00123  -0.00479  -0.00356   1.55080
    D7        0.87266   0.00752   0.00000   0.00000   0.00000   0.87266
         Item               Value     Threshold  Converged?
 Maximum Force            0.001835     0.000015     NO 
 RMS     Force            0.000617     0.000010     NO 
 Maximum Displacement     0.012389     0.000060     NO 
 RMS     Displacement     0.003859     0.000040     NO 
 Predicted change in Energy=-9.926908D-06
 Lowest energy point so far.  Saving SCF results.
 GradGradGradGradGradGradGradGradGradGradGradGradGradGradGradGradGradGrad

 Leave Link  103 at Fri Apr 12 15:05:29 2019, MaxMem=   134217728 cpu:         0.0
 (Enter /cm/shared/c3ddb/gaussian/09.d01/g09/l202.exe)
                          Input orientation:                          
 ---------------------------------------------------------------------
 Center     Atomic      Atomic             Coordinates (Angstroms)
 Number     Number       Type             X           Y           Z
 ---------------------------------------------------------------------
      1          6           0        0.728437    0.628331    0.037334
      2          6           0        1.381611   -0.506623   -0.015601
      3          1           0        1.192471    1.591548    0.061178
      4          1           0        2.452223   -0.523896   -0.008653
      5          1           0        0.863976   -1.445814   -0.028963
      6          8           0       -0.683386    0.654806    0.040792
      7          8           0       -1.146559    0.727436   -1.357438
      8          1           0       -0.646946    0.007669   -1.786440
 ---------------------------------------------------------------------
                    Distance matrix (angstroms):
                    1          2          3          4          5
     1  C    0.000000
     2  C    1.310557   0.000000
     3  H    1.069431   2.108078   0.000000
     4  H    2.073928   1.070774   2.463119   0.000000
     5  H    2.079626   1.072476   3.056404   1.836539   0.000000
     6  O    1.412076   2.369876   2.096840   3.350198   2.609943
     7  O    2.338978   3.116901   2.868836   4.041817   3.245013
     8  H    2.367077   2.741425   3.050544   3.612193   2.735732
                    6          7          8
     6  O    0.000000
     7  O    1.474738   0.000000
     8  H    1.938786   0.975561   0.000000
 Symmetry turned off by external request.
 Stoichiometry    C2H4O2
 Framework group  C1[X(C2H4O2)]
 Deg. of freedom    18
 Full point group                 C1      NOp   1
 Rotational constants (GHZ):     22.4731140      5.3746298      4.9028662
 Leave Link  202 at Fri Apr 12 15:05:29 2019, MaxMem=   134217728 cpu:         0.0
 (Enter /cm/shared/c3ddb/gaussian/09.d01/g09/l301.exe)
 Standard basis: 3-21G (6D, 7F)
 Ernie: Thresh=  0.10000D-02 Tol=  0.10000D-05 Strict=F.
    44 basis functions,    72 primitive gaussians,    44 cartesian basis functions
    16 alpha electrons       16 beta electrons
       nuclear repulsion energy       117.6189490492 Hartrees.
 IExCor=    0 DFT=F Ex=HF Corr=None ExCW=0 ScaHFX=  1.000000
 ScaDFX=  1.000000  1.000000  1.000000  1.000000 ScalE2=  1.000000  1.000000
 IRadAn=      0 IRanWt=     -1 IRanGd=            0 ICorTp=0 IEmpDi=  4
 NAtoms=    8 NActive=    8 NUniq=    8 SFac= 1.00D+00 NAtFMM=   60 NAOKFM=F Big=F
 Integral buffers will be    131072 words long.
 Raffenetti 1 integral format.
 Two-electron integral symmetry is turned off.
 Leave Link  301 at Fri Apr 12 15:05:29 2019, MaxMem=   134217728 cpu:         0.1
 (Enter /cm/shared/c3ddb/gaussian/09.d01/g09/l302.exe)
 NPDir=0 NMtPBC=     1 NCelOv=     1 NCel=       1 NClECP=     1 NCelD=      1
         NCelK=      1 NCelE2=     1 NClLst=     1 CellRange=     0.0.
 One-electron integrals computed using PRISM.
 NBasis=    44 RedAO= T EigKep=  1.19D-02  NBF=    44
 NBsUse=    44 1.00D-06 EigRej= -1.00D+00 NBFU=    44
 Leave Link  302 at Fri Apr 12 15:05:29 2019, MaxMem=   134217728 cpu:         0.2
 (Enter /cm/shared/c3ddb/gaussian/09.d01/g09/l303.exe)
 DipDrv:  MaxL=1.
 Leave Link  303 at Fri Apr 12 15:05:29 2019, MaxMem=   134217728 cpu:         0.0
 (Enter /cm/shared/c3ddb/gaussian/09.d01/g09/l401.exe)
 Initial guess from the checkpoint file:  "TMP_CALCS/scangeom_S02_270_050.chk"
 B after Tr=     0.000202   -0.000674    0.001062
         Rot=    1.000000   -0.000128    0.000079   -0.000081 Ang=  -0.02 deg.
 Guess basis will be translated and rotated to current coordinates.
 JPrj=2 DoOrth=T DoCkMO=T.
 Leave Link  401 at Fri Apr 12 15:05:30 2019, MaxMem=   134217728 cpu:         0.2
 (Enter /cm/shared/c3ddb/gaussian/09.d01/g09/l502.exe)
 Closed shell SCF:
 Using DIIS extrapolation, IDIIS=  1040.
 Two-electron integral symmetry not used.
 Keep R1 ints in memory in canonical form, NReq=1327429.
 IVT=       24902 IEndB=       24902 NGot=   134217728 MDV=   133702282
 LenX=   133702282 LenY=   133699905
 Requested convergence on RMS density matrix=1.00D-08 within 128 cycles.
 Requested convergence on MAX density matrix=1.00D-06.
 Requested convergence on             energy=1.00D-06.
 No special actions if energy rises.
 FoFCou: FMM=F IPFlag=           0 FMFlag=           0 FMFlg1=           0
         NFxFlg=           0 DoJE=F BraDBF=F KetDBF=F FulRan=T
         wScrn=  0.000000 ICntrl=     600 IOpCl=  0 I1Cent=           0 NGrid=           0
         NMat0=    1 NMatS0=    990 NMatT0=    0 NMatD0=    1 NMtDS0=    0 NMtDT0=    0
 Symmetry not used in FoFCou.

 Cycle   1  Pass 1  IDiag  1:
 E= -226.386197530583    
 DIIS: error= 2.27D-04 at cycle   1 NSaved=   1.
 NSaved= 1 IEnMin= 1 EnMin= -226.386197530583     IErMin= 1 ErrMin= 2.27D-04
 ErrMax= 2.27D-04  0.00D+00 EMaxC= 1.00D-01 BMatC= 5.12D-06 BMatP= 5.12D-06
 IDIUse=3 WtCom= 9.98D-01 WtEn= 2.27D-03
 Coeff-Com:  0.100D+01
 Coeff-En:   0.100D+01
 Coeff:      0.100D+01
 Gap=     0.955 Goal=   None    Shift=    0.000
 RMSDP=4.94D-05 MaxDP=3.77D-04              OVMax= 4.62D-04

 Cycle   2  Pass 1  IDiag  1:
 E= -226.386203656151     Delta-E=       -0.000006125568 Rises=F Damp=F
 DIIS: error= 6.69D-05 at cycle   2 NSaved=   2.
 NSaved= 2 IEnMin= 2 EnMin= -226.386203656151     IErMin= 2 ErrMin= 6.69D-05
 ErrMax= 6.69D-05  0.00D+00 EMaxC= 1.00D-01 BMatC= 3.32D-07 BMatP= 5.12D-06
 IDIUse=1 WtCom= 1.00D+00 WtEn= 0.00D+00
 Coeff-Com: -0.186D+00 0.119D+01
 Coeff:     -0.186D+00 0.119D+01
 Gap=     0.543 Goal=   None    Shift=    0.000
 RMSDP=1.96D-05 MaxDP=1.35D-04 DE=-6.13D-06 OVMax= 3.15D-04

 Cycle   3  Pass 1  IDiag  1:
 E= -226.386204543309     Delta-E=       -0.000000887158 Rises=F Damp=F
 DIIS: error= 3.60D-05 at cycle   3 NSaved=   3.
 NSaved= 3 IEnMin= 3 EnMin= -226.386204543309     IErMin= 3 ErrMin= 3.60D-05
 ErrMax= 3.60D-05  0.00D+00 EMaxC= 1.00D-01 BMatC= 4.08D-08 BMatP= 3.32D-07
 IDIUse=1 WtCom= 1.00D+00 WtEn= 0.00D+00
 Coeff-Com: -0.716D-03-0.228D+00 0.123D+01
 Coeff:     -0.716D-03-0.228D+00 0.123D+01
 Gap=     0.543 Goal=   None    Shift=    0.000
 RMSDP=8.99D-06 MaxDP=6.28D-05 DE=-8.87D-07 OVMax= 1.77D-04

 Cycle   4  Pass 1  IDiag  1:
 E= -226.386204677336     Delta-E=       -0.000000134027 Rises=F Damp=F
 DIIS: error= 1.78D-05 at cycle   4 NSaved=   4.
 NSaved= 4 IEnMin= 4 EnMin= -226.386204677336     IErMin= 4 ErrMin= 1.78D-05
 ErrMax= 1.78D-05  0.00D+00 EMaxC= 1.00D-01 BMatC= 1.01D-08 BMatP= 4.08D-08
 IDIUse=1 WtCom= 1.00D+00 WtEn= 0.00D+00
 Coeff-Com:  0.246D-01-0.227D+00 0.320D+00 0.883D+00
 Coeff:      0.246D-01-0.227D+00 0.320D+00 0.883D+00
 Gap=     0.543 Goal=   None    Shift=    0.000
 RMSDP=3.70D-06 MaxDP=2.50D-05 DE=-1.34D-07 OVMax= 8.12D-05

 Cycle   5  Pass 1  IDiag  1:
 E= -226.386204700340     Delta-E=       -0.000000023004 Rises=F Damp=F
 DIIS: error= 8.50D-06 at cycle   5 NSaved=   5.
 NSaved= 5 IEnMin= 5 EnMin= -226.386204700340     IErMin= 5 ErrMin= 8.50D-06
 ErrMax= 8.50D-06  0.00D+00 EMaxC= 1.00D-01 BMatC= 1.35D-09 BMatP= 1.01D-08
 IDIUse=1 WtCom= 1.00D+00 WtEn= 0.00D+00
 Coeff-Com: -0.176D-02 0.587D-01-0.247D+00-0.255D-01 0.122D+01
 Coeff:     -0.176D-02 0.587D-01-0.247D+00-0.255D-01 0.122D+01
 Gap=     0.543 Goal=   None    Shift=    0.000
 RMSDP=1.95D-06 MaxDP=1.34D-05 DE=-2.30D-08 OVMax= 4.89D-05

 Cycle   6  Pass 1  IDiag  1:
 E= -226.386204704702     Delta-E=       -0.000000004362 Rises=F Damp=F
 DIIS: error= 2.87D-06 at cycle   6 NSaved=   6.
 NSaved= 6 IEnMin= 6 EnMin= -226.386204704702     IErMin= 6 ErrMin= 2.87D-06
 ErrMax= 2.87D-06  0.00D+00 EMaxC= 1.00D-01 BMatC= 1.25D-10 BMatP= 1.35D-09
 IDIUse=1 WtCom= 1.00D+00 WtEn= 0.00D+00
 Coeff-Com: -0.262D-02 0.282D-01-0.566D-01-0.867D-01 0.811D-01 0.104D+01
 Coeff:     -0.262D-02 0.282D-01-0.566D-01-0.867D-01 0.811D-01 0.104D+01
 Gap=     0.543 Goal=   None    Shift=    0.000
 RMSDP=6.10D-07 MaxDP=4.86D-06 DE=-4.36D-09 OVMax= 1.51D-05

 Cycle   7  Pass 1  IDiag  1:
 E= -226.386204705138     Delta-E=       -0.000000000436 Rises=F Damp=F
 DIIS: error= 1.01D-06 at cycle   7 NSaved=   7.
 NSaved= 7 IEnMin= 7 EnMin= -226.386204705138     IErMin= 7 ErrMin= 1.01D-06
 ErrMax= 1.01D-06  0.00D+00 EMaxC= 1.00D-01 BMatC= 2.03D-11 BMatP= 1.25D-10
 IDIUse=1 WtCom= 1.00D+00 WtEn= 0.00D+00
 Coeff-Com:  0.836D-03-0.150D-01 0.519D-01 0.223D-01-0.225D+00-0.167D+00
 Coeff-Com:  0.133D+01
 Coeff:      0.836D-03-0.150D-01 0.519D-01 0.223D-01-0.225D+00-0.167D+00
 Coeff:      0.133D+01
 Gap=     0.543 Goal=   None    Shift=    0.000
 RMSDP=2.88D-07 MaxDP=1.61D-06 DE=-4.36D-10 OVMax= 6.73D-06

 Cycle   8  Pass 1  IDiag  1:
 E= -226.386204705215     Delta-E=       -0.000000000077 Rises=F Damp=F
 DIIS: error= 2.21D-07 at cycle   8 NSaved=   8.
 NSaved= 8 IEnMin= 8 EnMin= -226.386204705215     IErMin= 8 ErrMin= 2.21D-07
 ErrMax= 2.21D-07  0.00D+00 EMaxC= 1.00D-01 BMatC= 1.58D-12 BMatP= 2.03D-11
 IDIUse=1 WtCom= 1.00D+00 WtEn= 0.00D+00
 Coeff-Com:  0.211D-03-0.215D-02 0.406D-02 0.570D-02-0.390D-03-0.887D-01
 Coeff-Com:  0.955D-02 0.107D+01
 Coeff:      0.211D-03-0.215D-02 0.406D-02 0.570D-02-0.390D-03-0.887D-01
 Coeff:      0.955D-02 0.107D+01
 Gap=     0.543 Goal=   None    Shift=    0.000
 RMSDP=6.03D-08 MaxDP=3.42D-07 DE=-7.68D-11 OVMax= 1.21D-06

 Cycle   9  Pass 1  IDiag  1:
 E= -226.386204705220     Delta-E=       -0.000000000005 Rises=F Damp=F
 DIIS: error= 9.10D-08 at cycle   9 NSaved=   9.
 NSaved= 9 IEnMin= 9 EnMin= -226.386204705220     IErMin= 9 ErrMin= 9.10D-08
 ErrMax= 9.10D-08  0.00D+00 EMaxC= 1.00D-01 BMatC= 2.30D-13 BMatP= 1.58D-12
 IDIUse=1 WtCom= 1.00D+00 WtEn= 0.00D+00
 Coeff-Com: -0.154D-03 0.273D-02-0.910D-02-0.526D-02 0.406D-01 0.326D-01
 Coeff-Com: -0.232D+00-0.763D-01 0.125D+01
 Coeff:     -0.154D-03 0.273D-02-0.910D-02-0.526D-02 0.406D-01 0.326D-01
 Coeff:     -0.232D+00-0.763D-01 0.125D+01
 Gap=     0.543 Goal=   None    Shift=    0.000
 RMSDP=3.01D-08 MaxDP=1.55D-07 DE=-5.12D-12 OVMax= 5.02D-07

 Cycle  10  Pass 1  IDiag  1:
 E= -226.386204705221     Delta-E=       -0.000000000001 Rises=F Damp=F
 DIIS: error= 1.75D-08 at cycle  10 NSaved=  10.
 NSaved=10 IEnMin=10 EnMin= -226.386204705221     IErMin=10 ErrMin= 1.75D-08
 ErrMax= 1.75D-08  0.00D+00 EMaxC= 1.00D-01 BMatC= 1.04D-14 BMatP= 2.30D-13
 IDIUse=1 WtCom= 1.00D+00 WtEn= 0.00D+00
 Coeff-Com:  0.475D-04-0.985D-03 0.350D-02 0.169D-02-0.161D-01-0.883D-02
 Coeff-Com:  0.951D-01-0.366D-01-0.494D+00 0.146D+01
 Coeff:      0.475D-04-0.985D-03 0.350D-02 0.169D-02-0.161D-01-0.883D-02
 Coeff:      0.951D-01-0.366D-01-0.494D+00 0.146D+01
 Gap=     0.543 Goal=   None    Shift=    0.000
 RMSDP=6.34D-09 MaxDP=4.90D-08 DE=-1.02D-12 OVMax= 8.62D-08

 SCF Done:  E(RHF) =  -226.386204705     A.U. after   10 cycles
            NFock= 10  Conv=0.63D-08     -V/T= 2.0034
 KE= 2.256138127767D+02 PE=-7.684391690225D+02 EE= 1.988202024914D+02
 Leave Link  502 at Fri Apr 12 15:05:30 2019, MaxMem=   134217728 cpu:         0.2
 (Enter /cm/shared/c3ddb/gaussian/09.d01/g09/l701.exe)
 Compute integral first derivatives.
 ... and contract with generalized density number  0.
 Leave Link  701 at Fri Apr 12 15:05:30 2019, MaxMem=   134217728 cpu:         0.1
 (Enter /cm/shared/c3ddb/gaussian/09.d01/g09/l702.exe)
 L702 exits ... SP integral derivatives will be done elsewhere.
 Leave Link  702 at Fri Apr 12 15:05:30 2019, MaxMem=   134217728 cpu:         0.0
 (Enter /cm/shared/c3ddb/gaussian/09.d01/g09/l703.exe)
 Compute integral first derivatives, UseDBF=F ICtDFT=           0.
 Integral derivatives from FoFJK, PRISM(SPDF).
 Calling FoFJK, ICntrl=      2127 FMM=F ISym2X=0 I1Cent= 0 IOpClX= 0 NMat=1 NMatS=1 NMatT=0.
 FoFJK:  IHMeth= 1 ICntrl=    2127 DoSepK=F KAlg= 0 I1Cent=   0 FoldK=F
 IRaf=         0 NMat=   1 IRICut=       1 DoRegI=T DoRafI=F ISym2E= 0.
 FoFCou: FMM=F IPFlag=           0 FMFlag=      100000 FMFlg1=         800
         NFxFlg=           0 DoJE=F BraDBF=F KetDBF=F FulRan=T
         wScrn=  0.000000 ICntrl=    2127 IOpCl=  0 I1Cent=           0 NGrid=           0
         NMat0=    1 NMatS0=      1 NMatT0=    0 NMatD0=    1 NMtDS0=    0 NMtDT0=    0
 Symmetry not used in FoFCou.
 Leave Link  703 at Fri Apr 12 15:05:30 2019, MaxMem=   134217728 cpu:         0.2
 (Enter /cm/shared/c3ddb/gaussian/09.d01/g09/l716.exe)
 Dipole        = 1.21588482D+00-6.28276734D-01-3.88443084D-01
 -------------------------------------------------------------------
 Center     Atomic                   Forces (Hartrees/Bohr)
 Number     Number              X              Y              Z
 -------------------------------------------------------------------
      1        6           0.000235062    0.003776154   -0.003948525
      2        6          -0.000056099   -0.000116180    0.002718976
      3        1          -0.000010379    0.000015585    0.000034221
      4        1           0.000021866   -0.000009724    0.000035711
      5        1           0.000016177    0.000007222   -0.000018424
      6        8          -0.000666013   -0.007110145    0.001195734
      7        8           0.003472418    0.006074747   -0.000927008
      8        1          -0.003013032   -0.002637659    0.000909316
 -------------------------------------------------------------------
 Cartesian Forces:  Max     0.007110145 RMS     0.002553009
 Leave Link  716 at Fri Apr 12 15:05:31 2019, MaxMem=   134217728 cpu:         0.0
 (Enter /cm/shared/c3ddb/gaussian/09.d01/g09/l103.exe)

 GradGradGradGradGradGradGradGradGradGradGradGradGradGradGradGradGradGrad
 Berny optimization.
 Using GEDIIS/GDIIS optimizer.
 FormGI is forming the generalized inverse of G from B-inverse, IUseBI=4.
 Internal  Forces:  Max     0.007384768 RMS     0.001859776
 Search for a local minimum.
 Step number   3 out of a maximum of   32
 All quantities printed in internal units (Hartrees-Bohrs-Radians)
 RMS Force = .44732D-04 SwitMx=.10000D-02 MixMth= 2
 Mixed Optimization -- En-DIIS/RFO-DIIS
 Swapping is turned off.
 Update second derivatives using D2CorX and points    1    2    3
 DE= -9.47D-06 DEPred=-9.93D-06 R= 9.54D-01
 TightC=F SS=  1.41D+00  RLast= 9.50D-03 DXNew= 5.0454D-01 2.8500D-02
 Trust test= 9.54D-01 RLast= 9.50D-03 DXMaxT set to 3.00D-01
 ITU=  1  0  0
     Eigenvalues ---    0.02624   0.03266   0.03395   0.15797   0.16000
     Eigenvalues ---    0.16002   0.20165   0.22014   0.26154   0.36936
     Eigenvalues ---    0.37124   0.37259   0.42935   0.45516   0.52201
     Eigenvalues ---    0.642251000.000001000.000001000.000001000.00000
     Eigenvalues --- 1000.000001000.00000
 En-DIIS/RFO-DIIS IScMMF=        0 using points:     3    2    1
 RFO step:  Lambda=-2.50535660D-06.
 NNeg= 0 NP= 3 Switch=  2.50D-03 Rises=F DC=  1.23D-05 SmlDif=  1.00D-05
 RMS Error=  0.1398302146D-03 NUsed= 3 EDIIS=F
 DidBck=F Rises=F RFO-DIIS coefs:    0.79519    0.12528    0.07953
 Iteration  1 RMS(Cart)=  0.00075701 RMS(Int)=  0.00000058
 Iteration  2 RMS(Cart)=  0.00000041 RMS(Int)=  0.00000043
 Iteration  1 RMS(Cart)=  0.00000049 RMS(Int)=  0.00000019
 ITry= 1 IFail=0 DXMaxC= 1.84D-03 DCOld= 1.00D+10 DXMaxT= 3.00D-01 DXLimC= 3.00D+00 Rises=F
 Variable       Old X    -DE/DX   Delta X   Delta X   Delta X     New X
                                 (Linear)    (Quad)   (Total)
    R1        2.47659  -0.00002   0.00004  -0.00006  -0.00002   2.47657
    R2        2.02093   0.00001   0.00004  -0.00002   0.00002   2.02096
    R3        2.66844   0.00014  -0.00014   0.00041   0.00027   2.66871
    R4        2.02347   0.00002   0.00001   0.00004   0.00005   2.02352
    R5        2.02669  -0.00001  -0.00003   0.00000  -0.00003   2.02666
    R6        2.78685   0.00004  -0.00005   0.00024   0.00019   2.78704
    R7        1.84354   0.00000   0.00006  -0.00006   0.00000   1.84355
    A1        2.17080   0.00006  -0.00003   0.00014   0.00011   2.17091
    A2        2.11139   0.00000  -0.00003  -0.00001  -0.00004   2.11134
    A3        2.00081  -0.00002   0.00008  -0.00012  -0.00005   2.00077
    A4        2.10834   0.00000   0.00000   0.00001   0.00001   2.10835
    A5        2.11570   0.00001  -0.00016   0.00021   0.00005   2.11575
    A6        2.05843  -0.00001   0.00016  -0.00023  -0.00007   2.05836
    A7        1.88874   0.00002   0.00043  -0.00028   0.00015   1.88889
    A8        1.79236  -0.00009  -0.00028   0.00004  -0.00024   1.79212
    D1        0.03228  -0.00092  -0.00032   0.00016  -0.00017   0.03212
    D2        3.13229  -0.00094  -0.00020  -0.00032  -0.00052   3.13177
    D3       -3.13134   0.00099   0.00075   0.00083   0.00158  -3.12976
    D4       -0.03133   0.00097   0.00088   0.00035   0.00123  -0.03010
    D5       -1.57080  -0.00373   0.00000   0.00000   0.00000  -1.57080
    D6        1.55080  -0.00199   0.00098   0.00061   0.00159   1.55238
    D7        0.87266   0.00738   0.00000   0.00000   0.00000   0.87266
         Item               Value     Threshold  Converged?
 Maximum Force            0.000141     0.000015     NO 
 RMS     Force            0.000045     0.000010     NO 
 Maximum Displacement     0.001837     0.000060     NO 
 RMS     Displacement     0.000757     0.000040     NO 
 Predicted change in Energy=-1.752242D-07
 Lowest energy point so far.  Saving SCF results.
 GradGradGradGradGradGradGradGradGradGradGradGradGradGradGradGradGradGrad

 Leave Link  103 at Fri Apr 12 15:05:31 2019, MaxMem=   134217728 cpu:         0.0
 (Enter /cm/shared/c3ddb/gaussian/09.d01/g09/l202.exe)
                          Input orientation:                          
 ---------------------------------------------------------------------
 Center     Atomic      Atomic             Coordinates (Angstroms)
 Number     Number       Type             X           Y           Z
 ---------------------------------------------------------------------
      1          6           0        0.728730    0.628503    0.036836
      2          6           0        1.381722   -0.506557   -0.015804
      3          1           0        1.192834    1.591674    0.061704
      4          1           0        2.452348   -0.524062   -0.007681
      5          1           0        0.863973   -1.445658   -0.029771
      6          8           0       -0.683232    0.655127    0.040654
      7          8           0       -1.147008    0.727235   -1.357510
      8          1           0       -0.647538    0.007193   -1.786220
 ---------------------------------------------------------------------
                    Distance matrix (angstroms):
                    1          2          3          4          5
     1  C    0.000000
     2  C    1.310546   0.000000
     3  H    1.069444   2.108142   0.000000
     4  H    2.073945   1.070800   2.463235   0.000000
     5  H    2.079632   1.072460   3.056453   1.836509   0.000000
     6  O    1.412219   2.369965   2.096948   3.350327   2.610000
     7  O    2.339304   3.117194   2.869894   4.042666   3.244750
     8  H    2.367207   2.741570   3.051618   3.613132   2.735060
                    6          7          8
     6  O    0.000000
     7  O    1.474839   0.000000
     8  H    1.938700   0.975563   0.000000
 Symmetry turned off by external request.
 Stoichiometry    C2H4O2
 Framework group  C1[X(C2H4O2)]
 Deg. of freedom    18
 Full point group                 C1      NOp   1
 Rotational constants (GHZ):     22.4742899      5.3737127      4.9018158
 Leave Link  202 at Fri Apr 12 15:05:31 2019, MaxMem=   134217728 cpu:         0.0
 (Enter /cm/shared/c3ddb/gaussian/09.d01/g09/l301.exe)
 Standard basis: 3-21G (6D, 7F)
 Ernie: Thresh=  0.10000D-02 Tol=  0.10000D-05 Strict=F.
    44 basis functions,    72 primitive gaussians,    44 cartesian basis functions
    16 alpha electrons       16 beta electrons
       nuclear repulsion energy       117.6119038621 Hartrees.
 IExCor=    0 DFT=F Ex=HF Corr=None ExCW=0 ScaHFX=  1.000000
 ScaDFX=  1.000000  1.000000  1.000000  1.000000 ScalE2=  1.000000  1.000000
 IRadAn=      0 IRanWt=     -1 IRanGd=            0 ICorTp=0 IEmpDi=  4
 NAtoms=    8 NActive=    8 NUniq=    8 SFac= 1.00D+00 NAtFMM=   60 NAOKFM=F Big=F
 Integral buffers will be    131072 words long.
 Raffenetti 1 integral format.
 Two-electron integral symmetry is turned off.
 Leave Link  301 at Fri Apr 12 15:05:31 2019, MaxMem=   134217728 cpu:         0.1
 (Enter /cm/shared/c3ddb/gaussian/09.d01/g09/l302.exe)
 NPDir=0 NMtPBC=     1 NCelOv=     1 NCel=       1 NClECP=     1 NCelD=      1
         NCelK=      1 NCelE2=     1 NClLst=     1 CellRange=     0.0.
 One-electron integrals computed using PRISM.
 NBasis=    44 RedAO= T EigKep=  1.19D-02  NBF=    44
 NBsUse=    44 1.00D-06 EigRej= -1.00D+00 NBFU=    44
 Leave Link  302 at Fri Apr 12 15:05:31 2019, MaxMem=   134217728 cpu:         0.1
 (Enter /cm/shared/c3ddb/gaussian/09.d01/g09/l303.exe)
 DipDrv:  MaxL=1.
 Leave Link  303 at Fri Apr 12 15:05:31 2019, MaxMem=   134217728 cpu:         0.1
 (Enter /cm/shared/c3ddb/gaussian/09.d01/g09/l401.exe)
 Initial guess from the checkpoint file:  "TMP_CALCS/scangeom_S02_270_050.chk"
 B after Tr=     0.000101    0.000291   -0.000118
         Rot=    1.000000    0.000116   -0.000090    0.000019 Ang=   0.02 deg.
 Guess basis will be translated and rotated to current coordinates.
 JPrj=2 DoOrth=T DoCkMO=T.
 Leave Link  401 at Fri Apr 12 15:05:31 2019, MaxMem=   134217728 cpu:         0.2
 (Enter /cm/shared/c3ddb/gaussian/09.d01/g09/l502.exe)
 Closed shell SCF:
 Using DIIS extrapolation, IDIIS=  1040.
 Two-electron integral symmetry not used.
 Keep R1 ints in memory in canonical form, NReq=1327429.
 IVT=       24902 IEndB=       24902 NGot=   134217728 MDV=   133702282
 LenX=   133702282 LenY=   133699905
 Requested convergence on RMS density matrix=1.00D-08 within 128 cycles.
 Requested convergence on MAX density matrix=1.00D-06.
 Requested convergence on             energy=1.00D-06.
 No special actions if energy rises.
 FoFCou: FMM=F IPFlag=           0 FMFlag=           0 FMFlg1=           0
         NFxFlg=           0 DoJE=F BraDBF=F KetDBF=F FulRan=T
         wScrn=  0.000000 ICntrl=     600 IOpCl=  0 I1Cent=           0 NGrid=           0
         NMat0=    1 NMatS0=    990 NMatT0=    0 NMatD0=    1 NMtDS0=    0 NMtDT0=    0
 Symmetry not used in FoFCou.

 Cycle   1  Pass 1  IDiag  1:
 E= -226.386204391639    
 DIIS: error= 4.80D-05 at cycle   1 NSaved=   1.
 NSaved= 1 IEnMin= 1 EnMin= -226.386204391639     IErMin= 1 ErrMin= 4.80D-05
 ErrMax= 4.80D-05  0.00D+00 EMaxC= 1.00D-01 BMatC= 2.01D-07 BMatP= 2.01D-07
 IDIUse=1 WtCom= 1.00D+00 WtEn= 0.00D+00
 Coeff-Com:  0.100D+01
 Coeff:      0.100D+01
 Gap=     0.955 Goal=   None    Shift=    0.000
 RMSDP=1.12D-05 MaxDP=8.39D-05              OVMax= 1.92D-04

 Cycle   2  Pass 1  IDiag  1:
 E= -226.386204768695     Delta-E=       -0.000000377056 Rises=F Damp=F
 DIIS: error= 2.21D-05 at cycle   2 NSaved=   2.
 NSaved= 2 IEnMin= 2 EnMin= -226.386204768695     IErMin= 2 ErrMin= 2.21D-05
 ErrMax= 2.21D-05  0.00D+00 EMaxC= 1.00D-01 BMatC= 2.02D-08 BMatP= 2.01D-07
 IDIUse=1 WtCom= 1.00D+00 WtEn= 0.00D+00
 Coeff-Com: -0.273D+00 0.127D+01
 Coeff:     -0.273D+00 0.127D+01
 Gap=     0.543 Goal=   None    Shift=    0.000
 RMSDP=6.06D-06 MaxDP=4.61D-05 DE=-3.77D-07 OVMax= 1.39D-04

 Cycle   3  Pass 1  IDiag  1:
 E= -226.386204837731     Delta-E=       -0.000000069037 Rises=F Damp=F
 DIIS: error= 7.69D-06 at cycle   3 NSaved=   3.
 NSaved= 3 IEnMin= 3 EnMin= -226.386204837731     IErMin= 3 ErrMin= 7.69D-06
 ErrMax= 7.69D-06  0.00D+00 EMaxC= 1.00D-01 BMatC= 1.98D-09 BMatP= 2.02D-08
 IDIUse=1 WtCom= 1.00D+00 WtEn= 0.00D+00
 Coeff-Com: -0.499D-02-0.229D+00 0.123D+01
 Coeff:     -0.499D-02-0.229D+00 0.123D+01
 Gap=     0.543 Goal=   None    Shift=    0.000
 RMSDP=2.41D-06 MaxDP=1.82D-05 DE=-6.90D-08 OVMax= 5.52D-05

 Cycle   4  Pass 1  IDiag  1:
 E= -226.386204845323     Delta-E=       -0.000000007592 Rises=F Damp=F
 DIIS: error= 2.26D-06 at cycle   4 NSaved=   4.
 NSaved= 4 IEnMin= 4 EnMin= -226.386204845323     IErMin= 4 ErrMin= 2.26D-06
 ErrMax= 2.26D-06  0.00D+00 EMaxC= 1.00D-01 BMatC= 3.63D-10 BMatP= 1.98D-09
 IDIUse=1 WtCom= 1.00D+00 WtEn= 0.00D+00
 Coeff-Com:  0.314D-01-0.211D+00 0.320D+00 0.860D+00
 Coeff:      0.314D-01-0.211D+00 0.320D+00 0.860D+00
 Gap=     0.543 Goal=   None    Shift=    0.000
 RMSDP=7.35D-07 MaxDP=4.61D-06 DE=-7.59D-09 OVMax= 1.53D-05

 Cycle   5  Pass 1  IDiag  1:
 E= -226.386204846044     Delta-E=       -0.000000000721 Rises=F Damp=F
 DIIS: error= 8.06D-07 at cycle   5 NSaved=   5.
 NSaved= 5 IEnMin= 5 EnMin= -226.386204846044     IErMin= 5 ErrMin= 8.06D-07
 ErrMax= 8.06D-07  0.00D+00 EMaxC= 1.00D-01 BMatC= 2.79D-11 BMatP= 3.63D-10
 IDIUse=1 WtCom= 1.00D+00 WtEn= 0.00D+00
 Coeff-Com:  0.307D-03 0.221D-01-0.122D+00-0.676D-03 0.110D+01
 Coeff:      0.307D-03 0.221D-01-0.122D+00-0.676D-03 0.110D+01
 Gap=     0.543 Goal=   None    Shift=    0.000
 RMSDP=2.30D-07 MaxDP=1.38D-06 DE=-7.21D-10 OVMax= 4.81D-06

 Cycle   6  Pass 1  IDiag  1:
 E= -226.386204846124     Delta-E=       -0.000000000080 Rises=F Damp=F
 DIIS: error= 3.97D-07 at cycle   6 NSaved=   6.
 NSaved= 6 IEnMin= 6 EnMin= -226.386204846124     IErMin= 6 ErrMin= 3.97D-07
 ErrMax= 3.97D-07  0.00D+00 EMaxC= 1.00D-01 BMatC= 5.98D-12 BMatP= 2.79D-11
 IDIUse=1 WtCom= 1.00D+00 WtEn= 0.00D+00
 Coeff-Com: -0.362D-02 0.307D-01-0.671D-01-0.109D+00 0.254D+00 0.895D+00
 Coeff:     -0.362D-02 0.307D-01-0.671D-01-0.109D+00 0.254D+00 0.895D+00
 Gap=     0.543 Goal=   None    Shift=    0.000
 RMSDP=8.40D-08 MaxDP=6.25D-07 DE=-8.00D-11 OVMax= 1.40D-06

 Cycle   7  Pass 1  IDiag  1:
 E= -226.386204846139     Delta-E=       -0.000000000015 Rises=F Damp=F
 DIIS: error= 2.31D-07 at cycle   7 NSaved=   7.
 NSaved= 7 IEnMin= 7 EnMin= -226.386204846139     IErMin= 7 ErrMin= 2.31D-07
 ErrMax= 2.31D-07  0.00D+00 EMaxC= 1.00D-01 BMatC= 1.07D-12 BMatP= 5.98D-12
 IDIUse=1 WtCom= 1.00D+00 WtEn= 0.00D+00
 Coeff-Com:  0.136D-02-0.166D-01 0.538D-01 0.388D-01-0.342D+00-0.357D+00
 Coeff-Com:  0.162D+01
 Coeff:      0.136D-02-0.166D-01 0.538D-01 0.388D-01-0.342D+00-0.357D+00
 Coeff:      0.162D+01
 Gap=     0.543 Goal=   None    Shift=    0.000
 RMSDP=7.97D-08 MaxDP=6.25D-07 DE=-1.48D-11 OVMax= 1.64D-06

 Cycle   8  Pass 1  IDiag  1:
 E= -226.386204846145     Delta-E=       -0.000000000006 Rises=F Damp=F
 DIIS: error= 8.50D-08 at cycle   8 NSaved=   8.
 NSaved= 8 IEnMin= 8 EnMin= -226.386204846145     IErMin= 8 ErrMin= 8.50D-08
 ErrMax= 8.50D-08  0.00D+00 EMaxC= 1.00D-01 BMatC= 9.04D-14 BMatP= 1.07D-12
 IDIUse=1 WtCom= 1.00D+00 WtEn= 0.00D+00
 Coeff-Com: -0.206D-03 0.423D-02-0.171D-01-0.660D-02 0.124D+00 0.666D-01
 Coeff-Com: -0.710D+00 0.154D+01
 Coeff:     -0.206D-03 0.423D-02-0.171D-01-0.660D-02 0.124D+00 0.666D-01
 Coeff:     -0.710D+00 0.154D+01
 Gap=     0.543 Goal=   None    Shift=    0.000
 RMSDP=2.63D-08 MaxDP=1.92D-07 DE=-5.91D-12 OVMax= 6.37D-07

 Cycle   9  Pass 1  IDiag  1:
 E= -226.386204846145     Delta-E=       -0.000000000001 Rises=F Damp=F
 DIIS: error= 2.70D-08 at cycle   9 NSaved=   9.
 NSaved= 9 IEnMin= 9 EnMin= -226.386204846145     IErMin= 9 ErrMin= 2.70D-08
 ErrMax= 2.70D-08  0.00D+00 EMaxC= 1.00D-01 BMatC= 9.73D-15 BMatP= 9.04D-14
[...]
 E= -226.386204861075     Delta-E=       -0.000000000236 Rises=F Damp=F
 DIIS: error= 8.51D-07 at cycle   3 NSaved=   3.
 NSaved= 3 IEnMin= 3 EnMin= -226.386204861075     IErMin= 3 ErrMin= 8.51D-07
 ErrMax= 8.51D-07  0.00D+00 EMaxC= 1.00D-01 BMatC= 2.66D-11 BMatP= 1.05D-10
 IDIUse=1 WtCom= 1.00D+00 WtEn= 0.00D+00
 Coeff-Com: -0.714D-01 0.265D+00 0.806D+00
 Coeff:     -0.714D-01 0.265D+00 0.806D+00
 Gap=     0.543 Goal=   None    Shift=    0.000
 RMSDP=1.33D-07 MaxDP=8.43D-07 DE=-2.36D-10 OVMax= 2.84D-06

 Cycle   4  Pass 1  IDiag  1:
 E= -226.386204861121     Delta-E=       -0.000000000046 Rises=F Damp=F
 DIIS: error= 3.56D-07 at cycle   4 NSaved=   4.
 NSaved= 4 IEnMin= 4 EnMin= -226.386204861121     IErMin= 4 ErrMin= 3.56D-07
 ErrMax= 3.56D-07  0.00D+00 EMaxC= 1.00D-01 BMatC= 5.65D-12 BMatP= 2.66D-11
 IDIUse=1 WtCom= 1.00D+00 WtEn= 0.00D+00
 Coeff-Com:  0.273D-01-0.279D+00 0.165D-01 0.124D+01
 Coeff:      0.273D-01-0.279D+00 0.165D-01 0.124D+01
 Gap=     0.543 Goal=   None    Shift=    0.000
 RMSDP=1.22D-07 MaxDP=7.69D-07 DE=-4.56D-11 OVMax= 1.99D-06

 Cycle   5  Pass 1  IDiag  1:
 E= -226.386204861139     Delta-E=       -0.000000000018 Rises=F Damp=F
 DIIS: error= 1.88D-07 at cycle   5 NSaved=   5.
 NSaved= 5 IEnMin= 5 EnMin= -226.386204861139     IErMin= 5 ErrMin= 1.88D-07
 ErrMax= 1.88D-07  0.00D+00 EMaxC= 1.00D-01 BMatC= 5.04D-13 BMatP= 5.65D-12
 IDIUse=1 WtCom= 1.00D+00 WtEn= 0.00D+00
 Coeff-Com: -0.447D-02 0.961D-01-0.823D-01-0.538D+00 0.153D+01
 Coeff:     -0.447D-02 0.961D-01-0.823D-01-0.538D+00 0.153D+01
 Gap=     0.543 Goal=   None    Shift=    0.000
 RMSDP=4.90D-08 MaxDP=3.66D-07 DE=-1.82D-11 OVMax= 1.18D-06

 Cycle   6  Pass 1  IDiag  1:
 E= -226.386204861142     Delta-E=       -0.000000000003 Rises=F Damp=F
 DIIS: error= 8.19D-08 at cycle   6 NSaved=   6.
 NSaved= 6 IEnMin= 6 EnMin= -226.386204861142     IErMin= 6 ErrMin= 8.19D-08
 ErrMax= 8.19D-08  0.00D+00 EMaxC= 1.00D-01 BMatC= 8.47D-14 BMatP= 5.04D-13
 IDIUse=1 WtCom= 1.00D+00 WtEn= 0.00D+00
 Coeff-Com: -0.331D-02 0.379D-01-0.117D-01-0.164D+00 0.631D-01 0.108D+01
 Coeff:     -0.331D-02 0.379D-01-0.117D-01-0.164D+00 0.631D-01 0.108D+01
 Gap=     0.543 Goal=   None    Shift=    0.000
 RMSDP=1.75D-08 MaxDP=1.14D-07 DE=-3.24D-12 OVMax= 4.53D-07

 Cycle   7  Pass 1  IDiag  1:
 E= -226.386204861143     Delta-E=        0.000000000000 Rises=F Damp=F
 DIIS: error= 3.96D-08 at cycle   7 NSaved=   7.
 NSaved= 7 IEnMin= 7 EnMin= -226.386204861143     IErMin= 7 ErrMin= 3.96D-08
 ErrMax= 3.96D-08  0.00D+00 EMaxC= 1.00D-01 BMatC= 1.98D-14 BMatP= 8.47D-14
 IDIUse=1 WtCom= 1.00D+00 WtEn= 0.00D+00
 Coeff-Com:  0.179D-02-0.332D-01 0.216D-01 0.191D+00-0.481D+00-0.125D+00
 Coeff-Com:  0.143D+01
 Coeff:      0.179D-02-0.332D-01 0.216D-01 0.191D+00-0.481D+00-0.125D+00
 Coeff:      0.143D+01
 Gap=     0.543 Goal=   None    Shift=    0.000
 RMSDP=1.29D-08 MaxDP=7.57D-08 DE=-2.27D-13 OVMax= 3.44D-07

 Cycle   8  Pass 1  IDiag  1:
 E= -226.386204861142     Delta-E=        0.000000000000 Rises=F Damp=F
 DIIS: error= 7.54D-09 at cycle   8 NSaved=   8.
 NSaved= 8 IEnMin= 7 EnMin= -226.386204861143     IErMin= 8 ErrMin= 7.54D-09
 ErrMax= 7.54D-09  0.00D+00 EMaxC= 1.00D-01 BMatC= 1.13D-15 BMatP= 1.98D-14
 IDIUse=1 WtCom= 1.00D+00 WtEn= 0.00D+00
 Coeff-Com: -0.167D-04 0.246D-02-0.395D-02-0.166D-01 0.774D-01-0.659D-01
 Coeff-Com: -0.271D+00 0.128D+01
 Coeff:     -0.167D-04 0.246D-02-0.395D-02-0.166D-01 0.774D-01-0.659D-01
 Coeff:     -0.271D+00 0.128D+01
 Gap=     0.543 Goal=   None    Shift=    0.000
 RMSDP=2.59D-09 MaxDP=1.49D-08 DE= 2.84D-13 OVMax= 6.57D-08

 SCF Done:  E(RHF) =  -226.386204861     A.U. after    8 cycles
            NFock=  8  Conv=0.26D-08     -V/T= 2.0034
 KE= 2.256132719007D+02 PE=-7.684241065362D+02 EE= 1.988131956006D+02
 Leave Link  502 at Fri Apr 12 15:05:35 2019, MaxMem=   134217728 cpu:         0.2
 (Enter /cm/shared/c3ddb/gaussian/09.d01/g09/l701.exe)
 Compute integral first derivatives.
 ... and contract with generalized density number  0.
 Leave Link  701 at Fri Apr 12 15:05:35 2019, MaxMem=   134217728 cpu:         0.2
 (Enter /cm/shared/c3ddb/gaussian/09.d01/g09/l702.exe)
 L702 exits ... SP integral derivatives will be done elsewhere.
 Leave Link  702 at Fri Apr 12 15:05:36 2019, MaxMem=   134217728 cpu:         0.0
 (Enter /cm/shared/c3ddb/gaussian/09.d01/g09/l703.exe)
 Compute integral first derivatives, UseDBF=F ICtDFT=           0.
 Integral derivatives from FoFJK, PRISM(SPDF).
 Calling FoFJK, ICntrl=      2127 FMM=F ISym2X=0 I1Cent= 0 IOpClX= 0 NMat=1 NMatS=1 NMatT=0.
 FoFJK:  IHMeth= 1 ICntrl=    2127 DoSepK=F KAlg= 0 I1Cent=   0 FoldK=F
 IRaf=         0 NMat=   1 IRICut=       1 DoRegI=T DoRafI=F ISym2E= 0.
 FoFCou: FMM=F IPFlag=           0 FMFlag=      100000 FMFlg1=         800
         NFxFlg=           0 DoJE=F BraDBF=F KetDBF=F FulRan=T
         wScrn=  0.000000 ICntrl=    2127 IOpCl=  0 I1Cent=           0 NGrid=           0
         NMat0=    1 NMatS0=      1 NMatT0=    0 NMatD0=    1 NMtDS0=    0 NMtDT0=    0
 Symmetry not used in FoFCou.
 Leave Link  703 at Fri Apr 12 15:05:36 2019, MaxMem=   134217728 cpu:         0.2
 (Enter /cm/shared/c3ddb/gaussian/09.d01/g09/l716.exe)
 Dipole        = 1.21608250D+00-6.28540706D-01-3.87982255D-01
 -------------------------------------------------------------------
 Center     Atomic                   Forces (Hartrees/Bohr)
 Number     Number              X              Y              Z
 -------------------------------------------------------------------
      1        6           0.000062951    0.003796740   -0.003814785
      2        6           0.000007292   -0.000123015    0.002693334
      3        1          -0.000000623   -0.000000310   -0.000000123
      4        1          -0.000000294   -0.000000125   -0.000000057
      5        1          -0.000001223    0.000000494   -0.000000209
      6        8          -0.000566515   -0.007085451    0.001110460
      7        8           0.003534215    0.006036027   -0.000858751
      8        1          -0.003035802   -0.002624360    0.000870130
 -------------------------------------------------------------------
 Cartesian Forces:  Max     0.007085451 RMS     0.002537395
 Leave Link  716 at Fri Apr 12 15:05:36 2019, MaxMem=   134217728 cpu:         0.1
 (Enter /cm/shared/c3ddb/gaussian/09.d01/g09/l103.exe)

 GradGradGradGradGradGradGradGradGradGradGradGradGradGradGradGradGradGrad
 Berny optimization.
 Using GEDIIS/GDIIS optimizer.
 FormGI is forming the generalized inverse of G from B-inverse, IUseBI=4.
 Internal  Forces:  Max     0.007385398 RMS     0.001855106
 Search for a local minimum.
 Step number   6 out of a maximum of   32
 All quantities printed in internal units (Hartrees-Bohrs-Radians)
 RMS Force = .87956D-06 SwitMx=.10000D-02 MixMth= 2
 Mixed Optimization -- En-DIIS/RFO-DIIS
 Swapping is turned off.
 Update second derivatives using D2CorX and points    1    2    3    4    5
                                                      6
 DE= -2.41D-09 DEPred=-2.35D-09 R= 1.02D+00
 Trust test= 1.02D+00 RLast= 1.89D-04 DXMaxT set to 3.00D-01
 ITU=  0  0  0  1  0  0
     Eigenvalues ---    0.02838   0.03525   0.05030   0.13287   0.15901
     Eigenvalues ---    0.16057   0.21149   0.23041   0.27043   0.36120
     Eigenvalues ---    0.36945   0.37148   0.38133   0.46786   0.52190
     Eigenvalues ---    0.641341000.000001000.000001000.000001000.00000
     Eigenvalues --- 1000.000001000.00000
 En-DIIS/RFO-DIIS IScMMF=        0 using points:     6    5    4    3    2
 RFO step:  Lambda=-2.39423164D-06.
 NNeg= 0 NP= 5 Switch=  2.50D-03 Rises=F DC=  9.47D-06 SmlDif=  1.00D-05
 RMS Error=  0.5869345907D-04 NUsed= 5 EDIIS=F
 DidBck=F Rises=F RFO-DIIS coefs:    1.03797   -0.03068   -0.00444   -0.00217   -0.00068
 Iteration  1 RMS(Cart)=  0.00000712 RMS(Int)=  0.00000047
 Iteration  2 RMS(Cart)=  0.00000000 RMS(Int)=  0.00000047
 Iteration  1 RMS(Cart)=  0.00000065 RMS(Int)=  0.00000026
 ITry= 1 IFail=0 DXMaxC= 1.51D-05 DCOld= 1.00D+10 DXMaxT= 3.00D-01 DXLimC= 3.00D+00 Rises=F
 Variable       Old X    -DE/DX   Delta X   Delta X   Delta X     New X
                                 (Linear)    (Quad)   (Total)
    R1        2.47654   0.00000   0.00000   0.00000   0.00000   2.47654
    R2        2.02094   0.00000   0.00000   0.00000   0.00000   2.02093
    R3        2.66885   0.00000   0.00000   0.00000   0.00001   2.66886
    R4        2.02353   0.00000   0.00000   0.00000   0.00000   2.02353
    R5        2.02665   0.00000   0.00000   0.00000   0.00000   2.02665
    R6        2.78703   0.00000   0.00000   0.00000   0.00000   2.78702
    R7        1.84354   0.00000   0.00000   0.00000   0.00000   1.84354
    A1        2.17107   0.00003   0.00000   0.00000   0.00001   2.17108
    A2        2.11128   0.00001   0.00000   0.00000   0.00000   2.11128
    A3        2.00067  -0.00001   0.00000   0.00000   0.00000   2.00067
    A4        2.10836   0.00000   0.00000   0.00001   0.00001   2.10837
    A5        2.11580   0.00000   0.00000  -0.00001  -0.00001   2.11579
    A6        2.05830   0.00000   0.00000   0.00001   0.00000   2.05830
    A7        1.88887   0.00000   0.00000   0.00000   0.00000   1.88887
    A8        1.79201   0.00000   0.00000   0.00000   0.00001   1.79202
    D1        0.03201  -0.00092   0.00000   0.00000   0.00000   0.03201
    D2        3.13194  -0.00092   0.00000   0.00001   0.00001   3.13194
    D3       -3.13013   0.00092   0.00000   0.00000   0.00000  -3.13013
    D4       -0.03020   0.00092   0.00000   0.00001   0.00001  -0.03019
    D5       -1.57080  -0.00370   0.00000   0.00000   0.00000  -1.57080
    D6        1.55215  -0.00203   0.00000   0.00000   0.00000   1.55215
    D7        0.87266   0.00739   0.00000   0.00000   0.00000   0.87266
         Item               Value     Threshold  Converged?
 Maximum Force            0.000002     0.000015     YES
 RMS     Force            0.000001     0.000010     YES
 Maximum Displacement     0.000015     0.000060     YES
 RMS     Displacement     0.000007     0.000040     YES
 Predicted change in Energy=-1.123290D-10
 Optimization completed.
    -- Stationary point found.
                           ----------------------------
                           !   Optimized Parameters   !
                           ! (Angstroms and Degrees)  !
 --------------------------                            --------------------------
 ! Name  Definition              Value          Derivative Info.                !
 --------------------------------------------------------------------------------
 ! R1    R(1,2)                  1.3105         -DE/DX =    0.0                 !
 ! R2    R(1,3)                  1.0694         -DE/DX =    0.0                 !
 ! R3    R(1,6)                  1.4123         -DE/DX =    0.0                 !
 ! R4    R(2,4)                  1.0708         -DE/DX =    0.0                 !
 ! R5    R(2,5)                  1.0725         -DE/DX =    0.0                 !
 ! R6    R(6,7)                  1.4748         -DE/DX =    0.0                 !
 ! R7    R(7,8)                  0.9756         -DE/DX =    0.0                 !
 ! A1    A(2,1,3)              124.3932         -DE/DX =    0.0                 !
 ! A2    A(2,1,6)              120.9674         -DE/DX =    0.0                 !
 ! A3    A(3,1,6)              114.63           -DE/DX =    0.0                 !
 ! A4    A(1,2,4)              120.8003         -DE/DX =    0.0                 !
 ! A5    A(1,2,5)              121.2267         -DE/DX =    0.0                 !
 ! A6    A(4,2,5)              117.9317         -DE/DX =    0.0                 !
 ! A7    A(1,6,7)              108.2245         -DE/DX =    0.0                 !
 ! A8    A(6,7,8)              102.6744         -DE/DX =    0.0                 !
 ! D1    D(3,1,2,4)              1.8339         -DE/DX =   -0.0009              !
 ! D2    D(3,1,2,5)            179.4468         -DE/DX =   -0.0009              !
 ! D3    D(6,1,2,4)           -179.343          -DE/DX =    0.0009              !
 ! D4    D(6,1,2,5)             -1.7301         -DE/DX =    0.0009              !
 ! D5    D(2,1,6,7)            -90.0            -DE/DX =   -0.0037              !
 ! D6    D(3,1,6,7)             88.9317         -DE/DX =   -0.002               !
 ! D7    D(1,6,7,8)             50.0            -DE/DX =    0.0074              !
 --------------------------------------------------------------------------------
 Lowest energy point so far.  Saving SCF results.
 GradGradGradGradGradGradGradGradGradGradGradGradGradGradGradGradGradGrad

 Largest change from initial coordinates is atom    8       0.014 Angstoms.
 Leave Link  103 at Fri Apr 12 15:05:36 2019, MaxMem=   134217728 cpu:         0.0
 (Enter /cm/shared/c3ddb/gaussian/09.d01/g09/l202.exe)
                          Input orientation:                          
 ---------------------------------------------------------------------
 Center     Atomic      Atomic             Coordinates (Angstroms)
 Number     Number       Type             X           Y           Z
 ---------------------------------------------------------------------
      1          6           0        0.728748    0.628501    0.036922
      2          6           0        1.381690   -0.506564   -0.015737
      3          1           0        1.192725    1.591726    0.061645
      4          1           0        2.452324   -0.524113   -0.007889
      5          1           0        0.863961   -1.445672   -0.029698
      6          8           0       -0.683292    0.655090    0.040652
      7          8           0       -1.146949    0.727258   -1.357540
      8          1           0       -0.647379    0.007230   -1.786147
 ---------------------------------------------------------------------
                    Distance matrix (angstroms):
                    1          2          3          4          5
     1  C    0.000000
     2  C    1.310527   0.000000
     3  H    1.069433   2.108203   0.000000
     4  H    2.073943   1.070807   2.463372   0.000000
     5  H    2.079643   1.072455   3.056504   1.836476   0.000000
     6  O    1.412295   2.369972   2.096942   3.350367   2.610008
     7  O    2.339341   3.117172   2.869750   4.042555   3.244772
     8  H    2.367126   2.741433   3.051384   3.612850   2.734993
                    6          7          8
     6  O    0.000000
     7  O    1.474830   0.000000
     8  H    1.938610   0.975559   0.000000
 Symmetry turned off by external request.
 Stoichiometry    C2H4O2
 Framework group  C1[X(C2H4O2)]
 Deg. of freedom    18
 Full point group                 C1      NOp   1
 Rotational constants (GHZ):     22.4733615      5.3737098      4.9018613
 Leave Link  202 at Fri Apr 12 15:05:36 2019, MaxMem=   134217728 cpu:         0.0
 (Enter /cm/shared/c3ddb/gaussian/09.d01/g09/l601.exe)
 Copying SCF densities to generalized density rwf, IOpCl= 0 IROHF=0.

 **********************************************************************

            Population analysis using the SCF density.

 **********************************************************************

 Alpha  occ. eigenvalues --  -20.52953 -20.52116 -11.25106 -11.19444  -1.46834
 Alpha  occ. eigenvalues --   -1.23302  -1.04921  -0.80727  -0.72572  -0.66322
 Alpha  occ. eigenvalues --   -0.62891  -0.59640  -0.56318  -0.50988  -0.45059
 Alpha  occ. eigenvalues --   -0.40030
 Alpha virt. eigenvalues --    0.14227   0.25095   0.27825   0.30303   0.30760
 Alpha virt. eigenvalues --    0.36024   0.49049   0.55103   0.87724   0.96243
 Alpha virt. eigenvalues --    0.98464   1.05168   1.08489   1.10674   1.23851
 Alpha virt. eigenvalues --    1.30708   1.36263   1.56166   1.59168   1.76270
 Alpha virt. eigenvalues --    1.80960   1.84801   1.97082   2.07609   2.08441
 Alpha virt. eigenvalues --    2.18302   3.07848   3.47690
          Condensed to atoms (all electrons):
               1          2          3          4          5          6
     1  C    4.947551   0.451758   0.380274  -0.037728  -0.051177   0.249653
     2  C    0.451758   5.388013  -0.066641   0.370190   0.387291  -0.064911
     3  H    0.380274  -0.066641   0.470020   0.001364   0.002166  -0.037977
     4  H   -0.037728   0.370190   0.001364   0.441913  -0.014601   0.001489
     5  H   -0.051177   0.387291   0.002166  -0.014601   0.430957  -0.000488
     6  O    0.249653  -0.064911  -0.037977   0.001489  -0.000488   8.138107
     7  O   -0.037825  -0.002856   0.001900  -0.000015   0.000025   0.125564
     8  H   -0.001496   0.006412  -0.000046  -0.000053   0.000606  -0.026728
               7          8
     1  C   -0.037825  -0.001496
     2  C   -0.002856   0.006412
     3  H    0.001900  -0.000046
     4  H   -0.000015  -0.000053
     5  H    0.000025   0.000606
     6  O    0.125564  -0.026728
     7  O    8.053020   0.234104
     8  H    0.234104   0.389912
 Mulliken charges:
               1
     1  C    0.098990
     2  C   -0.469257
     3  H    0.248941
     4  H    0.237441
     5  H    0.245222
     6  O   -0.384708
     7  O   -0.373917
     8  H    0.397289
 Sum of Mulliken charges =   0.00000
 Mulliken charges with hydrogens summed into heavy atoms:
               1
     1  C    0.347930
     2  C    0.013406
     6  O   -0.384708
     7  O    0.023372
 Electronic spatial extent (au):  <R**2>=            309.3514
 Charge=              0.0000 electrons
 Dipole moment (field-independent basis, Debye):
    X=              3.0910    Y=             -1.5976    Z=             -0.9862  Tot=              3.6165
 Quadrupole moment (field-independent basis, Debye-Ang):
   XX=            -24.7248   YY=            -23.0362   ZZ=            -22.8060
   XY=              2.8197   XZ=             -0.5866   YZ=              2.1125
 Traceless Quadrupole moment (field-independent basis, Debye-Ang):
   XX=             -1.2024   YY=              0.4862   ZZ=              0.7163
   XY=              2.8197   XZ=             -0.5866   YZ=              2.1125
 Octapole moment (field-independent basis, Debye-Ang**2):
  XXX=             -2.8264  YYY=            -23.4117  ZZZ=             17.0288  XYY=             -0.0534
  XXY=            -10.3162  XXZ=             10.3575  XZZ=             -5.8875  YZZ=            -10.6949
  YYZ=              9.6440  XYZ=             -2.2444
 Hexadecapole moment (field-independent basis, Debye-Ang**3):
 XXXX=           -175.6694 YYYY=            -83.7776 ZZZZ=            -73.4550 XXXY=             26.9390
 XXXZ=            -30.4225 YYYX=             30.0233 YYYZ=             16.6496 ZZZX=            -24.1617
 ZZZY=             19.2085 XXYY=            -45.8073 XXZZ=            -52.0908 YYZZ=            -33.3864
 XXYZ=              7.9475 YYXZ=            -10.5709 ZZXY=             12.5778
 N-N= 1.176114341738D+02 E-N=-7.684241064162D+02  KE= 2.256132719007D+02
 No NMR shielding tensors so no spin-rotation constants.
 Leave Link  601 at Fri Apr 12 15:05:36 2019, MaxMem=   134217728 cpu:         0.1
 (Enter /cm/shared/c3ddb/gaussian/09.d01/g09/l9999.exe)
 1\1\GINC-NODE029\FOpt\RHF\3-21G\C2H4O2\MATTSJ\12-Apr-2019\0\\#p hf 3-2
 1g scf=tight NoSymmetry guess=read opt=(tight,modredundant)\\Geometry 
 optimization at the 2D-PES\\0,1\C,0.7287482876,0.6285013735,0.03692153
 16\C,1.3816898584,-0.5065644168,-0.0157372537\H,1.1927248757,1.5917261
 808,0.0616450819\H,2.4523238787,-0.5241128263,-0.0078891048\H,0.863961
 0174,-1.4456717453,-0.0296979082\O,-0.6832915331,0.6550900307,0.040651
 5998\O,-1.1469487396,0.7272577954,-1.3575396201\H,-0.6473786451,0.0072
 29608,-1.7861473266\\Version=AS64L-G09RevD.01\HF=-226.3862049\RMSD=2.5
 86e-09\RMSF=2.537e-03\Dipole=1.2160825,-0.6285407,-0.3879823\Quadrupol
 e=-0.893984,0.3614472,0.5325368,2.0963974,-0.4360912,1.5705775\PG=C01 
 [X(C2H4O2)]\\@


 TIME GOES, YOU SAY?  AH NO!
 ALAS, TIME STAYS, WE GO.
    -- A. DOBSON (1840-1921)
 Job cpu time:       0 days  0 hours  0 minutes 10.7 seconds.
 File lengths (MBytes):  RWF=      5 Int=      0 D2E=      0 Chk=      1 Scr=      1
 Normal termination of Gaussian 09 at Fri Apr 12 15:05:36 2019.
