 Entering Gaussian System, Link 0=/cm/shared/c3ddb/gaussian/09.d01/g09/g09
 Initial command:
 /cm/shared/c3ddb/gaussian/09.d01/g09/l1.exe "/scratch/users/mattsj/g09/S02-7952157/Gau-43363.inp" -scrdir="/scratch/users/mattsj/g09/S02-7952157/"
 Entering Link 1 = /cm/shared/c3ddb/gaussian/09.d01/g09/l1.exe PID=     43364.
  
 Copyright (c) 1988,1990,1992,1993,1995,1998,2003,2009,2013,
            Gaussian, Inc.  All Rights Reserved.
  
 This is part of the Gaussian(R) 09 program.  It is based on
 the Gaussian(R) 03 system (copyright 2003, Gaussian, Inc.),
 the Gaussian(R) 98 system (copyright 1998, Gaussian, Inc.),
 the Gaussian(R) 94 system (copyright 1995, Gaussian, Inc.),
 the Gaussian 92(TM) system (copyright 1992, Gaussian, Inc.),
 the Gaussian 90(TM) system (copyright 1990, Gaussian, Inc.),
 the Gaussian 88(TM) system (copyright 1988, Gaussian, Inc.),
 the Gaussian 86(TM) system (copyright 1986, Carnegie Mellon
 University), and the Gaussian 82(TM) system (copyright 1983,
 Carnegie Mellon University). Gaussian is a federally registered
 trademark of Gaussian, Inc.
  
 This software contains proprietary and confidential information,
 including trade secrets, belonging to Gaussian, Inc.
  
 This software is provided under written license and may be
 used, copied, transmitted, or stored only in accord with that
 written license.
  
 The following legend is applicable only to US Government
 contracts under FAR:
  
                    RESTRICTED RIGHTS LEGEND
  
 Use, reproduction and disclosure by the US Government is
 subject to restrictions as set forth in subparagraphs (a)
 and (c) of the Commercial Computer Software - Restricted
 Rights clause in FAR 52.227-19.
  
 Gaussian, Inc.
 340 Quinnipiac St., Bldg. 40, Wallingford CT 06492
  
  
 ---------------------------------------------------------------
 Warning -- This program may not be used in any manner that
 competes with the business of Gaussian, Inc. or will provide
 assistance to any competitor of Gaussian, Inc.  The licensee
 of this program is prohibited from giving any competitor of
 Gaussian, Inc. access to this program.  By using this program,
 the user acknowledges that Gaussian, Inc. is engaged in the
 business of creating and licensing software in the field of
 computational chemistry and represents and warrants to the
 licensee that it is not a competitor of Gaussian, Inc. and that
 it will not use this program in any manner prohibited above.
 ---------------------------------------------------------------
  

 Cite this work as:
 Gaussian 09, Revision D.01,
 M. J. Frisch, G. W. Trucks, H. B. Schlegel, G. E. Scuseria, 
 M. A. Robb, J. R. Cheeseman, G. Scalmani, V. Barone, B. Mennucci, 
 G. A. Petersson, H. Nakatsuji, M. Caricato, X. Li, H. P. Hratchian, 
 A. F. Izmaylov, J. Bloino, G. Zheng, J. L. Sonnenberg, M. Hada, 
 M. Ehara, K. Toyota, R. Fukuda, J. Hasegawa, M. Ishida, T. Nakajima, 
 Y. Honda, O. Kitao, H. Nakai, T. Vreven, J. A. Montgomery, Jr., 
 J. E. Peralta, F. Ogliaro, M. Bearpark, J. J. Heyd, E. Brothers, 
 K. N. Kudin, V. N. Staroverov, T. Keith, R. Kobayashi, J. Normand, 
 K. Raghavachari, A. Rendell, J. C. Burant, S. S. Iyengar, J. Tomasi, 
 M. Cossi, N. Rega, J. M. Millam, M. Klene, J. E. Knox, J. B. Cross, 
 V. Bakken, C. Adamo, J. Jaramillo, R. Gomperts, R. E. Stratmann, 
 O. Yazyev, A. J. Austin, R. Cammi, C. Pomelli, J. W. Ochterski, 
 R. L. Martin, K. Morokuma, V. G. Zakrzewski, G. A. Voth, 
 P. Salvador, J. J. Dannenberg, S. Dapprich, A. D. Daniels, 
 O. Farkas, J. B. Foresman, J. V. Ortiz, J. Cioslowski, 
 and D. J. Fox, Gaussian, Inc., Wallingford CT, 2013.
 
 ******************************************
 Gaussian 09:  AS64L-G09RevD.01 24-Apr-2013
                12-Apr-2019 
 ******************************************
 %nproc=1
 Will use up to    1 processors via shared memory.
 %mem=1GB
 %chk=TMP_CALCS/scangeom_S02_150_040.chk
 --------------------------------------------------------------------
 #p hf 3-21g scf=tight NoSymmetry guess=read opt=(tight,modredundant)
 --------------------------------------------------------------------
 1/7=10,18=120,19=15,38=1/1,3;
 2/9=110,12=2,15=1,17=6,18=5,40=1/2;
 3/5=5,11=9,16=1,25=1,30=1,71=1,116=-2/1,2,3;
 4/5=1/1;
 5/5=2,32=2,38=6/2;
 6/7=2,8=2,9=2,10=2,28=1/1;
 7/30=1/1,2,3,16;
 1/7=10,18=20,19=15/3(2);
 2/9=110,15=1/2;
 99//99;
 2/9=110,15=1/2;
 3/5=5,11=9,16=1,25=1,30=1,71=1/1,2,3;
 4/5=5,16=3,69=1/1;
 5/5=2,32=2,38=5/2;
 7/30=1/1,2,3,16;
 1/7=10,18=20,19=15/3(-5);
 2/9=110,15=1/2;
 6/7=2,8=2,9=2,10=2,19=2,28=1/1;
 99/9=1/99;
 Leave Link    1 at Fri Apr 12 15:55:40 2019, MaxMem=   134217728 cpu:         0.1
 (Enter /cm/shared/c3ddb/gaussian/09.d01/g09/l101.exe)
 -----------------------------------
 Geometry optimization at the 2D-PES
 -----------------------------------
 Symbolic Z-matrix:
 Charge =  0 Multiplicity = 1
 C                     0.76457   0.62977   0.06398 
 C                     1.38303  -0.5214    0.00358 
 H                     1.27508   1.57366   0.08485 
 H                     2.45185  -0.56503  -0.03112 
 H                     0.83427  -1.44019  -0.02392 
 O                    -0.63265   0.70222  -0.01549 
 O                    -1.15647   1.84919   0.73712 
 H                    -0.52641   2.57166   0.55909 
 
 The following ModRedundant input section has been read:
 D       2       1       6       7 F                                           
 D       1       6       7       8 F                                           
 
 NAtoms=      8 NQM=        8 NQMF=       0 NMMI=      0 NMMIF=      0
                NMic=       0 NMicF=      0.
                    Isotopes and Nuclear Properties:
 (Nuclear quadrupole moments (NQMom) in fm**2, nuclear magnetic moments (NMagM)
  in nuclear magnetons)

  Atom         1           2           3           4           5           6           7           8
 IAtWgt=          12          12           1           1           1          16          16           1
 AtmWgt=  12.0000000  12.0000000   1.0078250   1.0078250   1.0078250  15.9949146  15.9949146   1.0078250
 NucSpn=           0           0           1           1           1           0           0           1
 AtZEff=   0.0000000   0.0000000   0.0000000   0.0000000   0.0000000   0.0000000   0.0000000   0.0000000
 NQMom=    0.0000000   0.0000000   0.0000000   0.0000000   0.0000000   0.0000000   0.0000000   0.0000000
 NMagM=    0.0000000   0.0000000   2.7928460   2.7928460   2.7928460   0.0000000   0.0000000   2.7928460
 AtZNuc=   6.0000000   6.0000000   1.0000000   1.0000000   1.0000000   8.0000000   8.0000000   1.0000000
 Leave Link  101 at Fri Apr 12 15:55:40 2019, MaxMem=   134217728 cpu:         0.2
 (Enter /cm/shared/c3ddb/gaussian/09.d01/g09/l103.exe)

 GradGradGradGradGradGradGradGradGradGradGradGradGradGradGradGradGradGrad
 Berny optimization.
 Initialization pass.
                           ----------------------------
                           !    Initial Parameters    !
                           ! (Angstroms and Degrees)  !
 --------------------------                            --------------------------
 ! Name  Definition              Value          Derivative Info.                !
 --------------------------------------------------------------------------------
 ! R1    R(1,2)                  1.3082         estimate D2E/DX2                !
 ! R2    R(1,3)                  1.0733         estimate D2E/DX2                !
 ! R3    R(1,6)                  1.4014         estimate D2E/DX2                !
 ! R4    R(2,4)                  1.0703         estimate D2E/DX2                !
 ! R5    R(2,5)                  1.0705         estimate D2E/DX2                !
 ! R6    R(6,7)                  1.4685         estimate D2E/DX2                !
 ! R7    R(7,8)                  0.975          estimate D2E/DX2                !
 ! A1    A(2,1,3)              123.3606         estimate D2E/DX2                !
 ! A2    A(2,1,6)              120.9468         estimate D2E/DX2                !
 ! A3    A(3,1,6)              115.4598         estimate D2E/DX2                !
 ! A4    A(1,2,4)              120.6298         estimate D2E/DX2                !
 ! A5    A(1,2,5)              120.9364         estimate D2E/DX2                !
 ! A6    A(4,2,5)              118.43           estimate D2E/DX2                !
 ! A7    A(1,6,7)              111.5293         estimate D2E/DX2                !
 ! A8    A(6,7,8)              104.7542         estimate D2E/DX2                !
 ! D1    D(3,1,2,4)             -0.184          estimate D2E/DX2                !
 ! D2    D(3,1,2,5)           -179.4605         estimate D2E/DX2                !
 ! D3    D(6,1,2,4)            174.0186         estimate D2E/DX2                !
 ! D4    D(6,1,2,5)             -5.2579         estimate D2E/DX2                !
 ! D5    D(2,1,6,7)            150.0            Frozen                          !
 ! D6    D(3,1,6,7)            -35.3616         estimate D2E/DX2                !
 ! D7    D(1,6,7,8)             40.0            Frozen                          !
 --------------------------------------------------------------------------------
 Trust Radius=3.00D-01 FncErr=1.00D-07 GrdErr=1.00D-07
 Number of steps in this run=     32 maximum allowed number of steps=    100.
 GradGradGradGradGradGradGradGradGradGradGradGradGradGradGradGradGradGrad

 Leave Link  103 at Fri Apr 12 15:55:40 2019, MaxMem=   134217728 cpu:         0.0
 (Enter /cm/shared/c3ddb/gaussian/09.d01/g09/l202.exe)
                          Input orientation:                          
 ---------------------------------------------------------------------
 Center     Atomic      Atomic             Coordinates (Angstroms)
 Number     Number       Type             X           Y           Z
 ---------------------------------------------------------------------
      1          6           0        0.764574    0.629771    0.063984
      2          6           0        1.383030   -0.521398    0.003580
      3          1           0        1.275080    1.573655    0.084847
      4          1           0        2.451852   -0.565027   -0.031117
      5          1           0        0.834271   -1.440185   -0.023924
      6          8           0       -0.632645    0.702217   -0.015488
      7          8           0       -1.156465    1.849190    0.737124
      8          1           0       -0.526410    2.571658    0.559091
 ---------------------------------------------------------------------
                    Distance matrix (angstroms):
                    1          2          3          4          5
     1  C    0.000000
     2  C    1.308177   0.000000
     3  H    1.073298   2.099406   0.000000
     4  H    2.069660   1.070275   2.443809   0.000000
     5  H    2.072994   1.070543   3.047848   1.839163   0.000000
     6  O    1.401351   2.358080   2.099735   3.334707   2.596498
     7  O    2.372866   3.550607   2.532547   4.408922   3.919466
     8  H    2.383841   3.677166   2.113358   4.365453   4.276242
                    6          7          8
     6  O    0.000000
     7  O    1.468455   0.000000
     8  H    1.958631   0.975000   0.000000
 Symmetry turned off by external request.
 Stoichiometry    C2H4O2
 Framework group  C1[X(C2H4O2)]
 Deg. of freedom    18
 Full point group                 C1      NOp   1
 Rotational constants (GHZ):     39.4122928      4.5359544      4.2045404
 Leave Link  202 at Fri Apr 12 15:55:40 2019, MaxMem=   134217728 cpu:         0.0
 (Enter /cm/shared/c3ddb/gaussian/09.d01/g09/l301.exe)
 Standard basis: 3-21G (6D, 7F)
 Ernie: Thresh=  0.10000D-02 Tol=  0.10000D-05 Strict=F.
    44 basis functions,    72 primitive gaussians,    44 cartesian basis functions
    16 alpha electrons       16 beta electrons
       nuclear repulsion energy       116.3503836971 Hartrees.
 IExCor=    0 DFT=F Ex=HF Corr=None ExCW=0 ScaHFX=  1.000000
 ScaDFX=  1.000000  1.000000  1.000000  1.000000 ScalE2=  1.000000  1.000000
 IRadAn=      0 IRanWt=     -1 IRanGd=            0 ICorTp=0 IEmpDi=  4
 NAtoms=    8 NActive=    8 NUniq=    8 SFac= 1.00D+00 NAtFMM=   60 NAOKFM=F Big=F
 Integral buffers will be    131072 words long.
 Raffenetti 1 integral format.
 Two-electron integral symmetry is turned off.
 Leave Link  301 at Fri Apr 12 15:55:40 2019, MaxMem=   134217728 cpu:         0.2
 (Enter /cm/shared/c3ddb/gaussian/09.d01/g09/l302.exe)
 NPDir=0 NMtPBC=     1 NCelOv=     1 NCel=       1 NClECP=     1 NCelD=      1
         NCelK=      1 NCelE2=     1 NClLst=     1 CellRange=     0.0.
 One-electron integrals computed using PRISM.
 NBasis=    44 RedAO= T EigKep=  1.14D-02  NBF=    44
 NBsUse=    44 1.00D-06 EigRej= -1.00D+00 NBFU=    44
 Leave Link  302 at Fri Apr 12 15:55:41 2019, MaxMem=   134217728 cpu:         0.2
 (Enter /cm/shared/c3ddb/gaussian/09.d01/g09/l303.exe)
 DipDrv:  MaxL=1.
 Leave Link  303 at Fri Apr 12 15:55:41 2019, MaxMem=   134217728 cpu:         0.1
 (Enter /cm/shared/c3ddb/gaussian/09.d01/g09/l401.exe)
 Initial guess from the checkpoint file:  "TMP_CALCS/scangeom_S02_150_040.chk"
 B after Tr=    -0.001896   -0.003435    0.013661
         Rot=    0.999963    0.007453   -0.003810   -0.002082 Ang=   0.99 deg.
 Guess basis will be translated and rotated to current coordinates.
 JPrj=2 DoOrth=T DoCkMO=T.
 Leave Link  401 at Fri Apr 12 15:55:41 2019, MaxMem=   134217728 cpu:         0.2
 (Enter /cm/shared/c3ddb/gaussian/09.d01/g09/l502.exe)
 Closed shell SCF:
 Using DIIS extrapolation, IDIIS=  1040.
 Two-electron integral symmetry not used.
 Keep R1 ints in memory in canonical form, NReq=1327247.
 IVT=       24902 IEndB=       24902 NGot=   134217728 MDV=   133702282
 LenX=   133702282 LenY=   133699905
 Requested convergence on RMS density matrix=1.00D-08 within 128 cycles.
 Requested convergence on MAX density matrix=1.00D-06.
 Requested convergence on             energy=1.00D-06.
 No special actions if energy rises.
 FoFCou: FMM=F IPFlag=           0 FMFlag=           0 FMFlg1=           0
         NFxFlg=           0 DoJE=F BraDBF=F KetDBF=F FulRan=T
         wScrn=  0.000000 ICntrl=     600 IOpCl=  0 I1Cent=           0 NGrid=           0
         NMat0=    1 NMatS0=    990 NMatT0=    0 NMatD0=    1 NMtDS0=    0 NMtDT0=    0
 Symmetry not used in FoFCou.

 Cycle   1  Pass 1  IDiag  1:
 E= -226.379526696390    
 DIIS: error= 6.18D-03 at cycle   1 NSaved=   1.
 NSaved= 1 IEnMin= 1 EnMin= -226.379526696390     IErMin= 1 ErrMin= 6.18D-03
 ErrMax= 6.18D-03  0.00D+00 EMaxC= 1.00D-01 BMatC= 1.85D-03 BMatP= 1.85D-03
 IDIUse=3 WtCom= 9.38D-01 WtEn= 6.18D-02
 Coeff-Com:  0.100D+01
 Coeff-En:   0.100D+01
 Coeff:      0.100D+01
 Gap=     0.542 Goal=   None    Shift=    0.000
 GapD=    0.542 DampG=2.000 DampE=1.000 DampFc=2.0000 IDamp=-1.
 RMSDP=1.14D-03 MaxDP=1.38D-02              OVMax= 1.45D-02

 Cycle   2  Pass 1  IDiag  1:
 E= -226.382372732401     Delta-E=       -0.002846036011 Rises=F Damp=F
 DIIS: error= 2.84D-03 at cycle   2 NSaved=   2.
 NSaved= 2 IEnMin= 2 EnMin= -226.382372732401     IErMin= 2 ErrMin= 2.84D-03
 ErrMax= 2.84D-03  0.00D+00 EMaxC= 1.00D-01 BMatC= 1.75D-04 BMatP= 1.85D-03
 IDIUse=3 WtCom= 9.72D-01 WtEn= 2.84D-02
 Coeff-Com: -0.324D+00 0.132D+01
 Coeff-En:   0.000D+00 0.100D+01
 Coeff:     -0.315D+00 0.132D+01
 Gap=     0.541 Goal=   None    Shift=    0.000
 RMSDP=5.85D-04 MaxDP=5.40D-03 DE=-2.85D-03 OVMax= 1.04D-02

 Cycle   3  Pass 1  IDiag  1:
 E= -226.382842820241     Delta-E=       -0.000470087840 Rises=F Damp=F
 DIIS: error= 9.50D-04 at cycle   3 NSaved=   3.
 NSaved= 3 IEnMin= 3 EnMin= -226.382842820241     IErMin= 3 ErrMin= 9.50D-04
 ErrMax= 9.50D-04  0.00D+00 EMaxC= 1.00D-01 BMatC= 1.55D-05 BMatP= 1.75D-04
 IDIUse=3 WtCom= 9.90D-01 WtEn= 9.50D-03
 Coeff-Com:  0.820D-01-0.490D+00 0.141D+01
 Coeff-En:   0.000D+00 0.000D+00 0.100D+01
 Coeff:      0.812D-01-0.485D+00 0.140D+01
 Gap=     0.541 Goal=   None    Shift=    0.000
 RMSDP=2.45D-04 MaxDP=3.41D-03 DE=-4.70D-04 OVMax= 4.88D-03

 Cycle   4  Pass 1  IDiag  1:
 E= -226.382896982444     Delta-E=       -0.000054162203 Rises=F Damp=F
 DIIS: error= 2.19D-04 at cycle   4 NSaved=   4.
 NSaved= 4 IEnMin= 4 EnMin= -226.382896982444     IErMin= 4 ErrMin= 2.19D-04
 ErrMax= 2.19D-04  0.00D+00 EMaxC= 1.00D-01 BMatC= 2.89D-06 BMatP= 1.55D-05
 IDIUse=3 WtCom= 9.98D-01 WtEn= 2.19D-03
 Coeff-Com:  0.678D-01-0.322D+00 0.400D+00 0.854D+00
 Coeff-En:   0.000D+00 0.000D+00 0.000D+00 0.100D+01
 Coeff:      0.677D-01-0.321D+00 0.399D+00 0.854D+00
 Gap=     0.541 Goal=   None    Shift=    0.000
 RMSDP=7.53D-05 MaxDP=9.96D-04 DE=-5.42D-05 OVMax= 1.46D-03

 Cycle   5  Pass 1  IDiag  1:
 E= -226.382902240237     Delta-E=       -0.000005257793 Rises=F Damp=F
 DIIS: error= 5.80D-05 at cycle   5 NSaved=   5.
 NSaved= 5 IEnMin= 5 EnMin= -226.382902240237     IErMin= 5 ErrMin= 5.80D-05
 ErrMax= 5.80D-05  0.00D+00 EMaxC= 1.00D-01 BMatC= 1.76D-07 BMatP= 2.89D-06
 IDIUse=1 WtCom= 1.00D+00 WtEn= 0.00D+00
 Coeff-Com: -0.478D-02 0.371D-01-0.156D+00 0.968D-01 0.103D+01
 Coeff:     -0.478D-02 0.371D-01-0.156D+00 0.968D-01 0.103D+01
 Gap=     0.541 Goal=   None    Shift=    0.000
 RMSDP=2.24D-05 MaxDP=3.08D-04 DE=-5.26D-06 OVMax= 4.23D-04

 Cycle   6  Pass 1  IDiag  1:
 E= -226.382902564389     Delta-E=       -0.000000324152 Rises=F Damp=F
 DIIS: error= 9.72D-06 at cycle   6 NSaved=   6.
 NSaved= 6 IEnMin= 6 EnMin= -226.382902564389     IErMin= 6 ErrMin= 9.72D-06
 ErrMax= 9.72D-06  0.00D+00 EMaxC= 1.00D-01 BMatC= 5.59D-09 BMatP= 1.76D-07
 IDIUse=1 WtCom= 1.00D+00 WtEn= 0.00D+00
 Coeff-Com: -0.198D-02 0.121D-01-0.352D-01 0.296D-02 0.180D+00 0.842D+00
 Coeff:     -0.198D-02 0.121D-01-0.352D-01 0.296D-02 0.180D+00 0.842D+00
 Gap=     0.541 Goal=   None    Shift=    0.000
 RMSDP=2.64D-06 MaxDP=1.47D-05 DE=-3.24D-07 OVMax= 3.87D-05

 Cycle   7  Pass 1  IDiag  1:
 E= -226.382902575168     Delta-E=       -0.000000010779 Rises=F Damp=F
 DIIS: error= 7.16D-06 at cycle   7 NSaved=   7.
 NSaved= 7 IEnMin= 7 EnMin= -226.382902575168     IErMin= 7 ErrMin= 7.16D-06
 ErrMax= 7.16D-06  0.00D+00 EMaxC= 1.00D-01 BMatC= 1.18D-09 BMatP= 5.59D-09
 IDIUse=1 WtCom= 1.00D+00 WtEn= 0.00D+00
 Coeff-Com:  0.105D-02-0.798D-02 0.325D-01-0.196D-01-0.216D+00-0.305D-01
 Coeff-Com:  0.124D+01
 Coeff:      0.105D-02-0.798D-02 0.325D-01-0.196D-01-0.216D+00-0.305D-01
 Coeff:      0.124D+01
 Gap=     0.541 Goal=   None    Shift=    0.000
 RMSDP=2.09D-06 MaxDP=1.22D-05 DE=-1.08D-08 OVMax= 3.91D-05

 Cycle   8  Pass 1  IDiag  1:
 E= -226.382902579700     Delta-E=       -0.000000004532 Rises=F Damp=F
 DIIS: error= 3.95D-06 at cycle   8 NSaved=   8.
 NSaved= 8 IEnMin= 8 EnMin= -226.382902579700     IErMin= 8 ErrMin= 3.95D-06
 ErrMax= 3.95D-06  0.00D+00 EMaxC= 1.00D-01 BMatC= 1.62D-10 BMatP= 1.18D-09
 IDIUse=1 WtCom= 1.00D+00 WtEn= 0.00D+00
 Coeff-Com: -0.174D-03 0.171D-02-0.849D-02 0.687D-02 0.656D-01-0.887D-01
 Coeff-Com: -0.518D+00 0.154D+01
 Coeff:     -0.174D-03 0.171D-02-0.849D-02 0.687D-02 0.656D-01-0.887D-01
 Coeff:     -0.518D+00 0.154D+01
 Gap=     0.541 Goal=   None    Shift=    0.000
 RMSDP=1.01D-06 MaxDP=8.42D-06 DE=-4.53D-09 OVMax= 2.37D-05

 Cycle   9  Pass 1  IDiag  1:
 E= -226.382902580606     Delta-E=       -0.000000000906 Rises=F Damp=F
 DIIS: error= 1.63D-06 at cycle   9 NSaved=   9.
 NSaved= 9 IEnMin= 9 EnMin= -226.382902580606     IErMin= 9 ErrMin= 1.63D-06
 ErrMax= 1.63D-06  0.00D+00 EMaxC= 1.00D-01 BMatC= 2.29D-11 BMatP= 1.62D-10
 IDIUse=1 WtCom= 1.00D+00 WtEn= 0.00D+00
 Coeff-Com: -0.111D-03 0.776D-03-0.284D-02 0.152D-02 0.174D-01 0.168D-01
 Coeff-Com: -0.896D-01-0.244D+00 0.130D+01
 Coeff:     -0.111D-03 0.776D-03-0.284D-02 0.152D-02 0.174D-01 0.168D-01
 Coeff:     -0.896D-01-0.244D+00 0.130D+01
 Gap=     0.541 Goal=   None    Shift=    0.000
 RMSDP=4.02D-07 MaxDP=3.12D-06 DE=-9.06D-10 OVMax= 9.73D-06

 Cycle  10  Pass 1  IDiag  1:
 E= -226.382902580731     Delta-E=       -0.000000000125 Rises=F Damp=F
 DIIS: error= 5.52D-07 at cycle  10 NSaved=  10.
 NSaved=10 IEnMin=10 EnMin= -226.382902580731     IErMin=10 ErrMin= 5.52D-07
 ErrMax= 5.52D-07  0.00D+00 EMaxC= 1.00D-01 BMatC= 3.57D-12 BMatP= 2.29D-11
 IDIUse=1 WtCom= 1.00D+00 WtEn= 0.00D+00
 Coeff-Com:  0.648D-04-0.549D-03 0.242D-02-0.160D-02-0.181D-01 0.127D-01
 Coeff-Com:  0.121D+00-0.233D+00-0.248D+00 0.136D+01
 Coeff:      0.648D-04-0.549D-03 0.242D-02-0.160D-02-0.181D-01 0.127D-01
 Coeff:      0.121D+00-0.233D+00-0.248D+00 0.136D+01
 Gap=     0.541 Goal=   None    Shift=    0.000
 RMSDP=1.59D-07 MaxDP=1.02D-06 DE=-1.25D-10 OVMax= 3.69D-06

 Cycle  11  Pass 1  IDiag  1:
 E= -226.382902580749     Delta-E=       -0.000000000018 Rises=F Damp=F
 DIIS: error= 1.25D-07 at cycle  11 NSaved=  11.
 NSaved=11 IEnMin=11 EnMin= -226.382902580749     IErMin=11 ErrMin= 1.25D-07
 ErrMax= 1.25D-07  0.00D+00 EMaxC= 1.00D-01 BMatC= 3.38D-13 BMatP= 3.57D-12
 IDIUse=1 WtCom= 1.00D+00 WtEn= 0.00D+00
 Coeff-Com: -0.489D-05 0.585D-04-0.334D-03 0.326D-03 0.262D-02-0.575D-02
 Coeff-Com: -0.225D-01 0.898D-01-0.656D-01-0.376D+00 0.138D+01
 Coeff:     -0.489D-05 0.585D-04-0.334D-03 0.326D-03 0.262D-02-0.575D-02
 Coeff:     -0.225D-01 0.898D-01-0.656D-01-0.376D+00 0.138D+01
 Gap=     0.541 Goal=   None    Shift=    0.000
 RMSDP=4.31D-08 MaxDP=3.33D-07 DE=-1.84D-11 OVMax= 7.82D-07

 Cycle  12  Pass 1  IDiag  1:
 E= -226.382902580751     Delta-E=       -0.000000000001 Rises=F Damp=F
 DIIS: error= 2.48D-08 at cycle  12 NSaved=  12.
 NSaved=12 IEnMin=12 EnMin= -226.382902580751     IErMin=12 ErrMin= 2.48D-08
 ErrMax= 2.48D-08  0.00D+00 EMaxC= 1.00D-01 BMatC= 3.73D-14 BMatP= 3.38D-13
 IDIUse=1 WtCom= 1.00D+00 WtEn= 0.00D+00
 Coeff-Com: -0.913D-05 0.767D-04-0.340D-03 0.246D-03 0.248D-02-0.237D-02
 Coeff-Com: -0.169D-01 0.390D-01 0.158D-01-0.204D+00 0.197D+00 0.968D+00
 Coeff:     -0.913D-05 0.767D-04-0.340D-03 0.246D-03 0.248D-02-0.237D-02
 Coeff:     -0.169D-01 0.390D-01 0.158D-01-0.204D+00 0.197D+00 0.968D+00
 Gap=     0.541 Goal=   None    Shift=    0.000
 RMSDP=1.06D-08 MaxDP=7.77D-08 DE=-1.48D-12 OVMax= 1.80D-07

 Cycle  13  Pass 1  IDiag  1:
 E= -226.382902580751     Delta-E=        0.000000000000 Rises=F Damp=F
 DIIS: error= 7.77D-09 at cycle  13 NSaved=  13.
 NSaved=13 IEnMin=13 EnMin= -226.382902580751     IErMin=13 ErrMin= 7.77D-09
 ErrMax= 7.77D-09  0.00D+00 EMaxC= 1.00D-01 BMatC= 3.49D-15 BMatP= 3.73D-14
 IDIUse=1 WtCom= 1.00D+00 WtEn= 0.00D+00
 Coeff-Com:  0.236D-05-0.216D-04 0.105D-03-0.829D-04-0.793D-03 0.105D-02
 Coeff-Com:  0.606D-02-0.190D-01 0.788D-02 0.788D-01-0.211D+00-0.132D+00
 Coeff-Com:  0.127D+01
 Coeff:      0.236D-05-0.216D-04 0.105D-03-0.829D-04-0.793D-03 0.105D-02
 Coeff:      0.606D-02-0.190D-01 0.788D-02 0.788D-01-0.211D+00-0.132D+00
 Coeff:      0.127D+01
 Gap=     0.541 Goal=   None    Shift=    0.000
 RMSDP=3.84D-09 MaxDP=2.66D-08 DE=-5.68D-14 OVMax= 7.43D-08

 SCF Done:  E(RHF) =  -226.382902581     A.U. after   13 cycles
            NFock= 13  Conv=0.38D-08     -V/T= 2.0035
 KE= 2.255877229761D+02 PE=-7.657937122100D+02 EE= 1.974727029560D+02
 Leave Link  502 at Fri Apr 12 15:55:41 2019, MaxMem=   134217728 cpu:         0.3
 (Enter /cm/shared/c3ddb/gaussian/09.d01/g09/l601.exe)
 Copying SCF densities to generalized density rwf, IOpCl= 0 IROHF=0.

 **********************************************************************

            Population analysis using the SCF density.

 **********************************************************************

 Alpha  occ. eigenvalues --  -20.54002 -20.53009 -11.25540 -11.17892  -1.47752
 Alpha  occ. eigenvalues --   -1.24439  -1.04069  -0.81741  -0.71311  -0.67874
 Alpha  occ. eigenvalues --   -0.63882  -0.57922  -0.56053  -0.51868  -0.48537
 Alpha  occ. eigenvalues --   -0.37138
 Alpha virt. eigenvalues --    0.16975   0.23135   0.24132   0.30968   0.34216
 Alpha virt. eigenvalues --    0.35434   0.50861   0.56353   0.88882   0.95955
 Alpha virt. eigenvalues --    0.99105   1.05558   1.09876   1.10940   1.23987
 Alpha virt. eigenvalues --    1.31311   1.35248   1.56879   1.58963   1.71989
 Alpha virt. eigenvalues --    1.82014   1.89971   1.94047   1.97032   2.11603
 Alpha virt. eigenvalues --    2.26133   3.00350   3.52061
          Condensed to atoms (all electrons):
               1          2          3          4          5          6
     1  C    4.903808   0.509379   0.360450  -0.044883  -0.051704   0.220326
     2  C    0.509379   5.306422  -0.053502   0.382074   0.389032  -0.053582
     3  H    0.360450  -0.053502   0.503904  -0.000168   0.002506  -0.039059
     4  H   -0.044883   0.382074  -0.000168   0.445591  -0.014450   0.001338
     5  H   -0.051704   0.389032   0.002506  -0.014450   0.423127  -0.000666
     6  O    0.220326  -0.053582  -0.039059   0.001338  -0.000666   8.155742
     7  O   -0.022265   0.002443  -0.002345  -0.000022  -0.000005   0.125001
     8  H   -0.004198   0.000085   0.006827   0.000006   0.000016  -0.025415
               7          8
     1  C   -0.022265  -0.004198
     2  C    0.002443   0.000085
     3  H   -0.002345   0.006827
     4  H   -0.000022   0.000006
     5  H   -0.000005   0.000016
     6  O    0.125001  -0.025415
     7  O    8.026707   0.235045
     8  H    0.235045   0.390171
 Mulliken charges:
               1
     1  C    0.129088
     2  C   -0.482350
     3  H    0.221387
     4  H    0.230515
     5  H    0.252144
     6  O   -0.383686
     7  O   -0.364560
     8  H    0.397462
 Sum of Mulliken charges =   0.00000
 Mulliken charges with hydrogens summed into heavy atoms:
               1
     1  C    0.350475
     2  C    0.000308
     6  O   -0.383686
     7  O    0.032902
 Electronic spatial extent (au):  <R**2>=            367.3185
 Charge=              0.0000 electrons
 Dipole moment (field-independent basis, Debye):
    X=              3.0986    Y=              1.4163    Z=             -0.2052  Tot=              3.4131
 Quadrupole moment (field-independent basis, Debye-Ang):
   XX=            -25.0895   YY=            -15.2749   ZZ=            -26.2764
   XY=              2.6918   XZ=              0.9648   YZ=              0.4330
 Traceless Quadrupole moment (field-independent basis, Debye-Ang):
   XX=             -2.8759   YY=              6.9387   ZZ=             -4.0628
   XY=              2.6918   XZ=              0.9648   YZ=              0.4330
 Octapole moment (field-independent basis, Debye-Ang**2):
  XXX=             -4.8415  YYY=            -22.8310  ZZZ=            -14.5845  XYY=             -1.0193
  XXY=            -19.7289  XXZ=             -6.4451  XZZ=             -5.7577  YZZ=            -15.6652
  YYZ=             -1.9160  XYZ=              1.8820
 Hexadecapole moment (field-independent basis, Debye-Ang**3):
 XXXX=           -177.1245 YYYY=           -129.8622 ZZZZ=            -41.4869 XXXY=             53.5728
 XXXZ=             14.9428 YYYX=             47.5011 YYYZ=            -13.2716 ZZZX=             14.0129
 ZZZY=            -25.8133 XXYY=            -70.2207 XXZZ=            -42.9388 YYZZ=            -40.8654
 XXYZ=            -11.0184 YYXZ=              6.1433 ZZXY=             18.2964
 N-N= 1.163503836971D+02 E-N=-7.657937124067D+02  KE= 2.255877229761D+02
 No NMR shielding tensors so no spin-rotation constants.
 Leave Link  601 at Fri Apr 12 15:55:42 2019, MaxMem=   134217728 cpu:         0.1
 (Enter /cm/shared/c3ddb/gaussian/09.d01/g09/l701.exe)
 Compute integral first derivatives.
 ... and contract with generalized density number  0.
 Leave Link  701 at Fri Apr 12 15:55:42 2019, MaxMem=   134217728 cpu:         0.1
 (Enter /cm/shared/c3ddb/gaussian/09.d01/g09/l702.exe)
 L702 exits ... SP integral derivatives will be done elsewhere.
 Leave Link  702 at Fri Apr 12 15:55:42 2019, MaxMem=   134217728 cpu:         0.0
 (Enter /cm/shared/c3ddb/gaussian/09.d01/g09/l703.exe)
 Compute integral first derivatives, UseDBF=F ICtDFT=           0.
 Integral derivatives from FoFJK, PRISM(SPDF).
 Calling FoFJK, ICntrl=      2127 FMM=F ISym2X=0 I1Cent= 0 IOpClX= 0 NMat=1 NMatS=1 NMatT=0.
 FoFJK:  IHMeth= 1 ICntrl=    2127 DoSepK=F KAlg= 0 I1Cent=   0 FoldK=F
 IRaf=         0 NMat=   1 IRICut=       1 DoRegI=T DoRafI=F ISym2E= 0.
 FoFCou: FMM=F IPFlag=           0 FMFlag=      100000 FMFlg1=         800
         NFxFlg=           0 DoJE=F BraDBF=F KetDBF=F FulRan=T
         wScrn=  0.000000 ICntrl=    2127 IOpCl=  0 I1Cent=           0 NGrid=           0
         NMat0=    1 NMatS0=      1 NMatT0=    0 NMatD0=    1 NMtDS0=    0 NMtDT0=    0
 Symmetry not used in FoFCou.
 Leave Link  703 at Fri Apr 12 15:55:42 2019, MaxMem=   134217728 cpu:         0.2
 (Enter /cm/shared/c3ddb/gaussian/09.d01/g09/l716.exe)
 Dipole        = 1.21907259D+00 5.57210582D-01-8.07204878D-02
 -------------------------------------------------------------------
 Center     Atomic                   Forces (Hartrees/Bohr)
 Number     Number              X              Y              Z
 -------------------------------------------------------------------
      1        6           0.000351816   -0.000789979    0.001352331
      2        6          -0.000376817   -0.000218842    0.001514754
      3        1          -0.000269134   -0.000147942    0.000443279
      4        1          -0.000017415    0.000022445   -0.000062748
      5        1           0.000027840   -0.000048450    0.000137958
      6        8          -0.001283612    0.004802013   -0.005526954
      7        8           0.003409255   -0.004513690    0.007179364
      8        1          -0.001841934    0.000894446   -0.005037985
 -------------------------------------------------------------------
 Cartesian Forces:  Max     0.007179364 RMS     0.002690621
 Leave Link  716 at Fri Apr 12 15:55:42 2019, MaxMem=   134217728 cpu:         0.0
 (Enter /cm/shared/c3ddb/gaussian/09.d01/g09/l103.exe)

 GradGradGradGradGradGradGradGradGradGradGradGradGradGradGradGradGradGrad
 Berny optimization.
 FormGI is forming the generalized inverse of G from B-inverse, IUseBI=4.
 Internal  Forces:  Max     0.009350077 RMS     0.002314673
 Search for a local minimum.
 Step number   1 out of a maximum of   32
 All quantities printed in internal units (Hartrees-Bohrs-Radians)
 RMS Force = .10958D-02 SwitMx=.10000D-02 MixMth= 1
 Mixed Optimization -- RFO/linear search
 Second derivative matrix not updated -- first step.
 ITU=  0
     Eigenvalues ---    0.02570   0.03303   0.03304   0.15959   0.16000
     Eigenvalues ---    0.16000   0.16000   0.22010   0.25000   0.35926
     Eigenvalues ---    0.36816   0.37162   0.37195   0.45397   0.52368
     Eigenvalues ---    0.649731000.000001000.000001000.000001000.00000
     Eigenvalues --- 1000.000001000.00000
 RFO step:  Lambda=-1.10988955D-04 EMin= 2.56996604D-02
 Linear search not attempted -- first point.
 Iteration  1 RMS(Cart)=  0.01486665 RMS(Int)=  0.00012316
 Iteration  2 RMS(Cart)=  0.00012119 RMS(Int)=  0.00000730
 Iteration  3 RMS(Cart)=  0.00000001 RMS(Int)=  0.00000730
 Iteration  1 RMS(Cart)=  0.00000144 RMS(Int)=  0.00000062
 Iteration  2 RMS(Cart)=  0.00000050 RMS(Int)=  0.00000069
 ITry= 1 IFail=0 DXMaxC= 3.97D-02 DCOld= 1.00D+10 DXMaxT= 3.00D-01 DXLimC= 3.00D+00 Rises=F
 Variable       Old X    -DE/DX   Delta X   Delta X   Delta X     New X
                                 (Linear)    (Quad)   (Total)
    R1        2.47210  -0.00003   0.00000  -0.00005  -0.00005   2.47205
    R2        2.02824  -0.00025   0.00000  -0.00068  -0.00068   2.02756
    R3        2.64817  -0.00003   0.00000  -0.00007  -0.00007   2.64810
    R4        2.02253  -0.00002   0.00000  -0.00004  -0.00004   2.02248
    R5        2.02303   0.00002   0.00000   0.00006   0.00006   2.02310
    R6        2.77498  -0.00229   0.00000  -0.00637  -0.00637   2.76861
    R7        1.84248   0.00039   0.00000   0.00075   0.00075   1.84323
    A1        2.15305   0.00042   0.00000   0.00214   0.00212   2.15517
    A2        2.11092  -0.00026   0.00000  -0.00110  -0.00112   2.10980
    A3        2.01515  -0.00005   0.00000  -0.00008  -0.00010   2.01505
    A4        2.10539  -0.00006   0.00000  -0.00034  -0.00034   2.10505
    A5        2.11074   0.00007   0.00000   0.00045   0.00045   2.11119
    A6        2.06699  -0.00002   0.00000  -0.00009  -0.00009   2.06690
    A7        1.94655  -0.00343   0.00000  -0.01371  -0.01371   1.93284
    A8        1.82831  -0.00253   0.00000  -0.01578  -0.01578   1.81252
    D1       -0.00321  -0.00071   0.00000  -0.00766  -0.00766  -0.01087
    D2       -3.13218  -0.00078   0.00000  -0.00966  -0.00966   3.14135
    D3        3.03720   0.00060   0.00000   0.00430   0.00431   3.04150
    D4       -0.09177   0.00053   0.00000   0.00230   0.00231  -0.08946
    D5        2.61799  -0.00204   0.00000   0.00000   0.00000   2.61799
    D6       -0.61718  -0.00080   0.00000   0.01119   0.01119  -0.60599
    D7        0.69813   0.00935   0.00000   0.00000   0.00000   0.69813
         Item               Value     Threshold  Converged?
 Maximum Force            0.003430     0.000015     NO 
 RMS     Force            0.001096     0.000010     NO 
 Maximum Displacement     0.039743     0.000060     NO 
 RMS     Displacement     0.014867     0.000040     NO 
 Predicted change in Energy=-5.555043D-05
 Lowest energy point so far.  Saving SCF results.
 GradGradGradGradGradGradGradGradGradGradGradGradGradGradGradGradGradGrad

 Leave Link  103 at Fri Apr 12 15:55:42 2019, MaxMem=   134217728 cpu:         0.0
 (Enter /cm/shared/c3ddb/gaussian/09.d01/g09/l202.exe)
                          Input orientation:                          
 ---------------------------------------------------------------------
 Center     Atomic      Atomic             Coordinates (Angstroms)
 Number     Number       Type             X           Y           Z
 ---------------------------------------------------------------------
      1          6           0        0.758156    0.632313    0.063053
      2          6           0        1.379978   -0.517035    0.003096
      3          1           0        1.263941    1.578071    0.093429
      4          1           0        2.449004   -0.557283   -0.028545
      5          1           0        0.834297   -1.437668   -0.025253
      6          8           0       -0.639376    0.698964   -0.015364
      7          8           0       -1.147335    1.846910    0.740064
      8          1           0       -0.505379    2.555609    0.547617
 ---------------------------------------------------------------------
                    Distance matrix (angstroms):
                    1          2          3          4          5
     1  C    0.000000
     2  C    1.308151   0.000000
     3  H    1.072940   2.100261   0.000000
     4  H    2.069420   1.070252   2.445197   0.000000
     5  H    2.073263   1.070577   3.048501   1.839121   0.000000
     6  O    1.401317   2.357284   2.099353   3.334130   2.595574
     7  O    2.358916   3.538173   2.510909   4.393696   3.911653
     8  H    2.351678   3.645850   2.071802   4.330178   4.250785
                    6          7          8
     6  O    0.000000
     7  O    1.465085   0.000000
     8  H    1.944746   0.975396   0.000000
 Symmetry turned off by external request.
 Stoichiometry    C2H4O2
 Framework group  C1[X(C2H4O2)]
 Deg. of freedom    18
 Full point group                 C1      NOp   1
 Rotational constants (GHZ):     39.0757505      4.5704406      4.2305291
 Leave Link  202 at Fri Apr 12 15:55:42 2019, MaxMem=   134217728 cpu:         0.0
 (Enter /cm/shared/c3ddb/gaussian/09.d01/g09/l301.exe)
 Standard basis: 3-21G (6D, 7F)
 Ernie: Thresh=  0.10000D-02 Tol=  0.10000D-05 Strict=F.
    44 basis functions,    72 primitive gaussians,    44 cartesian basis functions
    16 alpha electrons       16 beta electrons
       nuclear repulsion energy       116.5635207726 Hartrees.
 IExCor=    0 DFT=F Ex=HF Corr=None ExCW=0 ScaHFX=  1.000000
 ScaDFX=  1.000000  1.000000  1.000000  1.000000 ScalE2=  1.000000  1.000000
 IRadAn=      0 IRanWt=     -1 IRanGd=            0 ICorTp=0 IEmpDi=  4
 NAtoms=    8 NActive=    8 NUniq=    8 SFac= 1.00D+00 NAtFMM=   60 NAOKFM=F Big=F
 Integral buffers will be    131072 words long.
 Raffenetti 1 integral format.
 Two-electron integral symmetry is turned off.
 Leave Link  301 at Fri Apr 12 15:55:43 2019, MaxMem=   134217728 cpu:         0.1
 (Enter /cm/shared/c3ddb/gaussian/09.d01/g09/l302.exe)
 NPDir=0 NMtPBC=     1 NCelOv=     1 NCel=       1 NClECP=     1 NCelD=      1
         NCelK=      1 NCelE2=     1 NClLst=     1 CellRange=     0.0.
 One-electron integrals computed using PRISM.
 NBasis=    44 RedAO= T EigKep=  1.13D-02  NBF=    44
 NBsUse=    44 1.00D-06 EigRej= -1.00D+00 NBFU=    44
 Leave Link  302 at Fri Apr 12 15:55:43 2019, MaxMem=   134217728 cpu:         0.2
 (Enter /cm/shared/c3ddb/gaussian/09.d01/g09/l303.exe)
 DipDrv:  MaxL=1.
 Leave Link  303 at Fri Apr 12 15:55:43 2019, MaxMem=   134217728 cpu:         0.0
 (Enter /cm/shared/c3ddb/gaussian/09.d01/g09/l401.exe)
 Initial guess from the checkpoint file:  "TMP_CALCS/scangeom_S02_150_040.chk"
 B after Tr=    -0.002767   -0.000731    0.002881
         Rot=    0.999999    0.000580   -0.001429   -0.000065 Ang=   0.18 deg.
 Guess basis will be translated and rotated to current coordinates.
 JPrj=2 DoOrth=T DoCkMO=T.
 Generating alternative initial guess.
 ExpMin= 1.83D-01 ExpMax= 3.22D+02 ExpMxC= 3.22D+02 IAcc=1 IRadAn=         1 AccDes= 0.00D+00
 Harris functional with IExCor=  205 and IRadAn=       1 diagonalized for initial guess.
 HarFok:  IExCor=  205 AccDes= 0.00D+00 IRadAn=         1 IDoV= 1 UseB2=F ITyADJ=14
 ICtDFT=  3500011 ScaDFX=  1.000000  1.000000  1.000000  1.000000
 FoFCou: FMM=F IPFlag=           0 FMFlag=      100000 FMFlg1=           0
         NFxFlg=           0 DoJE=T BraDBF=F KetDBF=T FulRan=T
         wScrn=  0.000000 ICntrl=     500 IOpCl=  0 I1Cent=   200000004 NGrid=           0
         NMat0=    1 NMatS0=      1 NMatT0=    0 NMatD0=    1 NMtDS0=    0 NMtDT0=    0
 Symmetry not used in FoFCou.
 Harris En= -226.619419158462    
 Leave Link  401 at Fri Apr 12 15:55:43 2019, MaxMem=   134217728 cpu:         0.4
 (Enter /cm/shared/c3ddb/gaussian/09.d01/g09/l502.exe)
 Closed shell SCF:
 Using DIIS extrapolation, IDIIS=  1040.
 Two-electron integral symmetry not used.
 Keep R1 ints in memory in canonical form, NReq=1327247.
 IVT=       24902 IEndB=       24902 NGot=   134217728 MDV=   133702282
 LenX=   133702282 LenY=   133699905
 Requested convergence on RMS density matrix=1.00D-08 within 128 cycles.
 Requested convergence on MAX density matrix=1.00D-06.
 Requested convergence on             energy=1.00D-06.
 No special actions if energy rises.
 FoFCou: FMM=F IPFlag=           0 FMFlag=           0 FMFlg1=           0
         NFxFlg=           0 DoJE=F BraDBF=F KetDBF=F FulRan=T
         wScrn=  0.000000 ICntrl=     600 IOpCl=  0 I1Cent=           0 NGrid=           0
         NMat0=    1 NMatS0=    990 NMatT0=    0 NMatD0=    1 NMtDS0=    0 NMtDT0=    0
 Symmetry not used in FoFCou.

 Cycle   1  Pass 1  IDiag  1:
 E= -226.382799869795    
 DIIS: error= 8.90D-04 at cycle   1 NSaved=   1.
 NSaved= 1 IEnMin= 1 EnMin= -226.382799869795     IErMin= 1 ErrMin= 8.90D-04
 ErrMax= 8.90D-04  0.00D+00 EMaxC= 1.00D-01 BMatC= 7.29D-05 BMatP= 7.29D-05
 IDIUse=3 WtCom= 9.91D-01 WtEn= 8.90D-03
 Coeff-Com:  0.100D+01
 Coeff-En:   0.100D+01
 Coeff:      0.100D+01
 Gap=     0.939 Goal=   None    Shift=    0.000
 RMSDP=2.03D-04 MaxDP=1.06D-03              OVMax= 1.54D-03

 Cycle   2  Pass 1  IDiag  1:
 E= -226.382899137892     Delta-E=       -0.000099268097 Rises=F Damp=F
 DIIS: error= 3.96D-04 at cycle   2 NSaved=   2.
 NSaved= 2 IEnMin= 2 EnMin= -226.382899137892     IErMin= 2 ErrMin= 3.96D-04
 ErrMax= 3.96D-04  0.00D+00 EMaxC= 1.00D-01 BMatC= 5.63D-06 BMatP= 7.29D-05
 IDIUse=3 WtCom= 9.96D-01 WtEn= 3.96D-03
 Coeff-Com: -0.202D+00 0.120D+01
 Coeff-En:   0.000D+00 0.100D+01
 Coeff:     -0.201D+00 0.120D+01
 Gap=     0.542 Goal=   None    Shift=    0.000
 RMSDP=8.64D-05 MaxDP=5.77D-04 DE=-9.93D-05 OVMax= 1.26D-03

 Cycle   3  Pass 1  IDiag  1:
 E= -226.382915145653     Delta-E=       -0.000016007761 Rises=F Damp=F
 DIIS: error= 1.73D-04 at cycle   3 NSaved=   3.
 NSaved= 3 IEnMin= 3 EnMin= -226.382915145653     IErMin= 3 ErrMin= 1.73D-04
 ErrMax= 1.73D-04  0.00D+00 EMaxC= 1.00D-01 BMatC= 7.94D-07 BMatP= 5.63D-06
 IDIUse=3 WtCom= 9.98D-01 WtEn= 1.73D-03
 Coeff-Com: -0.908D-02-0.207D+00 0.122D+01
 Coeff-En:   0.000D+00 0.000D+00 0.100D+01
 Coeff:     -0.907D-02-0.207D+00 0.122D+01
 Gap=     0.542 Goal=   None    Shift=    0.000
 RMSDP=3.99D-05 MaxDP=2.80D-04 DE=-1.60D-05 OVMax= 5.76D-04

 Cycle   4  Pass 1  IDiag  1:
 E= -226.382917678136     Delta-E=       -0.000002532482 Rises=F Damp=F
 DIIS: error= 7.85D-05 at cycle   4 NSaved=   4.
 NSaved= 4 IEnMin= 4 EnMin= -226.382917678136     IErMin= 4 ErrMin= 7.85D-05
 ErrMax= 7.85D-05  0.00D+00 EMaxC= 1.00D-01 BMatC= 2.18D-07 BMatP= 7.94D-07
 IDIUse=1 WtCom= 1.00D+00 WtEn= 0.00D+00
 Coeff-Com:  0.307D-01-0.259D+00 0.354D+00 0.874D+00
 Coeff:      0.307D-01-0.259D+00 0.354D+00 0.874D+00
 Gap=     0.542 Goal=   None    Shift=    0.000
 RMSDP=1.67D-05 MaxDP=1.20D-04 DE=-2.53D-06 OVMax= 2.71D-04

 Cycle   5  Pass 1  IDiag  1:
 E= -226.382918157093     Delta-E=       -0.000000478958 Rises=F Damp=F
 DIIS: error= 3.50D-05 at cycle   5 NSaved=   5.
 NSaved= 5 IEnMin= 5 EnMin= -226.382918157093     IErMin= 5 ErrMin= 3.50D-05
 ErrMax= 3.50D-05  0.00D+00 EMaxC= 1.00D-01 BMatC= 2.34D-08 BMatP= 2.18D-07
 IDIUse=1 WtCom= 1.00D+00 WtEn= 0.00D+00
 Coeff-Com: -0.347D-02 0.764D-01-0.247D+00-0.193D+00 0.137D+01
 Coeff:     -0.347D-02 0.764D-01-0.247D+00-0.193D+00 0.137D+01
 Gap=     0.542 Goal=   None    Shift=    0.000
 RMSDP=9.73D-06 MaxDP=6.23D-05 DE=-4.79D-07 OVMax= 1.80D-04

 Cycle   6  Pass 1  IDiag  1:
 E= -226.382918253035     Delta-E=       -0.000000095942 Rises=F Damp=F
 DIIS: error= 1.10D-05 at cycle   6 NSaved=   6.
 NSaved= 6 IEnMin= 6 EnMin= -226.382918253035     IErMin= 6 ErrMin= 1.10D-05
 ErrMax= 1.10D-05  0.00D+00 EMaxC= 1.00D-01 BMatC= 3.71D-09 BMatP= 2.34D-08
 IDIUse=1 WtCom= 1.00D+00 WtEn= 0.00D+00
 Coeff-Com: -0.392D-02 0.433D-01-0.856D-01-0.140D+00 0.289D+00 0.897D+00
 Coeff:     -0.392D-02 0.433D-01-0.856D-01-0.140D+00 0.289D+00 0.897D+00
 Gap=     0.542 Goal=   None    Shift=    0.000
 RMSDP=2.67D-06 MaxDP=1.60D-05 DE=-9.59D-08 OVMax= 6.00D-05

 Cycle   7  Pass 1  IDiag  1:
 E= -226.382918263315     Delta-E=       -0.000000010280 Rises=F Damp=F
 DIIS: error= 6.84D-06 at cycle   7 NSaved=   7.
 NSaved= 7 IEnMin= 7 EnMin= -226.382918263315     IErMin= 7 ErrMin= 6.84D-06
 ErrMax= 6.84D-06  0.00D+00 EMaxC= 1.00D-01 BMatC= 6.79D-10 BMatP= 3.71D-09
 IDIUse=1 WtCom= 1.00D+00 WtEn= 0.00D+00
 Coeff-Com:  0.151D-02-0.247D-01 0.712D-01 0.676D-01-0.374D+00-0.120D+00
 Coeff-Com:  0.138D+01
 Coeff:      0.151D-02-0.247D-01 0.712D-01 0.676D-01-0.374D+00-0.120D+00
 Coeff:      0.138D+01
 Gap=     0.542 Goal=   None    Shift=    0.000
 RMSDP=1.86D-06 MaxDP=1.30D-05 DE=-1.03D-08 OVMax= 4.64D-05

 Cycle   8  Pass 1  IDiag  1:
 E= -226.382918266432     Delta-E=       -0.000000003117 Rises=F Damp=F
 DIIS: error= 2.51D-06 at cycle   8 NSaved=   8.
 NSaved= 8 IEnMin= 8 EnMin= -226.382918266432     IErMin= 8 ErrMin= 2.51D-06
 ErrMax= 2.51D-06  0.00D+00 EMaxC= 1.00D-01 BMatC= 7.10D-11 BMatP= 6.79D-10
 IDIUse=1 WtCom= 1.00D+00 WtEn= 0.00D+00
 Coeff-Com: -0.930D-04 0.378D-02-0.153D-01-0.460D-02 0.824D-01-0.377D-01
 Coeff-Com: -0.429D+00 0.140D+01
 Coeff:     -0.930D-04 0.378D-02-0.153D-01-0.460D-02 0.824D-01-0.377D-01
 Coeff:     -0.429D+00 0.140D+01
 Gap=     0.542 Goal=   None    Shift=    0.000
 RMSDP=6.01D-07 MaxDP=4.54D-06 DE=-3.12D-09 OVMax= 1.45D-05

 Cycle   9  Pass 1  IDiag  1:
 E= -226.382918266778     Delta-E=       -0.000000000346 Rises=F Damp=F
 DIIS: error= 9.57D-07 at cycle   9 NSaved=   9.
 NSaved= 9 IEnMin= 9 EnMin= -226.382918266778     IErMin= 9 ErrMin= 9.57D-07
 ErrMax= 9.57D-07  0.00D+00 EMaxC= 1.00D-01 BMatC= 1.47D-11 BMatP= 7.10D-11
 IDIUse=1 WtCom= 1.00D+00 WtEn= 0.00D+00
 Coeff-Com: -0.330D-03 0.562D-02-0.171D-01-0.129D-01 0.862D-01 0.200D-01
 Coeff-Com: -0.334D+00 0.193D+00 0.106D+01
 Coeff:     -0.330D-03 0.562D-02-0.171D-01-0.129D-01 0.862D-01 0.200D-01
 Coeff:     -0.334D+00 0.193D+00 0.106D+01
 Gap=     0.542 Goal=   None    Shift=    0.000
 RMSDP=2.47D-07 MaxDP=1.79D-06 DE=-3.46D-10 OVMax= 5.14D-06

 Cycle  10  Pass 1  IDiag  1:
 E= -226.382918266835     Delta-E=       -0.000000000056 Rises=F Damp=F
 DIIS: error= 3.48D-07 at cycle  10 NSaved=  10.
 NSaved=10 IEnMin=10 EnMin= -226.382918266835     IErMin=10 ErrMin= 3.48D-07
 ErrMax= 3.48D-07  0.00D+00 EMaxC= 1.00D-01 BMatC= 1.85D-12 BMatP= 1.47D-11
 IDIUse=1 WtCom= 1.00D+00 WtEn= 0.00D+00
 Coeff-Com:  0.880D-04-0.193D-02 0.645D-02 0.451D-02-0.345D-01-0.996D-03
 Coeff-Com:  0.152D+00-0.279D+00-0.240D+00 0.139D+01
 Coeff:      0.880D-04-0.193D-02 0.645D-02 0.451D-02-0.345D-01-0.996D-03
 Coeff:      0.152D+00-0.279D+00-0.240D+00 0.139D+01
 Gap=     0.542 Goal=   None    Shift=    0.000
 RMSDP=1.11D-07 MaxDP=7.63D-07 DE=-5.64D-11 OVMax= 1.97D-06

 Cycle  11  Pass 1  IDiag  1:
 E= -226.382918266844     Delta-E=       -0.000000000009 Rises=F Damp=F
 DIIS: error= 8.40D-08 at cycle  11 NSaved=  11.
 NSaved=11 IEnMin=11 EnMin= -226.382918266844     IErMin=11 ErrMin= 8.40D-08
 ErrMax= 8.40D-08  0.00D+00 EMaxC= 1.00D-01 BMatC= 1.81D-13 BMatP= 1.85D-12
 IDIUse=1 WtCom= 1.00D+00 WtEn= 0.00D+00
 Coeff-Com:  0.252D-04-0.415D-03 0.124D-02 0.920D-03-0.606D-02-0.245D-02
 Coeff-Com:  0.246D-01-0.422D-02-0.825D-01-0.111D+00 0.118D+01
 Coeff:      0.252D-04-0.415D-03 0.124D-02 0.920D-03-0.606D-02-0.245D-02
 Coeff:      0.246D-01-0.422D-02-0.825D-01-0.111D+00 0.118D+01
 Gap=     0.542 Goal=   None    Shift=    0.000
 RMSDP=2.92D-08 MaxDP=2.08D-07 DE=-8.87D-12 OVMax= 4.96D-07

 Cycle  12  Pass 1  IDiag  1:
 E= -226.382918266845     Delta-E=       -0.000000000001 Rises=F Damp=F
 DIIS: error= 2.42D-08 at cycle  12 NSaved=  12.
 NSaved=12 IEnMin=12 EnMin= -226.382918266845     IErMin=12 ErrMin= 2.42D-08
 ErrMax= 2.42D-08  0.00D+00 EMaxC= 1.00D-01 BMatC= 2.35D-14 BMatP= 1.81D-13
 IDIUse=1 WtCom= 1.00D+00 WtEn= 0.00D+00
 Coeff-Com: -0.180D-04 0.384D-03-0.126D-02-0.936D-03 0.680D-02 0.310D-04
 Coeff-Com: -0.289D-01 0.482D-01 0.518D-01-0.221D+00-0.156D+00 0.130D+01
 Coeff:     -0.180D-04 0.384D-03-0.126D-02-0.936D-03 0.680D-02 0.310D-04
 Coeff:     -0.289D-01 0.482D-01 0.518D-01-0.221D+00-0.156D+00 0.130D+01
 Gap=     0.542 Goal=   None    Shift=    0.000
 RMSDP=1.21D-08 MaxDP=9.54D-08 DE=-1.14D-12 OVMax= 1.79D-07

 Cycle  13  Pass 1  IDiag  1:
 E= -226.382918266845     Delta-E=        0.000000000000 Rises=F Damp=F
 DIIS: error= 3.53D-09 at cycle  13 NSaved=  13.
 NSaved=13 IEnMin=12 EnMin= -226.382918266845     IErMin=13 ErrMin= 3.53D-09
 ErrMax= 3.53D-09  0.00D+00 EMaxC= 1.00D-01 BMatC= 7.81D-16 BMatP= 2.35D-14
 IDIUse=1 WtCom= 1.00D+00 WtEn= 0.00D+00
 Coeff-Com:  0.437D-05-0.955D-04 0.322D-03 0.212D-03-0.171D-02 0.126D-03
 Coeff-Com:  0.746D-02-0.147D-01-0.106D-01 0.712D-01-0.439D-02-0.412D+00
 Coeff-Com:  0.136D+01
 Coeff:      0.437D-05-0.955D-04 0.322D-03 0.212D-03-0.171D-02 0.126D-03
 Coeff:      0.746D-02-0.147D-01-0.106D-01 0.712D-01-0.439D-02-0.412D+00
 Coeff:      0.136D+01
 Gap=     0.542 Goal=   None    Shift=    0.000
 RMSDP=1.86D-09 MaxDP=1.35D-08 DE= 0.00D+00 OVMax= 2.22D-08

 SCF Done:  E(RHF) =  -226.382918267     A.U. after   13 cycles
            NFock= 13  Conv=0.19D-08     -V/T= 2.0035
 KE= 2.256009163241D+02 PE=-7.662140886479D+02 EE= 1.976667332844D+02
 Leave Link  502 at Fri Apr 12 15:55:44 2019, MaxMem=   134217728 cpu:         0.2
 (Enter /cm/shared/c3ddb/gaussian/09.d01/g09/l701.exe)
 Compute integral first derivatives.
 ... and contract with generalized density number  0.
 Leave Link  701 at Fri Apr 12 15:55:44 2019, MaxMem=   134217728 cpu:         0.1
 (Enter /cm/shared/c3ddb/gaussian/09.d01/g09/l702.exe)
 L702 exits ... SP integral derivatives will be done elsewhere.
 Leave Link  702 at Fri Apr 12 15:55:44 2019, MaxMem=   134217728 cpu:         0.0
 (Enter /cm/shared/c3ddb/gaussian/09.d01/g09/l703.exe)
 Compute integral first derivatives, UseDBF=F ICtDFT=           0.
 Integral derivatives from FoFJK, PRISM(SPDF).
 Calling FoFJK, ICntrl=      2127 FMM=F ISym2X=0 I1Cent= 0 IOpClX= 0 NMat=1 NMatS=1 NMatT=0.
 FoFJK:  IHMeth= 1 ICntrl=    2127 DoSepK=F KAlg= 0 I1Cent=   0 FoldK=F
 IRaf=         0 NMat=   1 IRICut=       1 DoRegI=T DoRafI=F ISym2E= 0.
 FoFCou: FMM=F IPFlag=           0 FMFlag=      100000 FMFlg1=         800
         NFxFlg=           0 DoJE=F BraDBF=F KetDBF=F FulRan=T
         wScrn=  0.000000 ICntrl=    2127 IOpCl=  0 I1Cent=           0 NGrid=           0
         NMat0=    1 NMatS0=      1 NMatT0=    0 NMatD0=    1 NMtDS0=    0 NMtDT0=    0
 Symmetry not used in FoFCou.
 Leave Link  703 at Fri Apr 12 15:55:44 2019, MaxMem=   134217728 cpu:         0.2
 (Enter /cm/shared/c3ddb/gaussian/09.d01/g09/l716.exe)
 Dipole        = 1.22536234D+00 5.44443561D-01-8.85898344D-02
 -------------------------------------------------------------------
 Center     Atomic                   Forces (Hartrees/Bohr)
 Number     Number              X              Y              Z
 -------------------------------------------------------------------
      1        6           0.000262089   -0.003367023    0.001465690
      2        6           0.000181421    0.000075687    0.001403756
      3        1           0.000035526   -0.000067368   -0.000123814
      4        1           0.000034667   -0.000065730   -0.000033603
      5        1          -0.000013550    0.000066799   -0.000045372
      6        8           0.000076854    0.002970825   -0.006155435
      7        8           0.003275100   -0.001744406    0.007183255
      8        1          -0.003852108    0.002131218   -0.003694478
 -------------------------------------------------------------------
 Cartesian Forces:  Max     0.007183255 RMS     0.002587767
 Leave Link  716 at Fri Apr 12 15:55:44 2019, MaxMem=   134217728 cpu:         0.0
 (Enter /cm/shared/c3ddb/gaussian/09.d01/g09/l103.exe)

 GradGradGradGradGradGradGradGradGradGradGradGradGradGradGradGradGradGrad
 Berny optimization.
 Using GEDIIS/GDIIS optimizer.
 FormGI is forming the generalized inverse of G from B-inverse, IUseBI=4.
 Internal  Forces:  Max     0.010049229 RMS     0.002350217
 Search for a local minimum.
 Step number   2 out of a maximum of   32
 All quantities printed in internal units (Hartrees-Bohrs-Radians)
 RMS Force = .87599D-03 SwitMx=.10000D-02 MixMth= 2
 Mixed Optimization -- En-DIIS/RFO-DIIS
 Update second derivatives using D2CorX and points    1    2
 DE= -1.57D-05 DEPred=-5.56D-05 R= 2.82D-01
 Trust test= 2.82D-01 RLast= 2.80D-02 DXMaxT set to 3.00D-01
 ITU=  0  0
 Use linear search instead of GDIIS.
     Eigenvalues ---    0.02556   0.03294   0.03307   0.15960   0.15997
     Eigenvalues ---    0.16000   0.18545   0.22065   0.28339   0.36783
     Eigenvalues ---    0.37161   0.37195   0.43284   0.49504   0.52862
     Eigenvalues ---    0.649731000.000001000.000001000.000001000.00000
     Eigenvalues --- 1000.000001000.00000
 RFO step:  Lambda=-2.28413371D-06 EMin= 2.55577994D-02
 Quartic linear search produced a step of -0.41651.
 Iteration  1 RMS(Cart)=  0.00571663 RMS(Int)=  0.00001899
 Iteration  2 RMS(Cart)=  0.00001780 RMS(Int)=  0.00000296
 Iteration  3 RMS(Cart)=  0.00000000 RMS(Int)=  0.00000296
 Iteration  1 RMS(Cart)=  0.00000047 RMS(Int)=  0.00000020
 ITry= 1 IFail=0 DXMaxC= 1.52D-02 DCOld= 1.00D+10 DXMaxT= 3.00D-01 DXLimC= 3.00D+00 Rises=F
 Variable       Old X    -DE/DX   Delta X   Delta X   Delta X     New X
                                 (Linear)    (Quad)   (Total)
    R1        2.47205  -0.00003   0.00002  -0.00005  -0.00003   2.47202
    R2        2.02756  -0.00005   0.00028  -0.00037  -0.00009   2.02747
    R3        2.64810   0.00081   0.00003   0.00101   0.00104   2.64914
    R4        2.02248   0.00004   0.00002   0.00004   0.00006   2.02254
    R5        2.02310  -0.00005  -0.00003  -0.00005  -0.00008   2.02302
    R6        2.76861   0.00230   0.00265   0.00094   0.00359   2.77220
    R7        1.84323  -0.00026  -0.00031   0.00004  -0.00027   1.84296
    A1        2.15517  -0.00018  -0.00088   0.00018  -0.00069   2.15448
    A2        2.10980   0.00038   0.00046   0.00044   0.00091   2.11072
    A3        2.01505  -0.00014   0.00004  -0.00036  -0.00031   2.01474
    A4        2.10505   0.00012   0.00014   0.00027   0.00042   2.10546
    A5        2.11119  -0.00010  -0.00019  -0.00018  -0.00037   2.11082
    A6        2.06690  -0.00001   0.00004  -0.00010  -0.00006   2.06684
    A7        1.93284   0.00205   0.00571  -0.00128   0.00444   1.93728
    A8        1.81252   0.00221   0.00657   0.00102   0.00760   1.82012
    D1       -0.01087  -0.00044   0.00319  -0.00312   0.00008  -0.01080
    D2        3.14135  -0.00037   0.00402  -0.00287   0.00115  -3.14069
    D3        3.04150   0.00038  -0.00179   0.00058  -0.00122   3.04029
    D4       -0.08946   0.00045  -0.00096   0.00082  -0.00014  -0.08960
    D5        2.61799  -0.00184   0.00000   0.00000   0.00000   2.61799
    D6       -0.60599  -0.00108  -0.00466   0.00343  -0.00122  -0.60721
    D7        0.69813   0.01005   0.00000   0.00000   0.00000   0.69813
         Item               Value     Threshold  Converged?
 Maximum Force            0.002302     0.000015     NO 
 RMS     Force            0.000876     0.000010     NO 
 Maximum Displacement     0.015222     0.000060     NO 
 RMS     Displacement     0.005720     0.000040     NO 
 Predicted change in Energy=-1.815877D-05
 Lowest energy point so far.  Saving SCF results.
 GradGradGradGradGradGradGradGradGradGradGradGradGradGradGradGradGradGrad

 Leave Link  103 at Fri Apr 12 15:55:44 2019, MaxMem=   134217728 cpu:         0.0
 (Enter /cm/shared/c3ddb/gaussian/09.d01/g09/l202.exe)
                          Input orientation:                          
 ---------------------------------------------------------------------
 Center     Atomic      Atomic             Coordinates (Angstroms)
 Number     Number       Type             X           Y           Z
 ---------------------------------------------------------------------
      1          6           0        0.760400    0.630857    0.062680
      2          6           0        1.381494   -0.518888    0.003111
      3          1           0        1.267384    1.575971    0.091388
      4          1           0        2.450472   -0.560216   -0.029824
      5          1           0        0.834925   -1.438965   -0.024613
      6          8           0       -0.637595    0.699639   -0.015457
      7          8           0       -1.150359    1.848524    0.738983
      8          1           0       -0.513434    2.562960    0.551830
 ---------------------------------------------------------------------
                    Distance matrix (angstroms):
                    1          2          3          4          5
     1  C    0.000000
     2  C    1.308136   0.000000
     3  H    1.072892   2.099821   0.000000
     4  H    2.069675   1.070283   2.444930   0.000000
     5  H    2.073002   1.070537   3.048002   1.839081   0.000000
     6  O    1.401865   2.358363   2.099600   3.335205   2.596541
     7  O    2.364551   3.543505   2.517767   4.399895   3.915612
     8  H    2.365363   3.659185   2.087455   4.344800   4.262131
                    6          7          8
     6  O    0.000000
     7  O    1.466985   0.000000
     8  H    1.951716   0.975253   0.000000
 Symmetry turned off by external request.
 Stoichiometry    C2H4O2
 Framework group  C1[X(C2H4O2)]
 Deg. of freedom    18
 Full point group                 C1      NOp   1
 Rotational constants (GHZ):     39.1688246      4.5556818      4.2187352
 Leave Link  202 at Fri Apr 12 15:55:44 2019, MaxMem=   134217728 cpu:         0.0
 (Enter /cm/shared/c3ddb/gaussian/09.d01/g09/l301.exe)
 Standard basis: 3-21G (6D, 7F)
 Ernie: Thresh=  0.10000D-02 Tol=  0.10000D-05 Strict=F.
    44 basis functions,    72 primitive gaussians,    44 cartesian basis functions
    16 alpha electrons       16 beta electrons
       nuclear repulsion energy       116.4567337721 Hartrees.
 IExCor=    0 DFT=F Ex=HF Corr=None ExCW=0 ScaHFX=  1.000000
 ScaDFX=  1.000000  1.000000  1.000000  1.000000 ScalE2=  1.000000  1.000000
 IRadAn=      0 IRanWt=     -1 IRanGd=            0 ICorTp=0 IEmpDi=  4
 NAtoms=    8 NActive=    8 NUniq=    8 SFac= 1.00D+00 NAtFMM=   60 NAOKFM=F Big=F
 Integral buffers will be    131072 words long.
 Raffenetti 1 integral format.
 Two-electron integral symmetry is turned off.
 Leave Link  301 at Fri Apr 12 15:55:44 2019, MaxMem=   134217728 cpu:         0.1
 (Enter /cm/shared/c3ddb/gaussian/09.d01/g09/l302.exe)
 NPDir=0 NMtPBC=     1 NCelOv=     1 NCel=       1 NClECP=     1 NCelD=      1
         NCelK=      1 NCelE2=     1 NClLst=     1 CellRange=     0.0.
 One-electron integrals computed using PRISM.
 NBasis=    44 RedAO= T EigKep=  1.13D-02  NBF=    44
 NBsUse=    44 1.00D-06 EigRej= -1.00D+00 NBFU=    44
 Leave Link  302 at Fri Apr 12 15:55:45 2019, MaxMem=   134217728 cpu:         0.1
 (Enter /cm/shared/c3ddb/gaussian/09.d01/g09/l303.exe)
 DipDrv:  MaxL=1.
 Leave Link  303 at Fri Apr 12 15:55:45 2019, MaxMem=   134217728 cpu:         0.1
 (Enter /cm/shared/c3ddb/gaussian/09.d01/g09/l401.exe)
 Initial guess from the checkpoint file:  "TMP_CALCS/scangeom_S02_150_040.chk"
 B after Tr=     0.000762    0.000011   -0.000799
         Rot=    1.000000   -0.000037    0.000352    0.000043 Ang=  -0.04 deg.
 Guess basis will be translated and rotated to current coordinates.
 JPrj=2 DoOrth=T DoCkMO=T.
 Leave Link  401 at Fri Apr 12 15:55:45 2019, MaxMem=   134217728 cpu:         0.2
 (Enter /cm/shared/c3ddb/gaussian/09.d01/g09/l502.exe)
 Closed shell SCF:
 Using DIIS extrapolation, IDIIS=  1040.
 Two-electron integral symmetry not used.
 Keep R1 ints in memory in canonical form, NReq=1327247.
 IVT=       24902 IEndB=       24902 NGot=   134217728 MDV=   133702282
 LenX=   133702282 LenY=   133699905
 Requested convergence on RMS density matrix=1.00D-08 within 128 cycles.
 Requested convergence on MAX density matrix=1.00D-06.
 Requested convergence on             energy=1.00D-06.
 No special actions if energy rises.
 FoFCou: FMM=F IPFlag=           0 FMFlag=           0 FMFlg1=           0
         NFxFlg=           0 DoJE=F BraDBF=F KetDBF=F FulRan=T
         wScrn=  0.000000 ICntrl=     600 IOpCl=  0 I1Cent=           0 NGrid=           0
         NMat0=    1 NMatS0=    990 NMatT0=    0 NMatD0=    1 NMtDS0=    0 NMtDT0=    0
 Symmetry not used in FoFCou.

 Cycle   1  Pass 1  IDiag  1:
 E= -226.382921126529    
 DIIS: error= 3.51D-04 at cycle   1 NSaved=   1.
 NSaved= 1 IEnMin= 1 EnMin= -226.382921126529     IErMin= 1 ErrMin= 3.51D-04
 ErrMax= 3.51D-04  0.00D+00 EMaxC= 1.00D-01 BMatC= 1.05D-05 BMatP= 1.05D-05
 IDIUse=3 WtCom= 9.96D-01 WtEn= 3.51D-03
 Coeff-Com:  0.100D+01
 Coeff-En:   0.100D+01
 Coeff:      0.100D+01
 Gap=     0.940 Goal=   None    Shift=    0.000
 RMSDP=7.59D-05 MaxDP=4.44D-04              OVMax= 5.49D-04

 Cycle   2  Pass 1  IDiag  1:
 E= -226.382933597169     Delta-E=       -0.000012470641 Rises=F Damp=F
 DIIS: error= 1.28D-04 at cycle   2 NSaved=   2.
 NSaved= 2 IEnMin= 2 EnMin= -226.382933597169     IErMin= 2 ErrMin= 1.28D-04
 ErrMax= 1.28D-04  0.00D+00 EMaxC= 1.00D-01 BMatC= 7.12D-07 BMatP= 1.05D-05
 IDIUse=3 WtCom= 9.99D-01 WtEn= 1.28D-03
 Coeff-Com: -0.171D+00 0.117D+01
 Coeff-En:   0.000D+00 0.100D+01
 Coeff:     -0.170D+00 0.117D+01
 Gap=     0.542 Goal=   None    Shift=    0.000
 RMSDP=2.97D-05 MaxDP=2.15D-04 DE=-1.25D-05 OVMax= 4.48D-04

 Cycle   3  Pass 1  IDiag  1:
 E= -226.382935548343     Delta-E=       -0.000001951173 Rises=F Damp=F
 DIIS: error= 7.24D-05 at cycle   3 NSaved=   3.
 NSaved= 3 IEnMin= 3 EnMin= -226.382935548343     IErMin= 3 ErrMin= 7.24D-05
 ErrMax= 7.24D-05  0.00D+00 EMaxC= 1.00D-01 BMatC= 1.07D-07 BMatP= 7.12D-07
 IDIUse=1 WtCom= 1.00D+00 WtEn= 0.00D+00
 Coeff-Com: -0.781D-02-0.228D+00 0.124D+01
 Coeff:     -0.781D-02-0.228D+00 0.124D+01
 Gap=     0.542 Goal=   None    Shift=    0.000
 RMSDP=1.51D-05 MaxDP=1.15D-04 DE=-1.95D-06 OVMax= 2.31D-04

 Cycle   4  Pass 1  IDiag  1:
 E= -226.382935904681     Delta-E=       -0.000000356339 Rises=F Damp=F
 DIIS: error= 3.18D-05 at cycle   4 NSaved=   4.
 NSaved= 4 IEnMin= 4 EnMin= -226.382935904681     IErMin= 4 ErrMin= 3.18D-05
 ErrMax= 3.18D-05  0.00D+00 EMaxC= 1.00D-01 BMatC= 2.46D-08 BMatP= 1.07D-07
 IDIUse=1 WtCom= 1.00D+00 WtEn= 0.00D+00
 Coeff-Com:  0.266D-01-0.239D+00 0.242D+00 0.970D+00
 Coeff:      0.266D-01-0.239D+00 0.242D+00 0.970D+00
 Gap=     0.542 Goal=   None    Shift=    0.000
 RMSDP=6.82D-06 MaxDP=5.05D-05 DE=-3.56D-07 OVMax= 1.08D-04

 Cycle   5  Pass 1  IDiag  1:
 E= -226.382935973562     Delta-E=       -0.000000068881 Rises=F Damp=F
 DIIS: error= 1.46D-05 at cycle   5 NSaved=   5.
 NSaved= 5 IEnMin= 5 EnMin= -226.382935973562     IErMin= 5 ErrMin= 1.46D-05
 ErrMax= 1.46D-05  0.00D+00 EMaxC= 1.00D-01 BMatC= 2.97D-09 BMatP= 2.46D-08
 IDIUse=1 WtCom= 1.00D+00 WtEn= 0.00D+00
 Coeff-Com: -0.354D-02 0.798D-01-0.232D+00-0.185D+00 0.134D+01
 Coeff:     -0.354D-02 0.798D-01-0.232D+00-0.185D+00 0.134D+01
 Gap=     0.542 Goal=   None    Shift=    0.000
 RMSDP=3.33D-06 MaxDP=2.34D-05 DE=-6.89D-08 OVMax= 5.46D-05

 Cycle   6  Pass 1  IDiag  1:
 E= -226.382935985010     Delta-E=       -0.000000011448 Rises=F Damp=F
 DIIS: error= 3.46D-06 at cycle   6 NSaved=   6.
 NSaved= 6 IEnMin= 6 EnMin= -226.382935985010     IErMin= 6 ErrMin= 3.46D-06
 ErrMax= 3.46D-06  0.00D+00 EMaxC= 1.00D-01 BMatC= 4.43D-10 BMatP= 2.97D-09
 IDIUse=1 WtCom= 1.00D+00 WtEn= 0.00D+00
 Coeff-Com: -0.324D-02 0.419D-01-0.817D-01-0.141D+00 0.347D+00 0.838D+00
 Coeff:     -0.324D-02 0.419D-01-0.817D-01-0.141D+00 0.347D+00 0.838D+00
 Gap=     0.542 Goal=   None    Shift=    0.000
 RMSDP=8.24D-07 MaxDP=6.11D-06 DE=-1.14D-08 OVMax= 1.62D-05

 Cycle   7  Pass 1  IDiag  1:
 E= -226.382935986026     Delta-E=       -0.000000001016 Rises=F Damp=F
 DIIS: error= 1.79D-06 at cycle   7 NSaved=   7.
 NSaved= 7 IEnMin= 7 EnMin= -226.382935986026     IErMin= 7 ErrMin= 1.79D-06
 ErrMax= 1.79D-06  0.00D+00 EMaxC= 1.00D-01 BMatC= 7.19D-11 BMatP= 4.43D-10
 IDIUse=1 WtCom= 1.00D+00 WtEn= 0.00D+00
 Coeff-Com:  0.105D-02-0.205D-01 0.588D-01 0.469D-01-0.323D+00-0.688D-01
 Coeff-Com:  0.131D+01
 Coeff:      0.105D-02-0.205D-01 0.588D-01 0.469D-01-0.323D+00-0.688D-01
 Coeff:      0.131D+01
 Gap=     0.542 Goal=   None    Shift=    0.000
 RMSDP=5.37D-07 MaxDP=3.93D-06 DE=-1.02D-09 OVMax= 1.24D-05

 Cycle   8  Pass 1  IDiag  1:
 E= -226.382935986307     Delta-E=       -0.000000000281 Rises=F Damp=F
 DIIS: error= 7.65D-07 at cycle   8 NSaved=   8.
 NSaved= 8 IEnMin= 8 EnMin= -226.382935986307     IErMin= 8 ErrMin= 7.65D-07
 ErrMax= 7.65D-07  0.00D+00 EMaxC= 1.00D-01 BMatC= 8.01D-12 BMatP= 7.19D-11
 IDIUse=1 WtCom= 1.00D+00 WtEn= 0.00D+00
 Coeff-Com:  0.260D-03-0.283D-02 0.456D-02 0.105D-01-0.164D-01-0.858D-01
 Coeff-Com: -0.140D-01 0.110D+01
 Coeff:      0.260D-03-0.283D-02 0.456D-02 0.105D-01-0.164D-01-0.858D-01
 Coeff:     -0.140D-01 0.110D+01
 Gap=     0.542 Goal=   None    Shift=    0.000
 RMSDP=1.47D-07 MaxDP=1.10D-06 DE=-2.81D-10 OVMax= 3.68D-06

 Cycle   9  Pass 1  IDiag  1:
 E= -226.382935986336     Delta-E=       -0.000000000030 Rises=F Damp=F
 DIIS: error= 4.04D-07 at cycle   9 NSaved=   9.
 NSaved= 9 IEnMin= 9 EnMin= -226.382935986336     IErMin= 9 ErrMin= 4.04D-07
 ErrMax= 4.04D-07  0.00D+00 EMaxC= 1.00D-01 BMatC= 2.00D-12 BMatP= 8.01D-12
 IDIUse=1 WtCom= 1.00D+00 WtEn= 0.00D+00
 Coeff-Com: -0.304D-03 0.589D-02-0.170D-01-0.131D-01 0.933D-01 0.555D-02
 Coeff-Com: -0.343D+00 0.873D-02 0.126D+01
 Coeff:     -0.304D-03 0.589D-02-0.170D-01-0.131D-01 0.933D-01 0.555D-02
 Coeff:     -0.343D+00 0.873D-02 0.126D+01
 Gap=     0.542 Goal=   None    Shift=    0.000
 RMSDP=1.02D-07 MaxDP=7.75D-07 DE=-2.98D-11 OVMax= 2.33D-06

 Cycle  10  Pass 1  IDiag  1:
 E= -226.382935986345     Delta-E=       -0.000000000009 Rises=F Damp=F
 DIIS: error= 1.45D-07 at cycle  10 NSaved=  10.
 NSaved=10 IEnMin=10 EnMin= -226.382935986345     IErMin=10 ErrMin= 1.45D-07
 ErrMax= 1.45D-07  0.00D+00 EMaxC= 1.00D-01 BMatC= 2.41D-13 BMatP= 2.00D-12
 IDIUse=1 WtCom= 1.00D+00 WtEn= 0.00D+00
 Coeff-Com:  0.751D-04-0.184D-02 0.580D-02 0.390D-02-0.332D-01 0.590D-02
 Coeff-Com:  0.141D+00-0.185D+00-0.441D+00 0.150D+01
 Coeff:      0.751D-04-0.184D-02 0.580D-02 0.390D-02-0.332D-01 0.590D-02
 Coeff:      0.141D+00-0.185D+00-0.441D+00 0.150D+01
 Gap=     0.542 Goal=   None    Shift=    0.000
 RMSDP=4.27D-08 MaxDP=3.13D-07 DE=-8.70D-12 OVMax= 8.23D-07

 Cycle  11  Pass 1  IDiag  1:
 E= -226.382935986347     Delta-E=       -0.000000000001 Rises=F Damp=F
 DIIS: error= 3.56D-08 at cycle  11 NSaved=  11.
 NSaved=11 IEnMin=11 EnMin= -226.382935986347     IErMin=11 ErrMin= 3.56D-08
 ErrMax= 3.56D-08  0.00D+00 EMaxC= 1.00D-01 BMatC= 2.28D-14 BMatP= 2.41D-13
 IDIUse=1 WtCom= 1.00D+00 WtEn= 0.00D+00
 Coeff-Com:  0.261D-04-0.501D-03 0.141D-02 0.127D-02-0.797D-02-0.951D-03
 Coeff-Com:  0.270D-01 0.131D-01-0.108D+00-0.996D-01 0.117D+01
 Coeff:      0.261D-04-0.501D-03 0.141D-02 0.127D-02-0.797D-02-0.951D-03
 Coeff:      0.270D-01 0.131D-01-0.108D+00-0.996D-01 0.117D+01
 Gap=     0.542 Goal=   None    Shift=    0.000
 RMSDP=1.10D-08 MaxDP=7.83D-08 DE=-1.42D-12 OVMax= 1.87D-07

 Cycle  12  Pass 1  IDiag  1:
 E= -226.382935986347     Delta-E=        0.000000000000 Rises=F Damp=F
 DIIS: error= 1.05D-08 at cycle  12 NSaved=  12.
 NSaved=12 IEnMin=11 EnMin= -226.382935986347     IErMin=12 ErrMin= 1.05D-08
 ErrMax= 1.05D-08  0.00D+00 EMaxC= 1.00D-01 BMatC= 3.14D-15 BMatP= 2.28D-14
 IDIUse=1 WtCom= 1.00D+00 WtEn= 0.00D+00
 Coeff-Com: -0.179D-04 0.417D-03-0.129D-02-0.914D-03 0.722D-02-0.258D-03
 Coeff-Com: -0.307D-01 0.302D-01 0.985D-01-0.247D+00-0.212D+00 0.136D+01
 Coeff:     -0.179D-04 0.417D-03-0.129D-02-0.914D-03 0.722D-02-0.258D-03
 Coeff:     -0.307D-01 0.302D-01 0.985D-01-0.247D+00-0.212D+00 0.136D+01
 Gap=     0.542 Goal=   None    Shift=    0.000
 RMSDP=4.65D-09 MaxDP=3.31D-08 DE= 0.00D+00 OVMax= 7.25D-08

 SCF Done:  E(RHF) =  -226.382935986     A.U. after   12 cycles
            NFock= 12  Conv=0.46D-08     -V/T= 2.0035
 KE= 2.255935274035D+02 PE=-7.660021944097D+02 EE= 1.975689972477D+02
 Leave Link  502 at Fri Apr 12 15:55:45 2019, MaxMem=   134217728 cpu:         0.2
 (Enter /cm/shared/c3ddb/gaussian/09.d01/g09/l701.exe)
 Compute integral first derivatives.
 ... and contract with generalized density number  0.
 Leave Link  701 at Fri Apr 12 15:55:45 2019, MaxMem=   134217728 cpu:         0.1
 (Enter /cm/shared/c3ddb/gaussian/09.d01/g09/l702.exe)
 L702 exits ... SP integral derivatives will be done elsewhere.
 Leave Link  702 at Fri Apr 12 15:55:45 2019, MaxMem=   134217728 cpu:         0.0
 (Enter /cm/shared/c3ddb/gaussian/09.d01/g09/l703.exe)
 Compute integral first derivatives, UseDBF=F ICtDFT=           0.
 Integral derivatives from FoFJK, PRISM(SPDF).
 Calling FoFJK, ICntrl=      2127 FMM=F ISym2X=0 I1Cent= 0 IOpClX= 0 NMat=1 NMatS=1 NMatT=0.
 FoFJK:  IHMeth= 1 ICntrl=    2127 DoSepK=F KAlg= 0 I1Cent=   0 FoldK=F
 IRaf=         0 NMat=   1 IRICut=       1 DoRegI=T DoRafI=F ISym2E= 0.
 FoFCou: FMM=F IPFlag=           0 FMFlag=      100000 FMFlg1=         800
         NFxFlg=           0 DoJE=F BraDBF=F KetDBF=F FulRan=T
         wScrn=  0.000000 ICntrl=    2127 IOpCl=  0 I1Cent=           0 NGrid=           0
         NMat0=    1 NMatS0=      1 NMatT0=    0 NMatD0=    1 NMtDS0=    0 NMtDT0=    0
 Symmetry not used in FoFCou.
 Leave Link  703 at Fri Apr 12 15:55:46 2019, MaxMem=   134217728 cpu:         0.2
 (Enter /cm/shared/c3ddb/gaussian/09.d01/g09/l716.exe)
 Dipole        = 1.22354859D+00 5.49288613D-01-8.59562859D-02
 -------------------------------------------------------------------
 Center     Atomic                   Forces (Hartrees/Bohr)
 Number     Number              X              Y              Z
 -------------------------------------------------------------------
      1        6           0.000002486   -0.002365308    0.001674135
      2        6          -0.000116980   -0.000080303    0.001345977
      3        1          -0.000021216   -0.000001195   -0.000053322
      4        1          -0.000007039   -0.000000024   -0.000004843
      5        1           0.000000679   -0.000013293   -0.000014347
      6        8          -0.000122809    0.004179171   -0.005666199
      7        8           0.003215918   -0.003189339    0.007080871
      8        1          -0.002951039    0.001470292   -0.004362272
 -------------------------------------------------------------------
 Cartesian Forces:  Max     0.007080871 RMS     0.002584988
 Leave Link  716 at Fri Apr 12 15:55:46 2019, MaxMem=   134217728 cpu:         0.0
 (Enter /cm/shared/c3ddb/gaussian/09.d01/g09/l103.exe)

 GradGradGradGradGradGradGradGradGradGradGradGradGradGradGradGradGradGrad
 Berny optimization.
 Using GEDIIS/GDIIS optimizer.
 FormGI is forming the generalized inverse of G from B-inverse, IUseBI=4.
 Internal  Forces:  Max     0.009765252 RMS     0.002139708
 Search for a local minimum.
 Step number   3 out of a maximum of   32
 All quantities printed in internal units (Hartrees-Bohrs-Radians)
 RMS Force = .48574D-04 SwitMx=.10000D-02 MixMth= 2
 Mixed Optimization -- En-DIIS/RFO-DIIS
 Swapping is turned off.
 Update second derivatives using D2CorX and points    1    2    3
 DE= -1.77D-05 DEPred=-1.82D-05 R= 9.76D-01
 TightC=F SS=  1.41D+00  RLast= 9.87D-03 DXNew= 5.0454D-01 2.9621D-02
 Trust test= 9.76D-01 RLast= 9.87D-03 DXMaxT set to 3.00D-01
 ITU=  1  0  0
     Eigenvalues ---    0.02585   0.03291   0.03307   0.15944   0.15997
     Eigenvalues ---    0.16000   0.19236   0.22179   0.28293   0.36762
     Eigenvalues ---    0.37161   0.37195   0.43979   0.48419   0.52686
     Eigenvalues ---    0.649671000.000001000.000001000.000001000.00000
     Eigenvalues --- 1000.000001000.00000
 En-DIIS/RFO-DIIS IScMMF=        0 using points:     3    2
 RFO step:  Lambda=-3.28633956D-06.
 NNeg= 0 NP= 2 Switch=  2.50D-03 Rises=F DC=  1.77D-05 SmlDif=  1.00D-05
 RMS Error=  0.1347641819D-03 NUsed= 2 EDIIS=F
 DidBck=F Rises=F RFO-DIIS coefs:    0.98859    0.01141
 Iteration  1 RMS(Cart)=  0.00048785 RMS(Int)=  0.00000039
 Iteration  2 RMS(Cart)=  0.00000030 RMS(Int)=  0.00000030
 Iteration  1 RMS(Cart)=  0.00000038 RMS(Int)=  0.00000016
 ITry= 1 IFail=0 DXMaxC= 9.37D-04 DCOld= 1.00D+10 DXMaxT= 3.00D-01 DXLimC= 3.00D+00 Rises=F
 Variable       Old X    -DE/DX   Delta X   Delta X   Delta X     New X
                                 (Linear)    (Quad)   (Total)
    R1        2.47202  -0.00004   0.00000  -0.00006  -0.00006   2.47196
    R2        2.02747  -0.00001   0.00000  -0.00004  -0.00003   2.02744
    R3        2.64914   0.00014  -0.00001   0.00033   0.00032   2.64946
    R4        2.02254  -0.00001   0.00000  -0.00002  -0.00002   2.02252
    R5        2.02302   0.00001   0.00000   0.00003   0.00003   2.02305
    R6        2.77220  -0.00004  -0.00004  -0.00002  -0.00006   2.77214
    R7        1.84296  -0.00001   0.00000  -0.00003  -0.00003   1.84293
    A1        2.15448   0.00010   0.00001   0.00010   0.00011   2.15459
    A2        2.11072  -0.00001  -0.00001  -0.00012  -0.00013   2.11059
    A3        2.01474  -0.00003   0.00000  -0.00010  -0.00010   2.01464
    A4        2.10546   0.00000   0.00000  -0.00002  -0.00002   2.10544
    A5        2.11082   0.00001   0.00000   0.00005   0.00006   2.11088
    A6        2.06684  -0.00001   0.00000  -0.00004  -0.00004   2.06680
    A7        1.93728   0.00007  -0.00005   0.00040   0.00035   1.93762
    A8        1.82012  -0.00011  -0.00009  -0.00047  -0.00056   1.81956
    D1       -0.01080  -0.00044   0.00000   0.00073   0.00073  -0.01007
    D2       -3.14069  -0.00043  -0.00001   0.00124   0.00122  -3.13946
    D3        3.04029   0.00043   0.00001  -0.00101  -0.00100   3.03929
    D4       -0.08960   0.00045   0.00000  -0.00050  -0.00050  -0.09011
    D5        2.61799  -0.00186   0.00000   0.00000   0.00000   2.61799
    D6       -0.60721  -0.00104   0.00001  -0.00160  -0.00158  -0.60880
    D7        0.69813   0.00977   0.00000   0.00000   0.00000   0.69813
         Item               Value     Threshold  Converged?
 Maximum Force            0.000143     0.000015     NO 
 RMS     Force            0.000049     0.000010     NO 
 Maximum Displacement     0.000937     0.000060     NO 
 RMS     Displacement     0.000488     0.000040     NO 
 Predicted change in Energy=-1.488651D-07
 Lowest energy point so far.  Saving SCF results.
 GradGradGradGradGradGradGradGradGradGradGradGradGradGradGradGradGradGrad

 Leave Link  103 at Fri Apr 12 15:55:46 2019, MaxMem=   134217728 cpu:         0.0
 (Enter /cm/shared/c3ddb/gaussian/09.d01/g09/l202.exe)
                          Input orientation:                          
 ---------------------------------------------------------------------
 Center     Atomic      Atomic             Coordinates (Angstroms)
 Number     Number       Type             X           Y           Z
 ---------------------------------------------------------------------
      1          6           0        0.760697    0.630956    0.063111
      2          6           0        1.381509   -0.518897    0.003341
      3          1           0        1.267768    1.576031    0.090893
      4          1           0        2.450455   -0.560426   -0.030058
      5          1           0        0.834768   -1.438885   -0.024545
      6          8           0       -0.637424    0.699953   -0.015638
      7          8           0       -1.150848    1.848445    0.738888
      8          1           0       -0.513638    2.562704    0.552106
 ---------------------------------------------------------------------
                    Distance matrix (angstroms):
                    1          2          3          4          5
     1  C    0.000000
     2  C    1.308106   0.000000
     3  H    1.072874   2.099839   0.000000
     4  H    2.069626   1.070273   2.444959   0.000000
     5  H    2.073021   1.070552   3.048038   1.839066   0.000000
     6  O    1.402036   2.358399   2.099671   3.335230   2.596548
     7  O    2.364943   3.543751   2.518692   4.400377   3.915615
     8  H    2.365311   3.659097   2.087977   4.344963   4.261859
                    6          7          8
     6  O    0.000000
     7  O    1.466952   0.000000
     8  H    1.951281   0.975238   0.000000
 Symmetry turned off by external request.
 Stoichiometry    C2H4O2
 Framework group  C1[X(C2H4O2)]
 Deg. of freedom    18
 Full point group                 C1      NOp   1
 Rotational constants (GHZ):     39.1760193      4.5549230      4.2182538
 Leave Link  202 at Fri Apr 12 15:55:46 2019, MaxMem=   134217728 cpu:         0.0
 (Enter /cm/shared/c3ddb/gaussian/09.d01/g09/l301.exe)
 Standard basis: 3-21G (6D, 7F)
 Ernie: Thresh=  0.10000D-02 Tol=  0.10000D-05 Strict=F.
    44 basis functions,    72 primitive gaussians,    44 cartesian basis functions
    16 alpha electrons       16 beta electrons
       nuclear repulsion energy       116.4526908165 Hartrees.
 IExCor=    0 DFT=F Ex=HF Corr=None ExCW=0 ScaHFX=  1.000000
 ScaDFX=  1.000000  1.000000  1.000000  1.000000 ScalE2=  1.000000  1.000000
 IRadAn=      0 IRanWt=     -1 IRanGd=            0 ICorTp=0 IEmpDi=  4
 NAtoms=    8 NActive=    8 NUniq=    8 SFac= 1.00D+00 NAtFMM=   60 NAOKFM=F Big=F
 Integral buffers will be    131072 words long.
 Raffenetti 1 integral format.
 Two-electron integral symmetry is turned off.
 Leave Link  301 at Fri Apr 12 15:55:46 2019, MaxMem=   134217728 cpu:         0.1
 (Enter /cm/shared/c3ddb/gaussian/09.d01/g09/l302.exe)
 NPDir=0 NMtPBC=     1 NCelOv=     1 NCel=       1 NClECP=     1 NCelD=      1
         NCelK=      1 NCelE2=     1 NClLst=     1 CellRange=     0.0.
 One-electron integrals computed using PRISM.
 NBasis=    44 RedAO= T EigKep=  1.13D-02  NBF=    44
 NBsUse=    44 1.00D-06 EigRej= -1.00D+00 NBFU=    44
 Leave Link  302 at Fri Apr 12 15:55:46 2019, MaxMem=   134217728 cpu:         0.1
 (Enter /cm/shared/c3ddb/gaussian/09.d01/g09/l303.exe)
 DipDrv:  MaxL=1.
 Leave Link  303 at Fri Apr 12 15:55:46 2019, MaxMem=   134217728 cpu:         0.0
 (Enter /cm/shared/c3ddb/gaussian/09.d01/g09/l401.exe)
 Initial guess from the checkpoint file:  "TMP_CALCS/scangeom_S02_150_040.chk"
 B after Tr=     0.000075    0.000195   -0.000207
         Rot=    1.000000   -0.000089    0.000143    0.000000 Ang=  -0.02 deg.
 Guess basis will be translated and rotated to current coordinates.
 JPrj=2 DoOrth=T DoCkMO=T.
 Leave Link  401 at Fri Apr 12 15:55:47 2019, MaxMem=   134217728 cpu:         0.2
 (Enter /cm/shared/c3ddb/gaussian/09.d01/g09/l502.exe)
 Closed shell SCF:
 Using DIIS extrapolation, IDIIS=  1040.
 Two-electron integral symmetry not used.
 Keep R1 ints in memory in canonical form, NReq=1327247.
 IVT=       24902 IEndB=       24902 NGot=   134217728 MDV=   133702282
 LenX=   133702282 LenY=   133699905
 Requested convergence on RMS density matrix=1.00D-08 within 128 cycles.
 Requested convergence on MAX density matrix=1.00D-06.
 Requested convergence on             energy=1.00D-06.
 No special actions if energy rises.
 FoFCou: FMM=F IPFlag=           0 FMFlag=           0 FMFlg1=           0
         NFxFlg=           0 DoJE=F BraDBF=F KetDBF=F FulRan=T
         wScrn=  0.000000 ICntrl=     600 IOpCl=  0 I1Cent=           0 NGrid=           0
         NMat0=    1 NMatS0=    990 NMatT0=    0 NMatD0=    1 NMtDS0=    0 NMtDT0=    0
 Symmetry not used in FoFCou.

 Cycle   1  Pass 1  IDiag  1:
 E= -226.382935812623    
 DIIS: error= 4.01D-05 at cycle   1 NSaved=   1.
 NSaved= 1 IEnMin= 1 EnMin= -226.382935812623     IErMin= 1 ErrMin= 4.01D-05
 ErrMax= 4.01D-05  0.00D+00 EMaxC= 1.00D-01 BMatC= 1.65D-07 BMatP= 1.65D-07
 IDIUse=1 WtCom= 1.00D+00 WtEn= 0.00D+00
 Coeff-Com:  0.100D+01
 Coeff:      0.100D+01
 Gap=     0.940 Goal=   None    Shift=    0.000
 RMSDP=1.05D-05 MaxDP=7.22D-05              OVMax= 9.14D-05

 Cycle   2  Pass 1  IDiag  1:
 E= -226.382936051686     Delta-E=       -0.000000239063 Rises=F Damp=F
 DIIS: error= 1.46D-05 at cycle   2 NSaved=   2.
 NSaved= 2 IEnMin= 2 EnMin= -226.382936051686     IErMin= 2 ErrMin= 1.46D-05
 ErrMax= 1.46D-05  0.00D+00 EMaxC= 1.00D-01 BMatC= 1.20D-08 BMatP= 1.65D-07
 IDIUse=1 WtCom= 1.00D+00 WtEn= 0.00D+00
 Coeff-Com: -0.209D+00 0.121D+01
 Coeff:     -0.209D+00 0.121D+01
 Gap=     0.542 Goal=   None    Shift=    0.000
 RMSDP=4.72D-06 MaxDP=3.54D-05 DE=-2.39D-07 OVMax= 6.15D-05

 Cycle   3  Pass 1  IDiag  1:
 E= -226.382936085901     Delta-E=       -0.000000034214 Rises=F Damp=F
 DIIS: error= 5.55D-06 at cycle   3 NSaved=   3.
 NSaved= 3 IEnMin= 3 EnMin= -226.382936085901     IErMin= 3 ErrMin= 5.55D-06
 ErrMax= 5.55D-06  0.00D+00 EMaxC= 1.00D-01 BMatC= 1.36D-09 BMatP= 1.20D-08
 IDIUse=1 WtCom= 1.00D+00 WtEn= 0.00D+00
 Coeff-Com: -0.155D-01-0.143D+00 0.116D+01
 Coeff:     -0.155D-01-0.143D+00 0.116D+01
 Gap=     0.542 Goal=   None    Shift=    0.000
 RMSDP=1.93D-06 MaxDP=1.11D-05 DE=-3.42D-08 OVMax= 2.64D-05

 Cycle   4  Pass 1  IDiag  1:
 E= -226.382936090377     Delta-E=       -0.000000004477 Rises=F Damp=F
 DIIS: error= 3.32D-06 at cycle   4 NSaved=   4.
 NSaved= 4 IEnMin= 4 EnMin= -226.382936090377     IErMin= 4 ErrMin= 3.32D-06
 ErrMax= 3.32D-06  0.00D+00 EMaxC= 1.00D-01 BMatC= 3.17D-10 BMatP= 1.36D-09
 IDIUse=1 WtCom= 1.00D+00 WtEn= 0.00D+00
 Coeff-Com:  0.271D-01-0.207D+00 0.252D+00 0.927D+00
 Coeff:      0.271D-01-0.207D+00 0.252D+00 0.927D+00
 Gap=     0.542 Goal=   None    Shift=    0.000
 RMSDP=8.53D-07 MaxDP=5.99D-06 DE=-4.48D-09 OVMax= 1.24D-05

 Cycle   5  Pass 1  IDiag  1:
 E= -226.382936091226     Delta-E=       -0.000000000849 Rises=F Damp=F
 DIIS: error= 1.86D-06 at cycle   5 NSaved=   5.
 NSaved= 5 IEnMin= 5 EnMin= -226.382936091226     IErMin= 5 ErrMin= 1.86D-06
 ErrMax= 1.86D-06  0.00D+00 EMaxC= 1.00D-01 BMatC= 4.60D-11 BMatP= 3.17D-10
 IDIUse=1 WtCom= 1.00D+00 WtEn= 0.00D+00
 Coeff-Com: -0.124D-02 0.446D-01-0.204D+00-0.908D-01 0.125D+01
 Coeff:     -0.124D-02 0.446D-01-0.204D+00-0.908D-01 0.125D+01
 Gap=     0.542 Goal=   None    Shift=    0.000
 RMSDP=4.56D-07 MaxDP=2.98D-06 DE=-8.49D-10 OVMax= 7.57D-06

 Cycle   6  Pass 1  IDiag  1:
[...]
         wScrn=  0.000000 ICntrl=     600 IOpCl=  0 I1Cent=           0 NGrid=           0
         NMat0=    1 NMatS0=    990 NMatT0=    0 NMatD0=    1 NMtDS0=    0 NMtDT0=    0
 Symmetry not used in FoFCou.

 Cycle   1  Pass 1  IDiag  1:
 E= -226.382936112994    
 DIIS: error= 2.43D-06 at cycle   1 NSaved=   1.
 NSaved= 1 IEnMin= 1 EnMin= -226.382936112994     IErMin= 1 ErrMin= 2.43D-06
 ErrMax= 2.43D-06  0.00D+00 EMaxC= 1.00D-01 BMatC= 1.04D-09 BMatP= 1.04D-09
 IDIUse=1 WtCom= 1.00D+00 WtEn= 0.00D+00
 Coeff-Com:  0.100D+01
 Coeff:      0.100D+01
 Gap=     0.940 Goal=   None    Shift=    0.000
 RMSDP=8.26D-07 MaxDP=5.68D-06              OVMax= 5.72D-06

 Cycle   2  Pass 1  IDiag  1:
 E= -226.382936114170     Delta-E=       -0.000000001176 Rises=F Damp=F
 DIIS: error= 8.64D-07 at cycle   2 NSaved=   2.
 NSaved= 2 IEnMin= 2 EnMin= -226.382936114170     IErMin= 2 ErrMin= 8.64D-07
 ErrMax= 8.64D-07  0.00D+00 EMaxC= 1.00D-01 BMatC= 8.01D-11 BMatP= 1.04D-09
 IDIUse=1 WtCom= 1.00D+00 WtEn= 0.00D+00
 Coeff-Com: -0.782D-01 0.108D+01
 Coeff:     -0.782D-01 0.108D+01
 Gap=     0.542 Goal=   None    Shift=    0.000
 RMSDP=2.96D-07 MaxDP=2.07D-06 DE=-1.18D-09 OVMax= 3.46D-06

 Cycle   3  Pass 1  IDiag  1:
 E= -226.382936114290     Delta-E=       -0.000000000120 Rises=F Damp=F
 DIIS: error= 7.78D-07 at cycle   3 NSaved=   3.
 NSaved= 3 IEnMin= 3 EnMin= -226.382936114290     IErMin= 3 ErrMin= 7.78D-07
 ErrMax= 7.78D-07  0.00D+00 EMaxC= 1.00D-01 BMatC= 2.42D-11 BMatP= 8.01D-11
 IDIUse=1 WtCom= 1.00D+00 WtEn= 0.00D+00
 Coeff-Com: -0.892D-01 0.353D+00 0.737D+00
 Coeff:     -0.892D-01 0.353D+00 0.737D+00
 Gap=     0.542 Goal=   None    Shift=    0.000
 RMSDP=1.10D-07 MaxDP=8.84D-07 DE=-1.20D-10 OVMax= 1.50D-06

 Cycle   4  Pass 1  IDiag  1:
 E= -226.382936114317     Delta-E=       -0.000000000027 Rises=F Damp=F
 DIIS: error= 1.73D-07 at cycle   4 NSaved=   4.
 NSaved= 4 IEnMin= 4 EnMin= -226.382936114317     IErMin= 4 ErrMin= 1.73D-07
 ErrMax= 1.73D-07  0.00D+00 EMaxC= 1.00D-01 BMatC= 1.89D-12 BMatP= 2.42D-11
 IDIUse=1 WtCom= 1.00D+00 WtEn= 0.00D+00
 Coeff-Com:  0.200D-01-0.181D+00-0.589D-01 0.122D+01
 Coeff:      0.200D-01-0.181D+00-0.589D-01 0.122D+01
 Gap=     0.542 Goal=   None    Shift=    0.000
 RMSDP=7.05D-08 MaxDP=3.97D-07 DE=-2.67D-11 OVMax= 9.19D-07

 Cycle   5  Pass 1  IDiag  1:
 E= -226.382936114322     Delta-E=       -0.000000000005 Rises=F Damp=F
 DIIS: error= 6.94D-08 at cycle   5 NSaved=   5.
 NSaved= 5 IEnMin= 5 EnMin= -226.382936114322     IErMin= 5 ErrMin= 6.94D-08
 ErrMax= 6.94D-08  0.00D+00 EMaxC= 1.00D-01 BMatC= 1.63D-13 BMatP= 1.89D-12
 IDIUse=1 WtCom= 1.00D+00 WtEn= 0.00D+00
 Coeff-Com:  0.495D-02-0.970D-02-0.411D-01-0.145D+00 0.119D+01
 Coeff:      0.495D-02-0.970D-02-0.411D-01-0.145D+00 0.119D+01
 Gap=     0.542 Goal=   None    Shift=    0.000
 RMSDP=2.33D-08 MaxDP=1.57D-07 DE=-5.23D-12 OVMax= 3.13D-07

 Cycle   6  Pass 1  IDiag  1:
 E= -226.382936114322     Delta-E=       -0.000000000001 Rises=F Damp=F
 DIIS: error= 4.00D-08 at cycle   6 NSaved=   6.
 NSaved= 6 IEnMin= 6 EnMin= -226.382936114322     IErMin= 6 ErrMin= 4.00D-08
 ErrMax= 4.00D-08  0.00D+00 EMaxC= 1.00D-01 BMatC= 2.90D-14 BMatP= 1.63D-13
 IDIUse=1 WtCom= 1.00D+00 WtEn= 0.00D+00
 Coeff-Com: -0.267D-02 0.286D-01 0.679D-02-0.223D+00 0.146D+00 0.104D+01
 Coeff:     -0.267D-02 0.286D-01 0.679D-02-0.223D+00 0.146D+00 0.104D+01
 Gap=     0.542 Goal=   None    Shift=    0.000
 RMSDP=9.87D-09 MaxDP=7.03D-08 DE=-5.12D-13 OVMax= 1.50D-07

 SCF Done:  E(RHF) =  -226.382936114     A.U. after    6 cycles
            NFock=  6  Conv=0.99D-08     -V/T= 2.0035
 KE= 2.255933477470D+02 PE=-7.659949444681D+02 EE= 1.975657308577D+02
 Leave Link  502 at Fri Apr 12 15:55:50 2019, MaxMem=   134217728 cpu:         0.2
 (Enter /cm/shared/c3ddb/gaussian/09.d01/g09/l701.exe)
 Compute integral first derivatives.
 ... and contract with generalized density number  0.
 Leave Link  701 at Fri Apr 12 15:55:50 2019, MaxMem=   134217728 cpu:         0.1
 (Enter /cm/shared/c3ddb/gaussian/09.d01/g09/l702.exe)
 L702 exits ... SP integral derivatives will be done elsewhere.
 Leave Link  702 at Fri Apr 12 15:55:50 2019, MaxMem=   134217728 cpu:         0.0
 (Enter /cm/shared/c3ddb/gaussian/09.d01/g09/l703.exe)
 Compute integral first derivatives, UseDBF=F ICtDFT=           0.
 Integral derivatives from FoFJK, PRISM(SPDF).
 Calling FoFJK, ICntrl=      2127 FMM=F ISym2X=0 I1Cent= 0 IOpClX= 0 NMat=1 NMatS=1 NMatT=0.
 FoFJK:  IHMeth= 1 ICntrl=    2127 DoSepK=F KAlg= 0 I1Cent=   0 FoldK=F
 IRaf=         0 NMat=   1 IRICut=       1 DoRegI=T DoRafI=F ISym2E= 0.
 FoFCou: FMM=F IPFlag=           0 FMFlag=      100000 FMFlg1=         800
         NFxFlg=           0 DoJE=F BraDBF=F KetDBF=F FulRan=T
         wScrn=  0.000000 ICntrl=    2127 IOpCl=  0 I1Cent=           0 NGrid=           0
         NMat0=    1 NMatS0=      1 NMatT0=    0 NMatD0=    1 NMtDS0=    0 NMtDT0=    0
 Symmetry not used in FoFCou.
 Leave Link  703 at Fri Apr 12 15:55:50 2019, MaxMem=   134217728 cpu:         0.2
 (Enter /cm/shared/c3ddb/gaussian/09.d01/g09/l716.exe)
 Dipole        = 1.22404874D+00 5.48824486D-01-8.58561007D-02
 -------------------------------------------------------------------
 Center     Atomic                   Forces (Hartrees/Bohr)
 Number     Number              X              Y              Z
 -------------------------------------------------------------------
      1        6          -0.000198851   -0.002321943    0.001558986
      2        6          -0.000081526   -0.000114415    0.001359559
      3        1          -0.000000590   -0.000000336    0.000000155
      4        1          -0.000000578   -0.000000079    0.000000465
      5        1          -0.000000703   -0.000000412    0.000001162
      6        8          -0.000020222    0.004098322   -0.005653383
      7        8           0.003273791   -0.003177827    0.007063867
      8        1          -0.002971322    0.001516691   -0.004330811
 -------------------------------------------------------------------
 Cartesian Forces:  Max     0.007063867 RMS     0.002574607
 Leave Link  716 at Fri Apr 12 15:55:50 2019, MaxMem=   134217728 cpu:         0.0
 (Enter /cm/shared/c3ddb/gaussian/09.d01/g09/l103.exe)

 GradGradGradGradGradGradGradGradGradGradGradGradGradGradGradGradGradGrad
 Berny optimization.
 Using GEDIIS/GDIIS optimizer.
 FormGI is forming the generalized inverse of G from B-inverse, IUseBI=4.
 Internal  Forces:  Max     0.009764234 RMS     0.002140731
 Search for a local minimum.
 Step number   6 out of a maximum of   32
 All quantities printed in internal units (Hartrees-Bohrs-Radians)
 RMS Force = .96966D-06 SwitMx=.10000D-02 MixMth= 2
 Mixed Optimization -- En-DIIS/RFO-DIIS
 Swapping is turned off.
 Update second derivatives using D2CorX and points    1    2    3    4    5
                                                      6
 DE= -9.77D-10 DEPred=-9.74D-10 R= 1.00D+00
 Trust test= 1.00D+00 RLast= 1.55D-04 DXMaxT set to 3.00D-01
 ITU=  0  0  0  1  0  0
     Eigenvalues ---    0.02778   0.03382   0.04176   0.12960   0.15997
     Eigenvalues ---    0.16072   0.20510   0.22447   0.30145   0.36801
     Eigenvalues ---    0.37186   0.37452   0.37988   0.48049   0.52660
     Eigenvalues ---    0.648281000.000001000.000001000.000001000.00000
     Eigenvalues --- 1000.000001000.00000
 En-DIIS/RFO-DIIS IScMMF=        0 using points:     6    5    4    3    2
 RFO step:  Lambda=-3.18825460D-06.
 NNeg= 0 NP= 5 Switch=  2.50D-03 Rises=F DC=  1.77D-05 SmlDif=  1.00D-05
 RMS Error=  0.6774108311D-04 NUsed= 5 EDIIS=F
 DidBck=F Rises=F RFO-DIIS coefs:    0.94578    0.09577   -0.02704   -0.01424   -0.00026
 Iteration  1 RMS(Cart)=  0.00001140 RMS(Int)=  0.00000024
 Iteration  2 RMS(Cart)=  0.00000000 RMS(Int)=  0.00000024
 Iteration  1 RMS(Cart)=  0.00000030 RMS(Int)=  0.00000013
 ITry= 1 IFail=0 DXMaxC= 2.21D-05 DCOld= 1.00D+10 DXMaxT= 3.00D-01 DXLimC= 3.00D+00 Rises=F
 Variable       Old X    -DE/DX   Delta X   Delta X   Delta X     New X
                                 (Linear)    (Quad)   (Total)
    R1        2.47195   0.00000   0.00000   0.00000   0.00000   2.47194
    R2        2.02744   0.00000   0.00000   0.00000   0.00000   2.02743
    R3        2.64957   0.00000   0.00000   0.00000   0.00001   2.64958
    R4        2.02253   0.00000   0.00000   0.00000   0.00000   2.02253
    R5        2.02304   0.00000   0.00000   0.00000   0.00000   2.02305
    R6        2.77215   0.00000   0.00000   0.00000   0.00000   2.77215
    R7        1.84293   0.00000   0.00000   0.00000   0.00000   1.84293
    A1        2.15477   0.00008   0.00000   0.00000   0.00001   2.15478
    A2        2.11049   0.00002   0.00000   0.00000  -0.00001   2.11048
    A3        2.01458  -0.00002   0.00000   0.00000   0.00000   2.01458
    A4        2.10547   0.00000   0.00000   0.00001   0.00000   2.10547
    A5        2.11086   0.00000   0.00000  -0.00001   0.00000   2.11086
    A6        2.06679   0.00000   0.00000   0.00000   0.00000   2.06679
    A7        1.93743   0.00000   0.00000   0.00001   0.00001   1.93744
    A8        1.81973   0.00000   0.00000   0.00000   0.00000   1.81973
    D1       -0.00998  -0.00047   0.00002  -0.00001   0.00001  -0.00996
    D2       -3.13970  -0.00047   0.00001  -0.00003  -0.00002  -3.13972
    D3        3.03975   0.00047   0.00001   0.00000   0.00001   3.03975
    D4       -0.08998   0.00047  -0.00001  -0.00002  -0.00003  -0.09000
    D5        2.61799  -0.00189   0.00000   0.00000   0.00000   2.61799
    D6       -0.60845  -0.00102  -0.00001   0.00001   0.00000  -0.60845
    D7        0.69813   0.00976   0.00000   0.00000   0.00000   0.69813
         Item               Value     Threshold  Converged?
 Maximum Force            0.000003     0.000015     YES
 RMS     Force            0.000001     0.000010     YES
 Maximum Displacement     0.000022     0.000060     YES
 RMS     Displacement     0.000011     0.000040     YES
 Predicted change in Energy=-5.084544D-11
 Optimization completed.
    -- Stationary point found.
                           ----------------------------
                           !   Optimized Parameters   !
                           ! (Angstroms and Degrees)  !
 --------------------------                            --------------------------
 ! Name  Definition              Value          Derivative Info.                !
 --------------------------------------------------------------------------------
 ! R1    R(1,2)                  1.3081         -DE/DX =    0.0                 !
 ! R2    R(1,3)                  1.0729         -DE/DX =    0.0                 !
 ! R3    R(1,6)                  1.4021         -DE/DX =    0.0                 !
 ! R4    R(2,4)                  1.0703         -DE/DX =    0.0                 !
 ! R5    R(2,5)                  1.0705         -DE/DX =    0.0                 !
 ! R6    R(6,7)                  1.467          -DE/DX =    0.0                 !
 ! R7    R(7,8)                  0.9752         -DE/DX =    0.0                 !
 ! A1    A(2,1,3)              123.4591         -DE/DX =    0.0001              !
 ! A2    A(2,1,6)              120.9221         -DE/DX =    0.0                 !
 ! A3    A(3,1,6)              115.4272         -DE/DX =    0.0                 !
 ! A4    A(1,2,4)              120.6346         -DE/DX =    0.0                 !
 ! A5    A(1,2,5)              120.9436         -DE/DX =    0.0                 !
 ! A6    A(4,2,5)              118.4184         -DE/DX =    0.0                 !
 ! A7    A(1,6,7)              111.0065         -DE/DX =    0.0                 !
 ! A8    A(6,7,8)              104.263          -DE/DX =    0.0                 !
 ! D1    D(3,1,2,4)             -0.5716         -DE/DX =   -0.0005              !
 ! D2    D(3,1,2,5)           -179.8914         -DE/DX =   -0.0005              !
 ! D3    D(6,1,2,4)            174.1646         -DE/DX =    0.0005              !
 ! D4    D(6,1,2,5)             -5.1552         -DE/DX =    0.0005              !
 ! D5    D(2,1,6,7)            150.0            -DE/DX =   -0.0019              !
 ! D6    D(3,1,6,7)            -34.8615         -DE/DX =   -0.001               !
 ! D7    D(1,6,7,8)             40.0            -DE/DX =    0.0098              !
 --------------------------------------------------------------------------------
 Lowest energy point so far.  Saving SCF results.
 GradGradGradGradGradGradGradGradGradGradGradGradGradGradGradGradGradGrad

 Largest change from initial coordinates is atom    8       0.017 Angstoms.
 Leave Link  103 at Fri Apr 12 15:55:50 2019, MaxMem=   134217728 cpu:         0.0
 (Enter /cm/shared/c3ddb/gaussian/09.d01/g09/l202.exe)
                          Input orientation:                          
 ---------------------------------------------------------------------
 Center     Atomic      Atomic             Coordinates (Angstroms)
 Number     Number       Type             X           Y           Z
 ---------------------------------------------------------------------
      1          6           0        0.760699    0.630972    0.062984
      2          6           0        1.381504   -0.518876    0.003244
      3          1           0        1.267605    1.576128    0.090933
      4          1           0        2.450462   -0.560451   -0.029877
      5          1           0        0.834750   -1.438854   -0.024593
      6          8           0       -0.637496    0.699820   -0.015597
      7          8           0       -1.150677    1.848417    0.738952
      8          1           0       -0.513560    2.562726    0.552050
 ---------------------------------------------------------------------
                    Distance matrix (angstroms):
                    1          2          3          4          5
     1  C    0.000000
     2  C    1.308097   0.000000
     3  H    1.072873   2.099929   0.000000
     4  H    2.069641   1.070279   2.445142   0.000000
     5  H    2.073000   1.070549   3.048085   1.839061   0.000000
     6  O    1.402092   2.358375   2.099684   3.335262   2.596442
     7  O    2.364839   3.543626   2.518364   4.400221   3.915491
     8  H    2.365290   3.659061   2.087714   4.344917   4.261818
                    6          7          8
     6  O    0.000000
     7  O    1.466961   0.000000
     8  H    1.951410   0.975237   0.000000
 Symmetry turned off by external request.
 Stoichiometry    C2H4O2
 Framework group  C1[X(C2H4O2)]
 Deg. of freedom    18
 Full point group                 C1      NOp   1
 Rotational constants (GHZ):     39.1683624      4.5552441      4.2184361
 Leave Link  202 at Fri Apr 12 15:55:51 2019, MaxMem=   134217728 cpu:         0.0
 (Enter /cm/shared/c3ddb/gaussian/09.d01/g09/l601.exe)
 Copying SCF densities to generalized density rwf, IOpCl= 0 IROHF=0.

 **********************************************************************

            Population analysis using the SCF density.

 **********************************************************************

 Alpha  occ. eigenvalues --  -20.54020 -20.53018 -11.25557 -11.17912  -1.47893
 Alpha  occ. eigenvalues --   -1.24377  -1.04096  -0.81815  -0.71281  -0.67934
 Alpha  occ. eigenvalues --   -0.63944  -0.57924  -0.56088  -0.51963  -0.48512
 Alpha  occ. eigenvalues --   -0.37171
 Alpha virt. eigenvalues --    0.17007   0.23217   0.24080   0.30952   0.34239
 Alpha virt. eigenvalues --    0.35430   0.50904   0.56322   0.88911   0.95936
 Alpha virt. eigenvalues --    0.99173   1.05549   1.09893   1.11099   1.23822
 Alpha virt. eigenvalues --    1.31296   1.35265   1.56887   1.58933   1.72023
 Alpha virt. eigenvalues --    1.82102   1.89941   1.94035   1.97020   2.11453
 Alpha virt. eigenvalues --    2.26023   3.00518   3.52285
          Condensed to atoms (all electrons):
               1          2          3          4          5          6
     1  C    4.905741   0.509512   0.360148  -0.044928  -0.051709   0.220368
     2  C    0.509512   5.305714  -0.053144   0.382031   0.389142  -0.053538
     3  H    0.360148  -0.053144   0.503631  -0.000168   0.002497  -0.039040
     4  H   -0.044928   0.382031  -0.000168   0.445661  -0.014450   0.001340
     5  H   -0.051709   0.389142   0.002497  -0.014450   0.422873  -0.000687
     6  O    0.220368  -0.053538  -0.039040   0.001340  -0.000687   8.156578
     7  O   -0.023066   0.002502  -0.002416  -0.000023  -0.000005   0.124320
     8  H   -0.004423   0.000093   0.007125   0.000006   0.000016  -0.026025
               7          8
     1  C   -0.023066  -0.004423
     2  C    0.002502   0.000093
     3  H   -0.002416   0.007125
     4  H   -0.000023   0.000006
     5  H   -0.000005   0.000016
     6  O    0.124320  -0.026025
     7  O    8.027636   0.235407
     8  H    0.235407   0.390393
 Mulliken charges:
               1
     1  C    0.128357
     2  C   -0.482313
     3  H    0.221368
     4  H    0.230532
     5  H    0.252322
     6  O   -0.383317
     7  O   -0.364356
     8  H    0.397407
 Sum of Mulliken charges =   0.00000
 Mulliken charges with hydrogens summed into heavy atoms:
               1
     1  C    0.349724
     2  C    0.000542
     6  O   -0.383317
     7  O    0.033051
 Electronic spatial extent (au):  <R**2>=            366.5305
 Charge=              0.0000 electrons
 Dipole moment (field-independent basis, Debye):
    X=              3.1112    Y=              1.3950    Z=             -0.2182  Tot=              3.4166
 Quadrupole moment (field-independent basis, Debye-Ang):
   XX=            -25.0917   YY=            -15.3755   ZZ=            -26.2959
   XY=              2.7380   XZ=              0.9894   YZ=              0.3842
 Traceless Quadrupole moment (field-independent basis, Debye-Ang):
   XX=             -2.8373   YY=              6.8789   ZZ=             -4.0415
   XY=              2.7380   XZ=              0.9894   YZ=              0.3842
 Octapole moment (field-independent basis, Debye-Ang**2):
  XXX=             -4.8179  YYY=            -23.2434  ZZZ=            -14.6099  XYY=             -0.8127
  XXY=            -19.7596  XXZ=             -6.4242  XZZ=             -5.7138  YZZ=            -15.7328
  YYZ=             -2.0716  XYZ=              1.9465
 Hexadecapole moment (field-independent basis, Debye-Ang**3):
 XXXX=           -176.3670 YYYY=           -130.8291 ZZZZ=            -41.5674 XXXY=             53.2841
 XXXZ=             14.9104 YYYX=             47.8363 YYYZ=            -13.7622 ZZZX=             13.9832
 ZZZY=            -25.8905 XXYY=            -70.2005 XXZZ=            -42.8184 YYZZ=            -40.9673
 XXYZ=            -11.0448 YYXZ=              6.3263 ZZXY=             18.2537
 N-N= 1.164529297491D+02 E-N=-7.659949439668D+02  KE= 2.255933477470D+02
 No NMR shielding tensors so no spin-rotation constants.
 Leave Link  601 at Fri Apr 12 15:55:51 2019, MaxMem=   134217728 cpu:         0.1
 (Enter /cm/shared/c3ddb/gaussian/09.d01/g09/l9999.exe)
 1\1\GINC-NODE029\FOpt\RHF\3-21G\C2H4O2\MATTSJ\12-Apr-2019\0\\#p hf 3-2
 1g scf=tight NoSymmetry guess=read opt=(tight,modredundant)\\Geometry 
 optimization at the 2D-PES\\0,1\C,0.7606985212,0.6309715754,0.06298372
 26\C,1.3815043269,-0.5188759069,0.0032444751\H,1.2676046186,1.57612798
 89,0.0909332969\H,2.4504624224,-0.5604514337,-0.029876608\H,0.83474978
 41,-1.4388537238,-0.0245928171\O,-0.6374956312,0.6998196233,-0.0155968
 723\O,-1.1506768214,1.8484170538,0.7389521034\H,-0.5135602206,2.562725
 8231,0.5520496995\\Version=AS64L-G09RevD.01\HF=-226.3829361\RMSD=9.871
 e-09\RMSF=2.575e-03\Dipole=1.2240487,0.5488245,-0.0858561\Quadrupole=-
 2.1094855,5.1142691,-3.0047836,2.0356502,0.7356099,0.2856304\PG=C01 [X
 (C2H4O2)]\\@


 The impersonal hand of government can
 never replace the helping hand of a neighbor.
                        -- Hubert H. Humphrey
 Job cpu time:       0 days  0 hours  0 minutes  9.8 seconds.
 File lengths (MBytes):  RWF=      5 Int=      0 D2E=      0 Chk=      1 Scr=      1
 Normal termination of Gaussian 09 at Fri Apr 12 15:55:51 2019.
