 Entering Gaussian System, Link 0=g03
 Input=g-cyclo2-scan2.gjf
 Output=g-cyclo2-scan2.log
 Initial command:
 /opt/g03/l1.exe /scratch/shamel/Gau-22081.inp -scrdir=/scratch/shamel/
 Entering Link 1 = /opt/g03/l1.exe PID=     22083.
  
 Copyright (c) 1988,1990,1992,1993,1995,1998,2003,2004, Gaussian, Inc.
                  All Rights Reserved.
  
 This is the Gaussian(R) 03 program.  It is based on the
 the Gaussian(R) 98 system (copyright 1998, Gaussian, Inc.),
 the Gaussian(R) 94 system (copyright 1995, Gaussian, Inc.),
 the Gaussian 92(TM) system (copyright 1992, Gaussian, Inc.),
 the Gaussian 90(TM) system (copyright 1990, Gaussian, Inc.),
 the Gaussian 88(TM) system (copyright 1988, Gaussian, Inc.),
 the Gaussian 86(TM) system (copyright 1986, Carnegie Mellon
 University), and the Gaussian 82(TM) system (copyright 1983,
 Carnegie Mellon University). Gaussian is a federally registered
 trademark of Gaussian, Inc.
  
 This software contains proprietary and confidential information,
 including trade secrets, belonging to Gaussian, Inc.
  
 This software is provided under written license and may be
 used, copied, transmitted, or stored only in accord with that
 written license.
  
 The following legend is applicable only to US Government
 contracts under FAR:
  
                    RESTRICTED RIGHTS LEGEND
  
 Use, reproduction and disclosure by the US Government is
 subject to restrictions as set forth in subparagraphs (a)
 and (c) of the Commercial Computer Software - Restricted
 Rights clause in FAR 52.227-19.
  
 Gaussian, Inc.
 340 Quinnipiac St., Bldg. 40, Wallingford CT 06492
  
  
 ---------------------------------------------------------------
 Warning -- This program may not be used in any manner that
 competes with the business of Gaussian, Inc. or will provide
 assistance to any competitor of Gaussian, Inc.  The licensee
 of this program is prohibited from giving any competitor of
 Gaussian, Inc. access to this program.  By using this program,
 the user acknowledges that Gaussian, Inc. is engaged in the
 business of creating and licensing software in the field of
 computational chemistry and represents and warrants to the
 licensee that it is not a competitor of Gaussian, Inc. and that
 it will not use this program in any manner prohibited above.
 ---------------------------------------------------------------
  

 Cite this work as:
 Gaussian 03, Revision D.01,
 M. J. Frisch, G. W. Trucks, H. B. Schlegel, G. E. Scuseria, 
 M. A. Robb, J. R. Cheeseman, J. A. Montgomery, Jr., T. Vreven, 
 K. N. Kudin, J. C. Burant, J. M. Millam, S. S. Iyengar, J. Tomasi, 
 V. Barone, B. Mennucci, M. Cossi, G. Scalmani, N. Rega, 
 G. A. Petersson, H. Nakatsuji, M. Hada, M. Ehara, K. Toyota, 
 R. Fukuda, J. Hasegawa, M. Ishida, T. Nakajima, Y. Honda, O. Kitao, 
 H. Nakai, M. Klene, X. Li, J. E. Knox, H. P. Hratchian, J. B. Cross, 
 V. Bakken, C. Adamo, J. Jaramillo, R. Gomperts, R. E. Stratmann, 
 O. Yazyev, A. J. Austin, R. Cammi, C. Pomelli, J. W. Ochterski, 
 P. Y. Ayala, K. Morokuma, G. A. Voth, P. Salvador, J. J. Dannenberg, 
 V. G. Zakrzewski, S. Dapprich, A. D. Daniels, M. C. Strain, 
 O. Farkas, D. K. Malick, A. D. Rabuck, K. Raghavachari, 
 J. B. Foresman, J. V. Ortiz, Q. Cui, A. G. Baboul, S. Clifford, 
 J. Cioslowski, B. B. Stefanov, G. Liu, A. Liashenko, P. Piskorz, 
 I. Komaromi, R. L. Martin, D. J. Fox, T. Keith, M. A. Al-Laham, 
 C. Y. Peng, A. Nanayakkara, M. Challacombe, P. M. W. Gill, 
 B. Johnson, W. Chen, M. W. Wong, C. Gonzalez, and J. A. Pople, 
 Gaussian, Inc., Wallingford CT, 2004.
 
 ******************************************
 Gaussian 03:  AM64L-G03RevD.01 13-Oct-2005
                17-Jun-2013 
 ******************************************
 %chk=g-cyclo2-scan2.chk
 %mem=1000mb
 %nproc=8
 Will use up to    8 processors via shared memory.
 ------------------------------------
 # opt=(addred) b3lyp/6-31g(d) nosymm
 ------------------------------------
 1/14=-1,18=120,26=3,38=1/1,3;
 2/9=110,15=1,17=6,18=5,40=1/2;
 3/5=1,6=6,7=1,11=2,16=1,25=1,30=1,74=-5/1,2,3;
 4//1;
 5/5=2,38=5/2;
 6/7=2,8=2,9=2,10=2,28=1/1;
 7/30=1/1,2,3,16;
 1/14=-1,18=20/3(3);
 2/9=110,15=1/2;
 6/7=2,8=2,9=2,10=2,19=2,28=1/1;
 99//99;
 2/9=110,15=1/2;
 3/5=1,6=6,7=1,11=2,16=1,25=1,30=1,74=-5/1,2,3;
 4/5=5,16=3/1;
 5/5=2,38=5/2;
 7/30=1/1,2,3,16;
 1/14=-1,18=20/3(-5);
 2/9=110,15=1/2;
 6/7=2,8=2,9=2,10=2,19=2,28=1/1;
 99/9=1/99;
 -------------------
 Title Card Required
 -------------------
 Symbolic Z-matrix:
 Charge =  0 Multiplicity = 1
 C                    -0.13718  -0.39341   0.30625 
 C                     1.32549  -0.24932  -0.16464 
 C                    -0.24946   1.07809  -0.14832 
 H                    -0.29103  -0.60141   1.37004 
 H                     1.73531  -1.03449  -0.81207 
 H                     2.0411   -0.0312    0.63983 
 H                    -1.09599   1.3469   -0.78763 
 H                    -0.14099   1.81102   0.66205 
 O                     0.9846    0.95008  -0.91129 
 C                    -0.95609  -1.35744  -0.55232 
 H                    -0.58163  -2.38258  -0.3912 
 H                    -2.00612  -1.34081  -0.23096 
 O                    -0.93638  -1.03636  -1.9369 
 H                    -0.16997  -0.46271  -2.10925 
 
 The following ModRedundant input section has been read:
 D    4    1   10   13 S  36 10.000                                            

 GradGradGradGradGradGradGradGradGradGradGradGradGradGradGradGradGradGrad
 Berny optimization.
 Initialization pass.
                           ----------------------------
                           !    Initial Parameters    !
                           ! (Angstroms and Degrees)  !
 --------------------------                            --------------------------
 ! Name  Definition              Value          Derivative Info.                !
 --------------------------------------------------------------------------------
 ! R1    R(1,2)                  1.5433         estimate D2E/DX2                !
 ! R2    R(1,3)                  1.5442         estimate D2E/DX2                !
 ! R3    R(1,4)                  1.0948         estimate D2E/DX2                !
 ! R4    R(1,10)                 1.5288         estimate D2E/DX2                !
 ! R5    R(2,5)                  1.0971         estimate D2E/DX2                !
 ! R6    R(2,6)                  1.0986         estimate D2E/DX2                !
 ! R7    R(2,9)                  1.4534         estimate D2E/DX2                !
 ! R8    R(3,7)                  1.0943         estimate D2E/DX2                !
 ! R9    R(3,8)                  1.098          estimate D2E/DX2                !
 ! R10   R(3,9)                  1.4565         estimate D2E/DX2                !
 ! R11   R(10,11)                1.1032         estimate D2E/DX2                !
 ! R12   R(10,12)                1.0982         estimate D2E/DX2                !
 ! R13   R(10,13)                1.4215         estimate D2E/DX2                !
 ! R14   R(13,14)                0.9727         estimate D2E/DX2                !
 ! A1    A(2,1,3)               83.6916         estimate D2E/DX2                !
 ! A2    A(2,1,4)              116.576          estimate D2E/DX2                !
 ! A3    A(2,1,10)             113.2778         estimate D2E/DX2                !
 ! A4    A(3,1,4)              117.1846         estimate D2E/DX2                !
 ! A5    A(3,1,10)             113.3682         estimate D2E/DX2                !
 ! A6    A(4,1,10)             110.5259         estimate D2E/DX2                !
 ! A7    A(1,2,5)              117.8566         estimate D2E/DX2                !
 ! A8    A(1,2,6)              114.3595         estimate D2E/DX2                !
 ! A9    A(1,2,9)               90.6591         estimate D2E/DX2                !
 ! A10   A(5,2,6)              109.3245         estimate D2E/DX2                !
 ! A11   A(5,2,9)              112.0285         estimate D2E/DX2                !
 ! A12   A(6,2,9)              111.4164         estimate D2E/DX2                !
 ! A13   A(1,3,7)              117.5341         estimate D2E/DX2                !
 ! A14   A(1,3,8)              114.3077         estimate D2E/DX2                !
 ! A15   A(1,3,9)               90.5072         estimate D2E/DX2                !
 ! A16   A(7,3,8)              110.0967         estimate D2E/DX2                !
 ! A17   A(7,3,9)              111.7759         estimate D2E/DX2                !
 ! A18   A(8,3,9)              111.1972         estimate D2E/DX2                !
 ! A19   A(2,9,3)               90.1229         estimate D2E/DX2                !
 ! A20   A(1,10,11)            108.7916         estimate D2E/DX2                !
 ! A21   A(1,10,12)            109.7714         estimate D2E/DX2                !
 ! A22   A(1,10,13)            113.4019         estimate D2E/DX2                !
 ! A23   A(11,10,12)           107.2092         estimate D2E/DX2                !
 ! A24   A(11,10,13)           110.331          estimate D2E/DX2                !
 ! A25   A(12,10,13)           107.1493         estimate D2E/DX2                !
 ! A26   A(10,13,14)           108.4653         estimate D2E/DX2                !
 ! D1    D(3,1,2,5)           -131.8917         estimate D2E/DX2                !
 ! D2    D(3,1,2,6)             97.5548         estimate D2E/DX2                !
 ! D3    D(3,1,2,9)            -16.4029         estimate D2E/DX2                !
 ! D4    D(4,1,2,5)            110.8087         estimate D2E/DX2                !
 ! D5    D(4,1,2,6)            -19.7448         estimate D2E/DX2                !
 ! D6    D(4,1,2,9)           -133.7025         estimate D2E/DX2                !
 ! D7    D(10,1,2,5)           -19.1326         estimate D2E/DX2                !
 ! D8    D(10,1,2,6)          -149.6861         estimate D2E/DX2                !
 ! D9    D(10,1,2,9)            96.3562         estimate D2E/DX2                !
 ! D10   D(2,1,3,7)            131.3898         estimate D2E/DX2                !
 ! D11   D(2,1,3,8)            -97.2599         estimate D2E/DX2                !
 ! D12   D(2,1,3,9)             16.3661         estimate D2E/DX2                !
 ! D13   D(4,1,3,7)           -111.9162         estimate D2E/DX2                !
 ! D14   D(4,1,3,8)             19.4341         estimate D2E/DX2                !
 ! D15   D(4,1,3,9)            133.0602         estimate D2E/DX2                !
 ! D16   D(10,1,3,7)            18.7238         estimate D2E/DX2                !
 ! D17   D(10,1,3,8)           150.0741         estimate D2E/DX2                !
 ! D18   D(10,1,3,9)           -96.2999         estimate D2E/DX2                !
 ! D19   D(2,1,10,11)           68.5748         estimate D2E/DX2                !
 ! D20   D(2,1,10,12)         -174.3983         estimate D2E/DX2                !
 ! D21   D(2,1,10,13)          -54.5976         estimate D2E/DX2                !
 ! D22   D(3,1,10,11)          161.7609         estimate D2E/DX2                !
 ! D23   D(3,1,10,12)          -81.2121         estimate D2E/DX2                !
 ! D24   D(3,1,10,13)           38.5885         estimate D2E/DX2                !
 ! D25   D(4,1,10,11)          -64.356          estimate D2E/DX2                !
 ! D26   D(4,1,10,12)           52.6709         estimate D2E/DX2                !
 ! D27   D(4,1,10,13)          172.4716         Scan                            !
 ! D28   D(1,2,9,3)             17.3124         estimate D2E/DX2                !
 ! D29   D(5,2,9,3)            137.8927         estimate D2E/DX2                !
 ! D30   D(6,2,9,3)            -99.277          estimate D2E/DX2                !
 ! D31   D(1,3,9,2)            -17.302          estimate D2E/DX2                !
 ! D32   D(7,3,9,2)           -137.3917         estimate D2E/DX2                !
 ! D33   D(8,3,9,2)             99.1187         estimate D2E/DX2                !
 ! D34   D(1,10,13,14)          19.5645         estimate D2E/DX2                !
 ! D35   D(11,10,13,14)       -102.7575         estimate D2E/DX2                !
 ! D36   D(12,10,13,14)        140.8488         estimate D2E/DX2                !
 --------------------------------------------------------------------------------
 Trust Radius=3.00D-01 FncErr=1.00D-07 GrdErr=1.00D-06
 Number of optimizations in scan=  37
 Number of steps in this run=  86 maximum allowed number of steps= 100.
 GradGradGradGradGradGradGradGradGradGradGradGradGradGradGradGradGradGrad

                          Input orientation:                          
 ---------------------------------------------------------------------
 Center     Atomic     Atomic              Coordinates (Angstroms)
 Number     Number      Type              X           Y           Z
 ---------------------------------------------------------------------
    1          6             0       -0.137184   -0.393413    0.306249
    2          6             0        1.325491   -0.249318   -0.164640
    3          6             0       -0.249457    1.078092   -0.148321
    4          1             0       -0.291029   -0.601409    1.370042
    5          1             0        1.735314   -1.034494   -0.812073
    6          1             0        2.041096   -0.031197    0.639830
    7          1             0       -1.095992    1.346895   -0.787627
    8          1             0       -0.140993    1.811019    0.662049
    9          8             0        0.984596    0.950083   -0.911294
   10          6             0       -0.956088   -1.357439   -0.552321
   11          1             0       -0.581629   -2.382582   -0.391201
   12          1             0       -2.006116   -1.340808   -0.230959
   13          8             0       -0.936380   -1.036362   -1.936898
   14          1             0       -0.169972   -0.462708   -2.109254
 ---------------------------------------------------------------------
                    Distance matrix (angstroms):
                    1          2          3          4          5
     1  C    0.000000
     2  C    1.543346   0.000000
     3  C    1.544204   2.059792   0.000000
     4  H    1.094800   2.256624   2.264482   0.000000
     5  H    2.273297   1.097099   2.973702   3.009195   0.000000
     6  H    2.233244   1.098562   2.664270   2.509414   1.791125
     7  H    2.268160   2.966410   1.094344   3.016519   3.699717
     8  H    2.232964   2.660635   1.098019   2.518645   3.713557
     9  O    2.132084   1.453363   1.456503   3.039546   2.124139
    10  C    1.528755   2.565898   2.567948   2.170107   2.723125
    11  H    2.154243   2.870410   3.485053   2.521706   2.713429
    12  H    2.163113   3.506473   2.990611   2.459967   3.798660
    13  O    2.466537   2.979328   2.853382   3.397280   2.898825
    14  H    2.416719   2.462411   2.495123   3.484163   2.374812
                    6          7          8          9         10
     6  H    0.000000
     7  H    3.711885   0.000000
     8  H    2.855830   1.796940   0.000000
     9  O    2.117803   2.121697   2.117444   0.000000
    10  C    3.487586   2.718155   3.489728   3.036408   0.000000
    11  H    3.670248   3.785594   4.346238   3.718899   1.103221
    12  H    4.342036   2.891704   3.769637   3.828237   1.098230
    13  O    4.063896   2.650701   3.936336   2.947537   1.421454
    14  H    3.554221   2.424639   3.584800   2.182685   1.960245
                   11         12         13         14
    11  H    0.000000
    12  H    1.772042   0.000000
    13  O    2.080225   2.036480   0.000000
    14  H    2.609039   2.769563   0.972711   0.000000
 Symmetry turned off by external request.
 Stoichiometry    C4H8O2
 Framework group  C1[X(C4H8O2)]
 Deg. of freedom    36
 Full point group                 C1
 Rotational constants (GHZ):      6.0555379      3.0448788      2.8990786
 Standard basis: 6-31G(d) (6D, 7F)
 Integral buffers will be    131072 words long.
 Raffenetti 2 integral format.
 Two-electron integral symmetry is turned off.
   106 basis functions,   200 primitive gaussians,   106 cartesian basis functions
    24 alpha electrons       24 beta electrons
       nuclear repulsion energy       258.3888500748 Hartrees.
 NAtoms=   14 NActive=   14 NUniq=   14 SFac= 7.50D-01 NAtFMM=   80 NAOKFM=F Big=F
 One-electron integrals computed using PRISM.
 NBasis=   106 RedAO= T  NBF=   106
 NBsUse=   106 1.00D-06 NBFU=   106
 Harris functional with IExCor=  402 diagonalized for initial guess.
 ExpMin= 1.61D-01 ExpMax= 5.48D+03 ExpMxC= 8.25D+02 IAcc=1 IRadAn=         1 AccDes= 1.00D-06
 HarFok:  IExCor= 402 AccDes= 1.00D-06 IRadAn=         1 IDoV=1
 ScaDFX=  1.000000  1.000000  1.000000  1.000000
 Requested convergence on RMS density matrix=1.00D-08 within 128 cycles.
 Requested convergence on MAX density matrix=1.00D-06.
 Requested convergence on             energy=1.00D-06.
 No special actions if energy rises.
 Keep R1 integrals in memory in canonical form, NReq=    18003564.
 Integral accuracy reduced to 1.0D-05 until final iterations.
 Initial convergence to 1.0D-05 achieved.  Increase integral accuracy.
 SCF Done:  E(RB+HF-LYP) =  -307.625476705     A.U. after   13 cycles
             Convg  =    0.6241D-08             -V/T =  2.0089
             S**2   =   0.0000

 **********************************************************************

            Population analysis using the SCF density.

 **********************************************************************

 Alpha  occ. eigenvalues --  -19.15470 -19.13625 -10.24333 -10.24053 -10.23443
 Alpha  occ. eigenvalues --  -10.20651  -1.05038  -1.00773  -0.77501  -0.69930
 Alpha  occ. eigenvalues --   -0.66515  -0.56587  -0.51959  -0.50458  -0.46931
 Alpha  occ. eigenvalues --   -0.44345  -0.43477  -0.40798  -0.39650  -0.33956
 Alpha  occ. eigenvalues --   -0.32742  -0.31865  -0.26329  -0.25854
 Alpha virt. eigenvalues --    0.06813   0.08469   0.11338   0.13216   0.14228
 Alpha virt. eigenvalues --    0.15063   0.15395   0.16883   0.18094   0.18839
 Alpha virt. eigenvalues --    0.20227   0.22241   0.26594   0.33034   0.49498
 Alpha virt. eigenvalues --    0.51091   0.51786   0.53938   0.57191   0.59804
 Alpha virt. eigenvalues --    0.65013   0.65361   0.66687   0.68267   0.75880
 Alpha virt. eigenvalues --    0.80142   0.81873   0.83690   0.85130   0.87788
 Alpha virt. eigenvalues --    0.88440   0.88961   0.90351   0.92659   0.95499
 Alpha virt. eigenvalues --    0.99618   1.02674   1.04952   1.09295   1.11348
 Alpha virt. eigenvalues --    1.24321   1.25680   1.34535   1.38181   1.39425
 Alpha virt. eigenvalues --    1.45920   1.53434   1.58358   1.69758   1.72051
 Alpha virt. eigenvalues --    1.75503   1.76983   1.82183   1.84640   1.92039
 Alpha virt. eigenvalues --    2.00064   2.01691   2.05370   2.10565   2.12772
 Alpha virt. eigenvalues --    2.15273   2.17024   2.22611   2.26253   2.30108
 Alpha virt. eigenvalues --    2.35523   2.37049   2.40517   2.51230   2.53892
 Alpha virt. eigenvalues --    2.60940   2.62625   2.69622   2.78089   2.85627
 Alpha virt. eigenvalues --    2.94806   3.79004   3.94878   4.18825   4.28746
 Alpha virt. eigenvalues --    4.38817   4.61541
          Condensed to atoms (all electrons):
              1          2          3          4          5          6
     1  C    5.142827   0.352586   0.345521   0.336457  -0.037061  -0.027534
     2  C    0.352586   4.975056  -0.170959  -0.029350   0.372334   0.350044
     3  C    0.345521  -0.170959   4.967438  -0.027407   0.011970  -0.000676
     4  H    0.336457  -0.029350  -0.027407   0.599675   0.002074  -0.002620
     5  H   -0.037061   0.372334   0.011970   0.002074   0.590441  -0.049046
     6  H   -0.027534   0.350044  -0.000676  -0.002620  -0.049046   0.611993
     7  H   -0.035013   0.010669   0.374731   0.002001  -0.000133  -0.000974
     8  H   -0.029788  -0.001545   0.347745  -0.002405  -0.001004   0.005117
     9  O   -0.076876   0.215864   0.218896   0.006178  -0.036876  -0.035213
    10  C    0.358834  -0.033308  -0.034257  -0.025554  -0.005687   0.003957
    11  H   -0.043983  -0.011458   0.007637   0.000443   0.002497  -0.000227
    12  H   -0.030208   0.006302  -0.008246  -0.002365   0.000245  -0.000147
    13  O   -0.049143   0.002269   0.005879   0.002955   0.002680   0.000046
    14  H   -0.011710   0.003402  -0.003852   0.000216  -0.003366   0.000808
              7          8          9         10         11         12
     1  C   -0.035013  -0.029788  -0.076876   0.358834  -0.043983  -0.030208
     2  C    0.010669  -0.001545   0.215864  -0.033308  -0.011458   0.006302
     3  C    0.374731   0.347745   0.218896  -0.034257   0.007637  -0.008246
     4  H    0.002001  -0.002405   0.006178  -0.025554   0.000443  -0.002365
     5  H   -0.000133  -0.001004  -0.036876  -0.005687   0.002497   0.000245
     6  H   -0.000974   0.005117  -0.035213   0.003957  -0.000227  -0.000147
     7  H    0.568895  -0.046622  -0.034947  -0.006808   0.000431   0.000873
     8  H   -0.046622   0.618291  -0.036151   0.004041  -0.000109  -0.000255
     9  O   -0.034947  -0.036151   8.254234  -0.003001  -0.000356  -0.000300
    10  C   -0.006808   0.004041  -0.003001   4.757376   0.364420   0.371770
    11  H    0.000431  -0.000109  -0.000356   0.364420   0.651718  -0.053653
    12  H    0.000873  -0.000255  -0.000300   0.371770  -0.053653   0.615969
    13  O    0.008302   0.000259  -0.007243   0.288427  -0.044346  -0.044967
    14  H   -0.004519   0.000760   0.033842  -0.036724   0.001140   0.005676
             13         14
     1  C   -0.049143  -0.011710
     2  C    0.002269   0.003402
     3  C    0.005879  -0.003852
     4  H    0.002955   0.000216
     5  H    0.002680  -0.003366
     6  H    0.000046   0.000808
     7  H    0.008302  -0.004519
     8  H    0.000259   0.000760
     9  O   -0.007243   0.033842
    10  C    0.288427  -0.036724
    11  H   -0.044346   0.001140
    12  H   -0.044967   0.005676
    13  O    8.245814   0.231665
    14  H    0.231665   0.372341
 Mulliken atomic charges:
              1
     1  C   -0.194910
     2  C   -0.041906
     3  C   -0.034419
     4  H    0.139702
     5  H    0.150933
     6  H    0.144473
     7  H    0.163115
     8  H    0.141666
     9  O   -0.498051
    10  C   -0.003483
    11  H    0.125845
    12  H    0.139308
    13  O   -0.642596
    14  H    0.410323
 Sum of Mulliken charges=   0.00000
 Atomic charges with hydrogens summed into heavy atoms:
              1
     1  C   -0.055208
     2  C    0.253500
     3  C    0.270363
     4  H    0.000000
     5  H    0.000000
     6  H    0.000000
     7  H    0.000000
     8  H    0.000000
     9  O   -0.498051
    10  C    0.261670
    11  H    0.000000
    12  H    0.000000
    13  O   -0.232273
    14  H    0.000000
 Sum of Mulliken charges=   0.00000
 Electronic spatial extent (au):  <R**2>=   591.1782
 Charge=     0.0000 electrons
 Dipole moment (field-independent basis, Debye):
    X=     0.3686    Y=    -0.2490    Z=     2.5537  Tot=     2.5922
 Quadrupole moment (field-independent basis, Debye-Ang):
   XX=   -37.3408   YY=   -37.6249   ZZ=   -40.4344
   XY=    -3.6067   XZ=    -2.0212   YZ=    -1.2336
 Traceless Quadrupole moment (field-independent basis, Debye-Ang):
   XX=     1.1259   YY=     0.8418   ZZ=    -1.9677
   XY=    -3.6067   XZ=    -2.0212   YZ=    -1.2336
 Octapole moment (field-independent basis, Debye-Ang**2):
  XXX=     2.1382  YYY=    21.8161  ZZZ=    64.9172  XYY=    -1.5269
  XXY=     5.1423  XXZ=    24.5581  XZZ=     7.3412  YZZ=    12.7880
  YYZ=    24.6791  XYZ=     6.9670
 Hexadecapole moment (field-independent basis, Debye-Ang**3):
 XXXX=  -228.3093 YYYY=  -257.3083 ZZZZ=  -239.4631 XXXY=   -46.9634
 XXXZ=   -25.1488 YYYX=   -48.3088 YYYZ=   -34.1425 ZZZX=   -39.6074
 ZZZY=   -46.2276 XXYY=   -84.3953 XXZZ=   -87.9449 YYZZ=   -93.0093
 XXYZ=   -11.4398 YYXZ=    -9.1062 ZZXY=   -27.1027
 N-N= 2.583888500748D+02 E-N=-1.235260018446D+03  KE= 3.049025987186D+02
 -------------------------------------------------------------------
 Center     Atomic                   Forces (Hartrees/Bohr)
 Number     Number              X              Y              Z
 -------------------------------------------------------------------
    1          6           0.000019942    0.000003432   -0.000012891
    2          6           0.000011887   -0.000006617    0.000005733
    3          6          -0.000017267    0.000005033    0.000013400
    4          1          -0.000001139    0.000001319   -0.000008990
    5          1          -0.000005345   -0.000010471    0.000007564
    6          1           0.000001019   -0.000006890    0.000009155
    7          1           0.000009023    0.000007645   -0.000012247
    8          1           0.000018834    0.000012066   -0.000018124
    9          8           0.000000806   -0.000013325    0.000009786
   10          6          -0.000023287   -0.000003140    0.000017974
   11          1          -0.000020224   -0.000004573    0.000008040
   12          1          -0.000013464    0.000012926    0.000001466
   13          8           0.000024316   -0.000039433   -0.000016108
   14          1          -0.000005100    0.000042025   -0.000004758
 -------------------------------------------------------------------
 Cartesian Forces:  Max     0.000042025 RMS     0.000014672

 GradGradGradGradGradGradGradGradGradGradGradGradGradGradGradGradGradGrad
 Berny optimization.
 Internal  Forces:  Max     0.000028578 RMS     0.000008098
 Search for a local minimum.
 Step number   1 out of a maximum of  86 on scan point     1 out of    37
 All quantities printed in internal units (Hartrees-Bohrs-Radians)
 Second derivative matrix not updated -- first step.
     Eigenvalues ---    0.00512   0.01408   0.01427   0.02683   0.03867
     Eigenvalues ---    0.04727   0.05010   0.05020   0.05867   0.06559
     Eigenvalues ---    0.06905   0.07772   0.09676   0.10165   0.10628
     Eigenvalues ---    0.10686   0.11735   0.13852   0.16000   0.19727
     Eigenvalues ---    0.22049   0.26610   0.26766   0.29539   0.33328
     Eigenvalues ---    0.33842   0.33879   0.33902   0.34005   0.34264
     Eigenvalues ---    0.34315   0.34779   0.35243   0.42242   0.52827
     Eigenvalues --- 1000.000001000.000001000.000001000.000001000.00000
     Eigenvalues --- 1000.000001000.000001000.000001000.000001000.00000
     Eigenvalues --- 1000.000001000.000001000.000001000.000001000.00000
     Eigenvalues --- 1000.000001000.000001000.000001000.000001000.00000
     Eigenvalues --- 1000.000001000.000001000.000001000.000001000.00000
     Eigenvalues --- 1000.000001000.000001000.000001000.000001000.00000
     Eigenvalues --- 1000.000001000.000001000.000001000.000001000.00000
     Eigenvalues --- 1000.000001000.000001000.000001000.000001000.00000
     Eigenvalues --- 1000.00000
 RFO step:  Lambda=-1.45404189D-07.
 Linear search not attempted -- first point.
 Iteration  1 RMS(Cart)=  0.00036805 RMS(Int)=  0.00000031
 Iteration  2 RMS(Cart)=  0.00000030 RMS(Int)=  0.00000000
 Iteration  1 RMS(Cart)=  0.00000000 RMS(Int)=  0.00000000
 Variable       Old X    -DE/DX   Delta X   Delta X   Delta X     New X
                                 (Linear)    (Quad)   (Total)
    R1        2.91650   0.00000   0.00000  -0.00001  -0.00001   2.91650
    R2        2.91812   0.00001   0.00000   0.00004   0.00004   2.91816
    R3        2.06887  -0.00001   0.00000  -0.00003  -0.00003   2.06885
    R4        2.88893   0.00001   0.00000   0.00004   0.00004   2.88897
    R5        2.07322   0.00000   0.00000   0.00000   0.00000   2.07321
    R6        2.07598   0.00000   0.00000   0.00001   0.00001   2.07600
    R7        2.74646   0.00000   0.00000  -0.00001  -0.00001   2.74645
    R8        2.06801   0.00000   0.00000   0.00001   0.00001   2.06802
    R9        2.07496   0.00000   0.00000  -0.00001  -0.00001   2.07495
   R10        2.75239   0.00000   0.00000   0.00000   0.00000   2.75239
   R11        2.08479   0.00000   0.00000   0.00001   0.00001   2.08480
   R12        2.07535   0.00001   0.00000   0.00003   0.00003   2.07538
   R13        2.68616   0.00002   0.00000   0.00005   0.00005   2.68621
   R14        1.83816   0.00002   0.00000   0.00004   0.00004   1.83820
    A1        1.46069   0.00000   0.00000   0.00003   0.00003   1.46072
    A2        2.03463   0.00000   0.00000  -0.00007  -0.00007   2.03456
    A3        1.97707   0.00000   0.00000   0.00002   0.00002   1.97709
    A4        2.04526   0.00000   0.00000   0.00005   0.00005   2.04531
    A5        1.97865   0.00000   0.00000   0.00002   0.00002   1.97867
    A6        1.92904   0.00000   0.00000  -0.00003  -0.00003   1.92901
    A7        2.05699   0.00000   0.00000  -0.00003  -0.00003   2.05696
    A8        1.99595   0.00000   0.00000   0.00002   0.00002   1.99596
    A9        1.58230  -0.00001   0.00000  -0.00006  -0.00006   1.58224
   A10        1.90807   0.00000   0.00000   0.00002   0.00002   1.90809
   A11        1.95527   0.00000   0.00000   0.00001   0.00001   1.95528
   A12        1.94458   0.00000   0.00000   0.00003   0.00003   1.94462
   A13        2.05136   0.00000   0.00000   0.00005   0.00005   2.05140
   A14        1.99505   0.00001   0.00000   0.00016   0.00016   1.99520
   A15        1.57965  -0.00001   0.00000  -0.00008  -0.00008   1.57957
   A16        1.92155   0.00000   0.00000   0.00002   0.00002   1.92157
   A17        1.95086   0.00000   0.00000  -0.00004  -0.00004   1.95082
   A18        1.94076  -0.00001   0.00000  -0.00015  -0.00015   1.94060
   A19        1.57294   0.00001   0.00000   0.00004   0.00004   1.57298
   A20        1.89877   0.00000   0.00000  -0.00004  -0.00004   1.89873
   A21        1.91587   0.00001   0.00000   0.00009   0.00009   1.91596
   A22        1.97924  -0.00002   0.00000  -0.00007  -0.00007   1.97917
   A23        1.87115   0.00000   0.00000  -0.00004  -0.00004   1.87112
   A24        1.92564   0.00001   0.00000   0.00003   0.00003   1.92567
   A25        1.87011   0.00000   0.00000   0.00003   0.00003   1.87014
   A26        1.89308   0.00002   0.00000   0.00010   0.00010   1.89318
    D1       -2.30194   0.00000   0.00000  -0.00009  -0.00009  -2.30203
    D2        1.70265   0.00000   0.00000  -0.00011  -0.00011   1.70255
    D3       -0.28628   0.00000   0.00000  -0.00011  -0.00011  -0.28640
    D4        1.93398   0.00000   0.00000  -0.00015  -0.00015   1.93383
    D5       -0.34461   0.00000   0.00000  -0.00017  -0.00017  -0.34478
    D6       -2.33355   0.00000   0.00000  -0.00018  -0.00018  -2.33373
    D7       -0.33393   0.00000   0.00000  -0.00005  -0.00005  -0.33398
    D8       -2.61252   0.00000   0.00000  -0.00007  -0.00007  -2.61259
    D9        1.68173   0.00000   0.00000  -0.00008  -0.00008   1.68165
   D10        2.29318   0.00000   0.00000   0.00004   0.00004   2.29322
   D11       -1.69751   0.00001   0.00000   0.00029   0.00029  -1.69721
   D12        0.28564   0.00000   0.00000   0.00011   0.00011   0.28576
   D13       -1.95331   0.00000   0.00000  -0.00002  -0.00002  -1.95332
   D14        0.33919   0.00001   0.00000   0.00023   0.00023   0.33942
   D15        2.32234   0.00000   0.00000   0.00005   0.00005   2.32239
   D16        0.32679  -0.00001   0.00000   0.00000   0.00000   0.32680
   D17        2.61929   0.00001   0.00000   0.00026   0.00026   2.61954
   D18       -1.68075   0.00000   0.00000   0.00008   0.00008  -1.68067
   D19        1.19686   0.00000   0.00000  -0.00015  -0.00015   1.19671
   D20       -3.04382   0.00000   0.00000  -0.00017  -0.00017  -3.04399
   D21       -0.95291   0.00000   0.00000  -0.00011  -0.00011  -0.95302
   D22        2.82326   0.00000   0.00000  -0.00010  -0.00010   2.82316
   D23       -1.41742   0.00000   0.00000  -0.00012  -0.00012  -1.41754
   D24        0.67350   0.00000   0.00000  -0.00006  -0.00006   0.67344
   D25       -1.12322   0.00000   0.00000  -0.00004  -0.00004  -1.12326
   D26        0.91928   0.00000   0.00000  -0.00006  -0.00006   0.91923
   D27        3.01020   0.00000   0.00000   0.00000   0.00000   3.01020
   D28        0.30216   0.00000   0.00000   0.00013   0.00013   0.30229
   D29        2.40668   0.00000   0.00000   0.00007   0.00007   2.40675
   D30       -1.73271   0.00000   0.00000   0.00013   0.00013  -1.73258
   D31       -0.30198   0.00000   0.00000  -0.00012  -0.00012  -0.30210
   D32       -2.39794   0.00000   0.00000  -0.00013  -0.00013  -2.39807
   D33        1.72995   0.00001   0.00000  -0.00002  -0.00002   1.72993
   D34        0.34146  -0.00003   0.00000  -0.00175  -0.00175   0.33971
   D35       -1.79346  -0.00002   0.00000  -0.00168  -0.00168  -1.79513
   D36        2.45828  -0.00002   0.00000  -0.00166  -0.00166   2.45661
         Item               Value     Threshold  Converged?
 Maximum Force            0.000028     0.000450     YES
 RMS     Force            0.000008     0.000300     YES
 Maximum Displacement     0.002301     0.001800     NO 
 RMS     Displacement     0.000368     0.001200     YES
 Predicted change in Energy=-7.270273D-08
 GradGradGradGradGradGradGradGradGradGradGradGradGradGradGradGradGradGrad

                          Input orientation:                          
 ---------------------------------------------------------------------
 Center     Atomic     Atomic              Coordinates (Angstroms)
 Number     Number      Type              X           Y           Z
 ---------------------------------------------------------------------
    1          6             0       -0.137180   -0.393460    0.306233
    2          6             0        1.325542   -0.249414   -0.164513
    3          6             0       -0.249430    1.078032   -0.148449
    4          1             0       -0.291058   -0.601434    1.370011
    5          1             0        1.735424   -1.034697   -0.811777
    6          1             0        2.041068   -0.031137    0.639995
    7          1             0       -1.095916    1.346841   -0.787828
    8          1             0       -0.140787    1.811148    0.661722
    9          8             0        0.984620    0.949834   -0.911395
   10          6             0       -0.956031   -1.357584   -0.552317
   11          1             0       -0.581467   -2.382686   -0.391140
   12          1             0       -2.006091   -1.341096   -0.231003
   13          8             0       -0.936255   -1.036497   -1.936919
   14          1             0       -0.170782   -0.461490   -2.109039
 ---------------------------------------------------------------------
                    Distance matrix (angstroms):
                    1          2          3          4          5
     1  C    0.000000
     2  C    1.543343   0.000000
     3  C    1.544223   2.059832   0.000000
     4  H    1.094786   2.256564   2.264523   0.000000
     5  H    2.273275   1.097097   2.973764   3.009077   0.000000
     6  H    2.233258   1.098570   2.664260   2.509377   1.791143
     7  H    2.268213   2.966481   1.094350   3.016595   3.699835
     8  H    2.233088   2.660582   1.098016   2.518890   3.713515
     9  O    2.132016   1.453360   1.456503   3.039507   2.124145
    10  C    1.528777   2.565932   2.567999   2.170091   2.723143
    11  H    2.154237   2.870346   3.485070   2.521675   2.713299
    12  H    2.163206   3.506560   2.990794   2.460017   3.798699
    13  O    2.466525   2.979370   2.853347   3.397255   2.898934
    14  H    2.416463   2.462750   2.494038   3.483940   2.375936
                    6          7          8          9         10
     6  H    0.000000
     7  H    3.711895   0.000000
     8  H    2.855691   1.796955   0.000000
     9  O    2.117828   2.121677   2.117333   0.000000
    10  C    3.487645   2.718262   3.489896   3.036320   0.000000
    11  H    3.670246   3.785682   4.346372   3.718733   1.103227
    12  H    4.342133   2.891968   3.770007   3.828268   1.098244
    13  O    4.063949   2.650699   3.936342   2.947367   1.421482
    14  H    3.554528   2.423125   3.583699   2.182004   1.960353
                   11         12         13         14
    11  H    0.000000
    12  H    1.772035   0.000000
    13  O    2.080272   2.036535   0.000000
    14  H    2.609757   2.769311   0.972732   0.000000
 Symmetry turned off by external request.
 Stoichiometry    C4H8O2
 Framework group  C1[X(C4H8O2)]
 Deg. of freedom    36
 Full point group                 C1
 Rotational constants (GHZ):      6.0554286      3.0450090      2.8991161
 Standard basis: 6-31G(d) (6D, 7F)
 Integral buffers will be    131072 words long.
 Raffenetti 2 integral format.
 Two-electron integral symmetry is turned off.
   106 basis functions,   200 primitive gaussians,   106 cartesian basis functions
    24 alpha electrons       24 beta electrons
       nuclear repulsion energy       258.3896870627 Hartrees.
 NAtoms=   14 NActive=   14 NUniq=   14 SFac= 7.50D-01 NAtFMM=   80 NAOKFM=F Big=F
 One-electron integrals computed using PRISM.
 NBasis=   106 RedAO= T  NBF=   106
 NBsUse=   106 1.00D-06 NBFU=   106
 Initial guess read from the read-write file:
 Requested convergence on RMS density matrix=1.00D-08 within 128 cycles.
 Requested convergence on MAX density matrix=1.00D-06.
 Requested convergence on             energy=1.00D-06.
 No special actions if energy rises.
 Keep R1 integrals in memory in canonical form, NReq=    18003564.
 SCF Done:  E(RB+HF-LYP) =  -307.625476804     A.U. after    7 cycles
             Convg  =    0.3649D-08             -V/T =  2.0089
             S**2   =   0.0000
 -------------------------------------------------------------------
 Center     Atomic                   Forces (Hartrees/Bohr)
 Number     Number              X              Y              Z
 -------------------------------------------------------------------
    1          6           0.000009576   -0.000006221    0.000008201
    2          6          -0.000001855   -0.000020351   -0.000007341
    3          6           0.000001449    0.000001993    0.000012136
    4          1          -0.000009205    0.000005789    0.000001695
    5          1          -0.000007388   -0.000004415    0.000005886
    6          1          -0.000004206   -0.000002476    0.000005285
    7          1           0.000005900    0.000007490   -0.000004160
    8          1           0.000002798    0.000000694   -0.000006589
    9          8           0.000012918   -0.000000924   -0.000016177
   10          6          -0.000017054    0.000025612    0.000002719
   11          1          -0.000020177    0.000002887   -0.000006235
   12          1          -0.000006777    0.000019184    0.000013123
   13          8           0.000033316   -0.000047547   -0.000018029
   14          1           0.000000706    0.000018286    0.000009487
 -------------------------------------------------------------------
 Cartesian Forces:  Max     0.000047547 RMS     0.000013635

 GradGradGradGradGradGradGradGradGradGradGradGradGradGradGradGradGradGrad
 Berny optimization.
 Internal  Forces:  Max     0.000022318 RMS     0.000007268
 Search for a local minimum.
 Step number   2 out of a maximum of  86 on scan point     1 out of    37
 All quantities printed in internal units (Hartrees-Bohrs-Radians)
 Update second derivatives using D2CorX and points  1  2
 Trust test= 1.36D+00 RLast= 3.05D-03 DXMaxT set to 3.00D-01
     Eigenvalues ---    0.00425   0.00605   0.01666   0.02711   0.04034
     Eigenvalues ---    0.04779   0.05007   0.05302   0.05867   0.06562
     Eigenvalues ---    0.07011   0.07851   0.10024   0.10288   0.10597
     Eigenvalues ---    0.10921   0.11764   0.14848   0.17625   0.19702
     Eigenvalues ---    0.22068   0.26603   0.27232   0.29908   0.33403
     Eigenvalues ---    0.33819   0.33860   0.33903   0.34021   0.34311
     Eigenvalues ---    0.34329   0.34895   0.35707   0.42381   0.52685
     Eigenvalues --- 1000.000001000.000001000.000001000.000001000.00000
     Eigenvalues --- 1000.000001000.000001000.000001000.000001000.00000
     Eigenvalues --- 1000.000001000.000001000.000001000.000001000.00000
     Eigenvalues --- 1000.000001000.000001000.000001000.000001000.00000
     Eigenvalues --- 1000.000001000.000001000.000001000.000001000.00000
     Eigenvalues --- 1000.000001000.000001000.000001000.000001000.00000
     Eigenvalues --- 1000.000001000.000001000.000001000.000001000.00000
     Eigenvalues --- 1000.000001000.000001000.000001000.000001000.00000
     Eigenvalues --- 1000.00000
 RFO step:  Lambda=-1.36367461D-07.
 Quartic linear search produced a step of  0.56556.
 Iteration  1 RMS(Cart)=  0.00049174 RMS(Int)=  0.00000074
 Iteration  2 RMS(Cart)=  0.00000077 RMS(Int)=  0.00000002
 Iteration  1 RMS(Cart)=  0.00000000 RMS(Int)=  0.00000000
 Variable       Old X    -DE/DX   Delta X   Delta X   Delta X     New X
                                 (Linear)    (Quad)   (Total)
    R1        2.91650   0.00000   0.00000  -0.00001  -0.00002   2.91648
    R2        2.91816   0.00000   0.00002   0.00000   0.00002   2.91818
    R3        2.06885   0.00000  -0.00001   0.00000  -0.00002   2.06883
    R4        2.88897  -0.00001   0.00002  -0.00002   0.00000   2.88897
    R5        2.07321  -0.00001   0.00000  -0.00002  -0.00003   2.07319
    R6        2.07600   0.00000   0.00001   0.00000   0.00001   2.07601
    R7        2.74645   0.00001   0.00000   0.00004   0.00003   2.74649
    R8        2.06802   0.00000   0.00001   0.00001   0.00002   2.06804
    R9        2.07495   0.00000   0.00000  -0.00001  -0.00002   2.07493
   R10        2.75239   0.00001   0.00000   0.00004   0.00004   2.75243
   R11        2.08480  -0.00001   0.00001  -0.00002  -0.00002   2.08478
   R12        2.07538   0.00001   0.00001   0.00004   0.00005   2.07543
   R13        2.68621   0.00000   0.00003   0.00003   0.00006   2.68627
   R14        1.83820   0.00001   0.00002   0.00004   0.00007   1.83826
    A1        1.46072   0.00000   0.00001  -0.00001   0.00000   1.46072
    A2        2.03456   0.00001  -0.00004   0.00047   0.00043   2.03499
    A3        1.97709  -0.00001   0.00001  -0.00007  -0.00006   1.97703
    A4        2.04531  -0.00001   0.00003  -0.00037  -0.00034   2.04497
    A5        1.97867   0.00000   0.00001  -0.00007  -0.00005   1.97862
    A6        1.92901   0.00000  -0.00002   0.00004   0.00002   1.92902
    A7        2.05696   0.00000  -0.00002  -0.00002  -0.00003   2.05693
    A8        1.99596   0.00000   0.00001   0.00001   0.00002   1.99599
    A9        1.58224   0.00000  -0.00003  -0.00004  -0.00007   1.58217
   A10        1.90809   0.00000   0.00001   0.00008   0.00009   1.90818
   A11        1.95528   0.00000   0.00001  -0.00004  -0.00003   1.95525
   A12        1.94462   0.00000   0.00002  -0.00003  -0.00001   1.94461
   A13        2.05140   0.00000   0.00003   0.00003   0.00005   2.05146
   A14        1.99520   0.00000   0.00009   0.00003   0.00012   1.99532
   A15        1.57957   0.00000  -0.00004  -0.00004  -0.00009   1.57948
   A16        1.92157   0.00000   0.00001  -0.00004  -0.00003   1.92154
   A17        1.95082   0.00000  -0.00002   0.00002   0.00000   1.95082
   A18        1.94060   0.00001  -0.00009   0.00001  -0.00008   1.94053
   A19        1.57298   0.00000   0.00002  -0.00004  -0.00002   1.57296
   A20        1.89873   0.00001  -0.00002   0.00008   0.00006   1.89880
   A21        1.91596  -0.00001   0.00005  -0.00009  -0.00005   1.91592
   A22        1.97917   0.00000  -0.00004  -0.00006  -0.00009   1.97908
   A23        1.87112   0.00000  -0.00002   0.00000  -0.00002   1.87109
   A24        1.92567  -0.00002   0.00001  -0.00013  -0.00011   1.92555
   A25        1.87014   0.00002   0.00002   0.00020   0.00021   1.87035
   A26        1.89318  -0.00001   0.00006  -0.00010  -0.00004   1.89314
    D1       -2.30203   0.00000  -0.00005  -0.00015  -0.00020  -2.30223
    D2        1.70255   0.00000  -0.00006  -0.00027  -0.00033   1.70222
    D3       -0.28640   0.00000  -0.00006  -0.00022  -0.00029  -0.28669
    D4        1.93383   0.00000  -0.00008   0.00021   0.00013   1.93396
    D5       -0.34478   0.00000  -0.00009   0.00009   0.00000  -0.34478
    D6       -2.33373   0.00000  -0.00010   0.00014   0.00004  -2.33369
    D7       -0.33398   0.00000  -0.00003  -0.00023  -0.00026  -0.33424
    D8       -2.61259   0.00000  -0.00004  -0.00035  -0.00039  -2.61298
    D9        1.68165   0.00000  -0.00005  -0.00030  -0.00035   1.68131
   D10        2.29322   0.00000   0.00002   0.00023   0.00025   2.29347
   D11       -1.69721  -0.00001   0.00017   0.00022   0.00039  -1.69682
   D12        0.28576   0.00000   0.00006   0.00022   0.00029   0.28604
   D13       -1.95332   0.00001  -0.00001   0.00070   0.00069  -1.95263
   D14        0.33942   0.00000   0.00013   0.00070   0.00083   0.34026
   D15        2.32239   0.00001   0.00003   0.00070   0.00073   2.32312
   D16        0.32680   0.00001   0.00000   0.00032   0.00032   0.32711
   D17        2.61954   0.00000   0.00014   0.00031   0.00046   2.62000
   D18       -1.68067   0.00001   0.00004   0.00031   0.00035  -1.68032
   D19        1.19671   0.00000  -0.00009   0.00049   0.00041   1.19711
   D20       -3.04399   0.00000  -0.00009   0.00049   0.00039  -3.04360
   D21       -0.95302   0.00002  -0.00006   0.00063   0.00057  -0.95245
   D22        2.82316   0.00000  -0.00006   0.00042   0.00036   2.82352
   D23       -1.41754   0.00000  -0.00007   0.00041   0.00034  -1.41719
   D24        0.67344   0.00002  -0.00003   0.00056   0.00052   0.67396
   D25       -1.12326   0.00000  -0.00002  -0.00014  -0.00016  -1.12343
   D26        0.91923   0.00000  -0.00003  -0.00015  -0.00018   0.91904
   D27        3.01020   0.00002   0.00000   0.00000   0.00000   3.01020
   D28        0.30229   0.00000   0.00007   0.00023   0.00030   0.30259
   D29        2.40675   0.00000   0.00004   0.00018   0.00022   2.40697
   D30       -1.73258   0.00000   0.00007   0.00024   0.00031  -1.73227
   D31       -0.30210   0.00000  -0.00007  -0.00023  -0.00030  -0.30240
   D32       -2.39807   0.00000  -0.00007  -0.00024  -0.00032  -2.39838
   D33        1.72993   0.00000  -0.00001  -0.00021  -0.00022   1.72971
   D34        0.33971  -0.00001  -0.00099  -0.00201  -0.00300   0.33671
   D35       -1.79513  -0.00001  -0.00095  -0.00198  -0.00293  -1.79806
   D36        2.45661  -0.00001  -0.00094  -0.00202  -0.00296   2.45365
         Item               Value     Threshold  Converged?
 Maximum Force            0.000016     0.000450     YES
 RMS     Force            0.000006     0.000300     YES
 Maximum Displacement     0.002922     0.001800     NO 
 RMS     Displacement     0.000492     0.001200     YES
 Predicted change in Energy=-8.343422D-08
 GradGradGradGradGradGradGradGradGradGradGradGradGradGradGradGradGradGrad

                          Input orientation:                          
 ---------------------------------------------------------------------
 Center     Atomic     Atomic              Coordinates (Angstroms)
 Number     Number      Type              X           Y           Z
 ---------------------------------------------------------------------
    1          6             0       -0.137116   -0.393616    0.306251
    2          6             0        1.325573   -0.249540   -0.164558
    3          6             0       -0.249442    1.077862   -0.148491
    4          1             0       -0.291420   -0.601240    1.370027
    5          1             0        1.735479   -1.034939   -0.811642
    6          1             0        2.041100   -0.030880    0.639854
    7          1             0       -1.096084    1.346721   -0.787656
    8          1             0       -0.140426    1.811119    0.661489
    9          8             0        0.984389    0.949437   -0.911789
   10          6             0       -0.955918   -1.357758   -0.552329
   11          1             0       -0.581626   -2.382912   -0.390907
   12          1             0       -2.006069   -1.341003   -0.231234
   13          8             0       -0.935479   -1.036948   -1.937018
   14          1             0       -0.171303   -0.459944   -2.108415
 ---------------------------------------------------------------------
                    Distance matrix (angstroms):
                    1          2          3          4          5
     1  C    0.000000
     2  C    1.543333   0.000000
     3  C    1.544234   2.059837   0.000000
     4  H    1.094778   2.256837   2.264298   0.000000
     5  H    2.273233   1.097084   2.973821   3.009335   0.000000
     6  H    2.233269   1.098576   2.664091   2.509803   1.791195
     7  H    2.268265   2.966602   1.094358   3.016229   3.700085
     8  H    2.233173   2.660418   1.098006   2.518790   3.713379
     9  O    2.131944   1.453378   1.456521   3.039568   2.124127
    10  C    1.528779   2.565875   2.567964   2.170099   2.723063
    11  H    2.154279   2.870526   3.485122   2.521798   2.713489
    12  H    2.163196   3.506505   2.990567   2.459940   3.798648
    13  O    2.466478   2.978923   2.853401   3.397235   2.898360
    14  H    2.415818   2.462415   2.492439   3.483382   2.376564
                    6          7          8          9         10
     6  H    0.000000
     7  H    3.711805   0.000000
     8  H    2.855255   1.796934   0.000000
     9  O    2.117843   2.121700   2.117288   0.000000
    10  C    3.487695   2.718314   3.490009   3.035976   0.000000
    11  H    3.670588   3.785795   4.346503   3.718639   1.103219
    12  H    4.342210   2.891632   3.770073   3.827807   1.098271
    13  O    4.063553   2.651171   3.936475   2.946644   1.421513
    14  H    3.554125   2.421500   3.582045   2.180342   1.960381
                   11         12         13         14
    11  H    0.000000
    12  H    1.772035   0.000000
    13  O    2.080213   2.036740   0.000000
    14  H    2.610747   2.768833   0.972767   0.000000
 Symmetry turned off by external request.
 Stoichiometry    C4H8O2
 Framework group  C1[X(C4H8O2)]
 Deg. of freedom    36
 Full point group                 C1
 Rotational constants (GHZ):      6.0549427      3.0455855      2.8996318
 Standard basis: 6-31G(d) (6D, 7F)
 Integral buffers will be    131072 words long.
 Raffenetti 2 integral format.
 Two-electron integral symmetry is turned off.
   106 basis functions,   200 primitive gaussians,   106 cartesian basis functions
    24 alpha electrons       24 beta electrons
       nuclear repulsion energy       258.3973368796 Hartrees.
 NAtoms=   14 NActive=   14 NUniq=   14 SFac= 7.50D-01 NAtFMM=   80 NAOKFM=F Big=F
 One-electron integrals computed using PRISM.
 NBasis=   106 RedAO= T  NBF=   106
 NBsUse=   106 1.00D-06 NBFU=   106
 Initial guess read from the read-write file:
 Requested convergence on RMS density matrix=1.00D-08 within 128 cycles.
 Requested convergence on MAX density matrix=1.00D-06.
 Requested convergence on             energy=1.00D-06.
 No special actions if energy rises.
 Keep R1 integrals in memory in canonical form, NReq=    18003564.
 SCF Done:  E(RB+HF-LYP) =  -307.625476919     A.U. after    7 cycles
             Convg  =    0.6517D-08             -V/T =  2.0089
             S**2   =   0.0000
 -------------------------------------------------------------------
 Center     Atomic                   Forces (Hartrees/Bohr)
 Number     Number              X              Y              Z
 -------------------------------------------------------------------
    1          6          -0.000035666    0.000024860    0.000028990
    2          6          -0.000003520   -0.000032242    0.000007186
    3          6           0.000003908   -0.000007339   -0.000017358
    4          1           0.000025405   -0.000022962    0.000006751
    5          1          -0.000007220   -0.000002759    0.000007279
    6          1          -0.000006863   -0.000001533   -0.000001037
    7          1           0.000006162    0.000010787   -0.000003003
    8          1          -0.000001751   -0.000006877    0.000005232
    9          8           0.000019846    0.000011813   -0.000025135
   10          6          -0.000025955    0.000047845   -0.000010568
   11          1          -0.000017200    0.000008839   -0.000010707
   12          1          -0.000001845    0.000020784    0.000015380
   13          8           0.000050763   -0.000047729   -0.000010780
   14          1          -0.000006063   -0.000003488    0.000007771
 -------------------------------------------------------------------
 Cartesian Forces:  Max     0.000050763 RMS     0.000019705

 GradGradGradGradGradGradGradGradGradGradGradGradGradGradGradGradGradGrad
 Berny optimization.
 Internal  Forces:  Max     0.000039569 RMS     0.000011129
 Search for a local minimum.
 Step number   3 out of a maximum of  86 on scan point     1 out of    37
 All quantities printed in internal units (Hartrees-Bohrs-Radians)
 Update second derivatives using D2CorX and points  1  2  3
 Trust test= 1.38D+00 RLast= 5.62D-03 DXMaxT set to 3.00D-01
     Eigenvalues ---    0.00277   0.00548   0.01667   0.02714   0.04025
     Eigenvalues ---    0.04787   0.05004   0.05433   0.05869   0.06566
     Eigenvalues ---    0.07023   0.07980   0.10043   0.10307   0.10600
     Eigenvalues ---    0.11093   0.11783   0.15146   0.17838   0.19720
     Eigenvalues ---    0.23250   0.26596   0.27703   0.30203   0.33445
     Eigenvalues ---    0.33814   0.33886   0.33906   0.34037   0.34310
     Eigenvalues ---    0.34389   0.34892   0.36701   0.42914   0.53185
     Eigenvalues --- 1000.000001000.000001000.000001000.000001000.00000
     Eigenvalues --- 1000.000001000.000001000.000001000.000001000.00000
     Eigenvalues --- 1000.000001000.000001000.000001000.000001000.00000
     Eigenvalues --- 1000.000001000.000001000.000001000.000001000.00000
     Eigenvalues --- 1000.000001000.000001000.000001000.000001000.00000
     Eigenvalues --- 1000.000001000.000001000.000001000.000001000.00000
     Eigenvalues --- 1000.000001000.000001000.000001000.000001000.00000
     Eigenvalues --- 1000.000001000.000001000.000001000.000001000.00000
     Eigenvalues --- 1000.00000
 RFO step:  Lambda=-4.05005021D-08.
 Quartic linear search produced a step of  0.60599.
 Iteration  1 RMS(Cart)=  0.00037074 RMS(Int)=  0.00000048
 Iteration  2 RMS(Cart)=  0.00000051 RMS(Int)=  0.00000002
 Iteration  1 RMS(Cart)=  0.00000000 RMS(Int)=  0.00000000
 Variable       Old X    -DE/DX   Delta X   Delta X   Delta X     New X
                                 (Linear)    (Quad)   (Total)
    R1        2.91648  -0.00001  -0.00001  -0.00002  -0.00003   2.91645
    R2        2.91818   0.00000   0.00001  -0.00001   0.00000   2.91818
    R3        2.06883   0.00001  -0.00001   0.00002   0.00001   2.06884
    R4        2.88897  -0.00001   0.00000  -0.00003  -0.00002   2.88895
    R5        2.07319  -0.00001  -0.00002  -0.00002  -0.00004   2.07315
    R6        2.07601  -0.00001   0.00001  -0.00002  -0.00002   2.07599
    R7        2.74649   0.00002   0.00002   0.00006   0.00008   2.74656
    R8        2.06804   0.00000   0.00001   0.00001   0.00002   2.06806
    R9        2.07493   0.00000  -0.00001   0.00000  -0.00001   2.07492
   R10        2.75243   0.00001   0.00002   0.00004   0.00006   2.75248
   R11        2.08478  -0.00001  -0.00001  -0.00003  -0.00004   2.08474
   R12        2.07543   0.00000   0.00003   0.00001   0.00004   2.07547
   R13        2.68627  -0.00001   0.00004  -0.00001   0.00003   2.68630
   R14        1.83826  -0.00001   0.00004  -0.00002   0.00002   1.83828
    A1        1.46072   0.00000   0.00000   0.00000   0.00001   1.46073
    A2        2.03499   0.00000   0.00026   0.00007   0.00034   2.03533
    A3        1.97703  -0.00001  -0.00004  -0.00003  -0.00007   1.97697
    A4        2.04497   0.00000  -0.00021  -0.00001  -0.00021   2.04475
    A5        1.97862   0.00000  -0.00003  -0.00010  -0.00013   1.97849
    A6        1.92902   0.00001   0.00001   0.00004   0.00005   1.92907
    A7        2.05693   0.00000  -0.00002   0.00000  -0.00002   2.05691
    A8        1.99599   0.00000   0.00001   0.00001   0.00003   1.99602
    A9        1.58217   0.00001  -0.00004   0.00003  -0.00001   1.58215
   A10        1.90818   0.00000   0.00006   0.00003   0.00009   1.90827
   A11        1.95525   0.00000  -0.00002  -0.00002  -0.00004   1.95521
   A12        1.94461   0.00000  -0.00001  -0.00007  -0.00008   1.94453
   A13        2.05146   0.00001   0.00003   0.00009   0.00013   2.05158
   A14        1.99532  -0.00002   0.00007  -0.00019  -0.00011   1.99521
   A15        1.57948   0.00001  -0.00005   0.00004  -0.00002   1.57947
   A16        1.92154   0.00000  -0.00002  -0.00003  -0.00005   1.92149
   A17        1.95082   0.00000   0.00000   0.00004   0.00004   1.95086
   A18        1.94053   0.00001  -0.00005   0.00008   0.00003   1.94056
   A19        1.57296  -0.00001  -0.00001  -0.00004  -0.00005   1.57291
   A20        1.89880   0.00001   0.00004   0.00006   0.00009   1.89889
   A21        1.91592  -0.00002  -0.00003  -0.00018  -0.00021   1.91571
   A22        1.97908   0.00002  -0.00006   0.00013   0.00007   1.97915
   A23        1.87109   0.00001  -0.00001   0.00001  -0.00001   1.87109
   A24        1.92555  -0.00004  -0.00007  -0.00013  -0.00020   1.92536
   A25        1.87035   0.00003   0.00013   0.00010   0.00023   1.87059
   A26        1.89314  -0.00001  -0.00002   0.00001  -0.00002   1.89312
    D1       -2.30223   0.00000  -0.00012   0.00005  -0.00007  -2.30230
    D2        1.70222   0.00000  -0.00020  -0.00002  -0.00022   1.70200
    D3       -0.28669   0.00000  -0.00017   0.00004  -0.00013  -0.28681
    D4        1.93396   0.00000   0.00008   0.00005   0.00012   1.93408
    D5       -0.34478  -0.00001   0.00000  -0.00002  -0.00002  -0.34481
    D6       -2.33369   0.00000   0.00002   0.00004   0.00006  -2.33362
    D7       -0.33424   0.00000  -0.00016  -0.00006  -0.00021  -0.33445
    D8       -2.61298   0.00000  -0.00024  -0.00013  -0.00036  -2.61334
    D9        1.68131   0.00000  -0.00021  -0.00006  -0.00027   1.68103
   D10        2.29347   0.00000   0.00015   0.00004   0.00019   2.29367
   D11       -1.69682  -0.00001   0.00024  -0.00011   0.00012  -1.69670
   D12        0.28604   0.00000   0.00017  -0.00004   0.00013   0.28617
   D13       -1.95263   0.00000   0.00042   0.00013   0.00055  -1.95208
   D14        0.34026  -0.00001   0.00050  -0.00003   0.00048   0.34073
   D15        2.32312   0.00000   0.00044   0.00004   0.00048   2.32361
   D16        0.32711   0.00001   0.00019   0.00008   0.00027   0.32738
   D17        2.62000   0.00000   0.00028  -0.00008   0.00020   2.62020
   D18       -1.68032   0.00001   0.00021  -0.00001   0.00021  -1.68011
   D19        1.19711   0.00000   0.00025   0.00008   0.00033   1.19744
   D20       -3.04360   0.00000   0.00024   0.00002   0.00026  -3.04334
   D21       -0.95245   0.00003   0.00035   0.00012   0.00046  -0.95198
   D22        2.82352   0.00000   0.00022   0.00003   0.00025   2.82377
   D23       -1.41719   0.00000   0.00021  -0.00003   0.00018  -1.41702
   D24        0.67396   0.00003   0.00032   0.00006   0.00038   0.67434
   D25       -1.12343   0.00001  -0.00010  -0.00004  -0.00013  -1.12356
   D26        0.91904   0.00001  -0.00011  -0.00009  -0.00020   0.91884
   D27        3.01020   0.00004   0.00000   0.00000   0.00000   3.01020
   D28        0.30259  -0.00001   0.00018  -0.00005   0.00013   0.30272
   D29        2.40697   0.00000   0.00013  -0.00004   0.00009   2.40707
   D30       -1.73227   0.00000   0.00019  -0.00007   0.00012  -1.73215
   D31       -0.30240   0.00001  -0.00018   0.00005  -0.00013  -0.30252
   D32       -2.39838   0.00000  -0.00019  -0.00007  -0.00027  -2.39865
   D33        1.72971  -0.00001  -0.00013  -0.00012  -0.00025   1.72946
   D34        0.33671  -0.00001  -0.00182  -0.00061  -0.00243   0.33428
   D35       -1.79806   0.00000  -0.00178  -0.00068  -0.00246  -1.80052
   D36        2.45365   0.00000  -0.00180  -0.00068  -0.00248   2.45117
         Item               Value     Threshold  Converged?
 Maximum Force            0.000027     0.000450     YES
 RMS     Force            0.000008     0.000300     YES
 Maximum Displacement     0.002211     0.001800     NO 
 RMS     Displacement     0.000371     0.001200     YES
 Predicted change in Energy=-3.962522D-08
 GradGradGradGradGradGradGradGradGradGradGradGradGradGradGradGradGradGrad

                          Input orientation:                          
 ---------------------------------------------------------------------
 Center     Atomic     Atomic              Coordinates (Angstroms)
 Number     Number      Type              X           Y           Z
 ---------------------------------------------------------------------
    1          6             0       -0.137044   -0.393733    0.306291
    2          6             0        1.325617   -0.249647   -0.164557
    3          6             0       -0.249443    1.077698   -0.148584
    4          1             0       -0.291689   -0.601081    1.370077
    5          1             0        1.735534   -1.035120   -0.811509
    6          1             0        2.041139   -0.030673    0.639764
    7          1             0       -1.096177    1.346633   -0.787611
    8          1             0       -0.140303    1.810943    0.661385
    9          8             0        0.984304    0.949175   -0.912059
   10          6             0       -0.955793   -1.357843   -0.552352
   11          1             0       -0.581771   -2.383050   -0.390797
   12          1             0       -2.005969   -1.340791   -0.231282
   13          8             0       -0.934917   -1.037378   -1.937130
   14          1             0       -0.171832   -0.458774   -2.108055
 ---------------------------------------------------------------------
                    Distance matrix (angstroms):
                    1          2          3          4          5
     1  C    0.000000
     2  C    1.543320   0.000000
     3  C    1.544232   2.059834   0.000000
     4  H    1.094782   2.257052   2.264159   0.000000
     5  H    2.273192   1.097063   2.973819   3.009541   0.000000
     6  H    2.233270   1.098568   2.663971   2.510141   1.791229
     7  H    2.268355   2.966715   1.094368   3.016026   3.700258
     8  H    2.233092   2.660288   1.098003   2.518536   3.713254
     9  O    2.131947   1.453420   1.456552   3.039670   2.124119
    10  C    1.528766   2.565797   2.567843   2.170128   2.722967
    11  H    2.154320   2.870665   3.485095   2.521951   2.713634
    12  H    2.163050   3.506353   2.990203   2.459731   3.798544
    13  O    2.466540   2.978682   2.853475   3.397310   2.897988
    14  H    2.415472   2.462371   2.491244   3.483104   2.377235
                    6          7          8          9         10
     6  H    0.000000
     7  H    3.711755   0.000000
     8  H    2.854944   1.796906   0.000000
     9  O    2.117818   2.121759   2.117336   0.000000
    10  C    3.487709   2.718316   3.489897   3.035736   0.000000
    11  H    3.670883   3.785844   4.346442   3.718605   1.103197
    12  H    4.342143   2.891275   3.769747   3.827419   1.098293
    13  O    4.063341   2.651586   3.936575   2.946281   1.421528
    14  H    3.554014   2.420223   3.580839   2.179306   1.960391
                   11         12         13         14
    11  H    0.000000
    12  H    1.772030   0.000000
    13  O    2.080070   2.036941   0.000000
    14  H    2.611487   2.768446   0.972778   0.000000
 Symmetry turned off by external request.
 Stoichiometry    C4H8O2
 Framework group  C1[X(C4H8O2)]
 Deg. of freedom    36
 Full point group                 C1
 Rotational constants (GHZ):      6.0545545      3.0459306      2.8999199
 Standard basis: 6-31G(d) (6D, 7F)
 Integral buffers will be    131072 words long.
 Raffenetti 2 integral format.
 Two-electron integral symmetry is turned off.
   106 basis functions,   200 primitive gaussians,   106 cartesian basis functions
    24 alpha electrons       24 beta electrons
       nuclear repulsion energy       258.4013822308 Hartrees.
 NAtoms=   14 NActive=   14 NUniq=   14 SFac= 7.50D-01 NAtFMM=   80 NAOKFM=F Big=F
 One-electron integrals computed using PRISM.
 NBasis=   106 RedAO= T  NBF=   106
 NBsUse=   106 1.00D-06 NBFU=   106
 Initial guess read from the read-write file:
 Requested convergence on RMS density matrix=1.00D-08 within 128 cycles.
 Requested convergence on MAX density matrix=1.00D-06.
 Requested convergence on             energy=1.00D-06.
 No special actions if energy rises.
 Keep R1 integrals in memory in canonical form, NReq=    18003564.
 SCF Done:  E(RB+HF-LYP) =  -307.625476963     A.U. after    7 cycles
             Convg  =    0.4526D-08             -V/T =  2.0089
             S**2   =   0.0000
 -------------------------------------------------------------------
 Center     Atomic                   Forces (Hartrees/Bohr)
 Number     Number              X              Y              Z
 -------------------------------------------------------------------
    1          6          -0.000058904    0.000048658    0.000003805
    2          6           0.000001755   -0.000021265    0.000015171
    3          6           0.000011660   -0.000003067   -0.000013403
    4          1           0.000049338   -0.000041796    0.000000162
    5          1          -0.000005329   -0.000006953    0.000005940
    6          1          -0.000003859   -0.000004857    0.000000623
    7          1           0.000008712    0.000006843   -0.000003178
    8          1           0.000004415    0.000001059    0.000001320
    9          8           0.000000102    0.000007683   -0.000014382
   10          6          -0.000049032    0.000042416   -0.000003052
   11          1          -0.000013613    0.000005620   -0.000003964
   12          1          -0.000004301    0.000015374    0.000005183
   13          8           0.000058552   -0.000036956    0.000000664
   14          1           0.000000502   -0.000012759    0.000005111
 -------------------------------------------------------------------
 Cartesian Forces:  Max     0.000058904 RMS     0.000022533

 GradGradGradGradGradGradGradGradGradGradGradGradGradGradGradGradGradGrad
 Berny optimization.
 Internal  Forces:  Max     0.000054721 RMS     0.000011722
 Search for a local minimum.
 Step number   4 out of a maximum of  86 on scan point     1 out of    37
 All quantities printed in internal units (Hartrees-Bohrs-Radians)
 Update second derivatives using D2CorX and points  1  2  3  4
 Trust test= 1.11D+00 RLast= 4.55D-03 DXMaxT set to 3.00D-01
     Eigenvalues ---    0.00249   0.00612   0.01718   0.02722   0.04017
     Eigenvalues ---    0.04787   0.05006   0.05374   0.05882   0.06567
     Eigenvalues ---    0.07011   0.07988   0.10060   0.10280   0.10596
     Eigenvalues ---    0.11035   0.11771   0.14774   0.17464   0.19723
     Eigenvalues ---    0.23018   0.26594   0.27430   0.30004   0.33403
     Eigenvalues ---    0.33802   0.33883   0.33924   0.34019   0.34319
     Eigenvalues ---    0.34371   0.35134   0.35886   0.42980   0.53146
     Eigenvalues --- 1000.000001000.000001000.000001000.000001000.00000
     Eigenvalues --- 1000.000001000.000001000.000001000.000001000.00000
     Eigenvalues --- 1000.000001000.000001000.000001000.000001000.00000
     Eigenvalues --- 1000.000001000.000001000.000001000.000001000.00000
     Eigenvalues --- 1000.000001000.000001000.000001000.000001000.00000
     Eigenvalues --- 1000.000001000.000001000.000001000.000001000.00000
     Eigenvalues --- 1000.000001000.000001000.000001000.000001000.00000
     Eigenvalues --- 1000.000001000.000001000.000001000.000001000.00000
     Eigenvalues --- 1000.00000
 RFO step:  Lambda=-1.02928701D-08.
 Quartic linear search produced a step of  0.12208.
 Iteration  1 RMS(Cart)=  0.00011575 RMS(Int)=  0.00000001
 Iteration  2 RMS(Cart)=  0.00000001 RMS(Int)=  0.00000000
 Iteration  1 RMS(Cart)=  0.00000000 RMS(Int)=  0.00000000
 Variable       Old X    -DE/DX   Delta X   Delta X   Delta X     New X
                                 (Linear)    (Quad)   (Total)
    R1        2.91645   0.00000   0.00000  -0.00001  -0.00001   2.91644
    R2        2.91818   0.00000   0.00000   0.00000   0.00000   2.91818
    R3        2.06884   0.00000   0.00000   0.00000   0.00000   2.06884
    R4        2.88895  -0.00001   0.00000  -0.00001  -0.00001   2.88894
    R5        2.07315   0.00000   0.00000  -0.00001  -0.00001   2.07314
    R6        2.07599   0.00000   0.00000  -0.00001  -0.00001   2.07598
    R7        2.74656   0.00002   0.00001   0.00004   0.00005   2.74661
    R8        2.06806   0.00000   0.00000   0.00000   0.00000   2.06805
    R9        2.07492   0.00000   0.00000   0.00001   0.00001   2.07493
   R10        2.75248   0.00000   0.00001  -0.00002  -0.00001   2.75248
   R11        2.08474  -0.00001  -0.00001  -0.00001  -0.00002   2.08472
   R12        2.07547   0.00000   0.00001   0.00001   0.00001   2.07548
   R13        2.68630  -0.00002   0.00000  -0.00003  -0.00002   2.68627
   R14        1.83828  -0.00001   0.00000  -0.00001  -0.00001   1.83828
    A1        1.46073   0.00000   0.00000  -0.00001  -0.00001   1.46072
    A2        2.03533  -0.00001   0.00004   0.00007   0.00011   2.03544
    A3        1.97697  -0.00001  -0.00001   0.00000  -0.00001   1.97696
    A4        2.04475   0.00001  -0.00003  -0.00005  -0.00008   2.04467
    A5        1.97849   0.00001  -0.00002  -0.00002  -0.00003   1.97845
    A6        1.92907   0.00000   0.00001   0.00001   0.00001   1.92909
    A7        2.05691   0.00000   0.00000  -0.00002  -0.00002   2.05689
    A8        1.99602   0.00000   0.00000   0.00003   0.00004   1.99605
    A9        1.58215   0.00000   0.00000  -0.00003  -0.00003   1.58212
   A10        1.90827   0.00000   0.00001   0.00002   0.00003   1.90830
   A11        1.95521   0.00000   0.00000  -0.00001  -0.00002   1.95519
   A12        1.94453   0.00000  -0.00001  -0.00001  -0.00002   1.94451
   A13        2.05158   0.00000   0.00002   0.00002   0.00004   2.05162
   A14        1.99521  -0.00001  -0.00001  -0.00003  -0.00004   1.99517
   A15        1.57947   0.00000   0.00000  -0.00001  -0.00001   1.57945
   A16        1.92149   0.00000  -0.00001  -0.00001  -0.00001   1.92147
   A17        1.95086   0.00000   0.00000   0.00001   0.00002   1.95087
   A18        1.94056   0.00000   0.00000   0.00001   0.00001   1.94057
   A19        1.57291  -0.00001  -0.00001  -0.00003  -0.00003   1.57287
   A20        1.89889   0.00001   0.00001   0.00007   0.00008   1.89897
   A21        1.91571  -0.00001  -0.00003  -0.00007  -0.00009   1.91562
   A22        1.97915   0.00000   0.00001  -0.00002  -0.00001   1.97914
   A23        1.87109   0.00000   0.00000   0.00001   0.00001   1.87110
   A24        1.92536  -0.00003  -0.00002  -0.00002  -0.00004   1.92531
   A25        1.87059   0.00003   0.00003   0.00002   0.00005   1.87064
   A26        1.89312  -0.00001   0.00000  -0.00002  -0.00002   1.89310
    D1       -2.30230   0.00000  -0.00001  -0.00009  -0.00010  -2.30240
    D2        1.70200   0.00000  -0.00003  -0.00014  -0.00017   1.70183
    D3       -0.28681   0.00000  -0.00002  -0.00013  -0.00014  -0.28696
    D4        1.93408  -0.00001   0.00002  -0.00003  -0.00002   1.93406
    D5       -0.34481  -0.00001   0.00000  -0.00008  -0.00009  -0.34489
    D6       -2.33362  -0.00001   0.00001  -0.00007  -0.00006  -2.33369
    D7       -0.33445   0.00001  -0.00003  -0.00011  -0.00014  -0.33459
    D8       -2.61334   0.00001  -0.00004  -0.00016  -0.00021  -2.61354
    D9        1.68103   0.00001  -0.00003  -0.00015  -0.00019   1.68085
   D10        2.29367   0.00000   0.00002   0.00015   0.00017   2.29384
   D11       -1.69670   0.00000   0.00002   0.00014   0.00015  -1.69655
   D12        0.28617   0.00000   0.00002   0.00013   0.00015   0.28632
   D13       -1.95208  -0.00001   0.00007   0.00022   0.00028  -1.95180
   D14        0.34073  -0.00001   0.00006   0.00020   0.00026   0.34099
   D15        2.32361  -0.00001   0.00006   0.00020   0.00026   2.32387
   D16        0.32738   0.00001   0.00003   0.00016   0.00019   0.32757
   D17        2.62020   0.00001   0.00002   0.00015   0.00017   2.62037
   D18       -1.68011   0.00001   0.00003   0.00014   0.00017  -1.67994
   D19        1.19744   0.00000   0.00004   0.00012   0.00016   1.19760
   D20       -3.04334   0.00000   0.00003   0.00014   0.00017  -3.04317
   D21       -0.95198   0.00004   0.00006   0.00011   0.00016  -0.95182
   D22        2.82377   0.00000   0.00003   0.00010   0.00013   2.82389
   D23       -1.41702   0.00000   0.00002   0.00011   0.00014  -1.41688
   D24        0.67434   0.00004   0.00005   0.00008   0.00013   0.67447
   D25       -1.12356   0.00002  -0.00002   0.00001   0.00000  -1.12356
   D26        0.91884   0.00002  -0.00002   0.00003   0.00001   0.91885
   D27        3.01020   0.00005   0.00000   0.00000   0.00000   3.01020
   D28        0.30272   0.00000   0.00002   0.00014   0.00015   0.30287
   D29        2.40707   0.00000   0.00001   0.00010   0.00011   2.40718
   D30       -1.73215   0.00000   0.00001   0.00011   0.00013  -1.73202
   D31       -0.30252   0.00000  -0.00002  -0.00014  -0.00015  -0.30268
   D32       -2.39865   0.00000  -0.00003  -0.00016  -0.00019  -2.39884
   D33        1.72946   0.00000  -0.00003  -0.00017  -0.00020   1.72927
   D34        0.33428  -0.00001  -0.00030   0.00006  -0.00024   0.33404
   D35       -1.80052   0.00001  -0.00030   0.00000  -0.00030  -1.80082
   D36        2.45117   0.00001  -0.00030  -0.00002  -0.00032   2.45084
         Item               Value     Threshold  Converged?
 Maximum Force            0.000015     0.000450     YES
 RMS     Force            0.000005     0.000300     YES
 Maximum Displacement     0.000338     0.001800     YES
 RMS     Displacement     0.000116     0.001200     YES
 Predicted change in Energy=-5.678291D-09
 Optimization completed.
    -- Stationary point found.
                           ----------------------------
                           !   Optimized Parameters   !
                           ! (Angstroms and Degrees)  !
 --------------------------                            --------------------------
 ! Name  Definition              Value          Derivative Info.                !
 --------------------------------------------------------------------------------
 ! R1    R(1,2)                  1.5433         -DE/DX =    0.0                 !
 ! R2    R(1,3)                  1.5442         -DE/DX =    0.0                 !
 ! R3    R(1,4)                  1.0948         -DE/DX =    0.0                 !
 ! R4    R(1,10)                 1.5288         -DE/DX =    0.0                 !
 ! R5    R(2,5)                  1.0971         -DE/DX =    0.0                 !
 ! R6    R(2,6)                  1.0986         -DE/DX =    0.0                 !
 ! R7    R(2,9)                  1.4534         -DE/DX =    0.0                 !
 ! R8    R(3,7)                  1.0944         -DE/DX =    0.0                 !
 ! R9    R(3,8)                  1.098          -DE/DX =    0.0                 !
 ! R10   R(3,9)                  1.4566         -DE/DX =    0.0                 !
 ! R11   R(10,11)                1.1032         -DE/DX =    0.0                 !
 ! R12   R(10,12)                1.0983         -DE/DX =    0.0                 !
 ! R13   R(10,13)                1.4215         -DE/DX =    0.0                 !
 ! R14   R(13,14)                0.9728         -DE/DX =    0.0                 !
 ! A1    A(2,1,3)               83.6936         -DE/DX =    0.0                 !
 ! A2    A(2,1,4)              116.6158         -DE/DX =    0.0                 !
 ! A3    A(2,1,10)             113.2719         -DE/DX =    0.0                 !
 ! A4    A(3,1,4)              117.1557         -DE/DX =    0.0                 !
 ! A5    A(3,1,10)             113.3589         -DE/DX =    0.0                 !
 ! A6    A(4,1,10)             110.5278         -DE/DX =    0.0                 !
 ! A7    A(1,2,5)              117.8521         -DE/DX =    0.0                 !
 ! A8    A(1,2,6)              114.3632         -DE/DX =    0.0                 !
 ! A9    A(1,2,9)               90.6505         -DE/DX =    0.0                 !
 ! A10   A(5,2,6)              109.3361         -DE/DX =    0.0                 !
 ! A11   A(5,2,9)              112.0251         -DE/DX =    0.0                 !
 ! A12   A(6,2,9)              111.4133         -DE/DX =    0.0                 !
 ! A13   A(1,3,7)              117.5472         -DE/DX =    0.0                 !
 ! A14   A(1,3,8)              114.3173         -DE/DX =    0.0                 !
 ! A15   A(1,3,9)               90.4967         -DE/DX =    0.0                 !
 ! A16   A(7,3,8)              110.093          -DE/DX =    0.0                 !
 ! A17   A(7,3,9)              111.7759         -DE/DX =    0.0                 !
 ! A18   A(8,3,9)              111.1859         -DE/DX =    0.0                 !
 ! A19   A(2,9,3)               90.121          -DE/DX =    0.0                 !
 ! A20   A(1,10,11)            108.7983         -DE/DX =    0.0                 !
 ! A21   A(1,10,12)            109.7621         -DE/DX =    0.0                 !
 ! A22   A(1,10,13)            113.3971         -DE/DX =    0.0                 !
 ! A23   A(11,10,12)           107.2055         -DE/DX =    0.0                 !
 ! A24   A(11,10,13)           110.3148         -DE/DX =    0.0                 !
 ! A25   A(12,10,13)           107.1767         -DE/DX =    0.0                 !
 ! A26   A(10,13,14)           108.4679         -DE/DX =    0.0                 !
 ! D1    D(3,1,2,5)           -131.9119         -DE/DX =    0.0                 !
 ! D2    D(3,1,2,6)             97.5175         -DE/DX =    0.0                 !
 ! D3    D(3,1,2,9)            -16.4333         -DE/DX =    0.0                 !
 ! D4    D(4,1,2,5)            110.8147         -DE/DX =    0.0                 !
 ! D5    D(4,1,2,6)            -19.756          -DE/DX =    0.0                 !
 ! D6    D(4,1,2,9)           -133.7067         -DE/DX =    0.0                 !
 ! D7    D(10,1,2,5)           -19.1625         -DE/DX =    0.0                 !
 ! D8    D(10,1,2,6)          -149.7331         -DE/DX =    0.0                 !
 ! D9    D(10,1,2,9)            96.3161         -DE/DX =    0.0                 !
 ! D10   D(2,1,3,7)            131.4175         -DE/DX =    0.0                 !
 ! D11   D(2,1,3,8)            -97.2137         -DE/DX =    0.0                 !
 ! D12   D(2,1,3,9)             16.3965         -DE/DX =    0.0                 !
 ! D13   D(4,1,3,7)           -111.8462         -DE/DX =    0.0                 !
 ! D14   D(4,1,3,8)             19.5226         -DE/DX =    0.0                 !
 ! D15   D(4,1,3,9)            133.1328         -DE/DX =    0.0                 !
 ! D16   D(10,1,3,7)            18.7577         -DE/DX =    0.0                 !
[...]
   D26        0.62103   0.00153   0.03809  -0.00057   0.03745   0.65849
   D27        2.83567   0.00096   0.00001   0.00000   0.00000   2.83567
   D28       -0.13647  -0.00005   0.00115   0.01271   0.01389  -0.12258
   D29        1.89402  -0.00004   0.00043   0.01466   0.01508   1.90910
   D30       -2.23916   0.00003   0.00217   0.01309   0.01529  -2.22387
   D31        0.13575   0.00009  -0.00110  -0.01273  -0.01386   0.12189
   D32       -1.91949   0.00007  -0.00219  -0.01934  -0.02153  -1.94102
   D33        2.22674   0.00004   0.00013  -0.01777  -0.01768   2.20907
   D34       -1.26431  -0.00001   0.01887   0.00940   0.02817  -1.23615
   D35        2.94519   0.00035  -0.00437   0.00581   0.00100   2.94619
   D36        0.93564   0.00002  -0.01015   0.00639  -0.00321   0.93243
         Item               Value     Threshold  Converged?
 Maximum Force            0.001533     0.000450     NO 
 RMS     Force            0.000446     0.000300     NO 
 Maximum Displacement     0.106798     0.001800     NO 
 RMS     Displacement     0.026825     0.001200     NO 
 Predicted change in Energy=-2.402245D-04
 GradGradGradGradGradGradGradGradGradGradGradGradGradGradGradGradGradGrad

                          Input orientation:                          
 ---------------------------------------------------------------------
 Center     Atomic     Atomic              Coordinates (Angstroms)
 Number     Number      Type              X           Y           Z
 ---------------------------------------------------------------------
    1          6             0        0.523433   -0.474450   -0.286928
    2          6             0        0.725956    0.958872   -0.817835
    3          6             0       -0.105947    0.243016    0.934951
    4          1             0        1.451052   -0.977397    0.007946
    5          1             0        0.057173    1.218807   -1.649576
    6          1             0        1.751455    1.260621   -1.064171
    7          1             0       -1.198254    0.152653    1.023004
    8          1             0        0.346759    0.032117    1.911805
    9          8             0        0.274409    1.537710    0.428404
   10          6             0       -0.326006   -1.442329   -1.115726
   11          1             0        0.058578   -1.476509   -2.141330
   12          1             0       -0.233853   -2.460753   -0.704545
   13          8             0       -1.693483   -1.071838   -1.228455
   14          1             0       -2.109616   -1.204159   -0.363962
 ---------------------------------------------------------------------
                    Distance matrix (angstroms):
                    1          2          3          4          5
     1  C    0.000000
     2  C    1.541847   0.000000
     3  C    1.550440   2.068035   0.000000
     4  H    1.095621   2.226392   2.184718   0.000000
     5  H    2.222910   1.098467   2.767410   3.084411   0.000000
     6  H    2.263320   1.096988   2.912378   2.499680   1.793053
     7  H    2.252417   2.782312   1.099570   3.053880   3.139342
     8  H    2.263238   2.907507   1.097117   2.421417   3.765040
     9  O    2.150000   1.446395   1.441351   2.808387   2.113503
    10  C    1.531419   2.638396   2.663473   2.153308   2.741071
    11  H    2.158476   2.850985   3.528079   2.609116   2.739808
    12  H    2.166399   3.553576   3.164597   2.355185   3.810110
    13  O    2.481544   3.185291   2.988216   3.380193   2.913623
    14  H    2.733378   3.595159   2.792164   3.587213   3.495503
                    6          7          8          9         10
     6  H    0.000000
     7  H    3.779508   0.000000
     8  H    3.512666   1.786494   0.000000
     9  O    2.118071   2.107290   2.114834   0.000000
    10  C    3.409464   2.806947   3.434028   3.409614   0.000000
    11  H    3.393815   3.774494   4.334386   3.966816   1.095873
    12  H    4.233132   3.277863   3.660163   4.186838   1.102156
    13  O    4.163527   2.610306   3.904169   3.664358   1.421254
    14  H    4.633930   2.143640   3.569492   3.718772   1.950164
                   11         12         13         14
    11  H    0.000000
    12  H    1.765957   0.000000
    13  O    2.016635   2.081846   0.000000
    14  H    2.816785   2.283312   0.968516   0.000000
 Symmetry turned off by external request.
 Stoichiometry    C4H8O2
 Framework group  C1[X(C4H8O2)]
 Deg. of freedom    36
 Full point group                 C1
 Rotational constants (GHZ):      6.8981715      2.5475909      2.4000601
 Standard basis: 6-31G(d) (6D, 7F)
 Integral buffers will be    131072 words long.
 Raffenetti 2 integral format.
 Two-electron integral symmetry is turned off.
   106 basis functions,   200 primitive gaussians,   106 cartesian basis functions
    24 alpha electrons       24 beta electrons
       nuclear repulsion energy       252.2235146151 Hartrees.
 NAtoms=   14 NActive=   14 NUniq=   14 SFac= 7.50D-01 NAtFMM=   80 NAOKFM=F Big=F
 One-electron integrals computed using PRISM.
 NBasis=   106 RedAO= T  NBF=   106
 NBsUse=   106 1.00D-06 NBFU=   106
 Initial guess read from the read-write file:
 Harris functional with IExCor=  402 diagonalized for initial guess.
 ExpMin= 1.61D-01 ExpMax= 5.48D+03 ExpMxC= 8.25D+02 IAcc=1 IRadAn=         1 AccDes= 1.00D-06
 HarFok:  IExCor= 402 AccDes= 1.00D-06 IRadAn=         1 IDoV=1
 ScaDFX=  1.000000  1.000000  1.000000  1.000000
 Requested convergence on RMS density matrix=1.00D-08 within 128 cycles.
 Requested convergence on MAX density matrix=1.00D-06.
 Requested convergence on             energy=1.00D-06.
 No special actions if energy rises.
 Keep R1 integrals in memory in canonical form, NReq=    18003710.
 Integral accuracy reduced to 1.0D-05 until final iterations.
 Initial convergence to 1.0D-05 achieved.  Increase integral accuracy.
 SCF Done:  E(RB+HF-LYP) =  -307.623108168     A.U. after   11 cycles
             Convg  =    0.4451D-08             -V/T =  2.0089
             S**2   =   0.0000
 -------------------------------------------------------------------
 Center     Atomic                   Forces (Hartrees/Bohr)
 Number     Number              X              Y              Z
 -------------------------------------------------------------------
    1          6          -0.002153307   -0.001297517    0.003770544
    2          6           0.000003115    0.000052056    0.000009952
    3          6           0.000013161    0.000022403   -0.000059490
    4          1           0.002183691    0.001641818   -0.004022032
    5          1          -0.000007290   -0.000030150   -0.000001721
    6          1           0.000010786   -0.000013732    0.000000035
    7          1          -0.000052237   -0.000041148    0.000052835
    8          1          -0.000039050    0.000006011    0.000019275
    9          8           0.000003701    0.000014363   -0.000002376
   10          6          -0.000710207   -0.002378709    0.003524987
   11          1           0.000028564   -0.000053424    0.000012573
   12          1           0.000090669   -0.000032100   -0.000044569
   13          8           0.000658084    0.002070045   -0.003308124
   14          1          -0.000029679    0.000040083    0.000048114
 -------------------------------------------------------------------
 Cartesian Forces:  Max     0.004022032 RMS     0.001366832

 GradGradGradGradGradGradGradGradGradGradGradGradGradGradGradGradGradGrad
 Berny optimization.
 Internal  Forces:  Max     0.003256167 RMS     0.000641490
 Search for a local minimum.
 Step number   3 out of a maximum of  86 on scan point    36 out of    37
 All quantities printed in internal units (Hartrees-Bohrs-Radians)
 Update second derivatives using D2CorX and points  1  2  3
 Trust test= 9.92D-01 RLast= 1.91D-01 DXMaxT set to 5.00D-01
     Eigenvalues ---    0.00120   0.00441   0.01237   0.02498   0.03537
     Eigenvalues ---    0.04535   0.04807   0.04938   0.05764   0.05825
     Eigenvalues ---    0.06981   0.07762   0.09896   0.10035   0.10305
     Eigenvalues ---    0.10815   0.11828   0.13659   0.18205   0.21539
     Eigenvalues ---    0.22804   0.25707   0.26220   0.30126   0.32601
     Eigenvalues ---    0.32914   0.33488   0.33905   0.33954   0.34187
     Eigenvalues ---    0.34592   0.34828   0.35188   0.43556   0.53277
     Eigenvalues --- 1000.000001000.000001000.000001000.000001000.00000
     Eigenvalues --- 1000.000001000.000001000.000001000.000001000.00000
     Eigenvalues --- 1000.000001000.000001000.000001000.000001000.00000
     Eigenvalues --- 1000.000001000.000001000.000001000.000001000.00000
     Eigenvalues --- 1000.000001000.000001000.000001000.000001000.00000
     Eigenvalues --- 1000.000001000.000001000.000001000.000001000.00000
     Eigenvalues --- 1000.000001000.000001000.000001000.000001000.00000
     Eigenvalues --- 1000.000001000.000001000.000001000.000001000.00000
     Eigenvalues --- 1000.00000
 RFO step:  Lambda=-1.32464777D-06.
 Quartic linear search produced a step of  0.00576.
 Iteration  1 RMS(Cart)=  0.00192861 RMS(Int)=  0.00000359
 Iteration  2 RMS(Cart)=  0.00000337 RMS(Int)=  0.00000062
 Iteration  3 RMS(Cart)=  0.00000000 RMS(Int)=  0.00000062
 Iteration  1 RMS(Cart)=  0.00000046 RMS(Int)=  0.00000043
 Variable       Old X    -DE/DX   Delta X   Delta X   Delta X     New X
                                 (Linear)    (Quad)   (Total)
    R1        2.91367   0.00000   0.00000   0.00015   0.00014   2.91381
    R2        2.92991   0.00002   0.00000   0.00029   0.00029   2.93020
    R3        2.07042   0.00001   0.00000  -0.00002  -0.00002   2.07040
    R4        2.89396   0.00008  -0.00002   0.00033   0.00031   2.89427
    R5        2.07580   0.00000   0.00000   0.00000  -0.00001   2.07579
    R6        2.07301   0.00000   0.00000   0.00003   0.00003   2.07304
    R7        2.73329  -0.00001   0.00000  -0.00011  -0.00010   2.73319
    R8        2.07789   0.00006   0.00001   0.00017   0.00017   2.07806
    R9        2.07325   0.00000   0.00000   0.00003   0.00003   2.07328
   R10        2.72376   0.00004  -0.00001  -0.00012  -0.00013   2.72363
   R11        2.07090   0.00000   0.00000  -0.00005  -0.00005   2.07085
   R12        2.08277   0.00002   0.00000   0.00014   0.00014   2.08292
   R13        2.68578   0.00020  -0.00001   0.00025   0.00024   2.68602
   R14        1.83023   0.00005   0.00000   0.00010   0.00010   1.83033
    A1        1.46510   0.00001   0.00001  -0.00006  -0.00005   1.46505
    A2        1.99128  -0.00069   0.00012   0.00058   0.00070   1.99198
    A3        2.06466  -0.00041   0.00004  -0.00080  -0.00076   2.06390
    A4        1.92198   0.00066  -0.00008   0.00015   0.00007   1.92205
    A5        2.08726   0.00036  -0.00007  -0.00099  -0.00106   2.08620
    A6        1.90197   0.00009   0.00000   0.00089   0.00088   1.90285
    A7        1.98311  -0.00002   0.00001  -0.00008  -0.00008   1.98303
    A8        2.04409  -0.00001   0.00000  -0.00027  -0.00027   2.04382
    A9        1.60514   0.00001   0.00000   0.00023   0.00023   1.60537
   A10        1.91138   0.00002   0.00001   0.00002   0.00003   1.91140
   A11        1.94726  -0.00007   0.00000   0.00007   0.00007   1.94733
   A12        1.95546   0.00008  -0.00001   0.00008   0.00006   1.95552
   A13        2.01345   0.00001   0.00004   0.00056   0.00060   2.01404
   A14        2.03224   0.00002  -0.00002  -0.00023  -0.00025   2.03199
   A15        1.60238  -0.00002   0.00000   0.00018   0.00018   1.60256
   A16        1.89949  -0.00004  -0.00002  -0.00060  -0.00062   1.89887
   A17        1.94347   0.00010   0.00001   0.00034   0.00035   1.94382
   A18        1.95703  -0.00007   0.00001  -0.00008  -0.00007   1.95695
   A19        1.59651   0.00000   0.00001   0.00017   0.00018   1.59669
   A20        1.90874  -0.00034   0.00006   0.00007   0.00013   1.90887
   A21        1.91316   0.00029  -0.00005  -0.00035  -0.00040   1.91277
   A22        1.99529   0.00000  -0.00002   0.00044   0.00042   1.99571
   A23        1.86605  -0.00003   0.00000  -0.00068  -0.00068   1.86538
   A24        1.84581  -0.00131   0.00014  -0.00016  -0.00002   1.84579
   A25        1.92934   0.00132  -0.00012   0.00060   0.00048   1.92982
   A26        1.88283   0.00003   0.00000   0.00014   0.00014   1.88297
    D1       -1.88589   0.00009  -0.00008  -0.00226  -0.00234  -1.88823
    D2        2.14029   0.00010  -0.00009  -0.00195  -0.00204   2.13825
    D3        0.11452   0.00000  -0.00008  -0.00209  -0.00217   0.11236
    D4        2.48859  -0.00061   0.00000  -0.00242  -0.00242   2.48617
    D5        0.23158  -0.00060  -0.00001  -0.00211  -0.00212   0.22946
    D6       -1.79418  -0.00070   0.00000  -0.00225  -0.00225  -1.79643
    D7        0.21644   0.00043  -0.00015  -0.00359  -0.00374   0.21270
    D8       -2.04056   0.00044  -0.00016  -0.00327  -0.00344  -2.04400
    D9        2.21686   0.00034  -0.00015  -0.00342  -0.00357   2.21329
   D10        1.88726   0.00010   0.00009   0.00272   0.00281   1.89007
   D11       -2.13755   0.00008   0.00007   0.00216   0.00223  -2.13532
   D12       -0.11492   0.00000   0.00007   0.00210   0.00217  -0.11274
   D13       -2.41546  -0.00061   0.00022   0.00332   0.00354  -2.41192
   D14       -0.15708  -0.00063   0.00020   0.00276   0.00295  -0.15412
   D15        1.86555  -0.00071   0.00020   0.00270   0.00290   1.86845
   D16       -0.19328   0.00051   0.00006   0.00388   0.00394  -0.18934
   D17        2.06510   0.00048   0.00004   0.00332   0.00336   2.06846
   D18       -2.19545   0.00040   0.00004   0.00326   0.00330  -2.19215
   D19        0.93015   0.00002   0.00041   0.00116   0.00157   0.93172
   D20        2.97072  -0.00005   0.00042   0.00018   0.00059   2.97131
   D21       -1.13528   0.00193   0.00020   0.00103   0.00123  -1.13406
   D22        2.66969  -0.00002   0.00039  -0.00009   0.00030   2.66999
   D23       -1.57292  -0.00009   0.00040  -0.00107  -0.00067  -1.57359
   D24        0.60426   0.00189   0.00019  -0.00022  -0.00004   0.60422
   D25       -1.38208   0.00135   0.00021   0.00013   0.00034  -1.38175
   D26        0.65849   0.00128   0.00022  -0.00085  -0.00063   0.65785
   D27        2.83567   0.00326   0.00000   0.00000   0.00000   2.83567
   D28       -0.12258   0.00000   0.00008   0.00222   0.00230  -0.12028
   D29        1.90910  -0.00004   0.00009   0.00225   0.00234   1.91144
   D30       -2.22387  -0.00002   0.00009   0.00239   0.00248  -2.22139
   D31        0.12189   0.00000  -0.00008  -0.00222  -0.00230   0.11959
   D32       -1.94102  -0.00003  -0.00012  -0.00300  -0.00312  -1.94414
   D33        2.20907   0.00000  -0.00010  -0.00241  -0.00251   2.20655
   D34       -1.23615  -0.00090   0.00016   0.00472   0.00488  -1.23127
   D35        2.94619   0.00043   0.00001   0.00448   0.00448   2.95067
   D36        0.93243   0.00054  -0.00002   0.00507   0.00505   0.93748
         Item               Value     Threshold  Converged?
 Maximum Force            0.000203     0.000450     YES
 RMS     Force            0.000037     0.000300     YES
 Maximum Displacement     0.009510     0.001800     NO 
 RMS     Displacement     0.001929     0.001200     NO 
 Predicted change in Energy=-6.445227D-07
 GradGradGradGradGradGradGradGradGradGradGradGradGradGradGradGradGradGrad

                          Input orientation:                          
 ---------------------------------------------------------------------
 Center     Atomic     Atomic              Coordinates (Angstroms)
 Number     Number      Type              X           Y           Z
 ---------------------------------------------------------------------
    1          6             0        0.524174   -0.474915   -0.286995
    2          6             0        0.725632    0.958616   -0.817964
    3          6             0       -0.106064    0.242246    0.934818
    4          1             0        1.451749   -0.977731    0.008192
    5          1             0        0.058361    1.217090   -1.651367
    6          1             0        1.751294    1.261581   -1.062189
    7          1             0       -1.198073    0.149058    1.024759
    8          1             0        0.348193    0.033312    1.911391
    9          8             0        0.270506    1.537440    0.426915
   10          6             0       -0.326134   -1.442235   -1.115854
   11          1             0        0.058407   -1.476964   -2.141427
   12          1             0       -0.233857   -2.460788   -0.704817
   13          8             0       -1.693587   -1.071224   -1.228733
   14          1             0       -2.108945   -1.199126   -0.363146
 ---------------------------------------------------------------------
                    Distance matrix (angstroms):
                    1          2          3          4          5
     1  C    0.000000
     2  C    1.541922   0.000000
     3  C    1.550595   2.068126   0.000000
     4  H    1.095608   2.226931   2.184894   0.000000
     5  H    2.222920   1.098463   2.768702   3.084301   0.000000
     6  H    2.263220   1.097004   2.911504   2.499992   1.793079
     7  H    2.253037   2.784178   1.099662   3.053624   3.143401
     8  H    2.263220   2.906549   1.097132   2.421200   3.765445
     9  O    2.150253   1.446341   1.441283   2.810116   2.113501
    10  C    1.531580   2.637998   2.662923   2.154092   2.739822
    11  H    2.158694   2.851104   3.527891   2.609885   2.738264
    12  H    2.166305   3.553272   3.164036   2.355654   3.808954
    13  O    2.482119   3.184587   2.987705   3.381104   2.912785
    14  H    2.731958   3.591314   2.788153   3.586844   3.492110
                    6          7          8          9         10
     6  H    0.000000
     7  H    3.780453   0.000000
     8  H    3.509916   1.786184   0.000000
     9  O    2.118080   2.107545   2.114735   0.000000
    10  C    3.410162   2.806192   3.434555   3.408017   0.000000
    11  H    3.395623   3.774576   4.334772   3.965855   1.095846
    12  H    4.233741   3.276040   3.661128   4.185813   1.102232
    13  O    4.163762   2.610143   3.905028   3.661142   1.421379
    14  H    4.630895   2.138591   3.567906   3.711439   1.950407
                   11         12         13         14
    11  H    0.000000
    12  H    1.765552   0.000000
    13  O    2.016709   2.082352   0.000000
    14  H    2.817249   2.285713   0.968567   0.000000
 Symmetry turned off by external request.
 Stoichiometry    C4H8O2
 Framework group  C1[X(C4H8O2)]
 Deg. of freedom    36
 Full point group                 C1
 Rotational constants (GHZ):      6.8908058      2.5493617      2.4021645
 Standard basis: 6-31G(d) (6D, 7F)
 Integral buffers will be    131072 words long.
 Raffenetti 2 integral format.
 Two-electron integral symmetry is turned off.
   106 basis functions,   200 primitive gaussians,   106 cartesian basis functions
    24 alpha electrons       24 beta electrons
       nuclear repulsion energy       252.2361450627 Hartrees.
 NAtoms=   14 NActive=   14 NUniq=   14 SFac= 7.50D-01 NAtFMM=   80 NAOKFM=F Big=F
 One-electron integrals computed using PRISM.
 NBasis=   106 RedAO= T  NBF=   106
 NBsUse=   106 1.00D-06 NBFU=   106
 Initial guess read from the read-write file:
 Requested convergence on RMS density matrix=1.00D-08 within 128 cycles.
 Requested convergence on MAX density matrix=1.00D-06.
 Requested convergence on             energy=1.00D-06.
 No special actions if energy rises.
 Keep R1 integrals in memory in canonical form, NReq=    18003710.
 SCF Done:  E(RB+HF-LYP) =  -307.623108924     A.U. after    8 cycles
             Convg  =    0.3765D-08             -V/T =  2.0089
             S**2   =   0.0000
