 Entering Gaussian System, Link 0=g03
 Input=p2_1.gjf
 Output=p2_1.log
 Initial command:
 /opt/g03/l1.exe /scratch/nyee/Gau-7871.inp -scrdir=/scratch/nyee/
 Entering Link 1 = /opt/g03/l1.exe PID=      7873.
  
 Copyright (c) 1988,1990,1992,1993,1995,1998,2003,2004, Gaussian, Inc.
                  All Rights Reserved.
  
 This is the Gaussian(R) 03 program.  It is based on the
 the Gaussian(R) 98 system (copyright 1998, Gaussian, Inc.),
 the Gaussian(R) 94 system (copyright 1995, Gaussian, Inc.),
 the Gaussian 92(TM) system (copyright 1992, Gaussian, Inc.),
 the Gaussian 90(TM) system (copyright 1990, Gaussian, Inc.),
 the Gaussian 88(TM) system (copyright 1988, Gaussian, Inc.),
 the Gaussian 86(TM) system (copyright 1986, Carnegie Mellon
 University), and the Gaussian 82(TM) system (copyright 1983,
 Carnegie Mellon University). Gaussian is a federally registered
 trademark of Gaussian, Inc.
  
 This software contains proprietary and confidential information,
 including trade secrets, belonging to Gaussian, Inc.
  
 This software is provided under written license and may be
 used, copied, transmitted, or stored only in accord with that
 written license.
  
 The following legend is applicable only to US Government
 contracts under FAR:
  
                    RESTRICTED RIGHTS LEGEND
  
 Use, reproduction and disclosure by the US Government is
 subject to restrictions as set forth in subparagraphs (a)
 and (c) of the Commercial Computer Software - Restricted
 Rights clause in FAR 52.227-19.
  
 Gaussian, Inc.
 340 Quinnipiac St., Bldg. 40, Wallingford CT 06492
  
  
 ---------------------------------------------------------------
 Warning -- This program may not be used in any manner that
 competes with the business of Gaussian, Inc. or will provide
 assistance to any competitor of Gaussian, Inc.  The licensee
 of this program is prohibited from giving any competitor of
 Gaussian, Inc. access to this program.  By using this program,
 the user acknowledges that Gaussian, Inc. is engaged in the
 business of creating and licensing software in the field of
 computational chemistry and represents and warrants to the
 licensee that it is not a competitor of Gaussian, Inc. and that
 it will not use this program in any manner prohibited above.
 ---------------------------------------------------------------
  

 Cite this work as:
 Gaussian 03, Revision D.01,
 M. J. Frisch, G. W. Trucks, H. B. Schlegel, G. E. Scuseria, 
 M. A. Robb, J. R. Cheeseman, J. A. Montgomery, Jr., T. Vreven, 
 K. N. Kudin, J. C. Burant, J. M. Millam, S. S. Iyengar, J. Tomasi, 
 V. Barone, B. Mennucci, M. Cossi, G. Scalmani, N. Rega, 
 G. A. Petersson, H. Nakatsuji, M. Hada, M. Ehara, K. Toyota, 
 R. Fukuda, J. Hasegawa, M. Ishida, T. Nakajima, Y. Honda, O. Kitao, 
 H. Nakai, M. Klene, X. Li, J. E. Knox, H. P. Hratchian, J. B. Cross, 
 V. Bakken, C. Adamo, J. Jaramillo, R. Gomperts, R. E. Stratmann, 
 O. Yazyev, A. J. Austin, R. Cammi, C. Pomelli, J. W. Ochterski, 
 P. Y. Ayala, K. Morokuma, G. A. Voth, P. Salvador, J. J. Dannenberg, 
 V. G. Zakrzewski, S. Dapprich, A. D. Daniels, M. C. Strain, 
 O. Farkas, D. K. Malick, A. D. Rabuck, K. Raghavachari, 
 J. B. Foresman, J. V. Ortiz, Q. Cui, A. G. Baboul, S. Clifford, 
 J. Cioslowski, B. B. Stefanov, G. Liu, A. Liashenko, P. Piskorz, 
 I. Komaromi, R. L. Martin, D. J. Fox, T. Keith, M. A. Al-Laham, 
 C. Y. Peng, A. Nanayakkara, M. Challacombe, P. M. W. Gill, 
 B. Johnson, W. Chen, M. W. Wong, C. Gonzalez, and J. A. Pople, 
 Gaussian, Inc., Wallingford CT, 2004.
 
 ******************************************
 Gaussian 03:  AM64L-G03RevD.01 13-Oct-2005
                18-Jun-2013 
 ******************************************
 %chk=p2_1.chk
 %mem=1000mb
 %nproc=8
 Will use up to    8 processors via shared memory.
 -------------------------
 # scan b3lyp/cbsb7 nosymm
 -------------------------
 1/38=1,60=1/1,8;
 2/15=1,17=6,18=5,29=3,40=1/2;
 3/5=4,6=6,7=700,11=2,16=1,25=1,30=1,74=-5/1,2,3;
 4//1;
 5/5=2,38=5/2;
 6/7=2,8=2,9=2,10=2,18=1,28=1/1;
 1/60=1/8(1);
 99/9=1/99;
 2/15=1,29=3/2;
 3/5=4,6=6,7=700,11=2,16=1,25=1,30=1,74=-5/1,2,3;
 4/5=5,16=3/1;
 5/5=2,38=5/2;
 1/60=1/8(-4);
 99/9=1/99;
 -------------------
 Title Card Required
 -------------------
 Symbolic Z-matrix:
 Charge =  0 Multiplicity = 1
 C
 H                    1    B1
 H                    1    B2       2    A1
 C                    1    B3       2    A2       3    D1       0
 C                    4    B4       1    A3       2    D2       0
 H                    5    B5       4    A4       1    D3       0
 H                    5    B6       4    A5       1    D4       0
 C                    4    B7       1    A6       5    D5       0
 H                    8    B8       4    A7       1    D6       0
 H                    8    B9       4    A8       1    D7       0
 H                    8    B10      4    A9       1    D8       0
 O                    1    B11      4    A10      5    D9       0
 H                    12   B12      1    A11      4    D10      0
 O                    4    B13      1    A12      12   D11      0
       Variables:
  B1                    1.09377                  
  B2                    1.10119                  
  B3                    1.52311                  
  B4                    1.46709                  
  B5                    1.08534                  
  B6                    1.08693                  
  B7                    1.50867                  
  B8                    1.09101                  
  B9                    1.09394                  
  B10                   1.0944                   
  B11                   1.41343                  
  B12                   0.96667                  
  B13                   1.44393                  
  A1                  107.63953                  
  A2                  110.00519                  
  A3                  118.98849                  
  A4                  119.26283                  
  A5                  119.45163                  
  A6                  116.01455                  
  A7                  110.65978                  
  A8                  110.50707                  
  A9                  110.76077                  
  A10                 112.32866                  
  A11                 105.61616                  
  A12                 112.30904                  
  D1                  117.78197                  
  D2                   89.06899                  
  D3                   -2.80875                  
  D4                 -156.76561                  
  D5                 -157.73153                  
  D6                 -177.38793                  
  D7                  -57.55945                  
  D8                   62.17511                  
  D9                  -30.3299                   
  D10                 -46.49941Scan 36   10.     
  D11                  36.08411                  
 
 Scan the potential surface.
 Variable   Value     No. Steps Step-Size
 -------- ----------- --------- ---------
    35     -46.499408      36     10.0000
 A total of     37 points will be computed.
 ------------------------------------------------------------------------
                         Z-MATRIX (ANGSTROMS AND DEGREES)
 CD Cent Atom  N1     Length/X     N2    Alpha/Y     N3     Beta/Z      J
 ------------------------------------------------------------------------
   1   1  C 
   2   2  H     1   1.093772(  1)
   3   3  H     1   1.101194(  2)   2  107.640( 14)
   4   4  C     1   1.523111(  3)   2  110.005( 15)   3  117.782( 26)   0
   5   5  C     4   1.467088(  4)   1  118.988( 16)   2   89.069( 27)   0
   6   6  H     5   1.085345(  5)   4  119.263( 17)   1   -2.809( 28)   0
   7   7  H     5   1.086928(  6)   4  119.452( 18)   1 -156.766( 29)   0
   8   8  C     4   1.508671(  7)   1  116.015( 19)   5 -157.732( 30)   0
   9   9  H     8   1.091013(  8)   4  110.660( 20)   1 -177.388( 31)   0
  10  10  H     8   1.093935(  9)   4  110.507( 21)   1  -57.559( 32)   0
  11  11  H     8   1.094404( 10)   4  110.761( 22)   1   62.175( 33)   0
  12  12  O     1   1.413434( 11)   4  112.329( 23)   5  -30.330( 34)   0
  13  13  H    12   0.966674( 12)   1  105.616( 24)   4  -46.499( 35)   0
  14  14  O     4   1.443929( 13)   1  112.309( 25)  12   36.084( 36)   0
 ------------------------------------------------------------------------
                         Z-Matrix orientation:                         
 ---------------------------------------------------------------------
 Center     Atomic     Atomic              Coordinates (Angstroms)
 Number     Number      Type              X           Y           Z
 ---------------------------------------------------------------------
    1          6             0        0.000000    0.000000    0.000000
    2          1             0        0.000000    0.000000    1.093772
    3          1             0        1.049418    0.000000   -0.333692
    4          6             0       -0.667098   -1.266230   -0.521064
    5          6             0       -2.117040   -1.265556   -0.744708
    6          1             0       -2.692416   -0.380654   -0.491996
    7          1             0       -2.658635   -2.207936   -0.742068
    8          6             0        0.081726   -2.554287   -0.283875
    9          1             0       -0.449371   -3.396154   -0.730533
   10          1             0        1.079754   -2.504923   -0.729069
   11          1             0        0.197018   -2.744304    0.787723
   12          8             0       -0.670245    1.171618   -0.419379
   13          1             0       -0.834786    1.053097   -1.364545
   14          8             0       -1.203789   -1.095661   -1.850650
 ---------------------------------------------------------------------
                    Distance matrix (angstroms):
                    1          2          3          4          5
     1  C    0.000000
     2  H    1.093772   0.000000
     3  H    1.101194   1.771703   0.000000
     4  C    1.523111   2.157789   2.141232   0.000000
     5  C    2.576447   3.076280   3.434679   1.467088   0.000000
     6  H    2.763342   3.147803   3.764476   2.210656   1.085345
     7  H    3.534683   3.913263   4.334906   2.214017   1.086928
     8  C    2.571312   2.903269   2.731902   1.508671   2.589936
     9  H    3.502781   3.881222   3.733325   2.151246   2.705692
    10  H    2.823482   3.280740   2.536115   2.151538   3.428668
    11  H    2.861910   2.768336   3.084698   2.155069   3.144822
    12  O    1.413434   2.027694   2.082612   2.439970   2.852871
    13  H    1.915167   2.801643   2.392048   2.473633   2.721126
    14  O    2.464647   3.364402   2.928920   1.443929   1.444299
                    6          7          8          9         10
     6  H    0.000000
     7  H    1.844624   0.000000
     8  C    3.530419   2.799907   0.000000
     9  H    3.765819   2.508554   1.091013   0.000000
    10  H    4.335665   3.750189   1.093935   1.769892   0.000000
    11  H    3.946309   3.283703   1.094404   1.774212   1.771210
    12  O    2.550294   3.934363   3.803444   4.583683   4.083547
    13  H    2.503552   3.787907   3.875701   4.510693   4.090085
    14  O    2.138501   2.140722   2.496983   2.667598   2.908355
                   11         12         13         14
    11  H    0.000000
    12  O    4.188519   0.000000
    13  H    4.485213   0.966674   0.000000
    14  O    3.411935   2.733818   2.233746   0.000000
                           Interatomic angles:
       H2-C1-H3=107.6395       H2-C1-C4=110.0052       H3-C1-C4=108.2838
       C1-C4-C5=118.9885       C4-C5-H6=119.2628       C4-C5-H7=119.4516
       H6-C5-H7=116.2425       C1-C4-C8=116.0145       C5-C4-C8=120.9911
       C4-C8-H9=110.6598      C4-C8-H10=110.5071      H9-C8-H10=108.1993
      C4-C8-H11=110.7608      H9-C8-H11=108.5524     H10-C8-H11=108.0719
      H2-C1-O12=107.2601      H3-C1-O12=111.2224      C4-C1-O12=112.3287
     C1-O12-H13=105.6162      C1-C4-O14=112.309       C5-C4-O14= 59.4848
      C8-C4-O14=115.4744
 Symmetry turned off by external request.
 Stoichiometry    C4H8O2
 Framework group  C1[X(C4H8O2)]
 Deg. of freedom    36
 Full point group                 C1
 Rotational constants (GHZ):      5.4694235      3.2477595      2.4490354
 Standard basis: CBSB7 (5D, 7F)
 Integral buffers will be    131072 words long.
 Raffenetti 2 integral format.
 Two-electron integral symmetry is turned off.
   156 basis functions,   256 primitive gaussians,   162 cartesian basis functions
    24 alpha electrons       24 beta electrons
       nuclear repulsion energy       254.4920714598 Hartrees.
 NAtoms=   14 NActive=   14 NUniq=   14 SFac= 7.50D-01 NAtFMM=   80 NAOKFM=F Big=F
 One-electron integrals computed using PRISM.
 NBasis=   156 RedAO= T  NBF=   156
 NBsUse=   156 1.00D-06 NBFU=   156
 Harris functional with IExCor=  402 diagonalized for initial guess.
 ExpMin= 1.03D-01 ExpMax= 8.59D+03 ExpMxC= 1.30D+03 IAcc=1 IRadAn=         1 AccDes= 1.00D-06
 HarFok:  IExCor= 402 AccDes= 1.00D-06 IRadAn=         1 IDoV=1
 ScaDFX=  1.000000  1.000000  1.000000  1.000000
 Requested convergence on RMS density matrix=1.00D-08 within 128 cycles.
 Requested convergence on MAX density matrix=1.00D-06.
 Requested convergence on             energy=1.00D-06.
 No special actions if energy rises.
 Keep R1 integrals in memory in canonical form, NReq=    90380467.
 Integral accuracy reduced to 1.0D-05 until final iterations.
 Initial convergence to 1.0D-05 achieved.  Increase integral accuracy.
 SCF Done:  E(RB+HF-LYP) =  -307.729940574     A.U. after   13 cycles
             Convg  =    0.8248D-08             -V/T =  2.0036
             S**2   =   0.0000

 **********************************************************************

            Population analysis using the SCF density.

 **********************************************************************

 Alpha  occ. eigenvalues --  -19.13496 -19.11379 -10.23774 -10.22249 -10.22226
 Alpha  occ. eigenvalues --  -10.17708  -1.08062  -1.02057  -0.77347  -0.69314
 Alpha  occ. eigenvalues --   -0.67011  -0.57990  -0.52640  -0.49984  -0.46176
 Alpha  occ. eigenvalues --   -0.45199  -0.42292  -0.41456  -0.39964  -0.37891
 Alpha  occ. eigenvalues --   -0.33765  -0.31278  -0.28830  -0.27162
 Alpha virt. eigenvalues --    0.04105   0.05774   0.06987   0.07170   0.09369
 Alpha virt. eigenvalues --    0.10281   0.11332   0.12479   0.13692   0.15596
 Alpha virt. eigenvalues --    0.18166   0.19988   0.24737   0.26907   0.30148
 Alpha virt. eigenvalues --    0.31265   0.34371   0.38682   0.39439   0.41853
 Alpha virt. eigenvalues --    0.42615   0.46149   0.49118   0.51310   0.52826
 Alpha virt. eigenvalues --    0.53753   0.55072   0.56748   0.57407   0.58202
 Alpha virt. eigenvalues --    0.60602   0.61546   0.63993   0.64993   0.67721
 Alpha virt. eigenvalues --    0.73616   0.79178   0.84253   0.86620   0.87059
 Alpha virt. eigenvalues --    0.92066   0.99118   1.01383   1.05917   1.08490
 Alpha virt. eigenvalues --    1.15183   1.18997   1.25043   1.31988   1.34387
 Alpha virt. eigenvalues --    1.36379   1.38592   1.40407   1.44505   1.44843
 Alpha virt. eigenvalues --    1.45625   1.49636   1.51487   1.53095   1.55000
 Alpha virt. eigenvalues --    1.57415   1.58623   1.62120   1.64366   1.66137
 Alpha virt. eigenvalues --    1.67056   1.68682   1.72904   1.75659   1.82791
 Alpha virt. eigenvalues --    1.84266   1.88105   1.94536   1.95834   1.98847
 Alpha virt. eigenvalues --    2.02226   2.04162   2.06971   2.13027   2.16663
 Alpha virt. eigenvalues --    2.21199   2.30719   2.34119   2.34922   2.38979
 Alpha virt. eigenvalues --    2.44492   2.46420   2.47617   2.49834   2.51439
 Alpha virt. eigenvalues --    2.53089   2.54851   2.60343   2.61858   2.65512
 Alpha virt. eigenvalues --    2.72152   2.74832   2.78846   2.81573   2.90833
 Alpha virt. eigenvalues --    2.92058   3.05856   3.06700   3.09457   3.13863
 Alpha virt. eigenvalues --    3.17126   3.21357   3.24930   3.34333   3.44929
 Alpha virt. eigenvalues --    3.64757   3.67731   3.72195   3.79553   3.80940
 Alpha virt. eigenvalues --    3.85324   3.92677   3.94927   4.22340   4.47729
 Alpha virt. eigenvalues --    4.88786   4.97143   5.27473   5.40697   5.45286
 Alpha virt. eigenvalues --    5.63532  23.71612  23.78000  23.87049  23.92829
 Alpha virt. eigenvalues --   49.87410  49.88952
          Condensed to atoms (all electrons):
              1          2          3          4          5          6
     1  C    4.669062   0.393023   0.399956   0.332764  -0.056264  -0.000120
     2  H    0.393023   0.601545  -0.045869  -0.036203  -0.010583  -0.002178
     3  H    0.399956  -0.045869   0.635350  -0.060008   0.013735   0.001708
     4  C    0.332764  -0.036203  -0.060008   5.390155   0.234360  -0.031488
     5  C   -0.056264  -0.010583   0.013735   0.234360   4.913083   0.398723
     6  H   -0.000120  -0.002178   0.001708  -0.031488   0.398723   0.564250
     7  H    0.000530   0.000488  -0.000210  -0.024145   0.395821  -0.043424
     8  C   -0.039440   0.000850  -0.003870   0.333210  -0.046493   0.002747
     9  H    0.005868  -0.000506  -0.000337  -0.024520  -0.004869   0.000404
    10  H   -0.006741  -0.000528   0.007320  -0.038154   0.009425  -0.000255
    11  H    0.000838   0.001818  -0.001033  -0.039817  -0.005256   0.000551
    12  O    0.302046  -0.028607  -0.033341  -0.040055   0.004565   0.021445
    13  H   -0.054524   0.010990  -0.006034  -0.008808  -0.004116  -0.007492
    14  O   -0.044345   0.004482  -0.003295   0.149008   0.173885  -0.026823
              7          8          9         10         11         12
     1  C    0.000530  -0.039440   0.005868  -0.006741   0.000838   0.302046
     2  H    0.000488   0.000850  -0.000506  -0.000528   0.001818  -0.028607
     3  H   -0.000210  -0.003870  -0.000337   0.007320  -0.001033  -0.033341
     4  C   -0.024145   0.333210  -0.024520  -0.038154  -0.039817  -0.040055
     5  C    0.395821  -0.046493  -0.004869   0.009425  -0.005256   0.004565
     6  H   -0.043424   0.002747   0.000404  -0.000255   0.000551   0.021445
     7  H    0.581987   0.001269  -0.001271   0.000270  -0.000786   0.000352
     8  C    0.001269   4.806859   0.396536   0.402728   0.395101   0.004039
     9  H   -0.001271   0.396536   0.560609  -0.027202  -0.022935  -0.000193
    10  H    0.000270   0.402728  -0.027202   0.572141  -0.030933  -0.000049
    11  H   -0.000786   0.395101  -0.022935  -0.030933   0.585115  -0.000063
    12  O    0.000352   0.004039  -0.000193  -0.000049  -0.000063   7.865053
    13  H    0.000833   0.000399  -0.000083   0.000139  -0.000138   0.313596
    14  O   -0.023761  -0.028302   0.004391  -0.002999   0.004643  -0.009533
             13         14
     1  C   -0.054524  -0.044345
     2  H    0.010990   0.004482
     3  H   -0.006034  -0.003295
     4  C   -0.008808   0.149008
     5  C   -0.004116   0.173885
     6  H   -0.007492  -0.026823
     7  H    0.000833  -0.023761
     8  C    0.000399  -0.028302
     9  H   -0.000083   0.004391
    10  H    0.000139  -0.002999
    11  H   -0.000138   0.004643
    12  O    0.313596  -0.009533
    13  H    0.483906   0.031435
    14  O    0.031435   8.114293
 Mulliken atomic charges:
              1
     1  C    0.097348
     2  H    0.111277
     3  H    0.095928
     4  C   -0.136299
     5  C   -0.016018
     6  H    0.121954
     7  H    0.112046
     8  C   -0.225634
     9  H    0.114108
    10  H    0.114837
    11  H    0.112893
    12  O   -0.399256
    13  H    0.239896
    14  O   -0.343079
 Sum of Mulliken charges=   0.00000
 Atomic charges with hydrogens summed into heavy atoms:
              1
     1  C    0.304553
     2  H    0.000000
     3  H    0.000000
     4  C   -0.136299
     5  C    0.217982
     6  H    0.000000
     7  H    0.000000
     8  C    0.116204
     9  H    0.000000
    10  H    0.000000
    11  H    0.000000
    12  O   -0.159361
    13  H    0.000000
    14  O   -0.343079
 Sum of Mulliken charges=   0.00000
 Electronic spatial extent (au):  <R**2>=   841.7392
 Charge=     0.0000 electrons
 Dipole moment (field-independent basis, Debye):
    X=     0.1736    Y=    -1.7333    Z=     1.0072  Tot=     2.0121
 Quadrupole moment (field-independent basis, Debye-Ang):
   XX=   -34.3492   YY=   -36.8005   ZZ=   -39.6903
   XY=     1.3186   XZ=    -0.9026   YZ=    -2.8215
 Traceless Quadrupole moment (field-independent basis, Debye-Ang):
   XX=     2.5974   YY=     0.1462   ZZ=    -2.7436
   XY=     1.3186   XZ=    -0.9026   YZ=    -2.8215
 Octapole moment (field-independent basis, Debye-Ang**2):
  XXX=    71.5182  YYY=    88.7663  ZZZ=    75.2537  XYY=    24.0944
  XXY=    28.9627  XXZ=    20.2655  XZZ=    31.2931  YZZ=    42.2958
  YYZ=    20.9074  XYZ=     2.7313
 Hexadecapole moment (field-independent basis, Debye-Ang**3):
 XXXX=  -298.6143 YYYY=  -545.2905 ZZZZ=  -222.3682 XXXY=   -56.3640
 XXXZ=   -73.2771 YYYX=   -53.6053 YYYZ=   -62.7662 ZZZX=   -89.1515
 ZZZY=   -87.8203 XXYY=  -137.6603 XXZZ=   -92.4770 YYZZ=  -129.2433
 XXYZ=   -21.3336 YYXZ=   -22.7123 ZZXY=   -32.8536
 N-N= 2.544920714598D+02 E-N=-1.229307189949D+03  KE= 3.066403609618D+02
 Variable Step   Value    
 -------- ---- -----------
    35       1   -0.637035
 ------------------------------------------------------------------------
                         Z-MATRIX (ANGSTROMS AND DEGREES)
 CD Cent Atom  N1     Length/X     N2    Alpha/Y     N3     Beta/Z      J
 ------------------------------------------------------------------------
   1   1  C 
   2   2  H     1   1.093772(  1)
   3   3  H     1   1.101194(  2)   2  107.640( 14)
   4   4  C     1   1.523111(  3)   2  110.005( 15)   3  117.782( 26)   0
   5   5  C     4   1.467088(  4)   1  118.988( 16)   2   89.069( 27)   0
   6   6  H     5   1.085345(  5)   4  119.263( 17)   1   -2.809( 28)   0
   7   7  H     5   1.086928(  6)   4  119.452( 18)   1 -156.766( 29)   0
   8   8  C     4   1.508671(  7)   1  116.015( 19)   5 -157.732( 30)   0
   9   9  H     8   1.091013(  8)   4  110.660( 20)   1 -177.388( 31)   0
  10  10  H     8   1.093935(  9)   4  110.507( 21)   1  -57.559( 32)   0
  11  11  H     8   1.094404( 10)   4  110.761( 22)   1   62.175( 33)   0
  12  12  O     1   1.413434( 11)   4  112.329( 23)   5  -30.330( 34)   0
  13  13  H    12   0.966674( 12)   1  105.616( 24)   4  -36.499( 35)   0
  14  14  O     4   1.443929( 13)   1  112.309( 25)  12   36.084( 36)   0
 ------------------------------------------------------------------------
                         Z-Matrix orientation:                         
 ---------------------------------------------------------------------
 Center     Atomic     Atomic              Coordinates (Angstroms)
 Number     Number      Type              X           Y           Z
 ---------------------------------------------------------------------
    1          6             0        0.000000    0.000000    0.000000
    2          1             0        0.000000    0.000000    1.093772
    3          1             0        1.049418    0.000000   -0.333692
    4          6             0       -0.667098   -1.266230   -0.521064
    5          6             0       -2.117040   -1.265556   -0.744708
    6          1             0       -2.692416   -0.380654   -0.491996
    7          1             0       -2.658635   -2.207936   -0.742068
    8          6             0        0.081726   -2.554287   -0.283875
    9          1             0       -0.449371   -3.396154   -0.730533
   10          1             0        1.079754   -2.504923   -0.729069
   11          1             0        0.197018   -2.744304    0.787723
   12          8             0       -0.670245    1.171618   -0.419379
   13          1             0       -0.976314    0.988825   -1.317915
   14          8             0       -1.203789   -1.095661   -1.850650
 ---------------------------------------------------------------------
                    Distance matrix (angstroms):
                    1          2          3          4          5
     1  C    0.000000
     2  H    1.093772   0.000000
     3  H    1.101194   1.771703   0.000000
     4  C    1.523111   2.157789   2.141232   0.000000
     5  C    2.576447   3.076280   3.434679   1.467088   0.000000
     6  H    2.763342   3.147803   3.764476   2.210656   1.085345
     7  H    3.534683   3.913263   4.334906   2.214017   1.086928
     8  C    2.571312   2.903269   2.731902   1.508671   2.589936
     9  H    3.502781   3.881222   3.733325   2.151246   2.705692
    10  H    2.823482   3.280740   2.536115   2.151538   3.428668
    11  H    2.861910   2.768336   3.084698   2.155069   3.144822
    12  O    1.413434   2.027694   2.082612   2.439970   2.852871
    13  H    1.915167   2.783379   2.459687   2.411609   2.590763
    14  O    2.464647   3.364402   2.928920   1.443929   1.444299
                    6          7          8          9         10
     6  H    0.000000
     7  H    1.844624   0.000000
     8  C    3.530419   2.799907   0.000000
     9  H    3.765819   2.508554   1.091013   0.000000
    10  H    4.335665   3.750189   1.093935   1.769892   0.000000
    11  H    3.946309   3.283703   1.094404   1.774212   1.771210
    12  O    2.550294   3.934363   3.803444   4.583683   4.083547
    13  H    2.345766   3.658016   3.839574   4.455415   4.096392
    14  O    2.138501   2.140722   2.496983   2.667598   2.908355
                   11         12         13         14
    11  H    0.000000
    12  O    4.188519   0.000000
    13  H    4.443723   0.966674   0.000000
    14  O    3.411935   2.733818   2.163476   0.000000
                           Interatomic angles:
       H2-C1-H3=107.6395       H2-C1-C4=110.0052       H3-C1-C4=108.2838
       C1-C4-C5=118.9885       C4-C5-H6=119.2628       C4-C5-H7=119.4516
       H6-C5-H7=116.2425       C1-C4-C8=116.0145       C5-C4-C8=120.9911
       C4-C8-H9=110.6598      C4-C8-H10=110.5071      H9-C8-H10=108.1993
      C4-C8-H11=110.7608      H9-C8-H11=108.5524     H10-C8-H11=108.0719
      H2-C1-O12=107.2601      H3-C1-O12=111.2224      C4-C1-O12=112.3287
     C1-O12-H13=105.6162      C1-C4-O14=112.309       C5-C4-O14= 59.4848
      C8-C4-O14=115.4744
 Symmetry turned off by external request.
 Stoichiometry    C4H8O2
 Framework group  C1[X(C4H8O2)]
 Deg. of freedom    36
 Full point group                 C1
 Rotational constants (GHZ):      5.4718015      3.2555200      2.4502893
 Standard basis: CBSB7 (5D, 7F)
 Integral buffers will be    131072 words long.
 Raffenetti 2 integral format.
 Two-electron integral symmetry is turned off.
   156 basis functions,   256 primitive gaussians,   162 cartesian basis functions
    24 alpha electrons       24 beta electrons
       nuclear repulsion energy       254.6697525826 Hartrees.
 NAtoms=   14 NActive=   14 NUniq=   14 SFac= 7.50D-01 NAtFMM=   80 NAOKFM=F Big=F
 One-electron integrals computed using PRISM.
 NBasis=   156 RedAO= T  NBF=   156
 NBsUse=   156 1.00D-06 NBFU=   156
 Initial guess read from the read-write file:
 Harris functional with IExCor=  402 diagonalized for initial guess.
 ExpMin= 1.03D-01 ExpMax= 8.59D+03 ExpMxC= 1.30D+03 IAcc=1 IRadAn=         1 AccDes= 1.00D-06
 HarFok:  IExCor= 402 AccDes= 1.00D-06 IRadAn=         1 IDoV=1
 ScaDFX=  1.000000  1.000000  1.000000  1.000000
 Requested convergence on RMS density matrix=1.00D-08 within 128 cycles.
 Requested convergence on MAX density matrix=1.00D-06.
 Requested convergence on             energy=1.00D-06.
 No special actions if energy rises.
 Keep R1 integrals in memory in canonical form, NReq=    90380467.
 Integral accuracy reduced to 1.0D-05 until final iterations.
 Initial convergence to 1.0D-05 achieved.  Increase integral accuracy.
 SCF Done:  E(RB+HF-LYP) =  -307.729463486     A.U. after   11 cycles
             Convg  =    0.7732D-08             -V/T =  2.0035
             S**2   =   0.0000
 Variable Step   Value    
 -------- ---- -----------
    35       2   -0.462502
 ------------------------------------------------------------------------
                         Z-MATRIX (ANGSTROMS AND DEGREES)
 CD Cent Atom  N1     Length/X     N2    Alpha/Y     N3     Beta/Z      J
 ------------------------------------------------------------------------
   1   1  C 
   2   2  H     1   1.093772(  1)
   3   3  H     1   1.101194(  2)   2  107.640( 14)
   4   4  C     1   1.523111(  3)   2  110.005( 15)   3  117.782( 26)   0
   5   5  C     4   1.467088(  4)   1  118.988( 16)   2   89.069( 27)   0
   6   6  H     5   1.085345(  5)   4  119.263( 17)   1   -2.809( 28)   0
   7   7  H     5   1.086928(  6)   4  119.452( 18)   1 -156.766( 29)   0
   8   8  C     4   1.508671(  7)   1  116.015( 19)   5 -157.732( 30)   0
   9   9  H     8   1.091013(  8)   4  110.660( 20)   1 -177.388( 31)   0
  10  10  H     8   1.093935(  9)   4  110.507( 21)   1  -57.559( 32)   0
  11  11  H     8   1.094404( 10)   4  110.761( 22)   1   62.175( 33)   0
  12  12  O     1   1.413434( 11)   4  112.329( 23)   5  -30.330( 34)   0
  13  13  H    12   0.966674( 12)   1  105.616( 24)   4  -26.499( 35)   0
  14  14  O     4   1.443929( 13)   1  112.309( 25)  12   36.084( 36)   0
 ------------------------------------------------------------------------
                         Z-Matrix orientation:                         
 ---------------------------------------------------------------------
 Center     Atomic     Atomic              Coordinates (Angstroms)
 Number     Number      Type              X           Y           Z
 ---------------------------------------------------------------------
    1          6             0        0.000000    0.000000    0.000000
    2          1             0        0.000000    0.000000    1.093772
    3          1             0        1.049418    0.000000   -0.333692
    4          6             0       -0.667098   -1.266230   -0.521064
    5          6             0       -2.117040   -1.265556   -0.744708
    6          1             0       -2.692416   -0.380654   -0.491996
    7          1             0       -2.658635   -2.207936   -0.742068
    8          6             0        0.081726   -2.554287   -0.283875
    9          1             0       -0.449371   -3.396154   -0.730533
   10          1             0        1.079754   -2.504923   -0.729069
   11          1             0        0.197018   -2.744304    0.787723
   12          8             0       -0.670245    1.171618   -0.419379
   13          1             0       -1.112292    0.936660   -1.246330
   14          8             0       -1.203789   -1.095661   -1.850650
 ---------------------------------------------------------------------
                    Distance matrix (angstroms):
                    1          2          3          4          5
     1  C    0.000000
     2  H    1.093772   0.000000
     3  H    1.101194   1.771703   0.000000
     4  C    1.523111   2.157789   2.141232   0.000000
     5  C    2.576447   3.076280   3.434679   1.467088   0.000000
     6  H    2.763342   3.147803   3.764476   2.210656   1.085345
     7  H    3.534683   3.913263   4.334906   2.214017   1.086928
     8  C    2.571312   2.903269   2.731902   1.508671   2.589936
     9  H    3.502781   3.881222   3.733325   2.151246   2.705692
    10  H    2.823482   3.280740   2.536115   2.151538   3.428668
    11  H    2.861910   2.768336   3.084698   2.155069   3.144822
    12  O    1.413434   2.027694   2.082612   2.439970   2.852871
    13  H    1.915167   2.755105   2.526506   2.361553   2.472023
    14  O    2.464647   3.364402   2.928920   1.443929   1.444299
                    6          7          8          9         10
     6  H    0.000000
     7  H    1.844624   0.000000
     8  C    3.530419   2.799907   0.000000
     9  H    3.765819   2.508554   1.091013   0.000000
    10  H    4.335665   3.750189   1.093935   1.769892   0.000000
    11  H    3.946309   3.283703   1.094404   1.774212   1.771210
    12  O    2.550294   3.934363   3.803444   4.583683   4.083547
    13  H    2.191147   3.540330   3.812966   4.413478   4.113042
    14  O    2.138501   2.140722   2.496983   2.667598   2.908355
                   11         12         13         14
    11  H    0.000000
    12  O    4.188519   0.000000
    13  H    4.404675   0.966674   0.000000
    14  O    3.411935   2.733818   2.122240   0.000000
                           Interatomic angles:
       H2-C1-H3=107.6395       H2-C1-C4=110.0052       H3-C1-C4=108.2838
       C1-C4-C5=118.9885       C4-C5-H6=119.2628       C4-C5-H7=119.4516
       H6-C5-H7=116.2425       C1-C4-C8=116.0145       C5-C4-C8=120.9911
       C4-C8-H9=110.6598      C4-C8-H10=110.5071      H9-C8-H10=108.1993
      C4-C8-H11=110.7608      H9-C8-H11=108.5524     H10-C8-H11=108.0719
      H2-C1-O12=107.2601      H3-C1-O12=111.2224      C4-C1-O12=112.3287
     C1-O12-H13=105.6162      C1-C4-O14=112.309       C5-C4-O14= 59.4848
      C8-C4-O14=115.4744
 Symmetry turned off by external request.
 Stoichiometry    C4H8O2
 Framework group  C1[X(C4H8O2)]
 Deg. of freedom    36
 Full point group                 C1
 Rotational constants (GHZ):      5.4740565      3.2618304      2.4509796
 Standard basis: CBSB7 (5D, 7F)
 Integral buffers will be    131072 words long.
 Raffenetti 2 integral format.
 Two-electron integral symmetry is turned off.
   156 basis functions,   256 primitive gaussians,   162 cartesian basis functions
    24 alpha electrons       24 beta electrons
       nuclear repulsion energy       254.8189675661 Hartrees.
 NAtoms=   14 NActive=   14 NUniq=   14 SFac= 7.50D-01 NAtFMM=   80 NAOKFM=F Big=F
 One-electron integrals computed using PRISM.
 NBasis=   156 RedAO= T  NBF=   156
 NBsUse=   156 1.00D-06 NBFU=   156
 Initial guess read from the read-write file:
 Harris functional with IExCor=  402 diagonalized for initial guess.
 ExpMin= 1.03D-01 ExpMax= 8.59D+03 ExpMxC= 1.30D+03 IAcc=1 IRadAn=         1 AccDes= 1.00D-06
 HarFok:  IExCor= 402 AccDes= 1.00D-06 IRadAn=         1 IDoV=1
 ScaDFX=  1.000000  1.000000  1.000000  1.000000
 Requested convergence on RMS density matrix=1.00D-08 within 128 cycles.
 Requested convergence on MAX density matrix=1.00D-06.
 Requested convergence on             energy=1.00D-06.
 No special actions if energy rises.
 Keep R1 integrals in memory in canonical form, NReq=    90380321.
 Integral accuracy reduced to 1.0D-05 until final iterations.
 Initial convergence to 1.0D-05 achieved.  Increase integral accuracy.
 SCF Done:  E(RB+HF-LYP) =  -307.727955381     A.U. after   11 cycles
             Convg  =    0.8008D-08             -V/T =  2.0035
             S**2   =   0.0000
 Variable Step   Value    
 -------- ---- -----------
    35       3   -0.287969
 ------------------------------------------------------------------------
                         Z-MATRIX (ANGSTROMS AND DEGREES)
 CD Cent Atom  N1     Length/X     N2    Alpha/Y     N3     Beta/Z      J
 ------------------------------------------------------------------------
   1   1  C 
   2   2  H     1   1.093772(  1)
   3   3  H     1   1.101194(  2)   2  107.640( 14)
   4   4  C     1   1.523111(  3)   2  110.005( 15)   3  117.782( 26)   0
   5   5  C     4   1.467088(  4)   1  118.988( 16)   2   89.069( 27)   0
   6   6  H     5   1.085345(  5)   4  119.263( 17)   1   -2.809( 28)   0
   7   7  H     5   1.086928(  6)   4  119.452( 18)   1 -156.766( 29)   0
   8   8  C     4   1.508671(  7)   1  116.015( 19)   5 -157.732( 30)   0
   9   9  H     8   1.091013(  8)   4  110.660( 20)   1 -177.388( 31)   0
  10  10  H     8   1.093935(  9)   4  110.507( 21)   1  -57.559( 32)   0
  11  11  H     8   1.094404( 10)   4  110.761( 22)   1   62.175( 33)   0
  12  12  O     1   1.413434( 11)   4  112.329( 23)   5  -30.330( 34)   0
  13  13  H    12   0.966674( 12)   1  105.616( 24)   4  -16.499( 35)   0
  14  14  O     4   1.443929( 13)   1  112.309( 25)  12   36.084( 36)   0
 ------------------------------------------------------------------------
                         Z-Matrix orientation:                         
 ---------------------------------------------------------------------
 Center     Atomic     Atomic              Coordinates (Angstroms)
 Number     Number      Type              X           Y           Z
 ---------------------------------------------------------------------
    1          6             0        0.000000    0.000000    0.000000
    2          1             0        0.000000    0.000000    1.093772
    3          1             0        1.049418    0.000000   -0.333692
    4          6             0       -0.667098   -1.266230   -0.521064
    5          6             0       -2.117040   -1.265556   -0.744708
    6          1             0       -2.692416   -0.380654   -0.491996
    7          1             0       -2.658635   -2.207936   -0.742068
    8          6             0        0.081726   -2.554287   -0.283875
    9          1             0       -0.449371   -3.396154   -0.730533
   10          1             0        1.079754   -2.504923   -0.729069
   11          1             0        0.197018   -2.744304    0.787723
   12          8             0       -0.670245    1.171618   -0.419379
   13          1             0       -1.238588    0.898188   -1.151964
   14          8             0       -1.203789   -1.095661   -1.850650
 ---------------------------------------------------------------------
                    Distance matrix (angstroms):
                    1          2          3          4          5
     1  C    0.000000
     2  H    1.093772   0.000000
     3  H    1.101194   1.771703   0.000000
     4  C    1.523111   2.157789   2.141232   0.000000
     5  C    2.576447   3.076280   3.434679   1.467088   0.000000
     6  H    2.763342   3.147803   3.764476   2.210656   1.085345
     7  H    3.534683   3.913263   4.334906   2.214017   1.086928
     8  C    2.571312   2.903269   2.731902   1.508671   2.589936
     9  H    3.502781   3.881222   3.733325   2.151246   2.705692
    10  H    2.823482   3.280740   2.536115   2.151538   3.428668
    11  H    2.861910   2.768336   3.084698   2.155069   3.144822
    12  O    1.413434   2.027694   2.082612   2.439970   2.852871
    13  H    1.915167   2.717383   2.590614   2.325799   2.370511
    14  O    2.464647   3.364402   2.928920   1.443929   1.444299
                    6          7          8          9         10
     6  H    0.000000
     7  H    1.844624   0.000000
     8  C    3.530419   2.799907   0.000000
     9  H    3.765819   2.508554   1.091013   0.000000
    10  H    4.335665   3.750189   1.093935   1.769892   0.000000
    11  H    3.946309   3.283703   1.094404   1.774212   1.771210
    12  O    2.550294   3.934363   3.803444   4.583683   4.083547
    13  H    2.045632   3.439848   3.796892   4.386553   4.139410
    14  O    2.138501   2.140722   2.496983   2.667598   2.908355
                   11         12         13         14
    11  H    0.000000
    12  O    4.188519   0.000000
    13  H    4.369337   0.966674   0.000000
    14  O    3.411935   2.733818   2.113009   0.000000
                           Interatomic angles:
       H2-C1-H3=107.6395       H2-C1-C4=110.0052       H3-C1-C4=108.2838
       C1-C4-C5=118.9885       C4-C5-H6=119.2628       C4-C5-H7=119.4516
       H6-C5-H7=116.2425       C1-C4-C8=116.0145       C5-C4-C8=120.9911
       C4-C8-H9=110.6598      C4-C8-H10=110.5071      H9-C8-H10=108.1993
      C4-C8-H11=110.7608      H9-C8-H11=108.5524     H10-C8-H11=108.0719
      H2-C1-O12=107.2601      H3-C1-O12=111.2224      C4-C1-O12=112.3287
     C1-O12-H13=105.6162      C1-C4-O14=112.309       C5-C4-O14= 59.4848
      C8-C4-O14=115.4744
 Symmetry turned off by external request.
 Stoichiometry    C4H8O2
 Framework group  C1[X(C4H8O2)]
 Deg. of freedom    36
 Full point group                 C1
 Rotational constants (GHZ):      5.4758544      3.2663270      2.4512242
 Standard basis: CBSB7 (5D, 7F)
 Integral buffers will be    131072 words long.
 Raffenetti 2 integral format.
 Two-electron integral symmetry is turned off.
   156 basis functions,   256 primitive gaussians,   162 cartesian basis functions
    24 alpha electrons       24 beta electrons
       nuclear repulsion energy       254.9267932548 Hartrees.
 NAtoms=   14 NActive=   14 NUniq=   14 SFac= 7.50D-01 NAtFMM=   80 NAOKFM=F Big=F
 One-electron integrals computed using PRISM.
 NBasis=   156 RedAO= T  NBF=   156
 NBsUse=   156 1.00D-06 NBFU=   156
 Initial guess read from the read-write file:
 Harris functional with IExCor=  402 diagonalized for initial guess.
 ExpMin= 1.03D-01 ExpMax= 8.59D+03 ExpMxC= 1.30D+03 IAcc=1 IRadAn=         1 AccDes= 1.00D-06
 HarFok:  IExCor= 402 AccDes= 1.00D-06 IRadAn=         1 IDoV=1
 ScaDFX=  1.000000  1.000000  1.000000  1.000000
 Requested convergence on RMS density matrix=1.00D-08 within 128 cycles.
 Requested convergence on MAX density matrix=1.00D-06.
 Requested convergence on             energy=1.00D-06.
 No special actions if energy rises.
 Keep R1 integrals in memory in canonical form, NReq=    90380321.
 Integral accuracy reduced to 1.0D-05 until final iterations.
 Initial convergence to 1.0D-05 achieved.  Increase integral accuracy.
 SCF Done:  E(RB+HF-LYP) =  -307.725496638     A.U. after   11 cycles
             Convg  =    0.8091D-08             -V/T =  2.0035
             S**2   =   0.0000
 Variable Step   Value    
 -------- ---- -----------
    35       4   -0.113436
 ------------------------------------------------------------------------
                         Z-MATRIX (ANGSTROMS AND DEGREES)
 CD Cent Atom  N1     Length/X     N2    Alpha/Y     N3     Beta/Z      J
 ------------------------------------------------------------------------
   1   1  C 
   2   2  H     1   1.093772(  1)
   3   3  H     1   1.101194(  2)   2  107.640( 14)
   4   4  C     1   1.523111(  3)   2  110.005( 15)   3  117.782( 26)   0
   5   5  C     4   1.467088(  4)   1  118.988( 16)   2   89.069( 27)   0
   6   6  H     5   1.085345(  5)   4  119.263( 17)   1   -2.809( 28)   0
   7   7  H     5   1.086928(  6)   4  119.452( 18)   1 -156.766( 29)   0
   8   8  C     4   1.508671(  7)   1  116.015( 19)   5 -157.732( 30)   0
   9   9  H     8   1.091013(  8)   4  110.660( 20)   1 -177.388( 31)   0
  10  10  H     8   1.093935(  9)   4  110.507( 21)   1  -57.559( 32)   0
  11  11  H     8   1.094404( 10)   4  110.761( 22)   1   62.175( 33)   0
  12  12  O     1   1.413434( 11)   4  112.329( 23)   5  -30.330( 34)   0
  13  13  H    12   0.966674( 12)   1  105.616( 24)   4   -6.499( 35)   0
  14  14  O     4   1.443929( 13)   1  112.309( 25)  12   36.084( 36)   0
 ------------------------------------------------------------------------
                         Z-Matrix orientation:                         
 ---------------------------------------------------------------------
 Center     Atomic     Atomic              Coordinates (Angstroms)
 Number     Number      Type              X           Y           Z
 ---------------------------------------------------------------------
    1          6             0        0.000000    0.000000    0.000000
    2          1             0        0.000000    0.000000    1.093772
    3          1             0        1.049418    0.000000   -0.333692
    4          6             0       -0.667098   -1.266230   -0.521064
    5          6             0       -2.117040   -1.265556   -0.744708
    6          1             0       -2.692416   -0.380654   -0.491996
    7          1             0       -2.658635   -2.207936   -0.742068
    8          6             0        0.081726   -2.554287   -0.283875
    9          1             0       -0.449371   -3.396154   -0.730533
   10          1             0        1.079754   -2.504923   -0.729069
   11          1             0        0.197018   -2.744304    0.787723
   12          8             0       -0.670245    1.171618   -0.419379
   13          1             0       -1.351364    0.874579   -1.037685
   14          8             0       -1.203789   -1.095661   -1.850650
 ---------------------------------------------------------------------
                    Distance matrix (angstroms):
                    1          2          3          4          5
     1  C    0.000000
     2  H    1.093772   0.000000
     3  H    1.101194   1.771703   0.000000
     4  C    1.523111   2.157789   2.141232   0.000000
     5  C    2.576447   3.076280   3.434679   1.467088   0.000000
     6  H    2.763342   3.147803   3.764476   2.210656   1.085345
     7  H    3.534683   3.913263   4.334906   2.214017   1.086928
     8  C    2.571312   2.903269   2.731902   1.508671   2.589936
     9  H    3.502781   3.881222   3.733325   2.151246   2.705692
    10  H    2.823482   3.280740   2.536115   2.151538   3.428668
    11  H    2.861910   2.768336   3.084698   2.155069   3.144822
    12  O    1.413434   2.027694   2.082612   2.439970   2.852871
    13  H    1.915167   2.670989   2.650330   2.306118   2.291783
    14  O    2.464647   3.364402   2.928920   1.443929   1.444299
                    6          7          8          9         10
     6  H    0.000000
     7  H    1.844624   0.000000
     8  C    3.530419   2.799907   0.000000
     9  H    3.765819   2.508554   1.091013   0.000000
    10  H    4.335665   3.750189   1.093935   1.769892   0.000000
    11  H    3.946309   3.283703   1.094404   1.774212   1.771210
    12  O    2.550294   3.934363   3.803444   4.583683   4.083547
    13  H    1.916195   3.361286   3.791978   4.375739   4.174519
    14  O    2.138501   2.140722   2.496983   2.667598   2.908355
                   11         12         13         14
    11  H    0.000000
    12  O    4.188519   0.000000
    13  H    4.338884   0.966674   0.000000
    14  O    3.411935   2.733818   2.136477   0.000000
                           Interatomic angles:
       H2-C1-H3=107.6395       H2-C1-C4=110.0052       H3-C1-C4=108.2838
       C1-C4-C5=118.9885       C4-C5-H6=119.2628       C4-C5-H7=119.4516
       H6-C5-H7=116.2425       C1-C4-C8=116.0145       C5-C4-C8=120.9911
       C4-C8-H9=110.6598      C4-C8-H10=110.5071      H9-C8-H10=108.1993
      C4-C8-H11=110.7608      H9-C8-H11=108.5524     H10-C8-H11=108.0719
      H2-C1-O12=107.2601      H3-C1-O12=111.2224      C4-C1-O12=112.3287
     C1-O12-H13=105.6162      C1-C4-O14=112.309       C5-C4-O14= 59.4848
      C8-C4-O14=115.4744
 Symmetry turned off by external request.
 Stoichiometry    C4H8O2
 Framework group  C1[X(C4H8O2)]
 Deg. of freedom    36
 Full point group                 C1
 Rotational constants (GHZ):      5.4769535      3.2687340      2.4511222
 Standard basis: CBSB7 (5D, 7F)
 Integral buffers will be    131072 words long.
 Raffenetti 2 integral format.
 Two-electron integral symmetry is turned off.
   156 basis functions,   256 primitive gaussians,   162 cartesian basis functions
    24 alpha electrons       24 beta electrons
       nuclear repulsion energy       254.9834545649 Hartrees.
 NAtoms=   14 NActive=   14 NUniq=   14 SFac= 7.50D-01 NAtFMM=   80 NAOKFM=F Big=F
 One-electron integrals computed using PRISM.
 NBasis=   156 RedAO= T  NBF=   156
 NBsUse=   156 1.00D-06 NBFU=   156
 Initial guess read from the read-write file:
 Harris functional with IExCor=  402 diagonalized for initial guess.
 ExpMin= 1.03D-01 ExpMax= 8.59D+03 ExpMxC= 1.30D+03 IAcc=1 IRadAn=         1 AccDes= 1.00D-06
 HarFok:  IExCor= 402 AccDes= 1.00D-06 IRadAn=         1 IDoV=1
 ScaDFX=  1.000000  1.000000  1.000000  1.000000
 Requested convergence on RMS density matrix=1.00D-08 within 128 cycles.
 Requested convergence on MAX density matrix=1.00D-06.
 Requested convergence on             energy=1.00D-06.
 No special actions if energy rises.
 Keep R1 integrals in memory in canonical form, NReq=    90380321.
 Integral accuracy reduced to 1.0D-05 until final iterations.
 Initial convergence to 1.0D-05 achieved.  Increase integral accuracy.
 SCF Done:  E(RB+HF-LYP) =  -307.722498901     A.U. after   11 cycles
             Convg  =    0.8803D-08             -V/T =  2.0035
             S**2   =   0.0000
 Variable Step   Value    
 -------- ---- -----------
    35       5    0.061097
 ------------------------------------------------------------------------
                         Z-MATRIX (ANGSTROMS AND DEGREES)
 CD Cent Atom  N1     Length/X     N2    Alpha/Y     N3     Beta/Z      J
 ------------------------------------------------------------------------
   1   1  C 
   2   2  H     1   1.093772(  1)
   3   3  H     1   1.101194(  2)   2  107.640( 14)
   4   4  C     1   1.523111(  3)   2  110.005( 15)   3  117.782( 26)   0
   5   5  C     4   1.467088(  4)   1  118.988( 16)   2   89.069( 27)   0
   6   6  H     5   1.085345(  5)   4  119.263( 17)   1   -2.809( 28)   0
   7   7  H     5   1.086928(  6)   4  119.452( 18)   1 -156.766( 29)   0
   8   8  C     4   1.508671(  7)   1  116.015( 19)   5 -157.732( 30)   0
   9   9  H     8   1.091013(  8)   4  110.660( 20)   1 -177.388( 31)   0
  10  10  H     8   1.093935(  9)   4  110.507( 21)   1  -57.559( 32)   0
  11  11  H     8   1.094404( 10)   4  110.761( 22)   1   62.175( 33)   0
  12  12  O     1   1.413434( 11)   4  112.329( 23)   5  -30.330( 34)   0
  13  13  H    12   0.966674( 12)   1  105.616( 24)   4    3.501( 35)   0
  14  14  O     4   1.443929( 13)   1  112.309( 25)  12   36.084( 36)   0
 ------------------------------------------------------------------------
                         Z-Matrix orientation:                         
 ---------------------------------------------------------------------
 Center     Atomic     Atomic              Coordinates (Angstroms)
 Number     Number      Type              X           Y           Z
 ---------------------------------------------------------------------
    1          6             0        0.000000    0.000000    0.000000
    2          1             0        0.000000    0.000000    1.093772
    3          1             0        1.049418    0.000000   -0.333692
    4          6             0       -0.667098   -1.266230   -0.521064
    5          6             0       -2.117040   -1.265556   -0.744708
    6          1             0       -2.692416   -0.380654   -0.491996
    7          1             0       -2.658635   -2.207936   -0.742068
    8          6             0        0.081726   -2.554287   -0.283875
    9          1             0       -0.449371   -3.396154   -0.730533
   10          1             0        1.079754   -2.504923   -0.729069
   11          1             0        0.197018   -2.744304    0.787723
   12          8             0       -0.670245    1.171618   -0.419379
   13          1             0       -1.447195    0.866549   -0.906965
   14          8             0       -1.203789   -1.095661   -1.850650
 ---------------------------------------------------------------------
                    Distance matrix (angstroms):
                    1          2          3          4          5
     1  C    0.000000
     2  H    1.093772   0.000000
     3  H    1.101194   1.771703   0.000000
     4  C    1.523111   2.157789   2.141232   0.000000
     5  C    2.576447   3.076280   3.434679   1.467088   0.000000
     6  H    2.763342   3.147803   3.764476   2.210656   1.085345
     7  H    3.534683   3.913263   4.334906   2.214017   1.086928
     8  C    2.571312   2.903269   2.731902   1.508671   2.589936
     9  H    3.502781   3.881222   3.733325   2.151246   2.705692
    10  H    2.823482   3.280740   2.536115   2.151538   3.428668
    11  H    2.861910   2.768336   3.084698   2.155069   3.144822
    12  O    1.413434   2.027694   2.082612   2.439970   2.852871
    13  H    1.915167   2.616912   2.704186   2.303522   2.240734
    14  O    2.464647   3.364402   2.928920   1.443929   1.444299
                    6          7          8          9         10
     6  H    0.000000
     7  H    1.844624   0.000000
     8  C    3.530419   2.799907   0.000000
     9  H    3.765819   2.508554   1.091013   0.000000
    10  H    4.335665   3.750189   1.093935   1.769892   0.000000
    11  H    3.946309   3.283703   1.094404   1.774212   1.771210
    12  O    2.550294   3.934363   3.803444   4.583683   4.083547
    13  H    1.810605   3.308660   3.798415   4.381485   4.217100
    14  O    2.138501   2.140722   2.496983   2.667598   2.908355
                   11         12         13         14
    11  H    0.000000
    12  O    4.188519   0.000000
    13  H    4.314355   0.966674   0.000000
    14  O    3.411935   2.733818   2.190902   0.000000
                           Interatomic angles:
       H2-C1-H3=107.6395       H2-C1-C4=110.0052       H3-C1-C4=108.2838
       C1-C4-C5=118.9885       C4-C5-H6=119.2628       C4-C5-H7=119.4516
       H6-C5-H7=116.2425       C1-C4-C8=116.0145       C5-C4-C8=120.9911
       C4-C8-H9=110.6598      C4-C8-H10=110.5071      H9-C8-H10=108.1993
      C4-C8-H11=110.7608      H9-C8-H11=108.5524     H10-C8-H11=108.0719
      H2-C1-O12=107.2601      H3-C1-O12=111.2224      C4-C1-O12=112.3287
     C1-O12-H13=105.6162      C1-C4-O14=112.309       C5-C4-O14= 59.4848
      C8-C4-O14=115.4744
 Symmetry turned off by external request.
 Stoichiometry    C4H8O2
 Framework group  C1[X(C4H8O2)]
 Deg. of freedom    36
 Full point group                 C1
 Rotational constants (GHZ):      5.4772349      3.2688899      2.4507382
 Standard basis: CBSB7 (5D, 7F)
 Integral buffers will be    131072 words long.
 Raffenetti 2 integral format.
 Two-electron integral symmetry is turned off.
   156 basis functions,   256 primitive gaussians,   162 cartesian basis functions
    24 alpha electrons       24 beta electrons
       nuclear repulsion energy       254.9839084465 Hartrees.
 NAtoms=   14 NActive=   14 NUniq=   14 SFac= 7.50D-01 NAtFMM=   80 NAOKFM=F Big=F
 One-electron integrals computed using PRISM.
 NBasis=   156 RedAO= T  NBF=   156
 NBsUse=   156 1.00D-06 NBFU=   156
 Initial guess read from the read-write file:
 Harris functional with IExCor=  402 diagonalized for initial guess.
 ExpMin= 1.03D-01 ExpMax= 8.59D+03 ExpMxC= 1.30D+03 IAcc=1 IRadAn=         1 AccDes= 1.00D-06
 HarFok:  IExCor= 402 AccDes= 1.00D-06 IRadAn=         1 IDoV=1
 ScaDFX=  1.000000  1.000000  1.000000  1.000000
 Requested convergence on RMS density matrix=1.00D-08 within 128 cycles.
 Requested convergence on MAX density matrix=1.00D-06.
 Requested convergence on             energy=1.00D-06.
 No special actions if energy rises.
 Keep R1 integrals in memory in canonical form, NReq=    90380321.
 Integral accuracy reduced to 1.0D-05 until final iterations.
 Initial convergence to 1.0D-05 achieved.  Increase integral accuracy.
 SCF Done:  E(RB+HF-LYP) =  -307.719603664     A.U. after   12 cycles
             Convg  =    0.3041D-08             -V/T =  2.0034
             S**2   =   0.0000
 Variable Step   Value    
 -------- ---- -----------
    35       6    0.235630
 ------------------------------------------------------------------------
                         Z-MATRIX (ANGSTROMS AND DEGREES)
 CD Cent Atom  N1     Length/X     N2    Alpha/Y     N3     Beta/Z      J
 ------------------------------------------------------------------------
   1   1  C 
   2   2  H     1   1.093772(  1)
   3   3  H     1   1.101194(  2)   2  107.640( 14)
   4   4  C     1   1.523111(  3)   2  110.005( 15)   3  117.782( 26)   0
   5   5  C     4   1.467088(  4)   1  118.988( 16)   2   89.069( 27)   0
   6   6  H     5   1.085345(  5)   4  119.263( 17)   1   -2.809( 28)   0
   7   7  H     5   1.086928(  6)   4  119.452( 18)   1 -156.766( 29)   0
   8   8  C     4   1.508671(  7)   1  116.015( 19)   5 -157.732( 30)   0
   9   9  H     8   1.091013(  8)   4  110.660( 20)   1 -177.388( 31)   0
  10  10  H     8   1.093935(  9)   4  110.507( 21)   1  -57.559( 32)   0
  11  11  H     8   1.094404( 10)   4  110.761( 22)   1   62.175( 33)   0
  12  12  O     1   1.413434( 11)   4  112.329( 23)   5  -30.330( 34)   0
  13  13  H    12   0.966674( 12)   1  105.616( 24)   4   13.501( 35)   0
  14  14  O     4   1.443929( 13)   1  112.309( 25)  12   36.084( 36)   0
 ------------------------------------------------------------------------
                         Z-Matrix orientation:                         
 ---------------------------------------------------------------------
 Center     Atomic     Atomic              Coordinates (Angstroms)
 Number     Number      Type              X           Y           Z
 ---------------------------------------------------------------------
    1          6             0        0.000000    0.000000    0.000000
    2          1             0        0.000000    0.000000    1.093772
    3          1             0        1.049418    0.000000   -0.333692
    4          6             0       -0.667098   -1.266230   -0.521064
    5          6             0       -2.117040   -1.265556   -0.744708
    6          1             0       -2.692416   -0.380654   -0.491996
    7          1             0       -2.658635   -2.207936   -0.742068
    8          6             0        0.081726   -2.554287   -0.283875
    9          1             0       -0.449371   -3.396154   -0.730533
   10          1             0        1.079754   -2.504923   -0.729069
   11          1             0        0.197018   -2.744304    0.787723
   12          8             0       -0.670245    1.171618   -0.419379
   13          1             0       -1.523167    0.874342   -0.763776
   14          8             0       -1.203789   -1.095661   -1.850650
 ---------------------------------------------------------------------
                    Distance matrix (angstroms):
                    1          2          3          4          5
     1  C    0.000000
     2  H    1.093772   0.000000
     3  H    1.101194   1.771703   0.000000
     4  C    1.523111   2.157789   2.141232   0.000000
     5  C    2.576447   3.076280   3.434679   1.467088   0.000000
     6  H    2.763342   3.147803   3.764476   2.210656   1.085345
     7  H    3.534683   3.913263   4.334906   2.214017   1.086928
     8  C    2.571312   2.903269   2.731902   1.508671   2.589936
     9  H    3.502781   3.881222   3.733325   2.151246   2.705692
    10  H    2.823482   3.280740   2.536115   2.151538   3.428668
    11  H    2.861910   2.768336   3.084698   2.155069   3.144822
    12  O    1.413434   2.027694   2.082612   2.439970   2.852871
    13  H    1.915167   2.556364   2.750934   2.318148   2.220858
    14  O    2.464647   3.364402   2.928920   1.443929   1.444299
                    6          7          8          9         10
     6  H    0.000000
     7  H    1.844624   0.000000
     8  C    3.530419   2.799907   0.000000
     9  H    3.765819   2.508554   1.091013   0.000000
    10  H    4.335665   3.750189   1.093935   1.769892   0.000000
    11  H    3.946309   3.283703   1.094404   1.774212   1.771210
    12  O    2.550294   3.934363   3.803444   4.583683   4.083547
    13  H    1.736670   3.284843   3.815951   4.403552   4.265657
    14  O    2.138501   2.140722   2.496983   2.667598   2.908355
                   11         12         13         14
    11  H    0.000000
    12  O    4.188519   0.000000
    13  H    4.296601   0.966674   0.000000
    14  O    3.411935   2.733818   2.272489   0.000000
                           Interatomic angles:
       H2-C1-H3=107.6395       H2-C1-C4=110.0052       H3-C1-C4=108.2838
       C1-C4-C5=118.9885       C4-C5-H6=119.2628       C4-C5-H7=119.4516
       H6-C5-H7=116.2425       C1-C4-C8=116.0145       C5-C4-C8=120.9911
       C4-C8-H9=110.6598      C4-C8-H10=110.5071      H9-C8-H10=108.1993
      C4-C8-H11=110.7608      H9-C8-H11=108.5524     H10-C8-H11=108.0719
      H2-C1-O12=107.2601      H3-C1-O12=111.2224      C4-C1-O12=112.3287
     C1-O12-H13=105.6162      C1-C4-O14=112.309       C5-C4-O14= 59.4848
      C8-C4-O14=115.4744
 Symmetry turned off by external request.
 Stoichiometry    C4H8O2
 Framework group  C1[X(C4H8O2)]
 Deg. of freedom    36
 Full point group                 C1
 Rotational constants (GHZ):      5.4767165      3.2667628      2.4500936
 Standard basis: CBSB7 (5D, 7F)
 Integral buffers will be    131072 words long.
 Raffenetti 2 integral format.
 Two-electron integral symmetry is turned off.
   156 basis functions,   256 primitive gaussians,   162 cartesian basis functions
    24 alpha electrons       24 beta electrons
       nuclear repulsion energy       254.9282195516 Hartrees.
 NAtoms=   14 NActive=   14 NUniq=   14 SFac= 7.50D-01 NAtFMM=   80 NAOKFM=F Big=F
 One-electron integrals computed using PRISM.
 NBasis=   156 RedAO= T  NBF=   156
 NBsUse=   156 1.00D-06 NBFU=   156
 Initial guess read from the read-write file:
 Harris functional with IExCor=  402 diagonalized for initial guess.
 ExpMin= 1.03D-01 ExpMax= 8.59D+03 ExpMxC= 1.30D+03 IAcc=1 IRadAn=         1 AccDes= 1.00D-06
 HarFok:  IExCor= 402 AccDes= 1.00D-06 IRadAn=         1 IDoV=1
 ScaDFX=  1.000000  1.000000  1.000000  1.000000
 Requested convergence on RMS density matrix=1.00D-08 within 128 cycles.
 Requested convergence on MAX density matrix=1.00D-06.
 Requested convergence on             energy=1.00D-06.
 No special actions if energy rises.
 Keep R1 integrals in memory in canonical form, NReq=    90380321.
 Integral accuracy reduced to 1.0D-05 until final iterations.
 Initial convergence to 1.0D-05 achieved.  Increase integral accuracy.
 SCF Done:  E(RB+HF-LYP) =  -307.717416661     A.U. after   12 cycles
             Convg  =    0.3090D-08             -V/T =  2.0034
             S**2   =   0.0000
 Variable Step   Value    
 -------- ---- -----------
    35       7    0.410163
 ------------------------------------------------------------------------
                         Z-MATRIX (ANGSTROMS AND DEGREES)
 CD Cent Atom  N1     Length/X     N2    Alpha/Y     N3     Beta/Z      J
 ------------------------------------------------------------------------
   1   1  C 
   2   2  H     1   1.093772(  1)
   3   3  H     1   1.101194(  2)   2  107.640( 14)
   4   4  C     1   1.523111(  3)   2  110.005( 15)   3  117.782( 26)   0
   5   5  C     4   1.467088(  4)   1  118.988( 16)   2   89.069( 27)   0
   6   6  H     5   1.085345(  5)   4  119.263( 17)   1   -2.809( 28)   0
   7   7  H     5   1.086928(  6)   4  119.452( 18)   1 -156.766( 29)   0
   8   8  C     4   1.508671(  7)   1  116.015( 19)   5 -157.732( 30)   0
   9   9  H     8   1.091013(  8)   4  110.660( 20)   1 -177.388( 31)   0
  10  10  H     8   1.093935(  9)   4  110.507( 21)   1  -57.559( 32)   0
  11  11  H     8   1.094404( 10)   4  110.761( 22)   1   62.175( 33)   0
  12  12  O     1   1.413434( 11)   4  112.329( 23)   5  -30.330( 34)   0
  13  13  H    12   0.966674( 12)   1  105.616( 24)   4   23.501( 35)   0
  14  14  O     4   1.443929( 13)   1  112.309( 25)  12   36.084( 36)   0
 ------------------------------------------------------------------------
                         Z-Matrix orientation:                         
 ---------------------------------------------------------------------
 Center     Atomic     Atomic              Coordinates (Angstroms)
 Number     Number      Type              X           Y           Z
 ---------------------------------------------------------------------
    1          6             0        0.000000    0.000000    0.000000
    2          1             0        0.000000    0.000000    1.093772
    3          1             0        1.049418    0.000000   -0.333692
    4          6             0       -0.667098   -1.266230   -0.521064
    5          6             0       -2.117040   -1.265556   -0.744708
    6          1             0       -2.692416   -0.380654   -0.491996
    7          1             0       -2.658635   -2.207936   -0.742068
    8          6             0        0.081726   -2.554287   -0.283875
    9          1             0       -0.449371   -3.396154   -0.730533
   10          1             0        1.079754   -2.504923   -0.729069
   11          1             0        0.197018   -2.744304    0.787723
   12          8             0       -0.670245    1.171618   -0.419379
   13          1             0       -1.576973    0.897721   -0.612469
   14          8             0       -1.203789   -1.095661   -1.850650
 ---------------------------------------------------------------------
                    Distance matrix (angstroms):
                    1          2          3          4          5
     1  C    0.000000
     2  H    1.093772   0.000000
     3  H    1.101194   1.771703   0.000000
     4  C    1.523111   2.157789   2.141232   0.000000
     5  C    2.576447   3.076280   3.434679   1.467088   0.000000
     6  H    2.763342   3.147803   3.764476   2.210656   1.085345
     7  H    3.534683   3.913263   4.334906   2.214017   1.086928
     8  C    2.571312   2.903269   2.731902   1.508671   2.589936
     9  H    3.502781   3.881222   3.733325   2.151246   2.705692
    10  H    2.823482   3.280740   2.536115   2.151538   3.428668
    11  H    2.861910   2.768336   3.084698   2.155069   3.144822
    12  O    1.413434   2.027694   2.082612   2.439970   2.852871
    13  H    1.915167   2.490784   2.789542   2.349236   2.233591
    14  O    2.464647   3.364402   2.928920   1.443929   1.444299
                    6          7          8          9         10
     6  H    0.000000
     7  H    1.844624   0.000000
     8  C    3.530419   2.799907   0.000000
     9  H    3.765819   2.508554   1.091013   0.000000
    10  H    4.335665   3.750189   1.093935   1.769892   0.000000
    11  H    3.946309   3.283703   1.094404   1.774212   1.771210
    12  O    2.550294   3.934363   3.803444   4.583683   4.083547
    13  H    1.700874   3.291184   3.843906   4.441035   4.318539
    14  O    2.138501   2.140722   2.496983   2.667598   2.908355
                   11         12         13         14
    11  H    0.000000
    12  O    4.188519   0.000000
    13  H    4.286249   0.966674   0.000000
    14  O    3.411935   2.733818   2.376117   0.000000
                           Interatomic angles:
       H2-C1-H3=107.6395       H2-C1-C4=110.0052       H3-C1-C4=108.2838
       C1-C4-C5=118.9885       C4-C5-H6=119.2628       C4-C5-H7=119.4516
       H6-C5-H7=116.2425       C1-C4-C8=116.0145       C5-C4-C8=120.9911
       C4-C8-H9=110.6598      C4-C8-H10=110.5071      H9-C8-H10=108.1993
      C4-C8-H11=110.7608      H9-C8-H11=108.5524     H10-C8-H11=108.0719
      H2-C1-O12=107.2601      H3-C1-O12=111.2224      C4-C1-O12=112.3287
     C1-O12-H13=105.6162      C1-C4-O14=112.309       C5-C4-O14= 59.4848
      C8-C4-O14=115.4744
 Symmetry turned off by external request.
 Stoichiometry    C4H8O2
 Framework group  C1[X(C4H8O2)]
 Deg. of freedom    36
 Full point group                 C1
 Rotational constants (GHZ):      5.4755489      3.2624548      2.4491653
 Standard basis: CBSB7 (5D, 7F)
 Integral buffers will be    131072 words long.
 Raffenetti 2 integral format.
 Two-electron integral symmetry is turned off.
   156 basis functions,   256 primitive gaussians,   162 cartesian basis functions
    24 alpha electrons       24 beta electrons
       nuclear repulsion energy       254.8213023056 Hartrees.
 NAtoms=   14 NActive=   14 NUniq=   14 SFac= 7.50D-01 NAtFMM=   80 NAOKFM=F Big=F
 One-electron integrals computed using PRISM.
 NBasis=   156 RedAO= T  NBF=   156
 NBsUse=   156 1.00D-06 NBFU=   156
 Initial guess read from the read-write file:
 Harris functional with IExCor=  402 diagonalized for initial guess.
 ExpMin= 1.03D-01 ExpMax= 8.59D+03 ExpMxC= 1.30D+03 IAcc=1 IRadAn=         1 AccDes= 1.00D-06
 HarFok:  IExCor= 402 AccDes= 1.00D-06 IRadAn=         1 IDoV=1
 ScaDFX=  1.000000  1.000000  1.000000  1.000000
 Requested convergence on RMS density matrix=1.00D-08 within 128 cycles.
 Requested convergence on MAX density matrix=1.00D-06.
 Requested convergence on             energy=1.00D-06.
 No special actions if energy rises.
 Keep R1 integrals in memory in canonical form, NReq=    90380467.
 Integral accuracy reduced to 1.0D-05 until final iterations.
 Initial convergence to 1.0D-05 achieved.  Increase integral accuracy.
 SCF Done:  E(RB+HF-LYP) =  -307.716263190     A.U. after   11 cycles
             Convg  =    0.9691D-08             -V/T =  2.0034
             S**2   =   0.0000
 Variable Step   Value    
 -------- ---- -----------
    35       8    0.584696
 ------------------------------------------------------------------------
                         Z-MATRIX (ANGSTROMS AND DEGREES)
 CD Cent Atom  N1     Length/X     N2    Alpha/Y     N3     Beta/Z      J
 ------------------------------------------------------------------------
   1   1  C 
   2   2  H     1   1.093772(  1)
   3   3  H     1   1.101194(  2)   2  107.640( 14)
   4   4  C     1   1.523111(  3)   2  110.005( 15)   3  117.782( 26)   0
   5   5  C     4   1.467088(  4)   1  118.988( 16)   2   89.069( 27)   0
   6   6  H     5   1.085345(  5)   4  119.263( 17)   1   -2.809( 28)   0
   7   7  H     5   1.086928(  6)   4  119.452( 18)   1 -156.766( 29)   0
   8   8  C     4   1.508671(  7)   1  116.015( 19)   5 -157.732( 30)   0
   9   9  H     8   1.091013(  8)   4  110.660( 20)   1 -177.388( 31)   0
  10  10  H     8   1.093935(  9)   4  110.507( 21)   1  -57.559( 32)   0
  11  11  H     8   1.094404( 10)   4  110.761( 22)   1   62.175( 33)   0
  12  12  O     1   1.413434( 11)   4  112.329( 23)   5  -30.330( 34)   0
  13  13  H    12   0.966674( 12)   1  105.616( 24)   4   33.501( 35)   0
  14  14  O     4   1.443929( 13)   1  112.309( 25)  12   36.084( 36)   0
 ------------------------------------------------------------------------
                         Z-Matrix orientation:                         
 ---------------------------------------------------------------------
 Center     Atomic     Atomic              Coordinates (Angstroms)
 Number     Number      Type              X           Y           Z
 ---------------------------------------------------------------------
    1          6             0        0.000000    0.000000    0.000000
    2          1             0        0.000000    0.000000    1.093772
    3          1             0        1.049418    0.000000   -0.333692
    4          6             0       -0.667098   -1.266230   -0.521064
    5          6             0       -2.117040   -1.265556   -0.744708
    6          1             0       -2.692416   -0.380654   -0.491996
    7          1             0       -2.658635   -2.207936   -0.742068
    8          6             0        0.081726   -2.554287   -0.283875
    9          1             0       -0.449371   -3.396154   -0.730533
   10          1             0        1.079754   -2.504923   -0.729069
   11          1             0        0.197018   -2.744304    0.787723
   12          8             0       -0.670245    1.171618   -0.419379
   13          1             0       -1.606977    0.935977   -0.457641
   14          8             0       -1.203789   -1.095661   -1.850650
 ---------------------------------------------------------------------
                    Distance matrix (angstroms):
                    1          2          3          4          5
     1  C    0.000000
     2  H    1.093772   0.000000
     3  H    1.101194   1.771703   0.000000
     4  C    1.523111   2.157789   2.141232   0.000000
     5  C    2.576447   3.076280   3.434679   1.467088   0.000000
     6  H    2.763342   3.147803   3.764476   2.210656   1.085345
     7  H    3.534683   3.913263   4.334906   2.214017   1.086928
     8  C    2.571312   2.903269   2.731902   1.508671   2.589936
     9  H    3.502781   3.881222   3.733325   2.151246   2.705692
    10  H    2.823482   3.280740   2.536115   2.151538   3.428668
    11  H    2.861910   2.768336   3.084698   2.155069   3.144822
    12  O    1.413434   2.027694   2.082612   2.439970   2.852871
    13  H    1.915167   2.421840   2.819193   2.395227   2.278008
    14  O    2.464647   3.364402   2.928920   1.443929   1.444299
                    6          7          8          9         10
     6  H    0.000000
     7  H    1.844624   0.000000
     8  C    3.530419   2.799907   0.000000
     9  H    3.765819   2.508554   1.091013   0.000000
    10  H    4.335665   3.750189   1.093935   1.769892   0.000000
    11  H    3.946309   3.283703   1.094404   1.774212   1.771210
    12  O    2.550294   3.934363   3.803444   4.583683   4.083547
    13  H    1.706715   3.327322   3.881218   4.492425   4.374013
    14  O    2.138501   2.140722   2.496983   2.667598   2.908355
                   11         12         13         14
    11  H    0.000000
    12  O    4.188519   0.000000
    13  H    4.283667   0.966674   0.000000
    14  O    3.411935   2.733818   2.496115   0.000000
                           Interatomic angles:
       H2-C1-H3=107.6395       H2-C1-C4=110.0052       H3-C1-C4=108.2838
       C1-C4-C5=118.9885       C4-C5-H6=119.2628       C4-C5-H7=119.4516
       H6-C5-H7=116.2425       C1-C4-C8=116.0145       C5-C4-C8=120.9911
       C4-C8-H9=110.6598      C4-C8-H10=110.5071      H9-C8-H10=108.1993
      C4-C8-H11=110.7608      H9-C8-H11=108.5524     H10-C8-H11=108.0719
      H2-C1-O12=107.2601      H3-C1-O12=111.2224      C4-C1-O12=112.3287
     C1-O12-H13=105.6162      C1-C4-O14=112.309       C5-C4-O14= 59.4848
      C8-C4-O14=115.4744
 Symmetry turned off by external request.
 Stoichiometry    C4H8O2
 Framework group  C1[X(C4H8O2)]
 Deg. of freedom    36
 Full point group                 C1
 Rotational constants (GHZ):      5.4739937      3.2561939      2.4478916
 Standard basis: CBSB7 (5D, 7F)
 Integral buffers will be    131072 words long.
 Raffenetti 2 integral format.
 Two-electron integral symmetry is turned off.
   156 basis functions,   256 primitive gaussians,   162 cartesian basis functions
    24 alpha electrons       24 beta electrons
       nuclear repulsion energy       254.6724422188 Hartrees.
 NAtoms=   14 NActive=   14 NUniq=   14 SFac= 7.50D-01 NAtFMM=   80 NAOKFM=F Big=F
 One-electron integrals computed using PRISM.
 NBasis=   156 RedAO= T  NBF=   156
 NBsUse=   156 1.00D-06 NBFU=   156
 Initial guess read from the read-write file:
 Harris functional with IExCor=  402 diagonalized for initial guess.
 ExpMin= 1.03D-01 ExpMax= 8.59D+03 ExpMxC= 1.30D+03 IAcc=1 IRadAn=         1 AccDes= 1.00D-06
 HarFok:  IExCor= 402 AccDes= 1.00D-06 IRadAn=         1 IDoV=1
 ScaDFX=  1.000000  1.000000  1.000000  1.000000
 Requested convergence on RMS density matrix=1.00D-08 within 128 cycles.
 Requested convergence on MAX density matrix=1.00D-06.
 Requested convergence on             energy=1.00D-06.
 No special actions if energy rises.
 Keep R1 integrals in memory in canonical form, NReq=    90380467.
 Integral accuracy reduced to 1.0D-05 until final iterations.
 Initial convergence to 1.0D-05 achieved.  Increase integral accuracy.
 SCF Done:  E(RB+HF-LYP) =  -307.716078084     A.U. after   11 cycles
             Convg  =    0.7445D-08             -V/T =  2.0034
             S**2   =   0.0000
 Variable Step   Value    
 -------- ---- -----------
    35       9    0.759229
 ------------------------------------------------------------------------
                         Z-MATRIX (ANGSTROMS AND DEGREES)
 CD Cent Atom  N1     Length/X     N2    Alpha/Y     N3     Beta/Z      J
 ------------------------------------------------------------------------
   1   1  C 
   2   2  H     1   1.093772(  1)
   3   3  H     1   1.101194(  2)   2  107.640( 14)
   4   4  C     1   1.523111(  3)   2  110.005( 15)   3  117.782( 26)   0
   5   5  C     4   1.467088(  4)   1  118.988( 16)   2   89.069( 27)   0
   6   6  H     5   1.085345(  5)   4  119.263( 17)   1   -2.809( 28)   0
   7   7  H     5   1.086928(  6)   4  119.452( 18)   1 -156.766( 29)   0
   8   8  C     4   1.508671(  7)   1  116.015( 19)   5 -157.732( 30)   0
   9   9  H     8   1.091013(  8)   4  110.660( 20)   1 -177.388( 31)   0
  10  10  H     8   1.093935(  9)   4  110.507( 21)   1  -57.559( 32)   0
  11  11  H     8   1.094404( 10)   4  110.761( 22)   1   62.175( 33)   0
  12  12  O     1   1.413434( 11)   4  112.329( 23)   5  -30.330( 34)   0
  13  13  H    12   0.966674( 12)   1  105.616( 24)   4   43.501( 35)   0
  14  14  O     4   1.443929( 13)   1  112.309( 25)  12   36.084( 36)   0
 ------------------------------------------------------------------------
                         Z-Matrix orientation:                         
 ---------------------------------------------------------------------
 Center     Atomic     Atomic              Coordinates (Angstroms)
 Number     Number      Type              X           Y           Z
 ---------------------------------------------------------------------
    1          6             0        0.000000    0.000000    0.000000
    2          1             0        0.000000    0.000000    1.093772
    3          1             0        1.049418    0.000000   -0.333692
    4          6             0       -0.667098   -1.266230   -0.521064
    5          6             0       -2.117040   -1.265556   -0.744708
    6          1             0       -2.692416   -0.380654   -0.491996
    7          1             0       -2.658635   -2.207936   -0.742068
    8          6             0        0.081726   -2.554287   -0.283875
    9          1             0       -0.449371   -3.396154   -0.730533
   10          1             0        1.079754   -2.504923   -0.729069
   11          1             0        0.197018   -2.744304    0.787723
   12          8             0       -0.670245    1.171618   -0.419379
   13          1             0       -1.612269    0.987947   -0.303996
   14          8             0       -1.203789   -1.095661   -1.850650
 ---------------------------------------------------------------------
                    Distance matrix (angstroms):
                    1          2          3          4          5
     1  C    0.000000
     2  H    1.093772   0.000000
     3  H    1.101194   1.771703   0.000000
     4  C    1.523111   2.157789   2.141232   0.000000
     5  C    2.576447   3.076280   3.434679   1.467088   0.000000
     6  H    2.763342   3.147803   3.764476   2.210656   1.085345
     7  H    3.534683   3.913263   4.334906   2.214017   1.086928
     8  C    2.571312   2.903269   2.731902   1.508671   2.589936
     9  H    3.502781   3.881222   3.733325   2.151246   2.705692
    10  H    2.823482   3.280740   2.536115   2.151538   3.428668
    11  H    2.861910   2.768336   3.084698   2.155069   3.144822
    12  O    1.413434   2.027694   2.082612   2.439970   2.852871
    13  H    1.915167   2.351426   2.839278   2.453932   2.351020
    14  O    2.464647   3.364402   2.928920   1.443929   1.444299
                    6          7          8          9         10
     6  H    0.000000
     7  H    1.844624   0.000000
     8  C    3.530419   2.799907   0.000000
     9  H    3.765819   2.508554   1.091013   0.000000
    10  H    4.335665   3.750189   1.093935   1.769892   0.000000
    11  H    3.946309   3.283703   1.094404   1.774212   1.771210
    12  O    2.550294   3.934363   3.803444   4.583683   4.083547
    13  H    1.753605   3.391232   3.926505   4.555722   4.430329
    14  O    2.138501   2.140722   2.496983   2.667598   2.908355
                   11         12         13         14
    11  H    0.000000
    12  O    4.188519   0.000000
    13  H    4.288947   0.966674   0.000000
    14  O    3.411935   2.733818   2.626865   0.000000
                           Interatomic angles:
       H2-C1-H3=107.6395       H2-C1-C4=110.0052       H3-C1-C4=108.2838
       C1-C4-C5=118.9885       C4-C5-H6=119.2628       C4-C5-H7=119.4516
       H6-C5-H7=116.2425       C1-C4-C8=116.0145       C5-C4-C8=120.9911
       C4-C8-H9=110.6598      C4-C8-H10=110.5071      H9-C8-H10=108.1993
      C4-C8-H11=110.7608      H9-C8-H11=108.5524     H10-C8-H11=108.0719
      H2-C1-O12=107.2601      H3-C1-O12=111.2224      C4-C1-O12=112.3287
     C1-O12-H13=105.6162      C1-C4-O14=112.309       C5-C4-O14= 59.4848
[...]
     9  H    3.765819   2.508554   1.091013   0.000000
    10  H    4.335665   3.750189   1.093935   1.769892   0.000000
    11  H    3.946309   3.283703   1.094404   1.774212   1.771210
    12  O    2.550294   3.934363   3.803444   4.583683   4.083547
    13  H    2.809777   4.064765   3.970891   4.652434   4.109060
    14  O    2.138501   2.140722   2.496983   2.667598   2.908355
                   11         12         13         14
    11  H    0.000000
    12  O    4.188519   0.000000
    13  H    4.570282   0.966674   0.000000
    14  O    3.411935   2.733818   2.441948   0.000000
                           Interatomic angles:
       H2-C1-H3=107.6395       H2-C1-C4=110.0052       H3-C1-C4=108.2838
       C1-C4-C5=118.9885       C4-C5-H6=119.2628       C4-C5-H7=119.4516
       H6-C5-H7=116.2425       C1-C4-C8=116.0145       C5-C4-C8=120.9911
       C4-C8-H9=110.6598      C4-C8-H10=110.5071      H9-C8-H10=108.1993
      C4-C8-H11=110.7608      H9-C8-H11=108.5524     H10-C8-H11=108.0719
      H2-C1-O12=107.2601      H3-C1-O12=111.2224      C4-C1-O12=112.3287
     C1-O12-H13=105.6162      C1-C4-O14=112.309       C5-C4-O14= 59.4848
      C8-C4-O14=115.4744
 Symmetry turned off by external request.
 Stoichiometry    C4H8O2
 Framework group  C1[X(C4H8O2)]
 Deg. of freedom    36
 Full point group                 C1
 Rotational constants (GHZ):      5.4658354      3.2295842      2.4443951
 Standard basis: CBSB7 (5D, 7F)
 Integral buffers will be    131072 words long.
 Raffenetti 2 integral format.
 Two-electron integral symmetry is turned off.
   156 basis functions,   256 primitive gaussians,   162 cartesian basis functions
    24 alpha electrons       24 beta electrons
       nuclear repulsion energy       254.1041384911 Hartrees.
 NAtoms=   14 NActive=   14 NUniq=   14 SFac= 7.50D-01 NAtFMM=   80 NAOKFM=F Big=F
 One-electron integrals computed using PRISM.
 NBasis=   156 RedAO= T  NBF=   156
 NBsUse=   156 1.00D-06 NBFU=   156
 Initial guess read from the read-write file:
 Harris functional with IExCor=  402 diagonalized for initial guess.
 ExpMin= 1.03D-01 ExpMax= 8.59D+03 ExpMxC= 1.30D+03 IAcc=1 IRadAn=         1 AccDes= 1.00D-06
 HarFok:  IExCor= 402 AccDes= 1.00D-06 IRadAn=         1 IDoV=1
 ScaDFX=  1.000000  1.000000  1.000000  1.000000
 Requested convergence on RMS density matrix=1.00D-08 within 128 cycles.
 Requested convergence on MAX density matrix=1.00D-06.
 Requested convergence on             energy=1.00D-06.
 No special actions if energy rises.
 Keep R1 integrals in memory in canonical form, NReq=    90380467.
 Integral accuracy reduced to 1.0D-05 until final iterations.
 Initial convergence to 1.0D-05 achieved.  Increase integral accuracy.
 SCF Done:  E(RB+HF-LYP) =  -307.728543402     A.U. after   11 cycles
             Convg  =    0.8502D-08             -V/T =  2.0036
             S**2   =   0.0000
 Variable Step   Value    
 -------- ---- -----------
    35      35    5.297085
 ------------------------------------------------------------------------
                         Z-MATRIX (ANGSTROMS AND DEGREES)
 CD Cent Atom  N1     Length/X     N2    Alpha/Y     N3     Beta/Z      J
 ------------------------------------------------------------------------
   1   1  C 
   2   2  H     1   1.093772(  1)
   3   3  H     1   1.101194(  2)   2  107.640( 14)
   4   4  C     1   1.523111(  3)   2  110.005( 15)   3  117.782( 26)   0
   5   5  C     4   1.467088(  4)   1  118.988( 16)   2   89.069( 27)   0
   6   6  H     5   1.085345(  5)   4  119.263( 17)   1   -2.809( 28)   0
   7   7  H     5   1.086928(  6)   4  119.452( 18)   1 -156.766( 29)   0
   8   8  C     4   1.508671(  7)   1  116.015( 19)   5 -157.732( 30)   0
   9   9  H     8   1.091013(  8)   4  110.660( 20)   1 -177.388( 31)   0
  10  10  H     8   1.093935(  9)   4  110.507( 21)   1  -57.559( 32)   0
  11  11  H     8   1.094404( 10)   4  110.761( 22)   1   62.175( 33)   0
  12  12  O     1   1.413434( 11)   4  112.329( 23)   5  -30.330( 34)   0
  13  13  H    12   0.966674( 12)   1  105.616( 24)   4  303.501( 35)   0
  14  14  O     4   1.443929( 13)   1  112.309( 25)  12   36.084( 36)   0
 ------------------------------------------------------------------------
                         Z-Matrix orientation:                         
 ---------------------------------------------------------------------
 Center     Atomic     Atomic              Coordinates (Angstroms)
 Number     Number      Type              X           Y           Z
 ---------------------------------------------------------------------
    1          6             0        0.000000    0.000000    0.000000
    2          1             0        0.000000    0.000000    1.093772
    3          1             0        1.049418    0.000000   -0.333692
    4          6             0       -0.667098   -1.266230   -0.521064
    5          6             0       -2.117040   -1.265556   -0.744708
    6          1             0       -2.692416   -0.380654   -0.491996
    7          1             0       -2.658635   -2.207936   -0.742068
    8          6             0        0.081726   -2.554287   -0.283875
    9          1             0       -0.449371   -3.396154   -0.730533
   10          1             0        1.079754   -2.504923   -0.729069
   11          1             0        0.197018   -2.744304    0.787723
   12          8             0       -0.670245    1.171618   -0.419379
   13          1             0       -0.692008    1.127525   -1.384802
   14          8             0       -1.203789   -1.095661   -1.850650
 ---------------------------------------------------------------------
                    Distance matrix (angstroms):
                    1          2          3          4          5
     1  C    0.000000
     2  H    1.093772   0.000000
     3  H    1.101194   1.771703   0.000000
     4  C    1.523111   2.157789   2.141232   0.000000
     5  C    2.576447   3.076280   3.434679   1.467088   0.000000
     6  H    2.763342   3.147803   3.764476   2.210656   1.085345
     7  H    3.534683   3.913263   4.334906   2.214017   1.086928
     8  C    2.571312   2.903269   2.731902   1.508671   2.589936
     9  H    3.502781   3.881222   3.733325   2.151246   2.705692
    10  H    2.823482   3.280740   2.536115   2.151538   3.428668
    11  H    2.861910   2.768336   3.084698   2.155069   3.144822
    12  O    1.413434   2.027694   2.082612   2.439970   2.852871
    13  H    1.915167   2.809540   2.325663   2.544942   2.857844
    14  O    2.464647   3.364402   2.928920   1.443929   1.444299
                    6          7          8          9         10
     6  H    0.000000
     7  H    1.844624   0.000000
     8  C    3.530419   2.799907   0.000000
     9  H    3.765819   2.508554   1.091013   0.000000
    10  H    4.335665   3.750189   1.093935   1.769892   0.000000
    11  H    3.946309   3.283703   1.094404   1.774212   1.771210
    12  O    2.550294   3.934363   3.803444   4.583683   4.083547
    13  H    2.659575   3.925052   3.920005   4.577184   4.094362
    14  O    2.138501   2.140722   2.496983   2.667598   2.908355
                   11         12         13         14
    11  H    0.000000
    12  O    4.188519   0.000000
    13  H    4.527835   0.966674   0.000000
    14  O    3.411935   2.733818   2.328409   0.000000
                           Interatomic angles:
       H2-C1-H3=107.6395       H2-C1-C4=110.0052       H3-C1-C4=108.2838
       C1-C4-C5=118.9885       C4-C5-H6=119.2628       C4-C5-H7=119.4516
       H6-C5-H7=116.2425       C1-C4-C8=116.0145       C5-C4-C8=120.9911
       C4-C8-H9=110.6598      C4-C8-H10=110.5071      H9-C8-H10=108.1993
      C4-C8-H11=110.7608      H9-C8-H11=108.5524     H10-C8-H11=108.0719
      H2-C1-O12=107.2601      H3-C1-O12=111.2224      C4-C1-O12=112.3287
     C1-O12-H13=105.6162      C1-C4-O14=112.309       C5-C4-O14= 59.4848
      C8-C4-O14=115.4744
 Symmetry turned off by external request.
 Stoichiometry    C4H8O2
 Framework group  C1[X(C4H8O2)]
 Deg. of freedom    36
 Full point group                 C1
 Rotational constants (GHZ):      5.4673066      3.2389684      2.4471012
 Standard basis: CBSB7 (5D, 7F)
 Integral buffers will be    131072 words long.
 Raffenetti 2 integral format.
 Two-electron integral symmetry is turned off.
   156 basis functions,   256 primitive gaussians,   162 cartesian basis functions
    24 alpha electrons       24 beta electrons
       nuclear repulsion energy       254.2995284056 Hartrees.
 NAtoms=   14 NActive=   14 NUniq=   14 SFac= 7.50D-01 NAtFMM=   80 NAOKFM=F Big=F
 One-electron integrals computed using PRISM.
 NBasis=   156 RedAO= T  NBF=   156
 NBsUse=   156 1.00D-06 NBFU=   156
 Initial guess read from the read-write file:
 Harris functional with IExCor=  402 diagonalized for initial guess.
 ExpMin= 1.03D-01 ExpMax= 8.59D+03 ExpMxC= 1.30D+03 IAcc=1 IRadAn=         1 AccDes= 1.00D-06
 HarFok:  IExCor= 402 AccDes= 1.00D-06 IRadAn=         1 IDoV=1
 ScaDFX=  1.000000  1.000000  1.000000  1.000000
 Requested convergence on RMS density matrix=1.00D-08 within 128 cycles.
 Requested convergence on MAX density matrix=1.00D-06.
 Requested convergence on             energy=1.00D-06.
 No special actions if energy rises.
 Keep R1 integrals in memory in canonical form, NReq=    90380467.
 Integral accuracy reduced to 1.0D-05 until final iterations.
 Initial convergence to 1.0D-05 achieved.  Increase integral accuracy.
 SCF Done:  E(RB+HF-LYP) =  -307.729548578     A.U. after   11 cycles
             Convg  =    0.8499D-08             -V/T =  2.0036
             S**2   =   0.0000
 Variable Step   Value    
 -------- ---- -----------
    35      36    5.471618
 ------------------------------------------------------------------------
                         Z-MATRIX (ANGSTROMS AND DEGREES)
 CD Cent Atom  N1     Length/X     N2    Alpha/Y     N3     Beta/Z      J
 ------------------------------------------------------------------------
   1   1  C 
   2   2  H     1   1.093772(  1)
   3   3  H     1   1.101194(  2)   2  107.640( 14)
   4   4  C     1   1.523111(  3)   2  110.005( 15)   3  117.782( 26)   0
   5   5  C     4   1.467088(  4)   1  118.988( 16)   2   89.069( 27)   0
   6   6  H     5   1.085345(  5)   4  119.263( 17)   1   -2.809( 28)   0
   7   7  H     5   1.086928(  6)   4  119.452( 18)   1 -156.766( 29)   0
   8   8  C     4   1.508671(  7)   1  116.015( 19)   5 -157.732( 30)   0
   9   9  H     8   1.091013(  8)   4  110.660( 20)   1 -177.388( 31)   0
  10  10  H     8   1.093935(  9)   4  110.507( 21)   1  -57.559( 32)   0
  11  11  H     8   1.094404( 10)   4  110.761( 22)   1   62.175( 33)   0
  12  12  O     1   1.413434( 11)   4  112.329( 23)   5  -30.330( 34)   0
  13  13  H    12   0.966674( 12)   1  105.616( 24)   4  313.501( 35)   0
  14  14  O     4   1.443929( 13)   1  112.309( 25)  12   36.084( 36)   0
 ------------------------------------------------------------------------
                         Z-Matrix orientation:                         
 ---------------------------------------------------------------------
 Center     Atomic     Atomic              Coordinates (Angstroms)
 Number     Number      Type              X           Y           Z
 ---------------------------------------------------------------------
    1          6             0        0.000000    0.000000    0.000000
    2          1             0        0.000000    0.000000    1.093772
    3          1             0        1.049418    0.000000   -0.333692
    4          6             0       -0.667098   -1.266230   -0.521064
    5          6             0       -2.117040   -1.265556   -0.744708
    6          1             0       -2.692416   -0.380654   -0.491996
    7          1             0       -2.658635   -2.207936   -0.742068
    8          6             0        0.081726   -2.554287   -0.283875
    9          1             0       -0.449371   -3.396154   -0.730533
   10          1             0        1.079754   -2.504923   -0.729069
   11          1             0        0.197018   -2.744304    0.787723
   12          8             0       -0.670245    1.171618   -0.419379
   13          1             0       -0.834786    1.053097   -1.364545
   14          8             0       -1.203789   -1.095661   -1.850650
 ---------------------------------------------------------------------
                    Distance matrix (angstroms):
                    1          2          3          4          5
     1  C    0.000000
     2  H    1.093772   0.000000
     3  H    1.101194   1.771703   0.000000
     4  C    1.523111   2.157789   2.141232   0.000000
     5  C    2.576447   3.076280   3.434679   1.467088   0.000000
     6  H    2.763342   3.147803   3.764476   2.210656   1.085345
     7  H    3.534683   3.913263   4.334906   2.214017   1.086928
     8  C    2.571312   2.903269   2.731902   1.508671   2.589936
     9  H    3.502781   3.881222   3.733325   2.151246   2.705692
    10  H    2.823482   3.280740   2.536115   2.151538   3.428668
    11  H    2.861910   2.768336   3.084698   2.155069   3.144822
    12  O    1.413434   2.027694   2.082612   2.439970   2.852871
    13  H    1.915167   2.801643   2.392048   2.473633   2.721126
    14  O    2.464647   3.364402   2.928920   1.443929   1.444299
                    6          7          8          9         10
     6  H    0.000000
     7  H    1.844624   0.000000
     8  C    3.530419   2.799907   0.000000
     9  H    3.765819   2.508554   1.091013   0.000000
    10  H    4.335665   3.750189   1.093935   1.769892   0.000000
    11  H    3.946309   3.283703   1.094404   1.774212   1.771210
    12  O    2.550294   3.934363   3.803444   4.583683   4.083547
    13  H    2.503552   3.787907   3.875701   4.510693   4.090085
    14  O    2.138501   2.140722   2.496983   2.667598   2.908355
                   11         12         13         14
    11  H    0.000000
    12  O    4.188519   0.000000
    13  H    4.485213   0.966674   0.000000
    14  O    3.411935   2.733818   2.233746   0.000000
                           Interatomic angles:
       H2-C1-H3=107.6395       H2-C1-C4=110.0052       H3-C1-C4=108.2838
       C1-C4-C5=118.9885       C4-C5-H6=119.2628       C4-C5-H7=119.4516
       H6-C5-H7=116.2425       C1-C4-C8=116.0145       C5-C4-C8=120.9911
       C4-C8-H9=110.6598      C4-C8-H10=110.5071      H9-C8-H10=108.1993
      C4-C8-H11=110.7608      H9-C8-H11=108.5524     H10-C8-H11=108.0719
      H2-C1-O12=107.2601      H3-C1-O12=111.2224      C4-C1-O12=112.3287
     C1-O12-H13=105.6162      C1-C4-O14=112.309       C5-C4-O14= 59.4848
      C8-C4-O14=115.4744
 Symmetry turned off by external request.
 Stoichiometry    C4H8O2
 Framework group  C1[X(C4H8O2)]
 Deg. of freedom    36
 Full point group                 C1
 Rotational constants (GHZ):      5.4694235      3.2477595      2.4490354
 Standard basis: CBSB7 (5D, 7F)
 Integral buffers will be    131072 words long.
 Raffenetti 2 integral format.
 Two-electron integral symmetry is turned off.
   156 basis functions,   256 primitive gaussians,   162 cartesian basis functions
    24 alpha electrons       24 beta electrons
       nuclear repulsion energy       254.4920714598 Hartrees.
 NAtoms=   14 NActive=   14 NUniq=   14 SFac= 7.50D-01 NAtFMM=   80 NAOKFM=F Big=F
 One-electron integrals computed using PRISM.
 NBasis=   156 RedAO= T  NBF=   156
 NBsUse=   156 1.00D-06 NBFU=   156
 Initial guess read from the read-write file:
 Harris functional with IExCor=  402 diagonalized for initial guess.
 ExpMin= 1.03D-01 ExpMax= 8.59D+03 ExpMxC= 1.30D+03 IAcc=1 IRadAn=         1 AccDes= 1.00D-06
 HarFok:  IExCor= 402 AccDes= 1.00D-06 IRadAn=         1 IDoV=1
 ScaDFX=  1.000000  1.000000  1.000000  1.000000
 Requested convergence on RMS density matrix=1.00D-08 within 128 cycles.
 Requested convergence on MAX density matrix=1.00D-06.
 Requested convergence on             energy=1.00D-06.
 No special actions if energy rises.
 Keep R1 integrals in memory in canonical form, NReq=    90380467.
 Integral accuracy reduced to 1.0D-05 until final iterations.
 Initial convergence to 1.0D-05 achieved.  Increase integral accuracy.
 SCF Done:  E(RB+HF-LYP) =  -307.729940574     A.U. after   11 cycles
             Convg  =    0.7931D-08             -V/T =  2.0036
             S**2   =   0.0000
 Scan completed.

 Summary of the potential surface scan:
   N      D10         SCF    
 ----  ---------  -----------
    1   -46.4994   -307.72994
    2   -36.4994   -307.72946
    3   -26.4994   -307.72796
    4   -16.4994   -307.72550
    5    -6.4994   -307.72250
    6     3.5006   -307.71960
    7    13.5006   -307.71742
    8    23.5006   -307.71626
    9    33.5006   -307.71608
   10    43.5006   -307.71655
   11    53.5006   -307.71728
   12    63.5006   -307.71797
   13    73.5006   -307.71845
   14    83.5006   -307.71870
   15    93.5006   -307.71882
   16   103.5006   -307.71888
   17   113.5006   -307.71897
   18   123.5006   -307.71912
   19   133.5006   -307.71932
   20   143.5006   -307.71952
   21   153.5006   -307.71968
   22   163.5006   -307.71977
   23   173.5006   -307.71974
   24   183.5006   -307.71965
   25   193.5006   -307.71953
   26   203.5006   -307.71948
   27   213.5006   -307.71959
   28   223.5006   -307.71993
   29   233.5006   -307.72056
   30   243.5006   -307.72148
   31   253.5006   -307.72267
   32   263.5006   -307.72408
   33   273.5006   -307.72562
   34   283.5006   -307.72717
   35   293.5006   -307.72854
   36   303.5006   -307.72955
   37   313.5006   -307.72994
 ----  ---------  -----------
  
 1\1\GINC-NODE06\Scan\RB3LYP\CBSB7\C4H8O2\NYEE\18-Jun-2013\1\\# scan b3
 lyp/cbsb7 nosymm\\Title Card Required\\0,1\C\H,1,B1\H,1,B2,2,A1\C,1,B3
 ,2,A2,3,D1,0\C,4,B4,1,A3,2,D2,0\H,5,B5,4,A4,1,D3,0\H,5,B6,4,A5,1,D4,0\
 C,4,B7,1,A6,5,D5,0\H,8,B8,4,A7,1,D6,0\H,8,B9,4,A8,1,D7,0\H,8,B10,4,A9,
 1,D8,0\O,1,B11,4,A10,5,D9,0\H,12,B12,1,A11,4,D10,0\O,4,B13,1,A12,12,D1
 1,0\\B1=1.09377185\B2=1.101194\B3=1.52311068\B4=1.46708814\B5=1.085344
 64\B6=1.08692769\B7=1.50867052\B8=1.09101306\B9=1.09393507\B10=1.09440
 4\B11=1.4134343\B12=0.96667411\B13=1.44392865\A1=107.63953479\A2=110.0
 0518559\A3=118.98849477\A4=119.26282716\A5=119.45163364\A6=116.0145493
 7\A7=110.65977616\A8=110.50706584\A9=110.76076892\A10=112.32866002\A11
 =105.61615906\A12=112.30903893\D1=117.78197335\D2=89.06899195\D3=-2.80
 875348\D4=-156.76560783\D5=-157.73152519\D6=-177.38793042\D7=-57.55945
 482\D8=62.17511168\D9=-30.32990392\D10=-46.49940788,s,36,10.\D11=36.08
 41149\\Version=AM64L-G03RevD.01\HF=-307.7299406,-307.7294635,-307.7279
 554,-307.7254966,-307.7224989,-307.7196037,-307.7174167,-307.7162632,-
 307.7160781,-307.716548,-307.717282,-307.7179671,-307.7184504,-307.718
 7034,-307.7188163,-307.718884,-307.7189696,-307.7191172,-307.7193154,-
 307.7195211,-307.7196848,-307.719765,-307.7197425,-307.7196451,-307.71
 95302,-307.719481,-307.7195871,-307.7199319,-307.7205562,-307.7214756,
 -307.7226687,-307.7240782,-307.7256206,-307.7271664,-307.7285434,-307.
 7295486,-307.7299406\RMSD=8.248e-09,7.732e-09,8.008e-09,8.091e-09,8.80
 3e-09,3.041e-09,3.090e-09,9.691e-09,7.445e-09,9.907e-09,2.278e-09,2.61
 7e-09,7.253e-09,9.281e-09,3.042e-09,9.591e-09,8.994e-09,9.079e-09,8.80
 5e-09,8.490e-09,8.355e-09,8.194e-09,8.261e-09,8.220e-09,7.957e-09,7.55
 0e-09,6.068e-09,7.695e-09,9.333e-09,9.045e-09,8.764e-09,8.482e-09,8.50
 2e-09,8.729e-09,8.502e-09,8.499e-09,7.931e-09\Thermal=0.,0.,0.,0.,0.,0
 .,0.,0.,0.,0.,0.,0.,0.,0.,0.,0.,0.,0.,0.,0.,0.,0.,0.,0.,0.,0.,0.,0.,0.
 ,0.,0.,0.,0.,0.,0.,0.,0.\PG=C01 [X(C4H8O2)]\\@


 WHAT, THEN, IS TIME?  IF NO ONE ASKS ME, I KNOW WHAT IT IS.
 IF I WISH TO EXPLAIN WHAT IT IS TO HIM WHO ASKS ME, I DO NOT KNOW.
                                   -- ST. AUGUSTINE (FIFTH CENTURY)
 Job cpu time:  0 days  1 hours 17 minutes 55.0 seconds.
 File lengths (MBytes):  RWF=     32 Int=      0 D2E=      0 Chk=     18 Scr=      1
 Normal termination of Gaussian 03 at Tue Jun 18 15:54:02 2013.
