
Running Job 1 of 1 input.in
qchem input.in_14646.0 /home/alongd/scratch/qlscratch/qchem14646/ 8
/opt/qchem/bin/mpi/mpirun_qchem -machinefile /tmp/521155.1.long2/hostfile -np 8 /opt/qchem/exe/qcprog.exe input.in_14646.0 /home/alongd/scratch/qlscratch/qchem14646/

Process 0 of 8 is on node37.cluster - thread support 0
Process 2 of 8 is on node37.cluster - thread support 0
Process 6 of 8 is on node37.cluster - thread support 0
Process 7 of 8 is on node37.cluster - thread support 0
initial socket setup ...start
initial socket setup ...done 
now start server 0 ... 

cmd = /usr/bin/ssh node96 /opt/qchem/bin/get_hostid 1186464652 > /home/alongd/scratch/qlscratch/qchem14646/lic.dat

cmd = /usr/bin/ssh node93 /opt/qchem/bin/get_hostid 1186464652 > /home/alongd/scratch/qlscratch/qchem14646/lic.dat
                  Welcome to Q-Chem
     A Quantum Leap Into The Future Of Chemistry


 Q-Chem 4.4, Q-Chem, Inc., Pleasanton, CA (2016)

 Y. Shao,  Z. Gan,  E. Epifanovsky,  A. T. B. Gilbert,  M. Wormit,  
 J. Kussmann,  A. W. Lange,  A. Behn,  J. Deng,  X. Feng,  D. Ghosh,  
 M. Goldey,  P. R. Horn,  L. D. Jacobson,  I. Kaliman,  R. Z. Khaliullin,  
 T. Kus,  A. Landau,  J. Liu,  E. I. Proynov,  Y. M. Rhee,  R. M. Richard,  
 M. A. Rohrdanz,  R. P. Steele,  E. J. Sundstrom,  H. L. Woodcock III,  
 P. M. Zimmerman,  D. Zuev,  B. Albrecht,  E. Alguire,  B. Austin,  
 S. A. Baeppler,  G. J. O. Beran,  Y. A. Bernard,  E. Berquist,  
 K. Brandhorst,  K. B. Bravaya,  S. T. Brown,  D. Casanova,  C.-M. Chang,  
 Y. Chen,  S. H. Chien,  K. D. Closser,  M. P. Coons,  D. L. Crittenden,  
 S. Dasgupta,  M. Diedenhofen,  R. A. DiStasio Jr.,  H. Do,  A. D. Dutoi,  
 R. G. Edgar,  P.-T. Fang,  S. Fatehi,  Q. Feng,  L. Fusti-Molnar,  
 A. Ghysels,  A. Golubeva-Zadorozhnaya,  J. Gomes,  A. Gunina,  
 M. W. D. Hanson-Heine,  P. H. P. Harbach,  A. W. Hauser,  E. G. Hohenstein,  
 Z. C. Holden,  K. Hui,  T.-C. Jagau,  H. Ji,  B. Kaduk,  K. Khistyaev,  
 Jaehoon Kim,  Jihan Kim,  R. A. King,  P. Klunzinger,  D. Kosenkov,  
 T. Kowalczyk,  C. M. Krauter,  A. Kunitsa,  K. U. Lao,  A. Laurent,  
 K. V. Lawler,  D. Lefrancois,  S. Lehtola,  S. V. Levchenko,  C. Y. Lin,  
 Y.-S. Lin,  F. Liu,  E. Livshits,  R. C. Lochan,  A. Luenser,  P. Manohar,  
 S. F. Manzer,  S.-P. Mao,  Y. Mao,  N. Mardirossian,  A. V. Marenich,  
 L. A. Martinez-Martinez,  S. A. Maurer,  N. J. Mayhall,  J.-M. Mewes,  
 A. F. Morrison,  K. Nanda,  C. M. Oana,  R. Olivares-Amaya,  D. P. O'Neill,  
 J. A. Parkhill,  T. M. Perrine,  R. Peverati,  P. A. Pieniazek,  F. Plasser,  
 A. Prociuk,  D. R. Rehn,  E. Rosta,  N. J. Russ,  N. Sergueev,  
 S. M. Sharada,  S. Sharma,  D. W. Small,  A. Sodt,  T. Stauch,  T. Stein,  
 D. Stuck,  Y.-C. Su,  A. J. W. Thom,  T. Tsuchimochi,  L. Vogt,  O. Vydrov,  
 T. Wang,  M. A. Watson,  J. Wenzel,  A. White,  C. F. Williams,  
 V. Vanovschi,  S. Yeganeh,  S. R. Yost,  Z.-Q. You,  I. Y. Zhang,  X. Zhang,  
 Y. Zhao,  B. R. Brooks,  G. K. L. Chan,  D. M. Chipman,  C. J. Cramer,  
 W. A. Goddard III,  M. S. Gordon,  W. J. Hehre,  A. Klamt,  
 H. F. Schaefer III,  M. W. Schmidt,  C. D. Sherrill,  D. G. Truhlar,  
 A. Warshel,  X. Xu,  A. Aspuru-Guzik,  R. Baer,  A. T. Bell,  N. A. Besley,  
 J.-D. Chai,  A. Dreuw,  B. D. Dunietz,  T. R. Furlani,  S. R. Gwaltney,  
 C.-P. Hsu,  Y. Jung,  J. Kong,  D. S. Lambrecht,  W. Liang,  C. Ochsenfeld,  
 V. A. Rassolov,  L. V. Slipchenko,  J. E. Subotnik,  T. Van Voorhis,  
 J. M. Herbert,  A. I. Krylov,  P. M. W. Gill,  M. Head-Gordon

 Contributors to earlier versions of Q-Chem not listed above: 
 R. D. Adamson,  J. Baker,  E. F. C. Byrd,  A. K. Chakraborty,  C.-L. Cheng,  
 H. Dachsel,  R. J. Doerksen,  G. Hawkins,  A. Heyden,  S. Hirata,  
 G. Kedziora,  F. J. Keil,  C. Kelley,  P. P. Korambath,  W. Kurlancheek,  
 A. M. Lee,  M. S. Lee,  D. Liotard,  I. Lotan,  P. E. Maslen,  N. Nair,  
 D. Neuhauser,  R. Olson,  B. Peters,  J. Ritchie,  N. E. Schultz,  
 N. Shenvi,  A. C. Simmonett,  K. S. Thanthiriwatte,  Q. Wu,  W. Zhang

 Please cite Q-Chem as follows:
 Y. Shao et al., Mol. Phys. 113, 184-215 (2015)
 DOI: 10.1080/00268976.2014.952696

 Q-Chem 4.4.0 for Intel X86 Linux

 Parts of Q-Chem use Armadillo 5.200.1 (Boston Tea Smuggler).
 http://arma.sourceforge.net/

 Q-Chem begins on Thu Jul 27 15:49:55 2017  

Host: 
0

     Scratch files written to /home/alongd/scratch/qlscratch/qchem14646.0//
 Apr2716 1281_ 20995  20993 4150   
 Parallel job on  8  processors
Processing $rem in /opt/qchem/config/preferences.
 MEM_TOTAL  2000 
Warning: disabling incdft.
Checking the input file for inconsistencies... 	...done.

--------------------------------------------------------------
User input:
--------------------------------------------------------------
$molecule
0 1
C       1.2290994110    -0.2648951642     0.0000138730
C      -0.0424050155     0.5765707840    -0.0000412512
N      -1.2895781384    -0.1844626053    -0.0000368083
H       2.1239586838     0.3574632141     0.0000698482
H       1.2639839348    -0.9052870957    -0.8820713487
H       1.2638121798    -0.9052086023     0.8821487436
H      -0.0520579379     1.2294511413    -0.8732462014
H      -0.0521267345     1.2293275761     0.8732588111
H      -1.3202626955    -0.7925234756    -0.8100269567
H      -1.3204268343    -0.7920382396     0.8102890308
$end

!Scan at UM06-2x/cc-pVTZ level and basis set
$rem
JOBTYPE       pes_scan
METHOD        M06-2X
UNRESTRICTED  true
BASIS         cc-pvtz
$end

$scan
tors 4 1 2 3 -180 180 10
$end

--------------------------------------------------------------
 ----------------------------------------------------------------
             Standard Nuclear Orientation (Angstroms)
    I     Atom           X                Y                Z
 ----------------------------------------------------------------
    1      C       1.2290994110    -0.2648951642     0.0000138730
    2      C      -0.0424050155     0.5765707840    -0.0000412512
    3      N      -1.2895781384    -0.1844626053    -0.0000368083
    4      H       2.1239586838     0.3574632141     0.0000698482
    5      H       1.2639839348    -0.9052870957    -0.8820713487
    6      H       1.2638121798    -0.9052086023     0.8821487436
    7      H      -0.0520579379     1.2294511413    -0.8732462014
    8      H      -0.0521267345     1.2293275761     0.8732588111
    9      H      -1.3202626955    -0.7925234756    -0.8100269566
   10      H      -1.3204268343    -0.7920382396     0.8102890309
 ----------------------------------------------------------------
 Molecular Point Group                 C1    NOp =  1
 Largest Abelian Subgroup              C1    NOp =  1
 Nuclear Repulsion Energy =    83.0395488492 hartrees
 There are       13 alpha and       13 beta electrons
 Requested basis set is cc-pVTZ
 There are 72 shells and 188 basis functions

 Total QAlloc Memory Limit   2000 MB
 Mega-Array Size        61 MB
 MEM_STATIC part        62 MB
A total of 1 constraints
  
            1
    1   3.0100000
    2   4.0100000
    3   1.0100000
    4   2.0100000
    5   3.0100000
    6-180.0000000
    7 180.0000000
    8  10.0000000
    9   0.0000000
   10   0.0000000

                       Distance Matrix (Angstroms)
             C (  1)   C (  2)   N (  3)   H (  4)   H (  5)   H (  6)
   C (  2)  1.524726
   N (  3)  2.519962  1.461031
   H (  4)  1.090001  2.177416  3.456287
   H (  5)  1.090593  2.163454  2.796114  1.764162
   H (  6)  1.090582  2.163361  2.795984  1.764159  1.764220
   H (  7)  2.153374  1.090336  2.071980  2.501618  2.507818  3.060996
   H (  8)  2.153323  1.090339  2.071891  2.501590  3.061031  2.507592
   H (  9)  2.726500  2.040445  1.013293  3.720401  2.587709  3.090890
   H ( 10)  2.726630  2.040359  1.013276  3.720430  3.091292  2.587714
             H (  7)   H (  8)   H (  9)
   H (  8)  1.746505
   H (  9)  2.387618  2.920531
   H ( 10)  2.920526  2.387147  1.620316
 
 A cutoff of  1.0D-11 yielded   2593 shell pairs
 There are     17813 function pairs (     22304 Cartesian)
 
 -------------------------------------------------------
 OpenMP Integral Computing Module                       
 Release: version 1.0, May 2013, Q-Chem Inc. Pittsburgh 
 -------------------------------------------------------
 Integral Job Info:
 Integral job number is                      11
 Integral operator is                         1
 short-range coefficients                     0
 long-range coefficients              100000000
 Omega coefficients                           0
 if combine SR and LR in K                    0
 Integral screening is                        0
 Integral computing path is                   2
 max size of driver memory is            800000
 size of driver memory is                776718
 size of scratch memory is              4556032
 max col of scratch BK array              10000
 max len of scratch array in speh3          662
 max len of scratch index in speh4           32
 max int batch size is                      520
 min int batch size is                       52
 fixed nKL is                                52
 max L of basis functions is                  3
 order of int derivative is                   0
 number of shells is                         72
 number of basis is                         210
 number of cartesian basis is               210
 number of contracted shell pairs          2593
 number of primitive shell pairs           6715
 maxK2 (contraction) of shell pair           49
 max number of K2 of shell pair               1
 max number of CS2 of shell pair            422
 max number of PS2 of shell pair            931
 mem total for path MDJ                   59272
 -------------------------------------------------------
 Smallest overlap matrix eigenvalue = 8.56E-04

 Scale SEOQF with 1.000000e-01/1.000000e+00/1.000000e+00

 Standard Electronic Orientation quadrupole field applied
 Nucleus-field energy     =     0.0000000026 hartrees
 Guess from superposition of atomic densities
 Warning:  Energy on first SCF cycle will be non-variational
 An unrestricted hybrid HF-DFT SCF calculation will be
 performed using Pulay DIIS extrapolation
 Exchange:     0.5400 Hartree-Fock + 1.0000 M06-2X
 Correlation:  1.0000 M06-2X
 Using SG-1 standard quadrature grid
 SCF converges when DIIS error is below 1.0E-08
 ---------------------------------------
  Cycle       Energy         DIIS Error
 ---------------------------------------
    1    -126.0854809164      3.49E-02
    2    -134.9354924237      1.34E-02
    3    -135.1006663636      4.00E-03
    4    -135.1231003168      2.88E-03
    5    -135.1527025709      2.92E-04
    6    -135.1530126018      5.90E-05
    7    -135.1530276908      8.52E-06
    8    -135.1530280326      3.08E-06
    9    -135.1530280690      9.02E-07
   10    -135.1530280730      1.06E-07
   11    -135.1530280731      2.56E-08
   12    -135.1530280731      5.32E-09 Convergence criterion met
 ---------------------------------------
 <S^2> = 0.0000
 SCF time:  CPU 20.98 s  wall 26.67 s
 SCF   energy in the final basis set = -135.1530280731
 Total energy in the final basis set = -135.1530280731
 
 --------------------------------------------------------------
 
                    Orbital Energies (a.u.)
 --------------------------------------------------------------
 
 Alpha MOs
 -- Occupied --
-14.719 -10.556 -10.524  -0.985  -0.823  -0.694  -0.570  -0.506
 -0.478  -0.474  -0.422  -0.400  -0.305
 -- Virtual --
  0.066   0.106   0.110   0.120   0.151   0.160   0.179   0.213
  0.260   0.291   0.303   0.358   0.362   0.368   0.421   0.447
  0.468   0.484   0.502   0.513   0.527   0.535   0.552   0.587
  0.597   0.624   0.638   0.677   0.761   0.790   0.811   0.856
  0.863   0.951   0.970   1.006   1.026   1.058   1.094   1.103
  1.126   1.182   1.182   1.203   1.208   1.218   1.251   1.308
  1.320   1.332   1.345   1.359   1.423   1.423   1.461   1.493
  1.569   1.569   1.607   1.620   1.688   1.754   1.868   1.875
  2.250   2.287   2.299   2.332   2.419   2.440   2.484   2.551
  2.607   2.667   2.675   2.678   2.792   2.811   2.835   2.846
  2.894   2.915   2.940   2.988   2.993   2.994   3.075   3.093
  3.105   3.114   3.150   3.220   3.230   3.234   3.273   3.308
  3.317   3.336   3.359   3.402   3.442   3.444   3.475   3.494
  3.505   3.532   3.557   3.635   3.643   3.650   3.687   3.738
  3.773   3.781   3.821   3.822   3.846   3.895   3.896   3.925
  3.930   3.960   3.993   4.023   4.046   4.080   4.123   4.130
  4.151   4.191   4.202   4.255   4.274   4.309   4.325   4.358
  4.368   4.471   4.486   4.697   4.709   4.758   4.765   4.816
  4.831   4.875   4.879   4.934   4.967   5.035   5.100   5.131
  5.193   5.260   5.264   5.310   5.319   5.356   5.385   5.453
  5.529   5.560   5.666   5.749   5.777   5.805   5.813   5.891
  6.039   6.068   6.148   6.720  12.158  12.823  13.424
 
 Beta MOs
 -- Occupied --
-14.719 -10.556 -10.524  -0.985  -0.823  -0.694  -0.570  -0.506
 -0.478  -0.474  -0.422  -0.400  -0.305
 -- Virtual --
  0.066   0.106   0.110   0.120   0.151   0.160   0.179   0.213
  0.260   0.291   0.303   0.358   0.362   0.368   0.421   0.447
  0.468   0.484   0.502   0.513   0.527   0.535   0.552   0.587
  0.597   0.624   0.638   0.677   0.761   0.790   0.811   0.856
  0.863   0.951   0.970   1.006   1.026   1.058   1.094   1.103
  1.126   1.182   1.182   1.203   1.208   1.218   1.251   1.308
  1.320   1.332   1.345   1.359   1.423   1.423   1.461   1.493
  1.569   1.569   1.607   1.620   1.688   1.754   1.868   1.875
  2.250   2.287   2.299   2.332   2.419   2.440   2.484   2.551
  2.607   2.667   2.675   2.678   2.792   2.811   2.835   2.846
  2.894   2.915   2.940   2.988   2.993   2.994   3.075   3.093
  3.105   3.114   3.150   3.220   3.230   3.234   3.273   3.308
  3.317   3.336   3.359   3.402   3.442   3.444   3.475   3.494
  3.505   3.532   3.557   3.635   3.643   3.650   3.687   3.738
  3.773   3.781   3.821   3.822   3.846   3.895   3.896   3.925
  3.930   3.960   3.993   4.023   4.046   4.080   4.123   4.130
  4.151   4.191   4.202   4.255   4.274   4.309   4.325   4.358
  4.368   4.471   4.486   4.697   4.709   4.758   4.765   4.816
  4.831   4.875   4.879   4.934   4.967   5.035   5.100   5.131
  5.193   5.260   5.264   5.310   5.319   5.356   5.385   5.453
  5.529   5.560   5.666   5.749   5.777   5.805   5.813   5.891
  6.039   6.068   6.148   6.720  12.158  12.823  13.424
 --------------------------------------------------------------
 
          Ground-State Mulliken Net Atomic Charges

     Atom                 Charge (a.u.)    Spin (a.u.)
  --------------------------------------------------------
      1 C                    -0.314600       0.000000
      2 C                    -0.126990       0.000000
      3 N                    -0.414422       0.000000
      4 H                     0.097367       0.000000
      5 H                     0.098086       0.000000
      6 H                     0.098083       0.000000
      7 H                     0.113027       0.000000
      8 H                     0.113024       0.000000
      9 H                     0.168211       0.000000
     10 H                     0.168215       0.000000
  --------------------------------------------------------
  Sum of atomic charges =     0.000000
  Sum of spin   charges =     0.000000

 -----------------------------------------------------------------
                    Cartesian Multipole Moments
 -----------------------------------------------------------------
    Charge (ESU x 10^10)
                 0.0000
    Dipole Moment (Debye)
         X       1.0008      Y      -0.8152      Z       0.0004
       Tot       1.2908
    Quadrupole Moments (Debye-Ang)
        XX     -24.3916     XY       2.2006     YY     -20.1337
        XZ      -0.0011     YZ       0.0004     ZZ     -19.2368
    Octopole Moments (Debye-Ang^2)
       XXX       4.5384    XXY      -2.8096    XYY      -2.2164
       YYY      -1.0775    XXZ       0.0018    XYZ      -0.0002
       YYZ      -0.0009    XZZ      -2.8685    YZZ      -1.4941
       ZZZ       0.0011
    Hexadecapole Moments (Debye-Ang^3)
      XXXX    -194.7306   XXXY       9.5993   XXYY     -38.5842
      XYYY       3.5737   YYYY     -63.6009   XXXZ      -0.0041
      XXYZ       0.0007   XYYZ       0.0004   YYYZ       0.0011
      XXZZ     -34.7619   XYZZ       1.7672   YYZZ     -14.5138
      XZZZ      -0.0020   YZZZ       0.0001   ZZZZ     -38.1876
 -----------------------------------------------------------------
 Calculating analytic gradient of the SCF energy
 Gradient of SCF Energy
            1           2           3           4           5           6
    1   0.0001223  -0.0001497   0.0000436  -0.0000423   0.0000066  -0.0000007
    2  -0.0001667   0.0001519   0.0000727   0.0000491   0.0000302   0.0000375
    3   0.0000015  -0.0000048   0.0000066   0.0000003  -0.0000065   0.0000028
            7           8           9          10
    1  -0.0000049  -0.0000086   0.0000145   0.0000191
    2  -0.0000524  -0.0000587  -0.0000387  -0.0000248
    3   0.0000010   0.0000049  -0.0000481   0.0000423
 Max gradient component =       1.667E-04
 RMS gradient           =       6.198E-05
 Gradient time:  CPU 6.09 s  wall 6.62 s
 Geometry Optimization Parameters
   NAtoms,    NIC,     NZ,  NCons,   NDum,   NFix, NCnnct, MaxDiis
       10      59       0       1       0       0       0       0


** CONSTRAINED OPTIMIZATION IN DELOCALIZED INTERNAL COORDINATES **
   Searching for a Minimum

   Optimization Cycle:   1

                       Coordinates (Angstroms)
     ATOM                X               Y               Z
      1  C         1.2290994110   -0.2648951642    0.0000138730
      2  C        -0.0424050155    0.5765707840   -0.0000412512
      3  N        -1.2895781384   -0.1844626053   -0.0000368083
      4  H         2.1239586838    0.3574632141    0.0000698482
      5  H         1.2639839348   -0.9052870957   -0.8820713487
      6  H         1.2638121798   -0.9052086023    0.8821487436
      7  H        -0.0520579379    1.2294511413   -0.8732462014
      8  H        -0.0521267345    1.2293275761    0.8732588111
      9  H        -1.3202626955   -0.7925234756   -0.8100269566
     10  H        -1.3204268343   -0.7920382396    0.8102890309
   Point Group: c1    Number of degrees of freedom:    24


   Energy is   -135.153028073

              Constraints and their Current Values
                                        Value     Constraint
   Dihedral:        4   1   2   3     -179.996     -180.000

 Attempting to Generate Delocalized Internal Coordinates

   Using Lagrange Multiplier Algorithm


 25 Hessian modes will be used to form the next step
  Hessian Eigenvalues:
    -0.977753    0.045000    0.054086    0.072352    0.075762    0.081381
     0.083538    0.114005    0.135703    0.160000    0.160000    0.160000
     0.160000    0.160000    0.220146    0.299159    0.347442    0.347455
     0.347735    0.347738    0.348125    0.368355    0.454255    0.454284
     1.022753

 Minimum Search - Taking P-RFO Step
 Searching for Lamda that Maximizes Along the Constraint modes Only
 Value Taken    Lamda =   0.00000000
 Searching for Lamda that Minimizes Along All other modes
 Value Taken    Lamda =  -0.00000018
 Step Taken.  Stepsize is  0.001073

                             Maximum     Tolerance    Cnvgd?
         Gradient            0.000131       0.000300     YES
         Displacement        0.000618       0.001200     YES
         Energy change     *********       0.000001      NO


                       Distance Matrix (Angstroms)
             C (  1)   C (  2)   N (  3)   H (  4)   H (  5)   H (  6)
   C (  2)  1.524726
   N (  3)  2.519962  1.461031
   H (  4)  1.090001  2.177416  3.456287
   H (  5)  1.090593  2.163454  2.796114  1.764162
   H (  6)  1.090582  2.163361  2.795984  1.764159  1.764220
   H (  7)  2.153374  1.090336  2.071980  2.501618  2.507818  3.060996
   H (  8)  2.153323  1.090339  2.071891  2.501590  3.061031  2.507592
   H (  9)  2.726500  2.040445  1.013293  3.720401  2.587709  3.090890
   H ( 10)  2.726630  2.040359  1.013276  3.720430  3.091292  2.587714
             H (  7)   H (  8)   H (  9)
   H (  8)  1.746505
   H (  9)  2.387618  2.920531
   H ( 10)  2.920526  2.387147  1.620316
 
 Final energy is   -135.153028073137     


 ******************************
 **  OPTIMIZATION CONVERGED  **
 ******************************

                       Coordinates (Angstroms)
     ATOM                X               Y               Z
      1  C         1.2290994110   -0.2648951642    0.0000138730
      2  C        -0.0424050155    0.5765707840   -0.0000412512
      3  N        -1.2895781384   -0.1844626053   -0.0000368083
      4  H         2.1239586838    0.3574632141    0.0000698482
      5  H         1.2639839348   -0.9052870957   -0.8820713487
      6  H         1.2638121798   -0.9052086023    0.8821487436
      7  H        -0.0520579379    1.2294511413   -0.8732462014
      8  H        -0.0521267345    1.2293275761    0.8732588111
      9  H        -1.3202626955   -0.7925234756   -0.8100269566
     10  H        -1.3204268343   -0.7920382396    0.8102890309

Z-matrix Print:
$molecule
0 1
C 
H  1 1.090336
H  1 1.090339 2 106.432475
N  1 1.461031 2 107.718858 3 -115.290737 0
H  4 1.013276 1 109.774730 2 179.026156 0
H  4 1.013293 1 109.780843 2 -64.625297 0
C  1 1.524726 2 109.747226 3 118.689890 0
H  7 1.090001 1 111.685988 2 -58.310380 0
H  7 1.090582 1 110.523911 2 -178.576320 0
H  7 1.090593 1 110.530574 2 61.959446 0
$end

PES scan, value: -180.0000 energy: -135.1530280731

                       Distance Matrix (Angstroms)
             C (  1)   C (  2)   N (  3)   H (  4)   H (  5)   H (  6)
   C (  2)  1.524726
   N (  3)  2.519962  1.461031
   H (  4)  1.090001  2.177416  3.456287
   H (  5)  1.090593  2.163454  2.796114  1.764162
   H (  6)  1.090582  2.163361  2.795984  1.764159  1.764220
   H (  7)  2.153374  1.090336  2.071980  2.501618  2.507818  3.060996
   H (  8)  2.153323  1.090339  2.071891  2.501590  3.061031  2.507592
   H (  9)  2.726500  2.040445  1.013293  3.720401  2.587709  3.090890
   H ( 10)  2.726630  2.040359  1.013276  3.720430  3.091292  2.587714
             H (  7)   H (  8)   H (  9)
   H (  8)  1.746505
   H (  9)  2.387618  2.920531
   H ( 10)  2.920526  2.387147  1.620316
 
 Applying Cartesian multipole field
    Component          Value
    ---------          -----
     (2,0,0)        1.00000E-11
     (0,2,0)        2.00000E-10
     (0,0,2)       -3.00000E-10
 Nucleus-field energy     =     0.0000000026 hartrees
 Guess from superposition of atomic densities
 Warning:  Energy on first SCF cycle will be non-variational
 An unrestricted hybrid HF-DFT SCF calculation will be
 performed using Pulay DIIS extrapolation
 Exchange:     0.5400 Hartree-Fock + 1.0000 M06-2X
 Correlation:  1.0000 M06-2X
 Using SG-1 standard quadrature grid
 SCF converges when DIIS error is below 1.0E-08
 ---------------------------------------
  Cycle       Energy         DIIS Error
 ---------------------------------------
    1    -126.0854809137      3.49E-02
    2    -134.9354924210      1.34E-02
    3    -135.1006663609      4.00E-03
    4    -135.1231003141      2.88E-03
    5    -135.1527025683      2.92E-04
    6    -135.1530125991      5.90E-05
    7    -135.1530276882      8.52E-06
    8    -135.1530280300      3.08E-06
    9    -135.1530280664      9.02E-07
   10    -135.1530280704      1.06E-07
   11    -135.1530280705      2.56E-08
   12    -135.1530280705      5.32E-09 Convergence criterion met
 ---------------------------------------
 <S^2> = 0.0000
 SCF time:  CPU 20.98 s  wall 24.13 s
 SCF   energy in the final basis set = -135.1530280705
 Total energy in the final basis set = -135.1530280705
 
 --------------------------------------------------------------
 
                    Orbital Energies (a.u.)
 --------------------------------------------------------------
 
 Alpha MOs
 -- Occupied --
-14.719 -10.556 -10.524  -0.985  -0.823  -0.694  -0.570  -0.506
 -0.478  -0.474  -0.422  -0.400  -0.305
 -- Virtual --
  0.066   0.106   0.110   0.120   0.151   0.160   0.179   0.213
  0.260   0.291   0.303   0.358   0.362   0.368   0.421   0.447
  0.468   0.484   0.502   0.513   0.527   0.535   0.552   0.587
  0.597   0.624   0.638   0.677   0.761   0.790   0.811   0.856
  0.863   0.951   0.970   1.006   1.026   1.058   1.094   1.103
  1.126   1.182   1.182   1.203   1.208   1.218   1.251   1.308
  1.320   1.332   1.345   1.359   1.423   1.423   1.461   1.493
  1.569   1.569   1.607   1.620   1.688   1.754   1.868   1.875
  2.250   2.287   2.299   2.332   2.419   2.440   2.484   2.551
  2.607   2.667   2.675   2.678   2.792   2.811   2.835   2.846
  2.894   2.915   2.940   2.988   2.993   2.994   3.075   3.093
  3.105   3.114   3.150   3.220   3.230   3.234   3.273   3.308
  3.317   3.336   3.359   3.402   3.442   3.444   3.475   3.494
  3.505   3.532   3.557   3.635   3.643   3.650   3.687   3.738
  3.773   3.781   3.821   3.822   3.846   3.895   3.896   3.925
  3.930   3.960   3.993   4.023   4.046   4.080   4.123   4.130
  4.151   4.191   4.202   4.255   4.274   4.309   4.325   4.358
  4.368   4.471   4.486   4.697   4.709   4.758   4.765   4.816
  4.831   4.875   4.879   4.934   4.967   5.035   5.100   5.131
  5.193   5.260   5.264   5.310   5.319   5.356   5.385   5.453
  5.529   5.560   5.666   5.749   5.777   5.805   5.813   5.891
  6.039   6.068   6.148   6.720  12.158  12.823  13.424
 
 Beta MOs
 -- Occupied --
-14.719 -10.556 -10.524  -0.985  -0.823  -0.694  -0.570  -0.506
 -0.478  -0.474  -0.422  -0.400  -0.305
 -- Virtual --
  0.066   0.106   0.110   0.120   0.151   0.160   0.179   0.213
  0.260   0.291   0.303   0.358   0.362   0.368   0.421   0.447
  0.468   0.484   0.502   0.513   0.527   0.535   0.552   0.587
  0.597   0.624   0.638   0.677   0.761   0.790   0.811   0.856
  0.863   0.951   0.970   1.006   1.026   1.058   1.094   1.103
  1.126   1.182   1.182   1.203   1.208   1.218   1.251   1.308
  1.320   1.332   1.345   1.359   1.423   1.423   1.461   1.493
  1.569   1.569   1.607   1.620   1.688   1.754   1.868   1.875
  2.250   2.287   2.299   2.332   2.419   2.440   2.484   2.551
  2.607   2.667   2.675   2.678   2.792   2.811   2.835   2.846
  2.894   2.915   2.940   2.988   2.993   2.994   3.075   3.093
  3.105   3.114   3.150   3.220   3.230   3.234   3.273   3.308
  3.317   3.336   3.359   3.402   3.442   3.444   3.475   3.494
  3.505   3.532   3.557   3.635   3.643   3.650   3.687   3.738
  3.773   3.781   3.821   3.822   3.846   3.895   3.896   3.925
  3.930   3.960   3.993   4.023   4.046   4.080   4.123   4.130
  4.151   4.191   4.202   4.255   4.274   4.309   4.325   4.358
  4.368   4.471   4.486   4.697   4.709   4.758   4.765   4.816
  4.831   4.875   4.879   4.934   4.967   5.035   5.100   5.131
  5.193   5.260   5.264   5.310   5.319   5.356   5.385   5.453
  5.529   5.560   5.666   5.749   5.777   5.805   5.813   5.891
  6.039   6.068   6.148   6.720  12.158  12.823  13.424
 --------------------------------------------------------------
 
          Ground-State Mulliken Net Atomic Charges

     Atom                 Charge (a.u.)    Spin (a.u.)
  --------------------------------------------------------
      1 C                    -0.314600       0.000000
      2 C                    -0.126990       0.000000
      3 N                    -0.414422       0.000000
      4 H                     0.097367       0.000000
      5 H                     0.098086       0.000000
      6 H                     0.098083       0.000000
      7 H                     0.113027       0.000000
      8 H                     0.113024       0.000000
      9 H                     0.168211       0.000000
     10 H                     0.168215       0.000000
  --------------------------------------------------------
  Sum of atomic charges =     0.000000
  Sum of spin   charges =     0.000000

 -----------------------------------------------------------------
                    Cartesian Multipole Moments
 -----------------------------------------------------------------
    Charge (ESU x 10^10)
                 0.0000
    Dipole Moment (Debye)
         X       1.0008      Y      -0.8152      Z       0.0004
       Tot       1.2908
    Quadrupole Moments (Debye-Ang)
        XX     -24.3916     XY       2.2006     YY     -20.1337
        XZ      -0.0011     YZ       0.0004     ZZ     -19.2368
    Octopole Moments (Debye-Ang^2)
       XXX       4.5384    XXY      -2.8096    XYY      -2.2164
       YYY      -1.0775    XXZ       0.0018    XYZ      -0.0002
       YYZ      -0.0009    XZZ      -2.8685    YZZ      -1.4941
       ZZZ       0.0011
    Hexadecapole Moments (Debye-Ang^3)
      XXXX    -194.7306   XXXY       9.5993   XXYY     -38.5842
      XYYY       3.5737   YYYY     -63.6009   XXXZ      -0.0041
      XXYZ       0.0007   XYYZ       0.0004   YYYZ       0.0011
      XXZZ     -34.7619   XYZZ       1.7672   YYZZ     -14.5138
      XZZZ      -0.0020   YZZZ       0.0001   ZZZZ     -38.1876
 -----------------------------------------------------------------
 Calculating analytic gradient of the SCF energy
 Gradient of SCF Energy
            1           2           3           4           5           6
    1   0.0001223  -0.0001497   0.0000436  -0.0000423   0.0000066  -0.0000007
    2  -0.0001667   0.0001519   0.0000727   0.0000491   0.0000302   0.0000375
    3   0.0000015  -0.0000048   0.0000066   0.0000003  -0.0000065   0.0000028
            7           8           9          10
    1  -0.0000049  -0.0000086   0.0000145   0.0000191
    2  -0.0000524  -0.0000587  -0.0000387  -0.0000248
    3   0.0000010   0.0000049  -0.0000481   0.0000423
 Max gradient component =       1.667E-04
 RMS gradient           =       6.198E-05
 Gradient time:  CPU 6.18 s  wall 6.76 s
 Geometry Optimization Parameters
   NAtoms,    NIC,     NZ,  NCons,   NDum,   NFix, NCnnct, MaxDiis
       10      59       0       1       0       0       0       0


** CONSTRAINED OPTIMIZATION IN DELOCALIZED INTERNAL COORDINATES **
   Searching for a Minimum

   Optimization Cycle:   1

                       Coordinates (Angstroms)
     ATOM                X               Y               Z
      1  C         1.2290994110   -0.2648951642    0.0000138730
      2  C        -0.0424050155    0.5765707840   -0.0000412512
      3  N        -1.2895781384   -0.1844626053   -0.0000368083
      4  H         2.1239586838    0.3574632141    0.0000698482
      5  H         1.2639839348   -0.9052870957   -0.8820713487
      6  H         1.2638121798   -0.9052086023    0.8821487436
      7  H        -0.0520579379    1.2294511413   -0.8732462014
      8  H        -0.0521267345    1.2293275761    0.8732588111
      9  H        -1.3202626955   -0.7925234756   -0.8100269566
     10  H        -1.3204268343   -0.7920382396    0.8102890309
   Point Group: c1    Number of degrees of freedom:    24


   Energy is   -135.153028070

              Constraints and their Current Values
                                        Value     Constraint
   Dihedral:        4   1   2   3     -179.996     -170.000

 Attempting to Generate Delocalized Internal Coordinates

   Using Lagrange Multiplier Algorithm


 25 Hessian modes will be used to form the next step
  Hessian Eigenvalues:
    -0.977753    0.045000    0.054086    0.072352    0.075762    0.081381
     0.083538    0.114005    0.135703    0.160000    0.160000    0.160000
     0.160000    0.160000    0.220146    0.299159    0.347442    0.347455
     0.347735    0.347738    0.348125    0.368355    0.454255    0.454284
     1.022753

 Minimum Search - Taking P-RFO Step
 Searching for Lamda that Maximizes Along the Constraint modes Only
 Value Taken    Lamda =   0.01566749
 Searching for Lamda that Minimizes Along All other modes
 Value Taken    Lamda =  -0.01434403
 Step Taken.  Stepsize is  0.171888

                             Maximum     Tolerance    Cnvgd?
         Gradient            0.174472       0.000300      NO
         Displacement        0.171886       0.001200      NO
         Energy change     *********       0.000001      NO


 New Cartesian Coordinates Obtained by Inverse Iteration

 Displacement from previous Coordinates is:  0.299802
 ----------------------------------------------------------------
             Standard Nuclear Orientation (Angstroms)
    I     Atom           X                Y                Z
 ----------------------------------------------------------------
    1      C       1.2292598142    -0.2638137544    -0.0340328155
    2      C      -0.0424719285     0.5769495498    -0.0393329403
    3      N      -1.2879706529    -0.1844058085     0.0239090962
    4      H       2.1186536086     0.3537941063     0.0912011549
    5      H       1.3083900894    -0.9028824786    -0.9142292506
    6      H       1.2184795334    -0.9053758048     0.8478390985
    7      H      -0.0383520050     1.2542219825    -0.8938605119
    8      H      -0.0653289980     1.2042605398     0.8522348560
    9      H      -1.3528350296    -0.8029783656    -0.7759662718
   10      H      -1.2838275784    -0.7813724336     0.8425953250
 ----------------------------------------------------------------
 Molecular Point Group                 C1    NOp =  1
 Largest Abelian Subgroup              C1    NOp =  1
 Nuclear Repulsion Energy =    83.0586560171 hartrees
 There are       13 alpha and       13 beta electrons

                       Distance Matrix (Angstroms)
             C (  1)   C (  2)   N (  3)   H (  4)   H (  5)   H (  6)
   C (  2)  1.524537
   N (  3)  2.519149  1.461139
   H (  4)  1.090020  2.176534  3.449533
   H (  5)  1.090604  2.186361  2.852613  1.801847
   H (  6)  1.090604  2.138776  2.735133  1.722882  1.764362
   H (  7)  2.156519  1.090382  2.115064  2.536492  2.543075  3.045818
   H (  8)  2.148644  1.090383  2.027158  2.464193  3.073687  2.469565
   H (  9)  2.740142  2.040559  1.013232  3.760497  2.666686  3.042842
   H ( 10)  2.711448  2.040539  1.013229  3.664707  3.133814  2.505383
             H (  7)   H (  8)   H (  9)
   H (  8)  1.747018
   H (  9)  2.444144  2.887511
   H ( 10)  2.951293  2.329715  1.620176
 
 Applying Cartesian multipole field
    Component          Value
    ---------          -----
     (2,0,0)        1.00000E-11
     (0,2,0)        2.00000E-10
     (0,0,2)       -3.00000E-10
 Nucleus-field energy     =     0.0000000026 hartrees
 Requested basis set is cc-pVTZ
 There are 72 shells and 188 basis functions
 A cutoff of  1.0D-11 yielded   2592 shell pairs
 There are     17788 function pairs (     22268 Cartesian)
 Smallest overlap matrix eigenvalue = 8.40E-04
 Guess from superposition of atomic densities
 Warning:  Energy on first SCF cycle will be non-variational
 An unrestricted hybrid HF-DFT SCF calculation will be
 performed using Pulay DIIS extrapolation
 Exchange:     0.5400 Hartree-Fock + 1.0000 M06-2X
 Correlation:  1.0000 M06-2X
 Using SG-1 standard quadrature grid
 SCF converges when DIIS error is below 1.0E-08
 ---------------------------------------
  Cycle       Energy         DIIS Error
 ---------------------------------------
    1    -126.0868100796      3.49E-02
    2    -134.9340285966      1.34E-02
    3    -135.0991142085      4.00E-03
    4    -135.1215319724      2.88E-03
    5    -135.1511533188      2.91E-04
    6    -135.1514618077      5.92E-05
    7    -135.1514769537      8.52E-06
    8    -135.1514772963      3.07E-06
    9    -135.1514773325      9.03E-07
   10    -135.1514773365      1.08E-07
   11    -135.1514773366      2.67E-08
   12    -135.1514773366      6.02E-09 Convergence criterion met
 ---------------------------------------
 <S^2> = 0.0000
 SCF time:  CPU 21.13 s  wall 26.57 s
 SCF   energy in the final basis set = -135.1514773366
 Total energy in the final basis set = -135.1514773366
 
 --------------------------------------------------------------
 
                    Orbital Energies (a.u.)
 --------------------------------------------------------------
 
 Alpha MOs
 -- Occupied --
-14.719 -10.556 -10.524  -0.985  -0.824  -0.694  -0.571  -0.506
 -0.480  -0.473  -0.421  -0.399  -0.305
 -- Virtual --
  0.065   0.106   0.110   0.120   0.150   0.160   0.180   0.214
  0.259   0.291   0.303   0.353   0.366   0.368   0.422   0.447
  0.468   0.484   0.502   0.513   0.526   0.536   0.553   0.587
  0.597   0.624   0.637   0.676   0.758   0.787   0.816   0.852
  0.871   0.948   0.973   1.004   1.028   1.057   1.094   1.101
  1.126   1.174   1.186   1.203   1.208   1.221   1.250   1.310
  1.315   1.330   1.346   1.368   1.418   1.430   1.461   1.492
  1.559   1.575   1.606   1.623   1.690   1.753   1.860   1.878
  2.248   2.275   2.311   2.337   2.422   2.442   2.484   2.551
  2.607   2.660   2.675   2.687   2.792   2.812   2.828   2.844
  2.895   2.917   2.942   2.988   2.993   2.994   3.075   3.090
  3.105   3.117   3.149   3.219   3.225   3.237   3.272   3.308
  3.313   3.340   3.367   3.402   3.433   3.446   3.473   3.493
  3.497   3.536   3.564   3.618   3.648   3.656   3.684   3.737
  3.764   3.776   3.809   3.837   3.845   3.892   3.899   3.923
  3.934   3.956   4.000   4.025   4.038   4.083   4.114   4.134
  4.152   4.199   4.204   4.251   4.273   4.312   4.323   4.347
  4.385   4.469   4.487   4.684   4.701   4.747   4.774   4.820
  4.832   4.882   4.888   4.925   4.979   5.026   5.107   5.143
  5.185   5.228   5.265   5.319   5.327   5.361   5.397   5.464
  5.529   5.562   5.666   5.735   5.783   5.792   5.830   5.893
  6.035   6.070   6.154   6.721  12.154  12.830  13.414
 
 Beta MOs
 -- Occupied --
-14.719 -10.556 -10.524  -0.985  -0.824  -0.694  -0.571  -0.506
 -0.480  -0.473  -0.421  -0.399  -0.305
 -- Virtual --
  0.065   0.106   0.110   0.120   0.150   0.160   0.180   0.214
  0.259   0.291   0.303   0.353   0.366   0.368   0.422   0.447
  0.468   0.484   0.502   0.513   0.526   0.536   0.553   0.587
  0.597   0.624   0.637   0.676   0.758   0.787   0.816   0.852
  0.871   0.948   0.973   1.004   1.028   1.057   1.094   1.101
  1.126   1.174   1.186   1.203   1.208   1.221   1.250   1.310
  1.315   1.330   1.346   1.368   1.418   1.430   1.461   1.492
  1.559   1.575   1.606   1.623   1.690   1.753   1.860   1.878
  2.248   2.275   2.311   2.337   2.422   2.442   2.484   2.551
  2.607   2.660   2.675   2.687   2.792   2.812   2.828   2.844
  2.895   2.917   2.942   2.988   2.993   2.994   3.075   3.090
  3.105   3.117   3.149   3.219   3.225   3.237   3.272   3.308
  3.313   3.340   3.367   3.402   3.433   3.446   3.473   3.493
  3.497   3.536   3.564   3.618   3.648   3.656   3.684   3.737
  3.764   3.776   3.809   3.837   3.845   3.892   3.899   3.923
  3.934   3.956   4.000   4.025   4.038   4.083   4.114   4.134
  4.152   4.199   4.204   4.251   4.273   4.312   4.323   4.347
  4.385   4.469   4.487   4.684   4.701   4.747   4.774   4.820
  4.832   4.882   4.888   4.925   4.979   5.026   5.107   5.143
  5.185   5.228   5.265   5.319   5.327   5.361   5.397   5.464
  5.529   5.562   5.666   5.735   5.783   5.792   5.830   5.893
  6.035   6.070   6.154   6.721  12.154  12.830  13.414
 --------------------------------------------------------------
 
          Ground-State Mulliken Net Atomic Charges

     Atom                 Charge (a.u.)    Spin (a.u.)
  --------------------------------------------------------
      1 C                    -0.316622       0.000000
      2 C                    -0.126761       0.000000
      3 N                    -0.414606       0.000000
      4 H                     0.098801       0.000000
      5 H                     0.102759       0.000000
      6 H                     0.093424       0.000000
      7 H                     0.114560       0.000000
      8 H                     0.112007       0.000000
      9 H                     0.166041       0.000000
     10 H                     0.170397       0.000000
  --------------------------------------------------------
  Sum of atomic charges =     0.000000
  Sum of spin   charges =     0.000000

 -----------------------------------------------------------------
                    Cartesian Multipole Moments
 -----------------------------------------------------------------
    Charge (ESU x 10^10)
                 0.0000
    Dipole Moment (Debye)
         X       0.9995      Y      -0.8170      Z       0.0078
       Tot       1.2909
    Quadrupole Moments (Debye-Ang)
        XX     -24.4082     XY       2.1864     YY     -20.1409
        XZ       0.1423     YZ      -0.0069     ZZ     -19.2248
    Octopole Moments (Debye-Ang^2)
       XXX       4.4368    XXY      -2.8439    XYY      -2.2281
       YYY      -1.0936    XXZ       0.2247    XYZ       0.1683
       YYZ       0.0359    XZZ      -2.8302    YZZ      -1.4974
       ZZZ       0.7269
    Hexadecapole Moments (Debye-Ang^3)
      XXXX    -194.6539   XXXY       9.4861   XXYY     -38.5620
      XYYY       3.5724   YYYY     -63.5740   XXXZ       2.5653
      XXYZ       0.5231   XYYZ       0.2441   YYYZ       0.2253
      XXZZ     -34.7058   XYZZ       1.7663   YYZZ     -14.5233
      XZZZ       0.9266   YZZZ       0.3087   ZZZZ     -38.3004
 -----------------------------------------------------------------
 Calculating analytic gradient of the SCF energy
 Gradient of SCF Energy
            1           2           3           4           5           6
    1   0.0007819  -0.0004975   0.0006644  -0.0009583  -0.0012714   0.0011414
    2   0.0006502   0.0000357   0.0002522  -0.0009153  -0.0026962   0.0032639
    3  -0.0100288  -0.0096205   0.0090285   0.0072742   0.0003670   0.0006389
            7           8           9          10
    1   0.0047387  -0.0048407   0.0009145  -0.0006730
    2   0.0023712  -0.0029836   0.0008096  -0.0007877
    3   0.0010741   0.0010766   0.0000293   0.0001609
 Max gradient component =       1.003E-02
 RMS gradient           =       3.732E-03
 Gradient time:  CPU 6.02 s  wall 6.54 s
 Geometry Optimization Parameters
   NAtoms,    NIC,     NZ,  NCons,   NDum,   NFix, NCnnct, MaxDiis
       10      59       0       1       0       0       0       0

 Cartesian Hessian Update
 Hessian Updated using BFGS Update


** CONSTRAINED OPTIMIZATION IN DELOCALIZED INTERNAL COORDINATES **
   Searching for a Minimum

   Optimization Cycle:   2

                       Coordinates (Angstroms)
     ATOM                X               Y               Z
      1  C         1.2292598142   -0.2638137544   -0.0340328155
      2  C        -0.0424719285    0.5769495498   -0.0393329403
      3  N        -1.2879706529   -0.1844058085    0.0239090962
      4  H         2.1186536086    0.3537941063    0.0912011549
      5  H         1.3083900894   -0.9028824786   -0.9142292506
      6  H         1.2184795334   -0.9053758048    0.8478390985
      7  H        -0.0383520050    1.2542219825   -0.8938605119
      8  H        -0.0653289980    1.2042605398    0.8522348560
      9  H        -1.3528350296   -0.8029783656   -0.7759662718
     10  H        -1.2838275784   -0.7813724336    0.8425953250
   Point Group: c1    Number of degrees of freedom:    24


   Energy is   -135.151477337

              Constraints and their Current Values
                                        Value     Constraint
   Dihedral:        4   1   2   3     -170.148     -170.000
 Hessian Updated using BFGS Update

   Using Lagrange Multiplier Algorithm


 22 Hessian modes will be used to form the next step
  Hessian Eigenvalues:
    -0.950894    0.045005    0.061664    0.072358    0.075881    0.081424
     0.083555    0.114005    0.150072    0.159995    0.165555    0.220460
     0.299259    0.347447    0.347660    0.347735    0.348087    0.349212
     0.368421    0.454267    0.454528    1.055029

 Minimum Search - Taking P-RFO Step
 Searching for Lamda that Maximizes Along the Constraint modes Only
 Value Taken    Lamda =   0.00007751
 Searching for Lamda that Minimizes Along All other modes
 Value Taken    Lamda =  -0.00078662
 Step Taken.  Stepsize is  0.087585

                             Maximum     Tolerance    Cnvgd?
         Gradient            0.010242       0.000300      NO
         Displacement        0.063854       0.001200      NO
         Energy change      0.001551       0.000001      NO


 New Cartesian Coordinates Obtained by Inverse Iteration

 Displacement from previous Coordinates is:  0.078196
 ----------------------------------------------------------------
             Standard Nuclear Orientation (Angstroms)
    I     Atom           X                Y                Z
 ----------------------------------------------------------------
    1      C       1.2310150793    -0.2633852676    -0.0286197040
    2      C      -0.0424166454     0.5757473277    -0.0380252239
    3      N      -1.2898684335    -0.1839191439     0.0204974159
    4      H       2.1200422945     0.3544837012     0.1025548252
    5      H       1.3163327721    -0.8903511510    -0.9151856523
    6      H       1.2172560646    -0.9190953010     0.8448339440
    7      H      -0.0585355414     1.2448887806    -0.8978270811
    8      H      -0.0452631408     1.2131896644     0.8477143067
    9      H      -1.3610327832    -0.8060117830    -0.7767678314
   10      H      -1.2835328130    -0.7771492945     0.8411827414
 ----------------------------------------------------------------
 Molecular Point Group                 C1    NOp =  1
 Largest Abelian Subgroup              C1    NOp =  1
 Nuclear Repulsion Energy =    83.0129894903 hartrees
 There are       13 alpha and       13 beta electrons

                       Distance Matrix (Angstroms)
             C (  1)   C (  2)   N (  3)   H (  4)   H (  5)   H (  6)
   C (  2)  1.525077
   N (  3)  2.522614  1.461730
   H (  4)  1.090568  2.178290  3.453129
   H (  5)  1.089204  2.182901  2.857767  1.797598
   H (  6)  1.092276  2.144941  2.739651  1.728585  1.763040
   H (  7)  2.166415  1.089619  2.097854  2.557301  2.539648  3.057342
   H (  8)  2.139421  1.091272  2.045787  2.445646  3.063763  2.478024
   H (  9)  2.751887  2.047864  1.013753  3.773306  2.682267  3.047943
   H ( 10)  2.709882  2.035609  1.012663  3.662033  3.139577  2.504817
             H (  7)   H (  8)   H (  9)
   H (  8)  1.745880
   H (  9)  2.432560  2.906435
   H ( 10)  2.934861  2.344100  1.620063
 
 Applying Cartesian multipole field
    Component          Value
    ---------          -----
     (2,0,0)        1.00000E-11
     (0,2,0)        2.00000E-10
     (0,0,2)       -3.00000E-10
 Nucleus-field energy     =     0.0000000026 hartrees
 Requested basis set is cc-pVTZ
 There are 72 shells and 188 basis functions
 A cutoff of  1.0D-11 yielded   2592 shell pairs
 There are     17788 function pairs (     22268 Cartesian)
 Smallest overlap matrix eigenvalue = 8.47E-04
 Guess from superposition of atomic densities
 Warning:  Energy on first SCF cycle will be non-variational
 An unrestricted hybrid HF-DFT SCF calculation will be
 performed using Pulay DIIS extrapolation
 Exchange:     0.5400 Hartree-Fock + 1.0000 M06-2X
 Correlation:  1.0000 M06-2X
 Using SG-1 standard quadrature grid
 SCF converges when DIIS error is below 1.0E-08
 ---------------------------------------
  Cycle       Energy         DIIS Error
 ---------------------------------------
    1    -126.0841290666      3.49E-02
    2    -134.9344351581      1.34E-02
    3    -135.0996719490      4.00E-03
    4    -135.1220758537      2.88E-03
    5    -135.1516734182      2.91E-04
    6    -135.1519824509      5.91E-05
    7    -135.1519975747      8.53E-06
    8    -135.1519979178      3.08E-06
    9    -135.1519979542      9.02E-07
   10    -135.1519979582      1.08E-07
   11    -135.1519979582      2.70E-08
   12    -135.1519979582      6.15E-09 Convergence criterion met
 ---------------------------------------
 <S^2> = 0.0000
 SCF time:  CPU 21.05 s  wall 26.27 s
 SCF   energy in the final basis set = -135.1519979582
 Total energy in the final basis set = -135.1519979582
 
 --------------------------------------------------------------
 
                    Orbital Energies (a.u.)
 --------------------------------------------------------------
 
 Alpha MOs
 -- Occupied --
-14.719 -10.556 -10.524  -0.985  -0.824  -0.694  -0.570  -0.505
 -0.479  -0.473  -0.421  -0.400  -0.305
 -- Virtual --
  0.065   0.106   0.110   0.120   0.149   0.161   0.180   0.214
  0.259   0.291   0.303   0.352   0.366   0.370   0.422   0.447
  0.468   0.484   0.502   0.513   0.526   0.535   0.552   0.587
  0.597   0.624   0.637   0.675   0.759   0.786   0.816   0.854
  0.870   0.947   0.973   1.005   1.027   1.057   1.093   1.101
  1.127   1.174   1.183   1.204   1.210   1.223   1.249   1.309
  1.314   1.330   1.344   1.366   1.420   1.429   1.462   1.492
  1.562   1.573   1.606   1.622   1.690   1.753   1.863   1.877
  2.249   2.271   2.314   2.334   2.421   2.441   2.484   2.551
  2.606   2.665   2.675   2.682   2.792   2.811   2.828   2.846
  2.894   2.917   2.941   2.989   2.992   2.995   3.076   3.087
  3.105   3.117   3.149   3.219   3.228   3.236   3.273   3.310
  3.313   3.341   3.361   3.402   3.435   3.444   3.472   3.494
  3.500   3.535   3.562   3.619   3.646   3.656   3.681   3.737
  3.768   3.775   3.804   3.837   3.845   3.891   3.900   3.922
  3.935   3.956   3.998   4.026   4.041   4.082   4.114   4.133
  4.153   4.194   4.206   4.253   4.272   4.311   4.324   4.350
  4.380   4.470   4.487   4.689   4.702   4.744   4.772   4.818
  4.827   4.881   4.884   4.928   4.972   5.026   5.105   5.138
  5.185   5.232   5.267   5.320   5.322   5.360   5.392   5.458
  5.528   5.561   5.666   5.746   5.779   5.788   5.827   5.892
  6.036   6.069   6.150   6.721  12.143  12.822  13.403
 
 Beta MOs
 -- Occupied --
-14.719 -10.556 -10.524  -0.985  -0.824  -0.694  -0.570  -0.505
 -0.479  -0.473  -0.421  -0.400  -0.305
 -- Virtual --
  0.065   0.106   0.110   0.120   0.149   0.161   0.180   0.214
  0.259   0.291   0.303   0.352   0.366   0.370   0.422   0.447
  0.468   0.484   0.502   0.513   0.526   0.535   0.552   0.587
  0.597   0.624   0.637   0.675   0.759   0.786   0.816   0.854
  0.870   0.947   0.973   1.005   1.027   1.057   1.093   1.101
  1.127   1.174   1.183   1.204   1.210   1.223   1.249   1.309
  1.314   1.330   1.344   1.366   1.420   1.429   1.462   1.492
  1.562   1.573   1.606   1.622   1.690   1.753   1.863   1.877
  2.249   2.271   2.314   2.334   2.421   2.441   2.484   2.551
  2.606   2.665   2.675   2.682   2.792   2.811   2.828   2.846
  2.894   2.917   2.941   2.989   2.992   2.995   3.076   3.087
  3.105   3.117   3.149   3.219   3.228   3.236   3.273   3.310
  3.313   3.341   3.361   3.402   3.435   3.444   3.472   3.494
  3.500   3.535   3.562   3.619   3.646   3.656   3.681   3.737
  3.768   3.775   3.804   3.837   3.845   3.891   3.900   3.922
  3.935   3.956   3.998   4.026   4.041   4.082   4.114   4.133
  4.153   4.194   4.206   4.253   4.272   4.311   4.324   4.350
  4.380   4.470   4.487   4.689   4.702   4.744   4.772   4.818
  4.827   4.881   4.884   4.928   4.972   5.026   5.105   5.138
  5.185   5.232   5.267   5.320   5.322   5.360   5.392   5.458
  5.528   5.561   5.666   5.746   5.779   5.788   5.827   5.892
  6.036   6.069   6.150   6.721  12.143  12.822  13.403
 --------------------------------------------------------------
 
          Ground-State Mulliken Net Atomic Charges

     Atom                 Charge (a.u.)    Spin (a.u.)
  --------------------------------------------------------
      1 C                    -0.316607       0.000000
      2 C                    -0.126252       0.000000
      3 N                    -0.414956       0.000000
      4 H                     0.098668       0.000000
      5 H                     0.102838       0.000000
      6 H                     0.093582       0.000000
      7 H                     0.114563       0.000000
      8 H                     0.111553       0.000000
      9 H                     0.167367       0.000000
     10 H                     0.169245       0.000000
  --------------------------------------------------------
  Sum of atomic charges =     0.000000
  Sum of spin   charges =     0.000000

 -----------------------------------------------------------------
                    Cartesian Multipole Moments
 -----------------------------------------------------------------
    Charge (ESU x 10^10)
                 0.0000
    Dipole Moment (Debye)
         X       0.9961      Y      -0.8193      Z       0.0040
       Tot       1.2898
    Quadrupole Moments (Debye-Ang)
        XX     -24.3860     XY       2.1949     YY     -20.1408
        XZ       0.1951     YZ       0.0022     ZZ     -19.2326
    Octopole Moments (Debye-Ang^2)
       XXX       4.4135    XXY      -2.8771    XYY      -2.2312
       YYY      -1.0909    XXZ       0.1565    XYZ       0.1666
       YYZ       0.0523    XZZ      -2.8363    YZZ      -1.4905
       ZZZ       0.6311
    Hexadecapole Moments (Debye-Ang^3)
      XXXX    -195.0508   XXXY       9.5607   XXYY     -38.6184
      XYYY       3.5737   YYYY     -63.5096   XXXZ       2.3428
      XXYZ       0.5773   XYYZ       0.2972   YYYZ       0.2629
      XXZZ     -34.7618   XYZZ       1.7701   YYZZ     -14.5149
      XZZZ       0.6713   YZZZ       0.3197   ZZZZ     -38.2872
 -----------------------------------------------------------------
 Calculating analytic gradient of the SCF energy
 Gradient of SCF Energy
            1           2           3           4           5           6
    1   0.0007797  -0.0002470  -0.0001529  -0.0004871  -0.0014067   0.0013474
    2   0.0009959  -0.0001623   0.0000182  -0.0008018  -0.0017385   0.0018873
    3  -0.0085389  -0.0078169   0.0053771   0.0066407   0.0009841   0.0011516
            7           8           9          10
    1   0.0018651  -0.0017697  -0.0001693   0.0002404
    2   0.0017432  -0.0018745  -0.0000870   0.0000195
    3   0.0011931   0.0012603  -0.0001008  -0.0001504
 Max gradient component =       8.539E-03
 RMS gradient           =       2.820E-03
 Gradient time:  CPU 6.02 s  wall 6.57 s
 Geometry Optimization Parameters
   NAtoms,    NIC,     NZ,  NCons,   NDum,   NFix, NCnnct, MaxDiis
       10      59       0       1       0       0       0       0

 Cartesian Hessian Update
 Hessian Updated using BFGS Update


** CONSTRAINED OPTIMIZATION IN DELOCALIZED INTERNAL COORDINATES **
   Searching for a Minimum

   Optimization Cycle:   3

                       Coordinates (Angstroms)
     ATOM                X               Y               Z
      1  C         1.2310150793   -0.2633852676   -0.0286197040
      2  C        -0.0424166454    0.5757473277   -0.0380252239
      3  N        -1.2898684335   -0.1839191439    0.0204974159
      4  H         2.1200422945    0.3544837012    0.1025548252
      5  H         1.3163327721   -0.8903511510   -0.9151856523
      6  H         1.2172560646   -0.9190953010    0.8448339440
      7  H        -0.0585355414    1.2448887806   -0.8978270811
      8  H        -0.0452631408    1.2131896644    0.8477143067
      9  H        -1.3610327832   -0.8060117830   -0.7767678314
     10  H        -1.2835328130   -0.7771492945    0.8411827414
   Point Group: c1    Number of degrees of freedom:    24


   Energy is   -135.151997958

              Constraints and their Current Values
                                        Value     Constraint
   Dihedral:        4   1   2   3     -170.000     -170.000
 Hessian Updated using BFGS Update

 21 Hessian modes will be used to form the next step
  Hessian Eigenvalues:
     0.026835    0.045012    0.072347    0.075552    0.081415    0.083573
     0.113991    0.143841    0.159855    0.159998    0.201717    0.220984
     0.299623    0.347431    0.347669    0.347736    0.348093    0.353159
     0.371241    0.454267    0.457059

 Minimum Search - Taking Simple RFO Step
 Searching for Lamda that Minimizes Along All modes
 Value Taken    Lamda =  -0.00067819
 Step Taken.  Stepsize is  0.155772

                             Maximum     Tolerance    Cnvgd?
         Gradient           0.003266      0.000300      NO
         Displacement       0.114795      0.001200      NO
         Energy change     -0.000521      0.000001      NO


 New Cartesian Coordinates Obtained by Inverse Iteration

 Displacement from previous Coordinates is:  0.125955
 ----------------------------------------------------------------
             Standard Nuclear Orientation (Angstroms)
    I     Atom           X                Y                Z
 ----------------------------------------------------------------
    1      C       1.2322557406    -0.2639341106    -0.0207421258
    2      C      -0.0419997229     0.5739292285    -0.0310948471
    3      N      -1.2906477975    -0.1827416849     0.0218352025
    4      H       2.1195959016     0.3558624900     0.1146271839
    5      H       1.3309736078    -0.8631628661    -0.9243636518
    6      H       1.2090396732    -0.9479847947     0.8316849731
    7      H      -0.0763524032     1.2227125789    -0.9053106887
    8      H      -0.0279593521     1.2336167932     0.8385615728
    9      H      -1.3529939504    -0.8099525257    -0.7718590338
   10      H      -1.2979148439    -0.7699475758     0.8470191556
 ----------------------------------------------------------------
 Molecular Point Group                 C1    NOp =  1
 Largest Abelian Subgroup              C1    NOp =  1
 Nuclear Repulsion Energy =    83.0024280717 hartrees
 There are       13 alpha and       13 beta electrons

                       Distance Matrix (Angstroms)
             C (  1)   C (  2)   N (  3)   H (  4)   H (  5)   H (  6)
   C (  2)  1.525073
   N (  3)  2.524569  1.460984
   H (  4)  1.090800  2.177449  3.453761
   H (  5)  1.088739  2.179041  2.869001  1.785343
   H (  6)  1.093205  2.150747  2.736767  1.744506  1.762319
   H (  7)  2.169109  1.089198  2.075913  2.571749  2.516308  3.062893
   H (  8)  2.137570  1.091644  2.065792  2.430335  3.057955  2.507907
   H (  9)  2.746967  2.045132  1.013524  3.768801  2.688823  3.025628
   H ( 10)  2.722283  2.038237  1.012814  3.671951  3.171363  2.513315
             H (  7)   H (  8)   H (  9)
   H (  8)  1.744578
   H (  9)  2.404028  2.919820
   H ( 10)  2.921227  2.372157  1.620309
 
 Applying Cartesian multipole field
    Component          Value
    ---------          -----
     (2,0,0)        1.00000E-11
     (0,2,0)        2.00000E-10
     (0,0,2)       -3.00000E-10
 Nucleus-field energy     =     0.0000000026 hartrees
 Requested basis set is cc-pVTZ
 There are 72 shells and 188 basis functions
 A cutoff of  1.0D-11 yielded   2592 shell pairs
 There are     17788 function pairs (     22268 Cartesian)
 Smallest overlap matrix eigenvalue = 8.56E-04
 Guess from superposition of atomic densities
 Warning:  Energy on first SCF cycle will be non-variational
 An unrestricted hybrid HF-DFT SCF calculation will be
 performed using Pulay DIIS extrapolation
 Exchange:     0.5400 Hartree-Fock + 1.0000 M06-2X
 Correlation:  1.0000 M06-2X
 Using SG-1 standard quadrature grid
 SCF converges when DIIS error is below 1.0E-08
 ---------------------------------------
  Cycle       Energy         DIIS Error
 ---------------------------------------
    1    -126.0841384791      3.49E-02
    2    -134.9349552144      1.34E-02
    3    -135.1001375351      4.00E-03
    4    -135.1225276721      2.87E-03
    5    -135.1521004178      2.91E-04
    6    -135.1524082962      5.90E-05
    7    -135.1524233791      8.53E-06
    8    -135.1524237217      3.08E-06
    9    -135.1524237583      8.99E-07
   10    -135.1524237622      1.08E-07
   11    -135.1524237623      2.67E-08
   12    -135.1524237623      5.97E-09 Convergence criterion met
 ---------------------------------------
 <S^2> = 0.0000
 SCF time:  CPU 21.13 s  wall 26.72 s
 SCF   energy in the final basis set = -135.1524237623
 Total energy in the final basis set = -135.1524237623
 
 --------------------------------------------------------------
 
                    Orbital Energies (a.u.)
 --------------------------------------------------------------
 
 Alpha MOs
 -- Occupied --
-14.719 -10.556 -10.524  -0.985  -0.823  -0.694  -0.570  -0.506
 -0.478  -0.474  -0.421  -0.399  -0.305
 -- Virtual --
  0.066   0.106   0.110   0.120   0.149   0.162   0.179   0.214
  0.260   0.291   0.303   0.352   0.365   0.370   0.421   0.448
  0.468   0.484   0.502   0.513   0.527   0.535   0.551   0.586
  0.597   0.623   0.637   0.675   0.760   0.785   0.817   0.858
  0.868   0.946   0.973   1.006   1.025   1.056   1.093   1.102
  1.126   1.170   1.186   1.204   1.212   1.224   1.250   1.308
  1.316   1.329   1.343   1.364   1.421   1.426   1.461   1.492
  1.565   1.570   1.605   1.621   1.689   1.752   1.867   1.873
  2.249   2.268   2.318   2.331   2.420   2.437   2.486   2.551
  2.606   2.667   2.675   2.678   2.792   2.812   2.831   2.849
  2.893   2.916   2.942   2.987   2.991   2.998   3.076   3.080
  3.106   3.119   3.148   3.219   3.223   3.244   3.272   3.313
  3.314   3.338   3.358   3.404   3.438   3.441   3.473   3.494
  3.505   3.531   3.560   3.622   3.645   3.655   3.682   3.735
  3.768   3.779   3.803   3.833   3.847   3.889   3.900   3.923
  3.934   3.959   3.996   4.029   4.045   4.080   4.115   4.131
  4.155   4.191   4.205   4.256   4.269   4.310   4.325   4.353
  4.375   4.469   4.484   4.693   4.706   4.745   4.768   4.816
  4.831   4.877   4.882   4.930   4.967   5.031   5.104   5.132
  5.185   5.240   5.270   5.311   5.322   5.359   5.385   5.452
  5.527   5.560   5.667   5.750   5.776   5.793   5.820   5.891
  6.041   6.070   6.147   6.722  12.130  12.818  13.403
 
 Beta MOs
 -- Occupied --
-14.719 -10.556 -10.524  -0.985  -0.823  -0.694  -0.570  -0.506
 -0.478  -0.474  -0.421  -0.399  -0.305
 -- Virtual --
  0.066   0.106   0.110   0.120   0.149   0.162   0.179   0.214
  0.260   0.291   0.303   0.352   0.365   0.370   0.421   0.448
  0.468   0.484   0.502   0.513   0.527   0.535   0.551   0.586
  0.597   0.623   0.637   0.675   0.760   0.785   0.817   0.858
  0.868   0.946   0.973   1.006   1.025   1.056   1.093   1.102
  1.126   1.170   1.186   1.204   1.212   1.224   1.250   1.308
  1.316   1.329   1.343   1.364   1.421   1.426   1.461   1.492
  1.565   1.570   1.605   1.621   1.689   1.752   1.867   1.873
  2.249   2.268   2.318   2.331   2.420   2.437   2.486   2.551
  2.606   2.667   2.675   2.678   2.792   2.812   2.831   2.849
  2.893   2.916   2.942   2.987   2.991   2.998   3.076   3.080
  3.106   3.119   3.148   3.219   3.223   3.244   3.272   3.313
  3.314   3.338   3.358   3.404   3.438   3.441   3.473   3.494
  3.505   3.531   3.560   3.622   3.645   3.655   3.682   3.735
  3.768   3.779   3.803   3.833   3.847   3.889   3.900   3.923
  3.934   3.959   3.996   4.029   4.045   4.080   4.115   4.131
  4.155   4.191   4.205   4.256   4.269   4.310   4.325   4.353
  4.375   4.469   4.484   4.693   4.706   4.745   4.768   4.816
  4.831   4.877   4.882   4.930   4.967   5.031   5.104   5.132
  5.185   5.240   5.270   5.311   5.322   5.359   5.385   5.452
  5.527   5.560   5.667   5.750   5.776   5.793   5.820   5.891
  6.041   6.070   6.147   6.722  12.130  12.818  13.403
 --------------------------------------------------------------
 
          Ground-State Mulliken Net Atomic Charges

     Atom                 Charge (a.u.)    Spin (a.u.)
  --------------------------------------------------------
      1 C                    -0.316368       0.000000
      2 C                    -0.125878       0.000000
      3 N                    -0.415425       0.000000
      4 H                     0.098132       0.000000
      5 H                     0.102506       0.000000
      6 H                     0.094395       0.000000
      7 H                     0.114038       0.000000
      8 H                     0.111693       0.000000
      9 H                     0.168210       0.000000
     10 H                     0.168698       0.000000
  --------------------------------------------------------
  Sum of atomic charges =     0.000000
  Sum of spin   charges =     0.000000

 -----------------------------------------------------------------
                    Cartesian Multipole Moments
 -----------------------------------------------------------------
    Charge (ESU x 10^10)
                 0.0000
    Dipole Moment (Debye)
         X       0.9901      Y      -0.8214      Z       0.0065
       Tot       1.2865
    Quadrupole Moments (Debye-Ang)
        XX     -24.3664     XY       2.2068     YY     -20.1423
        XZ       0.1464     YZ       0.0081     ZZ     -19.2373
    Octopole Moments (Debye-Ang^2)
       XXX       4.3718    XXY      -2.8820    XYY      -2.2285
       YYY      -1.0822    XXZ       0.1072    XYZ       0.1832
       YYZ       0.0847    XZZ      -2.8598    YZZ      -1.4828
       ZZZ       0.3678
    Hexadecapole Moments (Debye-Ang^3)
      XXXX    -195.3002   XXXY       9.6707   XXYY     -38.6482
      XYYY       3.6094   YYYY     -63.4312   XXXZ       1.8912
      XXYZ       0.5361   XYYZ       0.4038   YYYZ       0.3174
      XXZZ     -34.7724   XYZZ       1.7917   YYZZ     -14.5190
      XZZZ       0.4773   YZZZ       0.2941   ZZZZ     -38.2542
 -----------------------------------------------------------------
 Calculating analytic gradient of the SCF energy
 Gradient of SCF Energy
            1           2           3           4           5           6
    1   0.0004825  -0.0000160  -0.0001243  -0.0001535  -0.0006591   0.0005843
    2   0.0012497  -0.0007535   0.0002996  -0.0004037  -0.0006213   0.0002059
    3  -0.0056221  -0.0045880   0.0017944   0.0044412   0.0011045   0.0010950
            7           8           9          10
    1  -0.0007869   0.0007233  -0.0002318   0.0001815
    2   0.0005339  -0.0004438  -0.0001670   0.0001003
    3   0.0010016   0.0007737   0.0000078  -0.0000083
 Max gradient component =       5.622E-03
 RMS gradient           =       1.686E-03
 Gradient time:  CPU 6.04 s  wall 6.51 s
 Geometry Optimization Parameters
   NAtoms,    NIC,     NZ,  NCons,   NDum,   NFix, NCnnct, MaxDiis
       10      59       0       1       0       0       0       0

 Cartesian Hessian Update
 Hessian Updated using BFGS Update


** CONSTRAINED OPTIMIZATION IN DELOCALIZED INTERNAL COORDINATES **
   Searching for a Minimum

   Optimization Cycle:   4

                       Coordinates (Angstroms)
     ATOM                X               Y               Z
      1  C         1.2322557406   -0.2639341106   -0.0207421258
      2  C        -0.0419997229    0.5739292285   -0.0310948471
      3  N        -1.2906477975   -0.1827416849    0.0218352025
      4  H         2.1195959016    0.3558624900    0.1146271839
      5  H         1.3309736078   -0.8631628661   -0.9243636518
      6  H         1.2090396732   -0.9479847947    0.8316849731
      7  H        -0.0763524032    1.2227125789   -0.9053106887
      8  H        -0.0279593521    1.2336167932    0.8385615728
      9  H        -1.3529939504   -0.8099525257   -0.7718590338
     10  H        -1.2979148439   -0.7699475758    0.8470191556
   Point Group: c1    Number of degrees of freedom:    24


   Energy is   -135.152423762

              Constraints and their Current Values
                                        Value     Constraint
   Dihedral:        4   1   2   3     -170.000     -170.000
 Hessian Updated using BFGS Update

 22 Hessian modes will be used to form the next step
  Hessian Eigenvalues:
     0.017438    0.045020    0.072351    0.075469    0.081458    0.083596
     0.114107    0.155098    0.159965    0.159999    0.160344    0.209843
     0.225621    0.299627    0.347449    0.347669    0.347772    0.348106
     0.359014    0.371607    0.454269    0.457073

 Minimum Search - Taking Simple RFO Step
 Searching for Lamda that Minimizes Along All modes
 Value Taken    Lamda =  -0.00016177
 Step Taken.  Stepsize is  0.085460

                             Maximum     Tolerance    Cnvgd?
         Gradient           0.002114      0.000300      NO
         Displacement       0.058798      0.001200      NO
         Energy change     -0.000426      0.000001      NO


 New Cartesian Coordinates Obtained by Inverse Iteration

 Displacement from previous Coordinates is:  0.076437
 ----------------------------------------------------------------
             Standard Nuclear Orientation (Angstroms)
    I     Atom           X                Y                Z
 ----------------------------------------------------------------
    1      C       1.2316837158    -0.2647046577    -0.0162239918
    2      C      -0.0420572817     0.5743052228    -0.0265039193
    3      N      -1.2903387912    -0.1828676092     0.0243219435
    4      H       2.1187500458     0.3547685742     0.1207931564
    5      H       1.3360805670    -0.8443242378    -0.9328569375
    6      H       1.2032906343    -0.9660720288     0.8208112777
    7      H      -0.0737829508     1.2106183554    -0.9107244548
    8      H      -0.0297642945     1.2463122140     0.8331921005
    9      H      -1.3452548778    -0.8152444897    -0.7657856485
   10      H      -1.3046099139    -0.7643938105     0.8533342143
 ----------------------------------------------------------------
 Molecular Point Group                 C1    NOp =  1
 Largest Abelian Subgroup              C1    NOp =  1
 Nuclear Repulsion Energy =    83.0056836992 hartrees
 There are       13 alpha and       13 beta electrons

                       Distance Matrix (Angstroms)
             C (  1)   C (  2)   N (  3)   H (  4)   H (  5)   H (  6)
   C (  2)  1.525274
   N (  3)  2.523676  1.460856
   H (  4)  1.090600  2.176920  3.452571
   H (  5)  1.089529  2.175603  2.872594  1.777800
   H (  6)  1.092406  2.154436  2.732397  1.752915  1.762898
   H (  7)  2.163551  1.089838  2.072709  2.569768  2.492187  3.060574
   H (  8)  2.143812  1.091248  2.070235  2.432792  3.058631  2.532829
   H (  9)  2.739626  2.043455  1.013502  3.762218  2.686693  3.005848
   H ( 10)  2.727381  2.039674  1.012738  3.675396  3.189062  2.516207
             H (  7)   H (  8)   H (  9)
   H (  8)  1.744837
   H (  9)  2.396199  2.921859
   H ( 10)  2.920190  2.380877  1.620428
 
 Applying Cartesian multipole field
    Component          Value
    ---------          -----
     (2,0,0)        1.00000E-11
     (0,2,0)        2.00000E-10
     (0,0,2)       -3.00000E-10
 Nucleus-field energy     =     0.0000000026 hartrees
 Requested basis set is cc-pVTZ
 There are 72 shells and 188 basis functions
 A cutoff of  1.0D-11 yielded   2592 shell pairs
 There are     17788 function pairs (     22268 Cartesian)
 Smallest overlap matrix eigenvalue = 8.58E-04
 Guess from superposition of atomic densities
 Warning:  Energy on first SCF cycle will be non-variational
 An unrestricted hybrid HF-DFT SCF calculation will be
 performed using Pulay DIIS extrapolation
 Exchange:     0.5400 Hartree-Fock + 1.0000 M06-2X
 Correlation:  1.0000 M06-2X
 Using SG-1 standard quadrature grid
 SCF converges when DIIS error is below 1.0E-08
 ---------------------------------------
  Cycle       Energy         DIIS Error
 ---------------------------------------
    1    -126.0839935440      3.49E-02
    2    -134.9351211009      1.34E-02
    3    -135.1002681854      4.00E-03
    4    -135.1226425071      2.87E-03
    5    -135.1522080206      2.91E-04
    6    -135.1525153124      5.90E-05
    7    -135.1525303785      8.52E-06
    8    -135.1525307203      3.08E-06
    9    -135.1525307567      8.98E-07
   10    -135.1525307607      1.07E-07
   11    -135.1525307608      2.62E-08
   12    -135.1525307607      5.68E-09 Convergence criterion met
 ---------------------------------------
 <S^2> = 0.0000
 SCF time:  CPU 21.13 s  wall 26.51 s
 SCF   energy in the final basis set = -135.1525307607
 Total energy in the final basis set = -135.1525307607
 
 --------------------------------------------------------------
 
                    Orbital Energies (a.u.)
 --------------------------------------------------------------
 
 Alpha MOs
 -- Occupied --
-14.719 -10.556 -10.524  -0.985  -0.823  -0.694  -0.570  -0.506
 -0.478  -0.474  -0.422  -0.399  -0.304
 -- Virtual --
  0.066   0.106   0.110   0.120   0.148   0.162   0.179   0.214
  0.260   0.291   0.304   0.352   0.365   0.370   0.421   0.448
  0.468   0.484   0.502   0.513   0.527   0.534   0.551   0.587
  0.597   0.622   0.636   0.675   0.761   0.786   0.817   0.860
  0.868   0.945   0.973   1.007   1.025   1.055   1.094   1.102
  1.126   1.169   1.189   1.203   1.213   1.225   1.250   1.307
  1.317   1.329   1.343   1.363   1.420   1.426   1.460   1.492
  1.566   1.569   1.605   1.622   1.689   1.752   1.865   1.872
  2.247   2.268   2.319   2.332   2.419   2.436   2.486   2.551
  2.606   2.666   2.675   2.677   2.792   2.813   2.833   2.850
  2.892   2.916   2.942   2.985   2.992   2.999   3.074   3.078
  3.106   3.121   3.148   3.219   3.221   3.247   3.272   3.312
  3.317   3.337   3.357   3.404   3.438   3.442   3.474   3.493
  3.506   3.529   3.558   3.624   3.645   3.655   3.683   3.734
  3.764   3.784   3.806   3.828   3.847   3.890   3.899   3.927
  3.930   3.961   3.995   4.032   4.047   4.078   4.115   4.129
  4.157   4.192   4.201   4.257   4.267   4.311   4.324   4.355
  4.374   4.468   4.481   4.693   4.707   4.748   4.767   4.816
  4.835   4.876   4.882   4.930   4.965   5.033   5.103   5.130
  5.186   5.242   5.270   5.307   5.324   5.359   5.383   5.450
  5.526   5.559   5.668   5.749   5.775   5.797   5.815   5.891
  6.041   6.071   6.146   6.722  12.121  12.814  13.407
 
 Beta MOs
 -- Occupied --
-14.719 -10.556 -10.524  -0.985  -0.823  -0.694  -0.570  -0.506
 -0.478  -0.474  -0.422  -0.399  -0.304
 -- Virtual --
  0.066   0.106   0.110   0.120   0.148   0.162   0.179   0.214
  0.260   0.291   0.304   0.352   0.365   0.370   0.421   0.448
  0.468   0.484   0.502   0.513   0.527   0.534   0.551   0.587
  0.597   0.622   0.636   0.675   0.761   0.786   0.817   0.860
  0.868   0.945   0.973   1.007   1.025   1.055   1.094   1.102
  1.126   1.169   1.189   1.203   1.213   1.225   1.250   1.307
  1.317   1.329   1.343   1.363   1.420   1.426   1.460   1.492
  1.566   1.569   1.605   1.622   1.689   1.752   1.865   1.872
  2.247   2.268   2.319   2.332   2.419   2.436   2.486   2.551
  2.606   2.666   2.675   2.677   2.792   2.813   2.833   2.850
  2.892   2.916   2.942   2.985   2.992   2.999   3.074   3.078
  3.106   3.121   3.148   3.219   3.221   3.247   3.272   3.312
  3.317   3.337   3.357   3.404   3.438   3.442   3.474   3.493
  3.506   3.529   3.558   3.624   3.645   3.655   3.683   3.734
  3.764   3.784   3.806   3.828   3.847   3.890   3.899   3.927
  3.930   3.961   3.995   4.032   4.047   4.078   4.115   4.129
  4.157   4.192   4.201   4.257   4.267   4.311   4.324   4.355
  4.374   4.468   4.481   4.693   4.707   4.748   4.767   4.816
  4.835   4.876   4.882   4.930   4.965   5.033   5.103   5.130
  5.186   5.242   5.270   5.307   5.324   5.359   5.383   5.450
  5.526   5.559   5.668   5.749   5.775   5.797   5.815   5.891
  6.041   6.071   6.146   6.722  12.121  12.814  13.407
 --------------------------------------------------------------
 
          Ground-State Mulliken Net Atomic Charges

     Atom                 Charge (a.u.)    Spin (a.u.)
  --------------------------------------------------------
      1 C                    -0.316463       0.000000
      2 C                    -0.125609       0.000000
      3 N                    -0.415675       0.000000
      4 H                     0.097831       0.000000
      5 H                     0.102101       0.000000
      6 H                     0.095172       0.000000
      7 H                     0.113260       0.000000
      8 H                     0.112244       0.000000
      9 H                     0.168282       0.000000
     10 H                     0.168857       0.000000
  --------------------------------------------------------
  Sum of atomic charges =     0.000000
  Sum of spin   charges =     0.000000

 -----------------------------------------------------------------
                    Cartesian Multipole Moments
 -----------------------------------------------------------------
    Charge (ESU x 10^10)
                 0.0000
    Dipole Moment (Debye)
         X       0.9905      Y      -0.8198      Z       0.0113
       Tot       1.2858
    Quadrupole Moments (Debye-Ang)
        XX     -24.3724     XY       2.2105     YY     -20.1387
        XZ       0.0843     YZ       0.0093     ZZ     -19.2354
    Octopole Moments (Debye-Ang^2)
       XXX       4.3843    XXY      -2.8669    XYY      -2.2271
       YYY      -1.0801    XXZ       0.0911    XYZ       0.1683
       YYZ       0.1012    XZZ      -2.8603    YZZ      -1.4746
       ZZZ       0.2074
    Hexadecapole Moments (Debye-Ang^3)
      XXXX    -195.2298   XXXY       9.6791   XXYY     -38.6473
      XYYY       3.6255   YYYY     -63.4556   XXXZ       1.7186
      XXYZ       0.4993   XYYZ       0.4701   YYYZ       0.3531
      XXZZ     -34.7466   XYZZ       1.8043   YYZZ     -14.5377
      XZZZ       0.4272   YZZZ       0.2749   ZZZZ     -38.2328
 -----------------------------------------------------------------
 Calculating analytic gradient of the SCF energy
 Gradient of SCF Energy
            1           2           3           4           5           6
    1   0.0002946  -0.0000344   0.0000409  -0.0001925  -0.0001469   0.0001197
    2   0.0008779  -0.0006022   0.0001284  -0.0002786  -0.0002152  -0.0001137
    3  -0.0034943  -0.0025188   0.0012913   0.0030535   0.0005644   0.0004810
            7           8           9          10
    1  -0.0007626   0.0007756  -0.0001079   0.0000135
    2   0.0001945   0.0000636  -0.0001616   0.0001069
    3   0.0003815   0.0002977  -0.0000215  -0.0000348
 Max gradient component =       3.494E-03
 RMS gradient           =       1.050E-03
 Gradient time:  CPU 6.11 s  wall 6.42 s
 Geometry Optimization Parameters
   NAtoms,    NIC,     NZ,  NCons,   NDum,   NFix, NCnnct, MaxDiis
       10      59       0       1       0       0       0       0

 Cartesian Hessian Update
 Hessian Updated using BFGS Update


** CONSTRAINED OPTIMIZATION IN DELOCALIZED INTERNAL COORDINATES **
   Searching for a Minimum

   Optimization Cycle:   5

                       Coordinates (Angstroms)
     ATOM                X               Y               Z
      1  C         1.2316837158   -0.2647046577   -0.0162239918
      2  C        -0.0420572817    0.5743052228   -0.0265039193
      3  N        -1.2903387912   -0.1828676092    0.0243219435
      4  H         2.1187500458    0.3547685742    0.1207931564
      5  H         1.3360805670   -0.8443242378   -0.9328569375
      6  H         1.2032906343   -0.9660720288    0.8208112777
      7  H        -0.0737829508    1.2106183554   -0.9107244548
      8  H        -0.0297642945    1.2463122140    0.8331921005
      9  H        -1.3452548778   -0.8152444897   -0.7657856485
     10  H        -1.3046099139   -0.7643938105    0.8533342143
   Point Group: c1    Number of degrees of freedom:    24


   Energy is   -135.152530761

              Constraints and their Current Values
                                        Value     Constraint
   Dihedral:        4   1   2   3     -170.000     -170.000
 Hessian Updated using BFGS Update

 23 Hessian modes will be used to form the next step
  Hessian Eigenvalues:
     0.014467    0.045034    0.072356    0.075057    0.081408    0.083548
     0.114054    0.145271    0.159954    0.160000    0.160003    0.160181
     0.193889    0.221018    0.299678    0.347444    0.347667    0.347934
     0.348038    0.351095    0.370447    0.454263    0.456730

 Minimum Search - Taking Simple RFO Step
 Searching for Lamda that Minimizes Along All modes
 Value Taken    Lamda =  -0.00004291
 Step Taken.  Stepsize is  0.039354

                             Maximum     Tolerance    Cnvgd?
         Gradient           0.001242      0.000300      NO
[...]
        XX     -24.5159     XY       1.9924     YY     -19.9936
        XZ      -0.2390     YZ       0.1070     ZZ     -19.1746
    Octopole Moments (Debye-Ang^2)
       XXX       3.1576    XXY      -3.3935    XYY      -0.7140
       YYY       0.6891    XXZ      -0.9179    XYZ       1.0870
       YYZ       1.6084    XZZ      -2.1623    YZZ       0.3652
       ZZZ       2.4807
    Hexadecapole Moments (Debye-Ang^3)
      XXXX    -165.8180   XXXY      28.0515   XXYY     -36.3564
      XYYY      21.7763   YYYY     -54.3647   XXXZ      17.9591
      XXYZ      -3.0436   XYYZ       5.4165   YYYZ      -5.7174
      XXZZ     -35.6138   XYZZ       7.5688   YYZZ     -18.6261
      XZZZ      12.6763   YZZZ      -4.9020   ZZZZ     -70.8215
 -----------------------------------------------------------------
 Calculating analytic gradient of the SCF energy
 Gradient of SCF Energy
            1           2           3           4           5           6
    1  -0.0000763   0.0000482   0.0000081   0.0000191   0.0000371   0.0000114
    2   0.0000630   0.0001801  -0.0002413  -0.0001107   0.0000421   0.0000122
    3  -0.0000002   0.0001055  -0.0000157   0.0000323  -0.0000572   0.0001425
            7           8           9          10
    1  -0.0001094   0.0002357  -0.0001118  -0.0000620
    2   0.0001176   0.0000083  -0.0000314  -0.0000398
    3   0.0000313  -0.0001187  -0.0000853  -0.0000344
 Max gradient component =       2.413E-04
 RMS gradient           =       9.640E-05
 Gradient time:  CPU 6.04 s  wall 6.40 s
 Geometry Optimization Parameters
   NAtoms,    NIC,     NZ,  NCons,   NDum,   NFix, NCnnct, MaxDiis
       10      59       0       1       0       0       0       0

 Cartesian Hessian Update
 Hessian Updated using BFGS Update


** CONSTRAINED OPTIMIZATION IN DELOCALIZED INTERNAL COORDINATES **
   Searching for a Minimum

   Optimization Cycle:   6

                       Coordinates (Angstroms)
     ATOM                X               Y               Z
      1  C         1.1711908253   -0.4260233218   -0.1631037915
      2  C        -0.2171699656    0.1041966601   -0.5010743318
      3  N        -1.0598495248    0.4287353371    0.6464770650
      4  H         1.7456513175   -0.6475013843   -1.0636533730
      5  H         1.1029836919   -1.3428676207    0.4235833580
      6  H         1.7287949599    0.3045772048    0.4241808865
      7  H        -0.7530108756   -0.6239253243   -1.1103394178
      8  H        -0.1286957155    1.0041818287   -1.1114019202
      9  H        -1.1753081342   -0.3866184842    1.2371117213
     10  H        -0.6105897259    1.1336426374    1.2185775439
   Point Group: c1    Number of degrees of freedom:    24


   Energy is   -135.152776530

              Constraints and their Current Values
                                        Value     Constraint
   Dihedral:        4   1   2   3      180.000      180.000
 Hessian Updated using BFGS Update

 23 Hessian modes will be used to form the next step
  Hessian Eigenvalues:
     0.016412    0.045065    0.071472    0.074381    0.081252    0.083384
     0.114451    0.122899    0.159283    0.159961    0.160025    0.160173
     0.190175    0.220190    0.298593    0.345398    0.347145    0.347817
     0.348015    0.348841    0.370169    0.454470    0.456723

 Minimum Search - Taking Simple RFO Step
 Searching for Lamda that Minimizes Along All modes
 Value Taken    Lamda =  -0.00000160
 Step Taken.  Stepsize is  0.003684

                             Maximum     Tolerance    Cnvgd?
         Gradient           0.000305      0.000300      NO
         Displacement       0.002714      0.001200      NO
         Energy change     -0.000022      0.000001      NO


 New Cartesian Coordinates Obtained by Inverse Iteration

 Displacement from previous Coordinates is:  0.005679
 ----------------------------------------------------------------
             Standard Nuclear Orientation (Angstroms)
    I     Atom           X                Y                Z
 ----------------------------------------------------------------
    1      C       1.1712000189    -0.4259672593    -0.1630302395
    2      C      -0.2171814970     0.1042313190    -0.5012553892
    3      N      -1.0598386343     0.4288014279     0.6464442967
    4      H       1.7457129270    -0.6474972264    -1.0634810658
    5      H       1.1018799945    -1.3430677316     0.4234028126
    6      H       1.7289183259     0.3041158821     0.4245426051
    7      H      -0.7516278387    -0.6245235193    -1.1110547762
    8      H      -0.1302894075     1.0047083628    -1.1108684565
    9      H      -1.1743806988    -0.3863817389     1.2375138967
   10      H      -0.6103963369     1.1339780167     1.2181440567
 ----------------------------------------------------------------
 Molecular Point Group                 C1    NOp =  1
 Largest Abelian Subgroup              C1    NOp =  1
 Nuclear Repulsion Energy =    83.0148556353 hartrees
 There are       13 alpha and       13 beta electrons

                       Distance Matrix (Angstroms)
             C (  1)   C (  2)   N (  3)   H (  4)   H (  5)   H (  6)
   C (  2)  1.524175
   N (  3)  2.522580  1.460353
   H (  4)  1.090849  2.175810  3.457366
   H (  5)  1.090771  2.165546  2.803978  1.763282
   H (  6)  1.090556  2.164338  2.800349  1.766370  1.762496
   H (  7)  2.153008  1.090216  2.072026  2.497900  2.511246  3.061624
   H (  8)  2.153858  1.090888  2.069753  2.500283  3.063378  2.510970
   H (  9)  2.732186  2.044566  1.013413  3.726890  2.599882  3.093033
   H ( 10)  2.741379  2.042384  1.012972  3.732388  3.114363  2.605929
             H (  7)   H (  8)   H (  9)
   H (  8)  1.743691
   H (  9)  2.398167  2.922355
   H ( 10)  2.921890  2.381494  1.621711
 
 Applying Cartesian multipole field
    Component          Value
    ---------          -----
     (2,0,0)        1.00000E-11
     (0,2,0)        2.00000E-10
     (0,0,2)       -3.00000E-10
 Nucleus-field energy     =    -0.0000000060 hartrees
 Requested basis set is cc-pVTZ
 There are 72 shells and 188 basis functions
 A cutoff of  1.0D-11 yielded   2593 shell pairs
 There are     17813 function pairs (     22304 Cartesian)
 Smallest overlap matrix eigenvalue = 8.60E-04
 Guess from superposition of atomic densities
 Warning:  Energy on first SCF cycle will be non-variational
 An unrestricted hybrid HF-DFT SCF calculation will be
 performed using Pulay DIIS extrapolation
 Exchange:     0.5400 Hartree-Fock + 1.0000 M06-2X
 Correlation:  1.0000 M06-2X
 Using SG-1 standard quadrature grid
 SCF converges when DIIS error is below 1.0E-08
 ---------------------------------------
  Cycle       Energy         DIIS Error
 ---------------------------------------
    1    -126.0853509812      3.49E-02
    2    -134.9346250287      1.34E-02
    3    -135.1000204126      4.02E-03
    4    -135.1227424206      2.88E-03
    5    -135.1524499049      2.92E-04
    6    -135.1527619513      5.90E-05
    7    -135.1527770455      8.43E-06
    8    -135.1527773836      3.04E-06
    9    -135.1527774192      8.99E-07
   10    -135.1527774233      1.09E-07
   11    -135.1527774234      2.66E-08
   12    -135.1527774233      5.63E-09 Convergence criterion met
 ---------------------------------------
 <S^2> = 0.0000
 SCF time:  CPU 21.09 s  wall 25.55 s
 SCF   energy in the final basis set = -135.1527774233
 Total energy in the final basis set = -135.1527774233
 
 --------------------------------------------------------------
 
                    Orbital Energies (a.u.)
 --------------------------------------------------------------
 
 Alpha MOs
 -- Occupied --
-14.718 -10.556 -10.523  -0.985  -0.824  -0.695  -0.570  -0.506
 -0.478  -0.474  -0.422  -0.399  -0.304
 -- Virtual --
  0.066   0.106   0.110   0.120   0.151   0.160   0.179   0.214
  0.260   0.291   0.303   0.358   0.361   0.368   0.422   0.447
  0.469   0.484   0.503   0.513   0.528   0.535   0.551   0.587
  0.596   0.624   0.639   0.677   0.760   0.790   0.811   0.855
  0.863   0.951   0.970   1.007   1.026   1.057   1.095   1.103
  1.125   1.181   1.182   1.203   1.208   1.218   1.251   1.309
  1.321   1.334   1.345   1.359   1.422   1.425   1.462   1.493
  1.569   1.570   1.607   1.619   1.690   1.753   1.871   1.875
  2.251   2.286   2.298   2.331   2.419   2.441   2.486   2.553
  2.608   2.668   2.675   2.677   2.793   2.814   2.835   2.847
  2.894   2.915   2.941   2.991   2.993   2.997   3.076   3.092
  3.104   3.115   3.151   3.220   3.228   3.236   3.274   3.309
  3.316   3.336   3.357   3.403   3.441   3.445   3.474   3.494
  3.505   3.531   3.559   3.634   3.643   3.653   3.686   3.737
  3.773   3.781   3.822   3.824   3.848   3.895   3.896   3.925
  3.929   3.959   3.994   4.025   4.047   4.079   4.124   4.133
  4.150   4.191   4.202   4.257   4.274   4.310   4.328   4.356
  4.370   4.467   4.484   4.698   4.706   4.759   4.764   4.817
  4.828   4.873   4.883   4.934   4.969   5.032   5.104   5.133
  5.192   5.261   5.267   5.310   5.319   5.358   5.383   5.460
  5.527   5.559   5.665   5.750   5.781   5.808   5.810   5.888
  6.041   6.072   6.149   6.720  12.152  12.834  13.417
 
 Beta MOs
 -- Occupied --
-14.718 -10.556 -10.523  -0.985  -0.824  -0.695  -0.570  -0.506
 -0.478  -0.474  -0.422  -0.399  -0.304
 -- Virtual --
  0.066   0.106   0.110   0.120   0.151   0.160   0.179   0.214
  0.260   0.291   0.303   0.358   0.361   0.368   0.422   0.447
  0.469   0.484   0.503   0.513   0.528   0.535   0.551   0.587
  0.596   0.624   0.639   0.677   0.760   0.790   0.811   0.855
  0.863   0.951   0.970   1.007   1.026   1.057   1.095   1.103
  1.125   1.181   1.182   1.203   1.208   1.218   1.251   1.309
  1.321   1.334   1.345   1.359   1.422   1.425   1.462   1.493
  1.569   1.570   1.607   1.619   1.690   1.753   1.871   1.875
  2.251   2.286   2.298   2.331   2.419   2.441   2.486   2.553
  2.608   2.668   2.675   2.677   2.793   2.814   2.835   2.847
  2.894   2.915   2.941   2.991   2.993   2.997   3.076   3.092
  3.104   3.115   3.151   3.220   3.228   3.236   3.274   3.309
  3.316   3.336   3.357   3.403   3.441   3.445   3.474   3.494
  3.505   3.531   3.559   3.634   3.643   3.653   3.686   3.737
  3.773   3.781   3.822   3.824   3.848   3.895   3.896   3.925
  3.929   3.959   3.994   4.025   4.047   4.079   4.124   4.133
  4.150   4.191   4.202   4.257   4.274   4.310   4.328   4.356
  4.370   4.467   4.484   4.698   4.706   4.759   4.764   4.817
  4.828   4.873   4.883   4.934   4.969   5.032   5.104   5.133
  5.192   5.261   5.267   5.310   5.319   5.358   5.383   5.460
  5.527   5.559   5.665   5.750   5.781   5.808   5.810   5.888
  6.041   6.072   6.149   6.720  12.152  12.834  13.417
 --------------------------------------------------------------
 
          Ground-State Mulliken Net Atomic Charges

     Atom                 Charge (a.u.)    Spin (a.u.)
  --------------------------------------------------------
      1 C                    -0.315066       0.000000
      2 C                    -0.125443       0.000000
      3 N                    -0.417670       0.000000
      4 H                     0.098555       0.000000
      5 H                     0.098371       0.000000
      6 H                     0.097546       0.000000
      7 H                     0.112307       0.000000
      8 H                     0.113236       0.000000
      9 H                     0.168650       0.000000
     10 H                     0.169514       0.000000
  --------------------------------------------------------
  Sum of atomic charges =     0.000000
  Sum of spin   charges =     0.000000

 -----------------------------------------------------------------
                    Cartesian Multipole Moments
 -----------------------------------------------------------------
    Charge (ESU x 10^10)
                 0.0000
    Dipole Moment (Debye)
         X       1.1291      Y      -0.4120      Z       0.4194
       Tot       1.2730
    Quadrupole Moments (Debye-Ang)
        XX     -24.5211     XY       1.9899     YY     -19.9910
        XZ      -0.2366     YZ       0.1080     ZZ     -19.1748
    Octopole Moments (Debye-Ang^2)
       XXX       3.1701    XXY      -3.3880    XYY      -0.7168
       YYY       0.6909    XXZ      -0.9214    XYZ       1.0889
       YYZ       1.6069    XZZ      -2.1602    YZZ       0.3624
       ZZZ       2.4812
    Hexadecapole Moments (Debye-Ang^3)
      XXXX    -165.8026   XXXY      28.0549   XXYY     -36.3585
      XYYY      21.7795   YYYY     -54.3687   XXXZ      17.9576
      XXYZ      -3.0428   XYYZ       5.4165   YYYZ      -5.7183
      XXZZ     -35.6167   XYZZ       7.5693   YYZZ     -18.6279
      XZZZ      12.6738   YZZZ      -4.9021   ZZZZ     -70.8256
 -----------------------------------------------------------------
 Calculating analytic gradient of the SCF energy
 Gradient of SCF Energy
            1           2           3           4           5           6
    1   0.0000331   0.0000326   0.0000129  -0.0000013  -0.0000267  -0.0000155
    2   0.0000968   0.0001373  -0.0000853  -0.0000894  -0.0000320  -0.0000393
    3   0.0000181   0.0000299  -0.0000133   0.0000442  -0.0000124   0.0000916
            7           8           9          10
    1   0.0000301   0.0000697  -0.0000884  -0.0000465
    2   0.0000450   0.0000256  -0.0000259  -0.0000329
    3  -0.0000547  -0.0000102  -0.0000936   0.0000006
 Max gradient component =       1.373E-04
 RMS gradient           =       5.577E-05
 Gradient time:  CPU 5.97 s  wall 6.33 s
 Geometry Optimization Parameters
   NAtoms,    NIC,     NZ,  NCons,   NDum,   NFix, NCnnct, MaxDiis
       10      59       0       1       0       0       0       0

 Cartesian Hessian Update
 Hessian Updated using BFGS Update


** CONSTRAINED OPTIMIZATION IN DELOCALIZED INTERNAL COORDINATES **
   Searching for a Minimum

   Optimization Cycle:   7

                       Coordinates (Angstroms)
     ATOM                X               Y               Z
      1  C         1.1712000189   -0.4259672593   -0.1630302395
      2  C        -0.2171814970    0.1042313190   -0.5012553892
      3  N        -1.0598386343    0.4288014279    0.6464442967
      4  H         1.7457129270   -0.6474972264   -1.0634810658
      5  H         1.1018799945   -1.3430677316    0.4234028126
      6  H         1.7289183259    0.3041158821    0.4245426051
      7  H        -0.7516278387   -0.6245235193   -1.1110547762
      8  H        -0.1302894075    1.0047083628   -1.1108684565
      9  H        -1.1743806988   -0.3863817389    1.2375138967
     10  H        -0.6103963369    1.1339780167    1.2181440567
   Point Group: c1    Number of degrees of freedom:    24


   Energy is   -135.152777423

              Constraints and their Current Values
                                        Value     Constraint
   Dihedral:        4   1   2   3      180.000      180.000
 Hessian Updated using BFGS Update

 23 Hessian modes will be used to form the next step
  Hessian Eigenvalues:
     0.016312    0.043897    0.066964    0.074569    0.080823    0.083377
     0.112945    0.120606    0.158922    0.159978    0.160036    0.160267
     0.191813    0.220175    0.298702    0.345438    0.347160    0.347816
     0.348033    0.349091    0.369956    0.454153    0.456787

 Minimum Search - Taking Simple RFO Step
 Searching for Lamda that Minimizes Along All modes
 Value Taken    Lamda =   0.00000000
 Step Taken.  Stepsize is  0.001305

                             Maximum     Tolerance    Cnvgd?
         Gradient           0.000033      0.000300     YES
         Displacement       0.000810      0.001200     YES
         Energy change     -0.000001      0.000001     YES


                       Distance Matrix (Angstroms)
             C (  1)   C (  2)   N (  3)   H (  4)   H (  5)   H (  6)
   C (  2)  1.524175
   N (  3)  2.522580  1.460353
   H (  4)  1.090849  2.175810  3.457366
   H (  5)  1.090771  2.165546  2.803978  1.763282
   H (  6)  1.090556  2.164338  2.800349  1.766370  1.762496
   H (  7)  2.153008  1.090216  2.072026  2.497900  2.511246  3.061624
   H (  8)  2.153858  1.090888  2.069753  2.500283  3.063378  2.510970
   H (  9)  2.732186  2.044566  1.013413  3.726890  2.599882  3.093033
   H ( 10)  2.741379  2.042384  1.012972  3.732388  3.114363  2.605929
             H (  7)   H (  8)   H (  9)
   H (  8)  1.743691
   H (  9)  2.398167  2.922355
   H ( 10)  2.921890  2.381494  1.621711
 
 Final energy is   -135.152777423302     


 ******************************
 **  OPTIMIZATION CONVERGED  **
 ******************************

                       Coordinates (Angstroms)
     ATOM                X               Y               Z
      1  C         1.1712000189   -0.4259672593   -0.1630302395
      2  C        -0.2171814970    0.1042313190   -0.5012553892
      3  N        -1.0598386343    0.4288014279    0.6464442967
      4  H         1.7457129270   -0.6474972264   -1.0634810658
      5  H         1.1018799945   -1.3430677316    0.4234028126
      6  H         1.7289183259    0.3041158821    0.4245426051
      7  H        -0.7516278387   -0.6245235193   -1.1110547762
      8  H        -0.1302894075    1.0047083628   -1.1108684565
      9  H        -1.1743806988   -0.3863817389    1.2375138967
     10  H        -0.6103963369    1.1339780167    1.2181440567

Z-matrix Print:
$molecule
0 1
C 
H  1 1.090216
H  1 1.090888 2 106.155815
N  1 1.460353 2 107.775274 3 -115.005400 0
H  4 1.012972 1 110.014163 2 177.708385 0
H  4 1.013413 1 110.170502 2 -65.397003 0
C  1 1.524175 2 109.763571 3 118.598221 0
H  7 1.090556 1 110.641908 2 -178.458519 0
H  7 1.090771 1 110.725340 2 62.081529 0
H  7 1.090849 1 111.543757 2 -58.032282 0
$end

PES scan, value:  180.0000 energy: -135.1527774233
------- Summary of potential scan: ------ 
 -180.0000      -135.1530280731
 -170.0000      -135.1525560209
 -160.0000      -135.1516403931
 -150.0000      -135.1503267851
 -140.0000      -135.1488504318
 -130.0000      -135.1479340233
 -120.0000      -135.1474702730
 -110.0000      -135.1478166462
 -100.0000      -135.1487919989
  -90.0000      -135.1501095052
  -80.0000      -135.1514463329
  -70.0000      -135.1524562212
  -60.0000      -135.1527924990
  -50.0000      -135.1525250603
  -40.0000      -135.1515145638
  -30.0000      -135.1502048748
  -20.0000      -135.1488743855
  -10.0000      -135.1477714241
    0.0000      -135.1474023956
   10.0000      -135.1477509743
   20.0000      -135.1487315228
   30.0000      -135.1501971445
   40.0000      -135.1515581080
   50.0000      -135.1525413064
   60.0000      -135.1529708113
   70.0000      -135.1525510823
   80.0000      -135.1515681585
   90.0000      -135.1501804613
  100.0000      -135.1488364583
  110.0000      -135.1477897475
  120.0000      -135.1475071761
  130.0000      -135.1478953060
  140.0000      -135.1489379465
  150.0000      -135.1502048584
  160.0000      -135.1514016994
  170.0000      -135.1524268731
  180.0000      -135.1527774233
----------------------------------------- 
Archival summary:
1\1\node37\JobtypUnspecified\ProcedureUnspecified\BasisUnspecified\127\alongd\ThuJul2718:30:402017ThuJul2718:30:402017\0\\#,JobtypUnspecified,ProcedureUnspecified,BasisUnspecified,\\0,1\C\H,1,1.09022\H,1,1.09089,2,106.156\N,1,1.46035,2,107.775,3,-115.005,0\H,4,1.01297,1,110.014,2,177.708,0\H,4,1.01341,1,110.171,2,-65.397,0\C,1,1.52418,2,109.764,3,118.598,0\H,7,1.09056,1,110.642,2,-178.459,0\H,7,1.09077,1,110.725,2,62.0815,0\H,7,1.09085,1,111.544,2,-58.0323,0\\\@

 Total job time:  9644.63s(wall), 7962.94s(cpu) 
 Thu Jul 27 18:30:40 2017

        *************************************************************
        *                                                           *
        *  Thank you very much for using Q-Chem.  Have a nice day.  *
        *                                                           *
        *************************************************************


0 sent ACK to 0 
now end server 0 ... 
cleanup process ... done
