
Running Job 1 of 1 input.in
qchem input.in_27963.0 /home/alongd/scratch/qlscratch/qchem27963/ 8
/opt/qchem/bin/mpi/mpirun_qchem -machinefile /tmp/521532.1.long1/hostfile -np 8 /opt/qchem/exe/qcprog.exe input.in_27963.0 /home/alongd/scratch/qlscratch/qchem27963/

Process 4 of 8 is on node21.cluster - thread support 0
Process 5 of 8 is on node21.cluster - thread support 0
initial socket setup ...start
initial socket setup ...done 
now start server 0 ... 

cmd = /usr/bin/ssh node96 /opt/qchem/bin/get_hostid 1757471568 > /home/alongd/scratch/qlscratch/qchem27963/lic.dat

cmd = /usr/bin/ssh node93 /opt/qchem/bin/get_hostid 1757471568 > /home/alongd/scratch/qlscratch/qchem27963/lic.dat
                  Welcome to Q-Chem
     A Quantum Leap Into The Future Of Chemistry


 Q-Chem 4.4, Q-Chem, Inc., Pleasanton, CA (2016)

 Y. Shao,  Z. Gan,  E. Epifanovsky,  A. T. B. Gilbert,  M. Wormit,  
 J. Kussmann,  A. W. Lange,  A. Behn,  J. Deng,  X. Feng,  D. Ghosh,  
 M. Goldey,  P. R. Horn,  L. D. Jacobson,  I. Kaliman,  R. Z. Khaliullin,  
 T. Kus,  A. Landau,  J. Liu,  E. I. Proynov,  Y. M. Rhee,  R. M. Richard,  
 M. A. Rohrdanz,  R. P. Steele,  E. J. Sundstrom,  H. L. Woodcock III,  
 P. M. Zimmerman,  D. Zuev,  B. Albrecht,  E. Alguire,  B. Austin,  
 S. A. Baeppler,  G. J. O. Beran,  Y. A. Bernard,  E. Berquist,  
 K. Brandhorst,  K. B. Bravaya,  S. T. Brown,  D. Casanova,  C.-M. Chang,  
 Y. Chen,  S. H. Chien,  K. D. Closser,  M. P. Coons,  D. L. Crittenden,  
 S. Dasgupta,  M. Diedenhofen,  R. A. DiStasio Jr.,  H. Do,  A. D. Dutoi,  
 R. G. Edgar,  P.-T. Fang,  S. Fatehi,  Q. Feng,  L. Fusti-Molnar,  
 A. Ghysels,  A. Golubeva-Zadorozhnaya,  J. Gomes,  A. Gunina,  
 M. W. D. Hanson-Heine,  P. H. P. Harbach,  A. W. Hauser,  E. G. Hohenstein,  
 Z. C. Holden,  K. Hui,  T.-C. Jagau,  H. Ji,  B. Kaduk,  K. Khistyaev,  
 Jaehoon Kim,  Jihan Kim,  R. A. King,  P. Klunzinger,  D. Kosenkov,  
 T. Kowalczyk,  C. M. Krauter,  A. Kunitsa,  K. U. Lao,  A. Laurent,  
 K. V. Lawler,  D. Lefrancois,  S. Lehtola,  S. V. Levchenko,  C. Y. Lin,  
 Y.-S. Lin,  F. Liu,  E. Livshits,  R. C. Lochan,  A. Luenser,  P. Manohar,  
 S. F. Manzer,  S.-P. Mao,  Y. Mao,  N. Mardirossian,  A. V. Marenich,  
 L. A. Martinez-Martinez,  S. A. Maurer,  N. J. Mayhall,  J.-M. Mewes,  
 A. F. Morrison,  K. Nanda,  C. M. Oana,  R. Olivares-Amaya,  D. P. O'Neill,  
 J. A. Parkhill,  T. M. Perrine,  R. Peverati,  P. A. Pieniazek,  F. Plasser,  
 A. Prociuk,  D. R. Rehn,  E. Rosta,  N. J. Russ,  N. Sergueev,  
 S. M. Sharada,  S. Sharma,  D. W. Small,  A. Sodt,  T. Stauch,  T. Stein,  
 D. Stuck,  Y.-C. Su,  A. J. W. Thom,  T. Tsuchimochi,  L. Vogt,  O. Vydrov,  
 T. Wang,  M. A. Watson,  J. Wenzel,  A. White,  C. F. Williams,  
 V. Vanovschi,  S. Yeganeh,  S. R. Yost,  Z.-Q. You,  I. Y. Zhang,  X. Zhang,  
 Y. Zhao,  B. R. Brooks,  G. K. L. Chan,  D. M. Chipman,  C. J. Cramer,  
 W. A. Goddard III,  M. S. Gordon,  W. J. Hehre,  A. Klamt,  
 H. F. Schaefer III,  M. W. Schmidt,  C. D. Sherrill,  D. G. Truhlar,  
 A. Warshel,  X. Xu,  A. Aspuru-Guzik,  R. Baer,  A. T. Bell,  N. A. Besley,  
 J.-D. Chai,  A. Dreuw,  B. D. Dunietz,  T. R. Furlani,  S. R. Gwaltney,  
 C.-P. Hsu,  Y. Jung,  J. Kong,  D. S. Lambrecht,  W. Liang,  C. Ochsenfeld,  
 V. A. Rassolov,  L. V. Slipchenko,  J. E. Subotnik,  T. Van Voorhis,  
 J. M. Herbert,  A. I. Krylov,  P. M. W. Gill,  M. Head-Gordon

 Contributors to earlier versions of Q-Chem not listed above: 
 R. D. Adamson,  J. Baker,  E. F. C. Byrd,  A. K. Chakraborty,  C.-L. Cheng,  
 H. Dachsel,  R. J. Doerksen,  G. Hawkins,  A. Heyden,  S. Hirata,  
 G. Kedziora,  F. J. Keil,  C. Kelley,  P. P. Korambath,  W. Kurlancheek,  
 A. M. Lee,  M. S. Lee,  D. Liotard,  I. Lotan,  P. E. Maslen,  N. Nair,  
 D. Neuhauser,  R. Olson,  B. Peters,  J. Ritchie,  N. E. Schultz,  
 N. Shenvi,  A. C. Simmonett,  K. S. Thanthiriwatte,  Q. Wu,  W. Zhang

 Please cite Q-Chem as follows:
 Y. Shao et al., Mol. Phys. 113, 184-215 (2015)
 DOI: 10.1080/00268976.2014.952696

 Q-Chem 4.4.0 for Intel X86 Linux

 Parts of Q-Chem use Armadillo 5.200.1 (Boston Tea Smuggler).
 http://arma.sourceforge.net/

 Q-Chem begins on Wed Aug  2 11:32:06 2017  

Host: 
0

     Scratch files written to /home/alongd/scratch/qlscratch/qchem27963.0//
 Apr2716 1281_ 20995  20993 4150   
 Parallel job on  8  processors
Processing $rem in /opt/qchem/config/preferences.
 MEM_TOTAL  2000 
Warning: disabling incdft.
Checking the input file for inconsistencies... 	...done.

--------------------------------------------------------------
User input:
--------------------------------------------------------------
$molecule
0 1
C       1.2290994110    -0.2648951642     0.0000138730
C      -0.0424050155     0.5765707840    -0.0000412512
N      -1.2895781384    -0.1844626053    -0.0000368083
H       2.1239586838     0.3574632141     0.0000698482
H       1.2639839348    -0.9052870957    -0.8820713487
H       1.2638121798    -0.9052086023     0.8821487436
H      -0.0520579379     1.2294511413    -0.8732462014
H      -0.0521267345     1.2293275761     0.8732588111
H      -1.3202626955    -0.7925234756    -0.8100269567
H      -1.3204268343    -0.7920382396     0.8102890308
$end

!Scan at UM06-2x/cc-pVTZ level and basis set
$rem
JOBTYPE       pes_scan
METHOD        M06-2X
UNRESTRICTED  true
BASIS         cc-pvtz
$end

$scan
tors 10 3 2 7 -180 180 10
$end

--------------------------------------------------------------
 ----------------------------------------------------------------
             Standard Nuclear Orientation (Angstroms)
    I     Atom           X                Y                Z
 ----------------------------------------------------------------
    1      C       1.2290994110    -0.2648951642     0.0000138730
    2      C      -0.0424050155     0.5765707840    -0.0000412512
    3      N      -1.2895781384    -0.1844626053    -0.0000368083
    4      H       2.1239586838     0.3574632141     0.0000698482
    5      H       1.2639839348    -0.9052870957    -0.8820713487
    6      H       1.2638121798    -0.9052086023     0.8821487436
    7      H      -0.0520579379     1.2294511413    -0.8732462014
    8      H      -0.0521267345     1.2293275761     0.8732588111
    9      H      -1.3202626955    -0.7925234756    -0.8100269566
   10      H      -1.3204268343    -0.7920382396     0.8102890309
 ----------------------------------------------------------------
 Molecular Point Group                 C1    NOp =  1
 Largest Abelian Subgroup              C1    NOp =  1
 Nuclear Repulsion Energy =    83.0395488492 hartrees
 There are       13 alpha and       13 beta electrons
 Requested basis set is cc-pVTZ
 There are 72 shells and 188 basis functions

 Total QAlloc Memory Limit   2000 MB
 Mega-Array Size        61 MB
 MEM_STATIC part        62 MB
A total of 1 constraints
  
            1
    1   3.0100000
    2  10.0100000
    3   3.0100000
    4   2.0100000
    5   7.0100000
    6-180.0000000
    7 180.0000000
    8  10.0000000
    9   0.0000000
   10   0.0000000

                       Distance Matrix (Angstroms)
             C (  1)   C (  2)   N (  3)   H (  4)   H (  5)   H (  6)
   C (  2)  1.524726
   N (  3)  2.519962  1.461031
   H (  4)  1.090001  2.177416  3.456287
   H (  5)  1.090593  2.163454  2.796114  1.764162
   H (  6)  1.090582  2.163361  2.795984  1.764159  1.764220
   H (  7)  2.153374  1.090336  2.071980  2.501618  2.507818  3.060996
   H (  8)  2.153323  1.090339  2.071891  2.501590  3.061031  2.507592
   H (  9)  2.726500  2.040445  1.013293  3.720401  2.587709  3.090890
   H ( 10)  2.726630  2.040359  1.013276  3.720430  3.091292  2.587714
             H (  7)   H (  8)   H (  9)
   H (  8)  1.746505
   H (  9)  2.387618  2.920531
   H ( 10)  2.920526  2.387147  1.620316
 
 A cutoff of  1.0D-11 yielded   2593 shell pairs
 There are     17813 function pairs (     22304 Cartesian)
 
 -------------------------------------------------------
 OpenMP Integral Computing Module                       
 Release: version 1.0, May 2013, Q-Chem Inc. Pittsburgh 
 -------------------------------------------------------
 Integral Job Info:
 Integral job number is                      11
 Integral operator is                         1
 short-range coefficients                     0
 long-range coefficients              100000000
 Omega coefficients                           0
 if combine SR and LR in K                    0
 Integral screening is                        0
 Integral computing path is                   2
 max size of driver memory is            800000
 size of driver memory is                776718
 size of scratch memory is              4556032
 max col of scratch BK array              10000
 max len of scratch array in speh3          662
 max len of scratch index in speh4           32
 max int batch size is                      520
 min int batch size is                       52
 fixed nKL is                                52
 max L of basis functions is                  3
 order of int derivative is                   0
 number of shells is                         72
 number of basis is                         210
 number of cartesian basis is               210
 number of contracted shell pairs          2593
 number of primitive shell pairs           6715
 maxK2 (contraction) of shell pair           49
 max number of K2 of shell pair               1
 max number of CS2 of shell pair            422
 max number of PS2 of shell pair            931
 mem total for path MDJ                   59272
 -------------------------------------------------------
 Smallest overlap matrix eigenvalue = 8.56E-04

 Scale SEOQF with 1.000000e-01/1.000000e+00/1.000000e+00

 Standard Electronic Orientation quadrupole field applied
 Nucleus-field energy     =     0.0000000026 hartrees
 Guess from superposition of atomic densities
 Warning:  Energy on first SCF cycle will be non-variational
 An unrestricted hybrid HF-DFT SCF calculation will be
 performed using Pulay DIIS extrapolation
 Exchange:     0.5400 Hartree-Fock + 1.0000 M06-2X
 Correlation:  1.0000 M06-2X
 Using SG-1 standard quadrature grid
 SCF converges when DIIS error is below 1.0E-08
 ---------------------------------------
  Cycle       Energy         DIIS Error
 ---------------------------------------
    1    -126.0854809164      3.49E-02
    2    -134.9354924237      1.34E-02
    3    -135.1006663636      4.00E-03
    4    -135.1231003168      2.88E-03
    5    -135.1527025709      2.92E-04
    6    -135.1530126018      5.90E-05
    7    -135.1530276908      8.52E-06
    8    -135.1530280326      3.08E-06
    9    -135.1530280690      9.02E-07
   10    -135.1530280730      1.06E-07
   11    -135.1530280731      2.56E-08
   12    -135.1530280731      5.32E-09 Convergence criterion met
 ---------------------------------------
 <S^2> = 0.0000
 SCF time:  CPU 21.13 s  wall 25.04 s
 SCF   energy in the final basis set = -135.1530280731
 Total energy in the final basis set = -135.1530280731
 
 --------------------------------------------------------------
 
                    Orbital Energies (a.u.)
 --------------------------------------------------------------
 
 Alpha MOs
 -- Occupied --
-14.719 -10.556 -10.524  -0.985  -0.823  -0.694  -0.570  -0.506
 -0.478  -0.474  -0.422  -0.400  -0.305
 -- Virtual --
  0.066   0.106   0.110   0.120   0.151   0.160   0.179   0.213
  0.260   0.291   0.303   0.358   0.362   0.368   0.421   0.447
  0.468   0.484   0.502   0.513   0.527   0.535   0.552   0.587
  0.597   0.624   0.638   0.677   0.761   0.790   0.811   0.856
  0.863   0.951   0.970   1.006   1.026   1.058   1.094   1.103
  1.126   1.182   1.182   1.203   1.208   1.218   1.251   1.308
  1.320   1.332   1.345   1.359   1.423   1.423   1.461   1.493
  1.569   1.569   1.607   1.620   1.688   1.754   1.868   1.875
  2.250   2.287   2.299   2.332   2.419   2.440   2.484   2.551
  2.607   2.667   2.675   2.678   2.792   2.811   2.835   2.846
  2.894   2.915   2.940   2.988   2.993   2.994   3.075   3.093
  3.105   3.114   3.150   3.220   3.230   3.234   3.273   3.308
  3.317   3.336   3.359   3.402   3.442   3.444   3.475   3.494
  3.505   3.532   3.557   3.635   3.643   3.650   3.687   3.738
  3.773   3.781   3.821   3.822   3.846   3.895   3.896   3.925
  3.930   3.960   3.993   4.023   4.046   4.080   4.123   4.130
  4.151   4.191   4.202   4.255   4.274   4.309   4.325   4.358
  4.368   4.471   4.486   4.697   4.709   4.758   4.765   4.816
  4.831   4.875   4.879   4.934   4.967   5.035   5.100   5.131
  5.193   5.260   5.264   5.310   5.319   5.356   5.385   5.453
  5.529   5.560   5.666   5.749   5.777   5.805   5.813   5.891
  6.039   6.068   6.148   6.720  12.158  12.823  13.424
 
 Beta MOs
 -- Occupied --
-14.719 -10.556 -10.524  -0.985  -0.823  -0.694  -0.570  -0.506
 -0.478  -0.474  -0.422  -0.400  -0.305
 -- Virtual --
  0.066   0.106   0.110   0.120   0.151   0.160   0.179   0.213
  0.260   0.291   0.303   0.358   0.362   0.368   0.421   0.447
  0.468   0.484   0.502   0.513   0.527   0.535   0.552   0.587
  0.597   0.624   0.638   0.677   0.761   0.790   0.811   0.856
  0.863   0.951   0.970   1.006   1.026   1.058   1.094   1.103
  1.126   1.182   1.182   1.203   1.208   1.218   1.251   1.308
  1.320   1.332   1.345   1.359   1.423   1.423   1.461   1.493
  1.569   1.569   1.607   1.620   1.688   1.754   1.868   1.875
  2.250   2.287   2.299   2.332   2.419   2.440   2.484   2.551
  2.607   2.667   2.675   2.678   2.792   2.811   2.835   2.846
  2.894   2.915   2.940   2.988   2.993   2.994   3.075   3.093
  3.105   3.114   3.150   3.220   3.230   3.234   3.273   3.308
  3.317   3.336   3.359   3.402   3.442   3.444   3.475   3.494
  3.505   3.532   3.557   3.635   3.643   3.650   3.687   3.738
  3.773   3.781   3.821   3.822   3.846   3.895   3.896   3.925
  3.930   3.960   3.993   4.023   4.046   4.080   4.123   4.130
  4.151   4.191   4.202   4.255   4.274   4.309   4.325   4.358
  4.368   4.471   4.486   4.697   4.709   4.758   4.765   4.816
  4.831   4.875   4.879   4.934   4.967   5.035   5.100   5.131
  5.193   5.260   5.264   5.310   5.319   5.356   5.385   5.453
  5.529   5.560   5.666   5.749   5.777   5.805   5.813   5.891
  6.039   6.068   6.148   6.720  12.158  12.823  13.424
 --------------------------------------------------------------
 
          Ground-State Mulliken Net Atomic Charges

     Atom                 Charge (a.u.)    Spin (a.u.)
  --------------------------------------------------------
      1 C                    -0.314600       0.000000
      2 C                    -0.126990       0.000000
      3 N                    -0.414422       0.000000
      4 H                     0.097367       0.000000
      5 H                     0.098086       0.000000
      6 H                     0.098083       0.000000
      7 H                     0.113027       0.000000
      8 H                     0.113024       0.000000
      9 H                     0.168211       0.000000
     10 H                     0.168215       0.000000
  --------------------------------------------------------
  Sum of atomic charges =     0.000000
  Sum of spin   charges =     0.000000

 -----------------------------------------------------------------
                    Cartesian Multipole Moments
 -----------------------------------------------------------------
    Charge (ESU x 10^10)
                 0.0000
    Dipole Moment (Debye)
         X       1.0008      Y      -0.8152      Z       0.0004
       Tot       1.2908
    Quadrupole Moments (Debye-Ang)
        XX     -24.3916     XY       2.2006     YY     -20.1337
        XZ      -0.0011     YZ       0.0004     ZZ     -19.2368
    Octopole Moments (Debye-Ang^2)
       XXX       4.5384    XXY      -2.8096    XYY      -2.2164
       YYY      -1.0775    XXZ       0.0018    XYZ      -0.0002
       YYZ      -0.0009    XZZ      -2.8685    YZZ      -1.4941
       ZZZ       0.0011
    Hexadecapole Moments (Debye-Ang^3)
      XXXX    -194.7306   XXXY       9.5993   XXYY     -38.5842
      XYYY       3.5737   YYYY     -63.6009   XXXZ      -0.0041
      XXYZ       0.0007   XYYZ       0.0004   YYYZ       0.0011
      XXZZ     -34.7619   XYZZ       1.7672   YYZZ     -14.5138
      XZZZ      -0.0020   YZZZ       0.0001   ZZZZ     -38.1876
 -----------------------------------------------------------------
 Calculating analytic gradient of the SCF energy
 Gradient of SCF Energy
            1           2           3           4           5           6
    1   0.0001223  -0.0001497   0.0000436  -0.0000423   0.0000066  -0.0000007
    2  -0.0001667   0.0001519   0.0000727   0.0000491   0.0000302   0.0000375
    3   0.0000015  -0.0000048   0.0000066   0.0000003  -0.0000065   0.0000028
            7           8           9          10
    1  -0.0000049  -0.0000086   0.0000145   0.0000191
    2  -0.0000524  -0.0000587  -0.0000387  -0.0000248
    3   0.0000010   0.0000049  -0.0000481   0.0000423
 Max gradient component =       1.667E-04
 RMS gradient           =       6.198E-05
 Gradient time:  CPU 6.22 s  wall 7.42 s
 Geometry Optimization Parameters
   NAtoms,    NIC,     NZ,  NCons,   NDum,   NFix, NCnnct, MaxDiis
       10      59       0       1       0       0       0       0


** CONSTRAINED OPTIMIZATION IN DELOCALIZED INTERNAL COORDINATES **
   Searching for a Minimum

   Optimization Cycle:   1

                       Coordinates (Angstroms)
     ATOM                X               Y               Z
      1  C         1.2290994110   -0.2648951642    0.0000138730
      2  C        -0.0424050155    0.5765707840   -0.0000412512
      3  N        -1.2895781384   -0.1844626053   -0.0000368083
      4  H         2.1239586838    0.3574632141    0.0000698482
      5  H         1.2639839348   -0.9052870957   -0.8820713487
      6  H         1.2638121798   -0.9052086023    0.8821487436
      7  H        -0.0520579379    1.2294511413   -0.8732462014
      8  H        -0.0521267345    1.2293275761    0.8732588111
      9  H        -1.3202626955   -0.7925234756   -0.8100269566
     10  H        -1.3204268343   -0.7920382396    0.8102890309
   Point Group: c1    Number of degrees of freedom:    24


   Energy is   -135.153028073

              Constraints and their Current Values
                                        Value     Constraint
   Dihedral:       10   3   2   7     -179.026     -180.000

 Attempting to Generate Delocalized Internal Coordinates

   Using Lagrange Multiplier Algorithm


 25 Hessian modes will be used to form the next step
  Hessian Eigenvalues:
    -0.977753    0.045000    0.057191    0.070373    0.079370    0.082555
     0.083538    0.105724    0.137289    0.160000    0.160000    0.160000
     0.160000    0.160000    0.219794    0.299159    0.347442    0.347455
     0.347735    0.347738    0.348125    0.368355    0.454255    0.454284
     1.022753

 Minimum Search - Taking P-RFO Step
 Searching for Lamda that Maximizes Along the Constraint modes Only
 Value Taken    Lamda =   0.00015161
 Searching for Lamda that Minimizes Along All other modes
 Value Taken    Lamda =  -0.00013766
 Step Taken.  Stepsize is  0.017028

                             Maximum     Tolerance    Cnvgd?
         Gradient            0.016997       0.000300      NO
         Displacement        0.016994       0.001200      NO
         Energy change     *********       0.000001      NO


 New Cartesian Coordinates Obtained by Inverse Iteration

 Displacement from previous Coordinates is:  0.024097
 ----------------------------------------------------------------
             Standard Nuclear Orientation (Angstroms)
    I     Atom           X                Y                Z
 ----------------------------------------------------------------
    1      C       1.2264755289    -0.2641262927     0.0003953591
    2      C      -0.0439328056     0.5786353525     0.0012866053
    3      N      -1.2903531984    -0.1838454402     0.0010936734
    4      H       2.1223492816     0.3568040598    -0.0009230487
    5      H       1.2595330785    -0.9051548961    -0.8813113220
    6      H       1.2614217488    -0.9041215641     0.8827801537
    7      H      -0.0479269431     1.2269638387    -0.8754063714
    8      H      -0.0512579423     1.2314891227     0.8745946068
    9      H      -1.3178422184    -0.7911803432    -0.8094769931
   10      H      -1.3144696769    -0.7970663046     0.8073250774
 ----------------------------------------------------------------
 Molecular Point Group                 C1    NOp =  1
 Largest Abelian Subgroup              C1    NOp =  1
 Nuclear Repulsion Energy =    83.0613231380 hartrees
 There are       13 alpha and       13 beta electrons

                       Distance Matrix (Angstroms)
             C (  1)   C (  2)   N (  3)   H (  4)   H (  5)   H (  6)
   C (  2)  1.524528
   N (  3)  2.518109  1.461144
   H (  4)  1.090021  2.177612  3.455263
   H (  5)  1.090604  2.163247  2.792999  1.764108
   H (  6)  1.090604  2.163227  2.794231  1.764103  1.764093
   H (  7)  2.148134  1.090384  2.074189  2.496397  2.501083  3.057309
   H (  8)  2.152601  1.090385  2.074014  2.501234  3.060494  2.506796
   H (  9)  2.721623  2.038769  1.013231  3.715716  2.580894  3.086923
   H ( 10)  2.718743  2.038754  1.013228  3.714351  3.080368  2.579219
             H (  7)   H (  8)   H (  9)
   H (  8)  1.750010
   H (  9)  2.385359  2.920877
   H ( 10)  2.921030  2.390662  1.616816
 
 Applying Cartesian multipole field
    Component          Value
    ---------          -----
     (2,0,0)        1.00000E-11
     (0,2,0)        2.00000E-10
     (0,0,2)       -3.00000E-10
 Nucleus-field energy     =     0.0000000027 hartrees
 Requested basis set is cc-pVTZ
 There are 72 shells and 188 basis functions
 A cutoff of  1.0D-11 yielded   2593 shell pairs
 There are     17813 function pairs (     22304 Cartesian)
 Smallest overlap matrix eigenvalue = 8.51E-04
 Guess from superposition of atomic densities
 Warning:  Energy on first SCF cycle will be non-variational
 An unrestricted hybrid HF-DFT SCF calculation will be
 performed using Pulay DIIS extrapolation
 Exchange:     0.5400 Hartree-Fock + 1.0000 M06-2X
 Correlation:  1.0000 M06-2X
 Using SG-1 standard quadrature grid
 SCF converges when DIIS error is below 1.0E-08
 ---------------------------------------
  Cycle       Energy         DIIS Error
 ---------------------------------------
    1    -126.0863731158      3.49E-02
    2    -134.9354200693      1.34E-02
    3    -135.1006464966      4.00E-03
    4    -135.1230954715      2.88E-03
    5    -135.1526897821      2.92E-04
    6    -135.1530003526      5.91E-05
    7    -135.1530154705      8.52E-06
    8    -135.1530158129      3.07E-06
    9    -135.1530158490      9.07E-07
   10    -135.1530158531      1.07E-07
   11    -135.1530158532      2.57E-08
   12    -135.1530158532      5.39E-09 Convergence criterion met
 ---------------------------------------
 <S^2> = 0.0000
 SCF time:  CPU 21.08 s  wall 26.49 s
 SCF   energy in the final basis set = -135.1530158532
 Total energy in the final basis set = -135.1530158532
 
 --------------------------------------------------------------
 
                    Orbital Energies (a.u.)
 --------------------------------------------------------------
 
 Alpha MOs
 -- Occupied --
-14.719 -10.556 -10.524  -0.986  -0.824  -0.694  -0.570  -0.506
 -0.478  -0.474  -0.422  -0.400  -0.305
 -- Virtual --
  0.066   0.106   0.110   0.120   0.151   0.160   0.180   0.213
  0.260   0.291   0.303   0.358   0.362   0.368   0.420   0.447
  0.468   0.484   0.502   0.514   0.527   0.535   0.552   0.587
  0.597   0.624   0.637   0.677   0.761   0.790   0.810   0.856
  0.863   0.951   0.970   1.005   1.027   1.059   1.094   1.103
  1.127   1.181   1.182   1.203   1.208   1.218   1.251   1.308
  1.320   1.330   1.345   1.359   1.422   1.423   1.462   1.493
  1.568   1.568   1.608   1.620   1.687   1.755   1.868   1.876
  2.250   2.287   2.300   2.332   2.420   2.440   2.482   2.552
  2.607   2.665   2.675   2.679   2.793   2.810   2.835   2.846
  2.894   2.915   2.940   2.986   2.993   2.994   3.074   3.094
  3.106   3.114   3.149   3.220   3.231   3.234   3.274   3.308
  3.318   3.336   3.361   3.402   3.443   3.444   3.475   3.492
  3.505   3.532   3.555   3.636   3.641   3.648   3.688   3.738
  3.775   3.782   3.820   3.822   3.846   3.894   3.896   3.924
  3.930   3.960   3.993   4.021   4.046   4.080   4.124   4.128
  4.150   4.192   4.203   4.253   4.273   4.308   4.324   4.361
  4.368   4.473   4.488   4.696   4.710   4.758   4.765   4.815
  4.833   4.875   4.878   4.935   4.965   5.036   5.100   5.130
  5.195   5.263   5.264   5.311   5.318   5.355   5.384   5.455
  5.531   5.564   5.663   5.748   5.776   5.805   5.814   5.891
  6.039   6.066   6.146   6.723  12.164  12.817  13.427
 
 Beta MOs
 -- Occupied --
-14.719 -10.556 -10.524  -0.986  -0.824  -0.694  -0.570  -0.506
 -0.478  -0.474  -0.422  -0.400  -0.305
 -- Virtual --
  0.066   0.106   0.110   0.120   0.151   0.160   0.180   0.213
  0.260   0.291   0.303   0.358   0.362   0.368   0.420   0.447
  0.468   0.484   0.502   0.514   0.527   0.535   0.552   0.587
  0.597   0.624   0.637   0.677   0.761   0.790   0.810   0.856
  0.863   0.951   0.970   1.005   1.027   1.059   1.094   1.103
  1.127   1.181   1.182   1.203   1.208   1.218   1.251   1.308
  1.320   1.330   1.345   1.359   1.422   1.423   1.462   1.493
  1.568   1.568   1.608   1.620   1.687   1.755   1.868   1.876
  2.250   2.287   2.300   2.332   2.420   2.440   2.482   2.552
  2.607   2.665   2.675   2.679   2.793   2.810   2.835   2.846
  2.894   2.915   2.940   2.986   2.993   2.994   3.074   3.094
  3.106   3.114   3.149   3.220   3.231   3.234   3.274   3.308
  3.318   3.336   3.361   3.402   3.443   3.444   3.475   3.492
  3.505   3.532   3.555   3.636   3.641   3.648   3.688   3.738
  3.775   3.782   3.820   3.822   3.846   3.894   3.896   3.924
  3.930   3.960   3.993   4.021   4.046   4.080   4.124   4.128
  4.150   4.192   4.203   4.253   4.273   4.308   4.324   4.361
  4.368   4.473   4.488   4.696   4.710   4.758   4.765   4.815
  4.833   4.875   4.878   4.935   4.965   5.036   5.100   5.130
  5.195   5.263   5.264   5.311   5.318   5.355   5.384   5.455
  5.531   5.564   5.663   5.748   5.776   5.805   5.814   5.891
  6.039   6.066   6.146   6.723  12.164  12.817  13.427
 --------------------------------------------------------------
 
          Ground-State Mulliken Net Atomic Charges

     Atom                 Charge (a.u.)    Spin (a.u.)
  --------------------------------------------------------
      1 C                    -0.315119       0.000000
      2 C                    -0.126614       0.000000
      3 N                    -0.412640       0.000000
      4 H                     0.097327       0.000000
      5 H                     0.098158       0.000000
      6 H                     0.097968       0.000000
      7 H                     0.112737       0.000000
      8 H                     0.113056       0.000000
      9 H                     0.167594       0.000000
     10 H                     0.167534       0.000000
  --------------------------------------------------------
  Sum of atomic charges =     0.000000
  Sum of spin   charges =     0.000000

 -----------------------------------------------------------------
                    Cartesian Multipole Moments
 -----------------------------------------------------------------
    Charge (ESU x 10^10)
                 0.0000
    Dipole Moment (Debye)
         X       1.0148      Y      -0.8177      Z      -0.0068
       Tot       1.3033
    Quadrupole Moments (Debye-Ang)
        XX     -24.4330     XY       2.2028     YY     -20.1276
        XZ       0.0108     YZ      -0.0015     ZZ     -19.2408
    Octopole Moments (Debye-Ang^2)
       XXX       4.6962    XXY      -2.7998    XYY      -2.1954
       YYY      -1.1523    XXZ      -0.0480    XYZ      -0.0007
       YYZ       0.0016    XZZ      -2.8170    YZZ      -1.4926
       ZZZ      -0.0499
    Hexadecapole Moments (Debye-Ang^3)
      XXXX    -194.5842   XXXY       9.5158   XXYY     -38.5486
      XYYY       3.5808   YYYY     -63.6724   XXXZ       0.0629
      XXYZ      -0.0023   XYYZ      -0.0141   YYYZ       0.0018
      XXZZ     -34.7602   XYZZ       1.7566   YYZZ     -14.5193
      XZZZ       0.0241   YZZZ      -0.0051   ZZZZ     -38.1966
 -----------------------------------------------------------------
 Calculating analytic gradient of the SCF energy
 Gradient of SCF Energy
            1           2           3           4           5           6
    1  -0.0001448  -0.0009370  -0.0001029  -0.0000235   0.0000103  -0.0000694
    2   0.0001006   0.0006055   0.0001313   0.0000364   0.0000090   0.0000779
    3  -0.0003506   0.0004851   0.0000752  -0.0000148   0.0000101  -0.0000090
            7           8           9          10
    1   0.0006851   0.0002475   0.0001423   0.0001925
    2  -0.0004331  -0.0001720  -0.0001669  -0.0001888
    3  -0.0003782   0.0002694   0.0003432  -0.0004304
 Max gradient component =       9.370E-04
 RMS gradient           =       3.198E-04
 Gradient time:  CPU 6.06 s  wall 6.51 s
 Geometry Optimization Parameters
   NAtoms,    NIC,     NZ,  NCons,   NDum,   NFix, NCnnct, MaxDiis
       10      59       0       1       0       0       0       0

 Cartesian Hessian Update
 Hessian Updated using BFGS Update


** CONSTRAINED OPTIMIZATION IN DELOCALIZED INTERNAL COORDINATES **
   Searching for a Minimum

   Optimization Cycle:   2

                       Coordinates (Angstroms)
     ATOM                X               Y               Z
      1  C         1.2264755289   -0.2641262927    0.0003953591
      2  C        -0.0439328056    0.5786353525    0.0012866053
      3  N        -1.2903531984   -0.1838454402    0.0010936734
      4  H         2.1223492816    0.3568040598   -0.0009230487
      5  H         1.2595330785   -0.9051548961   -0.8813113220
      6  H         1.2614217488   -0.9041215641    0.8827801537
      7  H        -0.0479269431    1.2269638387   -0.8754063714
      8  H        -0.0512579423    1.2314891227    0.8745946068
      9  H        -1.3178422184   -0.7911803432   -0.8094769931
     10  H        -1.3144696769   -0.7970663046    0.8073250774
   Point Group: c1    Number of degrees of freedom:    24


   Energy is   -135.153015853

              Constraints and their Current Values
                                        Value     Constraint
   Dihedral:       10   3   2   7     -180.000     -180.000
 Hessian Updated using BFGS Update

   Using Lagrange Multiplier Algorithm


 22 Hessian modes will be used to form the next step
  Hessian Eigenvalues:
    -0.961236    0.045006    0.062985    0.070364    0.079552    0.082590
     0.083489    0.120557    0.141945    0.159397    0.161891    0.223709
     0.306310    0.347414    0.347445    0.347725    0.348115    0.349037
     0.367900    0.454248    0.460464    1.044258

 Minimum Search - Taking P-RFO Step
 Searching for Lamda that Maximizes Along the Constraint modes Only
 Value Taken    Lamda =   0.00000017
 Searching for Lamda that Minimizes Along All other modes
 Value Taken    Lamda =  -0.00000717
 Step Taken.  Stepsize is  0.007842

                             Maximum     Tolerance    Cnvgd?
         Gradient            0.000626       0.000300      NO
         Displacement        0.003404       0.001200      NO
         Energy change      0.000012       0.000001      NO


 New Cartesian Coordinates Obtained by Inverse Iteration

 Displacement from previous Coordinates is:  0.009484
 ----------------------------------------------------------------
             Standard Nuclear Orientation (Angstroms)
    I     Atom           X                Y                Z
 ----------------------------------------------------------------
    1      C       1.2274375998    -0.2643776332     0.0008829603
    2      C      -0.0434904287     0.5781744814     0.0010845963
    3      N      -1.2905846821    -0.1834417393     0.0014107441
    4      H       2.1232797106     0.3566172827    -0.0008780633
    5      H       1.2605626409    -0.9058588228    -0.8805100890
    6      H       1.2630452760    -0.9041575294     0.8834696125
    7      H      -0.0502273442     1.2268193551    -0.8753126803
    8      H      -0.0516505385     1.2316896831     0.8737579302
    9      H      -1.3200180047    -0.7891467246    -0.8104757762
   10      H      -1.3143573760    -0.7979208203     0.8069285060
 ----------------------------------------------------------------
 Molecular Point Group                 C1    NOp =  1
 Largest Abelian Subgroup              C1    NOp =  1
 Nuclear Repulsion Energy =    83.0462055212 hartrees
 There are       13 alpha and       13 beta electrons

                       Distance Matrix (Angstroms)
             C (  1)   C (  2)   N (  3)   H (  4)   H (  5)   H (  6)
   C (  2)  1.524845
   N (  3)  2.519323  1.461268
   H (  4)  1.090033  2.178069  3.456319
   H (  5)  1.090619  2.163358  2.794284  1.764052
   H (  6)  1.090663  2.164012  2.796155  1.763981  1.763982
   H (  7)  2.150306  1.090348  2.072671  2.499204  2.503301  3.059259
   H (  8)  2.153182  1.090279  2.073293  2.502211  3.060796  2.508060
   H (  9)  2.724558  2.039049  1.013363  3.718134  2.584168  3.091099
   H ( 10)  2.719393  2.039148  1.013414  3.715220  3.080473  2.580726
             H (  7)   H (  8)   H (  9)
   H (  8)  1.749078
   H (  9)  2.383420  2.920476
   H ( 10)  2.920194  2.391279  1.617438
 
 Applying Cartesian multipole field
    Component          Value
    ---------          -----
     (2,0,0)        1.00000E-11
     (0,2,0)        2.00000E-10
     (0,0,2)       -3.00000E-10
 Nucleus-field energy     =     0.0000000027 hartrees
 Requested basis set is cc-pVTZ
 There are 72 shells and 188 basis functions
 A cutoff of  1.0D-11 yielded   2593 shell pairs
 There are     17813 function pairs (     22304 Cartesian)
 Smallest overlap matrix eigenvalue = 8.53E-04
 Guess from superposition of atomic densities
 Warning:  Energy on first SCF cycle will be non-variational
 An unrestricted hybrid HF-DFT SCF calculation will be
 performed using Pulay DIIS extrapolation
 Exchange:     0.5400 Hartree-Fock + 1.0000 M06-2X
 Correlation:  1.0000 M06-2X
 Using SG-1 standard quadrature grid
 SCF converges when DIIS error is below 1.0E-08
 ---------------------------------------
  Cycle       Energy         DIIS Error
 ---------------------------------------
    1    -126.0854961409      3.49E-02
    2    -134.9353725905      1.34E-02
    3    -135.1006437302      4.00E-03
    4    -135.1230978376      2.88E-03
    5    -135.1526941617      2.93E-04
    6    -135.1530056391      5.91E-05
    7    -135.1530207429      8.52E-06
    8    -135.1530210854      3.08E-06
    9    -135.1530211218      9.06E-07
   10    -135.1530211258      1.07E-07
   11    -135.1530211259      2.57E-08
   12    -135.1530211259      5.41E-09 Convergence criterion met
 ---------------------------------------
 <S^2> = 0.0000
 SCF time:  CPU 21.11 s  wall 25.28 s
 SCF   energy in the final basis set = -135.1530211259
 Total energy in the final basis set = -135.1530211259
 
 --------------------------------------------------------------
 
                    Orbital Energies (a.u.)
 --------------------------------------------------------------
 
 Alpha MOs
 -- Occupied --
-14.719 -10.556 -10.524  -0.985  -0.824  -0.694  -0.570  -0.505
 -0.478  -0.474  -0.422  -0.400  -0.305
 -- Virtual --
  0.066   0.106   0.110   0.120   0.151   0.160   0.180   0.213
  0.260   0.291   0.303   0.358   0.362   0.368   0.420   0.447
  0.468   0.484   0.502   0.513   0.527   0.535   0.552   0.587
  0.597   0.624   0.637   0.677   0.761   0.790   0.810   0.856
  0.864   0.951   0.970   1.006   1.027   1.059   1.094   1.103
  1.126   1.181   1.182   1.203   1.208   1.218   1.251   1.308
  1.320   1.331   1.345   1.358   1.422   1.423   1.462   1.493
  1.568   1.568   1.608   1.620   1.687   1.754   1.868   1.876
  2.250   2.286   2.300   2.332   2.420   2.440   2.483   2.552
  2.607   2.666   2.675   2.679   2.793   2.810   2.835   2.846
  2.894   2.915   2.940   2.986   2.993   2.994   3.074   3.094
  3.105   3.114   3.149   3.220   3.231   3.234   3.274   3.308
  3.318   3.336   3.361   3.402   3.443   3.444   3.475   3.493
  3.505   3.531   3.555   3.636   3.641   3.649   3.688   3.738
  3.774   3.781   3.820   3.822   3.846   3.894   3.896   3.924
  3.929   3.960   3.993   4.021   4.046   4.080   4.123   4.128
  4.150   4.191   4.203   4.253   4.273   4.308   4.324   4.360
  4.368   4.473   4.487   4.696   4.710   4.758   4.765   4.816
  4.832   4.874   4.879   4.935   4.966   5.036   5.100   5.130
  5.194   5.261   5.264   5.310   5.318   5.355   5.384   5.454
  5.530   5.563   5.663   5.748   5.776   5.805   5.814   5.891
  6.039   6.065   6.147   6.723  12.161  12.815  13.424
 
 Beta MOs
 -- Occupied --
-14.719 -10.556 -10.524  -0.985  -0.824  -0.694  -0.570  -0.505
 -0.478  -0.474  -0.422  -0.400  -0.305
 -- Virtual --
  0.066   0.106   0.110   0.120   0.151   0.160   0.180   0.213
  0.260   0.291   0.303   0.358   0.362   0.368   0.420   0.447
  0.468   0.484   0.502   0.513   0.527   0.535   0.552   0.587
  0.597   0.624   0.637   0.677   0.761   0.790   0.810   0.856
  0.864   0.951   0.970   1.006   1.027   1.059   1.094   1.103
  1.126   1.181   1.182   1.203   1.208   1.218   1.251   1.308
  1.320   1.331   1.345   1.358   1.422   1.423   1.462   1.493
  1.568   1.568   1.608   1.620   1.687   1.754   1.868   1.876
  2.250   2.286   2.300   2.332   2.420   2.440   2.483   2.552
  2.607   2.666   2.675   2.679   2.793   2.810   2.835   2.846
  2.894   2.915   2.940   2.986   2.993   2.994   3.074   3.094
  3.105   3.114   3.149   3.220   3.231   3.234   3.274   3.308
  3.318   3.336   3.361   3.402   3.443   3.444   3.475   3.493
  3.505   3.531   3.555   3.636   3.641   3.649   3.688   3.738
  3.774   3.781   3.820   3.822   3.846   3.894   3.896   3.924
  3.929   3.960   3.993   4.021   4.046   4.080   4.123   4.128
  4.150   4.191   4.203   4.253   4.273   4.308   4.324   4.360
  4.368   4.473   4.487   4.696   4.710   4.758   4.765   4.816
  4.832   4.874   4.879   4.935   4.966   5.036   5.100   5.130
  5.194   5.261   5.264   5.310   5.318   5.355   5.384   5.454
  5.530   5.563   5.663   5.748   5.776   5.805   5.814   5.891
  6.039   6.065   6.147   6.723  12.161  12.815  13.424
 --------------------------------------------------------------
 
          Ground-State Mulliken Net Atomic Charges

     Atom                 Charge (a.u.)    Spin (a.u.)
  --------------------------------------------------------
      1 C                    -0.315119       0.000000
      2 C                    -0.126775       0.000000
      3 N                    -0.412963       0.000000
      4 H                     0.097415       0.000000
      5 H                     0.098170       0.000000
      6 H                     0.098042       0.000000
      7 H                     0.112842       0.000000
      8 H                     0.113117       0.000000
      9 H                     0.167711       0.000000
     10 H                     0.167559       0.000000
  --------------------------------------------------------
  Sum of atomic charges =     0.000000
  Sum of spin   charges =     0.000000

 -----------------------------------------------------------------
                    Cartesian Multipole Moments
 -----------------------------------------------------------------
    Charge (ESU x 10^10)
                 0.0000
    Dipole Moment (Debye)
         X       1.0131      Y      -0.8180      Z      -0.0099
       Tot       1.3022
    Quadrupole Moments (Debye-Ang)
        XX     -24.4236     XY       2.1999     YY     -20.1290
        XZ       0.0222     YZ      -0.0055     ZZ     -19.2422
    Octopole Moments (Debye-Ang^2)
       XXX       4.6765    XXY      -2.8067    XYY      -2.1999
       YYY      -1.1412    XXZ      -0.0669    XYZ       0.0008
       YYZ       0.0017    XZZ      -2.8276    YZZ      -1.4937
       ZZZ      -0.0636
    Hexadecapole Moments (Debye-Ang^3)
      XXXX    -194.7038   XXXY       9.5567   XXYY     -38.5730
      XYYY       3.5935   YYYY     -63.6495   XXXZ       0.0816
      XXYZ      -0.0011   XYYZ      -0.0194   YYYZ       0.0021
      XXZZ     -34.7780   XYZZ       1.7610   YYZZ     -14.5176
      XZZZ       0.0210   YZZZ       0.0011   ZZZZ     -38.1963
 -----------------------------------------------------------------
 Calculating analytic gradient of the SCF energy
 Gradient of SCF Energy
            1           2           3           4           5           6
    1   0.0000227  -0.0006471  -0.0001982   0.0000155   0.0000011   0.0000197
    2   0.0000256   0.0005272   0.0003949   0.0000080   0.0000069   0.0000115
    3  -0.0001830   0.0003846   0.0000265  -0.0000120   0.0000090   0.0000030
            7           8           9          10
    1   0.0003413   0.0001292   0.0001173   0.0001986
    2  -0.0003605  -0.0001759  -0.0001884  -0.0002494
    3  -0.0002933   0.0001481   0.0001873  -0.0002702
 Max gradient component =       6.471E-04
 RMS gradient           =       2.406E-04
 Gradient time:  CPU 6.10 s  wall 6.52 s
 Geometry Optimization Parameters
   NAtoms,    NIC,     NZ,  NCons,   NDum,   NFix, NCnnct, MaxDiis
       10      59       0       1       0       0       0       0

 Cartesian Hessian Update
 Hessian Updated using BFGS Update


** CONSTRAINED OPTIMIZATION IN DELOCALIZED INTERNAL COORDINATES **
   Searching for a Minimum

   Optimization Cycle:   3

                       Coordinates (Angstroms)
     ATOM                X               Y               Z
      1  C         1.2274375998   -0.2643776332    0.0008829603
      2  C        -0.0434904287    0.5781744814    0.0010845963
      3  N        -1.2905846821   -0.1834417393    0.0014107441
      4  H         2.1232797106    0.3566172827   -0.0008780633
      5  H         1.2605626409   -0.9058588228   -0.8805100890
      6  H         1.2630452760   -0.9041575294    0.8834696125
      7  H        -0.0502273442    1.2268193551   -0.8753126803
      8  H        -0.0516505385    1.2316896831    0.8737579302
      9  H        -1.3200180047   -0.7891467246   -0.8104757762
     10  H        -1.3143573760   -0.7979208203    0.8069285060
   Point Group: c1    Number of degrees of freedom:    24


   Energy is   -135.153021126

              Constraints and their Current Values
                                        Value     Constraint
   Dihedral:       10   3   2   7     -180.000     -180.000
 Hessian Updated using BFGS Update

 21 Hessian modes will be used to form the next step
  Hessian Eigenvalues:
     0.032767    0.045079    0.070359    0.078232    0.082657    0.083504
     0.106435    0.138920    0.159774    0.159929    0.165804    0.226371
     0.325629    0.347416    0.347498    0.347717    0.348104    0.353210
     0.367735    0.454154    0.462498

 Minimum Search - Taking Simple RFO Step
 Searching for Lamda that Minimizes Along All modes
 Value Taken    Lamda =  -0.00000565
 Step Taken.  Stepsize is  0.012819

                             Maximum     Tolerance    Cnvgd?
         Gradient           0.000184      0.000300     YES
         Displacement       0.007312      0.001200      NO
         Energy change     -0.000005      0.000001      NO


 New Cartesian Coordinates Obtained by Inverse Iteration

 Displacement from previous Coordinates is:  0.012585
 ----------------------------------------------------------------
             Standard Nuclear Orientation (Angstroms)
    I     Atom           X                Y                Z
 ----------------------------------------------------------------
    1      C       1.2284197403    -0.2646448482     0.0013690145
    2      C      -0.0425259888     0.5774420596     0.0006705419
    3      N      -1.2902989509    -0.1836064897     0.0022491697
    4      H       2.1239954813     0.3566879337    -0.0007620223
    5      H       1.2618689628    -0.9068388898    -0.8795331143
    6      H       1.2639901140    -0.9037109855     0.8844596162
    7      H      -0.0523908091     1.2268583283    -0.8750720083
    8      H      -0.0517294800     1.2322853735     0.8723329482
    9      H      -1.3234700579    -0.7861587232    -0.8119130406
   10      H      -1.3138621586    -0.7999162259     0.8065566355
 ----------------------------------------------------------------
 Molecular Point Group                 C1    NOp =  1
 Largest Abelian Subgroup              C1    NOp =  1
 Nuclear Repulsion Energy =    83.0366674879 hartrees
 There are       13 alpha and       13 beta electrons

                       Distance Matrix (Angstroms)
             C (  1)   C (  2)   N (  3)   H (  4)   H (  5)   H (  6)
   C (  2)  1.524603
   N (  3)  2.520022  1.461552
   H (  4)  1.090007  2.177740  3.456781
   H (  5)  1.090651  2.163168  2.795383  1.764086
   H (  6)  1.090651  2.163766  2.796648  1.764039  1.763997
   H (  7)  2.152488  1.090304  2.071598  2.501654  2.505985  3.060741
   H (  8)  2.153639  1.090275  2.072643  2.502548  3.061116  2.508734
   H (  9)  2.728653  2.039735  1.013425  3.721436  2.589037  3.096199
   H ( 10)  2.719934  2.040310  1.013560  3.715960  3.080377  2.581117
             H (  7)   H (  8)   H (  9)
   H (  8)  1.747414
   H (  9)  2.381569  2.920295
   H ( 10)  2.920103  2.393146  1.618557
 
 Applying Cartesian multipole field
    Component          Value
    ---------          -----
     (2,0,0)        1.00000E-11
     (0,2,0)        2.00000E-10
     (0,0,2)       -3.00000E-10
 Nucleus-field energy     =     0.0000000027 hartrees
 Requested basis set is cc-pVTZ
 There are 72 shells and 188 basis functions
 A cutoff of  1.0D-11 yielded   2593 shell pairs
 There are     17813 function pairs (     22304 Cartesian)
 Smallest overlap matrix eigenvalue = 8.54E-04
 Guess from superposition of atomic densities
 Warning:  Energy on first SCF cycle will be non-variational
 An unrestricted hybrid HF-DFT SCF calculation will be
 performed using Pulay DIIS extrapolation
 Exchange:     0.5400 Hartree-Fock + 1.0000 M06-2X
 Correlation:  1.0000 M06-2X
 Using SG-1 standard quadrature grid
 SCF converges when DIIS error is below 1.0E-08
 ---------------------------------------
  Cycle       Energy         DIIS Error
 ---------------------------------------
    1    -126.0850066673      3.49E-02
    2    -134.9353815597      1.34E-02
    3    -135.1006401944      4.00E-03
    4    -135.1230912297      2.88E-03
    5    -135.1526970478      2.93E-04
    6    -135.1530088437      5.91E-05
    7    -135.1530239439      8.53E-06
    8    -135.1530242866      3.09E-06
    9    -135.1530243232      9.03E-07
   10    -135.1530243272      1.07E-07
   11    -135.1530243273      2.58E-08
   12    -135.1530243273      5.44E-09 Convergence criterion met
 ---------------------------------------
 <S^2> = 0.0000
 SCF time:  CPU 21.16 s  wall 25.38 s
 SCF   energy in the final basis set = -135.1530243273
 Total energy in the final basis set = -135.1530243273
 
 --------------------------------------------------------------
 
                    Orbital Energies (a.u.)
 --------------------------------------------------------------
 
 Alpha MOs
 -- Occupied --
-14.719 -10.556 -10.524  -0.985  -0.824  -0.694  -0.570  -0.505
 -0.478  -0.474  -0.422  -0.400  -0.305
 -- Virtual --
  0.066   0.106   0.110   0.120   0.151   0.160   0.180   0.213
  0.260   0.291   0.303   0.358   0.362   0.368   0.420   0.447
  0.468   0.484   0.502   0.513   0.527   0.535   0.552   0.587
  0.597   0.624   0.637   0.677   0.761   0.790   0.810   0.856
  0.864   0.951   0.970   1.006   1.026   1.058   1.094   1.103
  1.126   1.181   1.182   1.203   1.208   1.218   1.251   1.308
  1.320   1.332   1.345   1.358   1.422   1.424   1.461   1.493
  1.568   1.568   1.607   1.620   1.688   1.754   1.868   1.875
  2.250   2.286   2.300   2.332   2.419   2.439   2.483   2.551
  2.607   2.666   2.675   2.679   2.792   2.810   2.835   2.846
  2.894   2.915   2.940   2.987   2.993   2.994   3.075   3.093
  3.105   3.115   3.149   3.220   3.231   3.234   3.274   3.308
  3.318   3.336   3.360   3.402   3.442   3.444   3.475   3.493
  3.505   3.531   3.556   3.635   3.641   3.649   3.688   3.738
  3.773   3.781   3.820   3.821   3.846   3.894   3.896   3.925
  3.930   3.960   3.993   4.022   4.046   4.080   4.123   4.129
  4.150   4.191   4.202   4.254   4.273   4.308   4.324   4.359
  4.368   4.473   4.486   4.696   4.709   4.758   4.765   4.816
  4.831   4.874   4.879   4.935   4.967   5.035   5.100   5.131
  5.193   5.260   5.264   5.310   5.318   5.355   5.384   5.454
  5.529   5.561   5.663   5.748   5.777   5.805   5.814   5.890
  6.039   6.066   6.147   6.721  12.158  12.813  13.423
 
 Beta MOs
 -- Occupied --
-14.719 -10.556 -10.524  -0.985  -0.824  -0.694  -0.570  -0.505
 -0.478  -0.474  -0.422  -0.400  -0.305
 -- Virtual --
  0.066   0.106   0.110   0.120   0.151   0.160   0.180   0.213
  0.260   0.291   0.303   0.358   0.362   0.368   0.420   0.447
  0.468   0.484   0.502   0.513   0.527   0.535   0.552   0.587
  0.597   0.624   0.637   0.677   0.761   0.790   0.810   0.856
  0.864   0.951   0.970   1.006   1.026   1.058   1.094   1.103
  1.126   1.181   1.182   1.203   1.208   1.218   1.251   1.308
  1.320   1.332   1.345   1.358   1.422   1.424   1.461   1.493
  1.568   1.568   1.607   1.620   1.688   1.754   1.868   1.875
  2.250   2.286   2.300   2.332   2.419   2.439   2.483   2.551
  2.607   2.666   2.675   2.679   2.792   2.810   2.835   2.846
  2.894   2.915   2.940   2.987   2.993   2.994   3.075   3.093
  3.105   3.115   3.149   3.220   3.231   3.234   3.274   3.308
  3.318   3.336   3.360   3.402   3.442   3.444   3.475   3.493
  3.505   3.531   3.556   3.635   3.641   3.649   3.688   3.738
  3.773   3.781   3.820   3.821   3.846   3.894   3.896   3.925
  3.930   3.960   3.993   4.022   4.046   4.080   4.123   4.129
  4.150   4.191   4.202   4.254   4.273   4.308   4.324   4.359
  4.368   4.473   4.486   4.696   4.709   4.758   4.765   4.816
  4.831   4.874   4.879   4.935   4.967   5.035   5.100   5.131
  5.193   5.260   5.264   5.310   5.318   5.355   5.384   5.454
  5.529   5.561   5.663   5.748   5.777   5.805   5.814   5.890
  6.039   6.066   6.147   6.721  12.158  12.813  13.423
 --------------------------------------------------------------
 
          Ground-State Mulliken Net Atomic Charges

     Atom                 Charge (a.u.)    Spin (a.u.)
  --------------------------------------------------------
      1 C                    -0.314866       0.000000
      2 C                    -0.126926       0.000000
      3 N                    -0.413684       0.000000
      4 H                     0.097448       0.000000
      5 H                     0.098176       0.000000
      6 H                     0.098071       0.000000
      7 H                     0.112967       0.000000
      8 H                     0.113145       0.000000
      9 H                     0.167957       0.000000
     10 H                     0.167713       0.000000
  --------------------------------------------------------
  Sum of atomic charges =     0.000000
  Sum of spin   charges =     0.000000

 -----------------------------------------------------------------
                    Cartesian Multipole Moments
 -----------------------------------------------------------------
    Charge (ESU x 10^10)
                 0.0000
    Dipole Moment (Debye)
         X       1.0095      Y      -0.8172      Z      -0.0155
       Tot       1.2988
    Quadrupole Moments (Debye-Ang)
        XX     -24.4084     XY       2.1981     YY     -20.1291
        XZ       0.0389     YZ      -0.0124     ZZ     -19.2427
    Octopole Moments (Debye-Ang^2)
       XXX       4.6208    XXY      -2.8108    XYY      -2.2097
       YYY      -1.1134    XXZ      -0.1023    XYZ       0.0048
       YYZ       0.0022    XZZ      -2.8459    YZZ      -1.4948
       ZZZ      -0.0846
    Hexadecapole Moments (Debye-Ang^3)
      XXXX    -194.7507   XXXY       9.5842   XXYY     -38.5861
      XYYY       3.5861   YYYY     -63.6230   XXXZ       0.1296
      XXYZ       0.0030   XYYZ      -0.0274   YYYZ       0.0023
      XXZZ     -34.7805   XYZZ       1.7620   YYZZ     -14.5161
      XZZZ       0.0309   YZZZ       0.0107   ZZZZ     -38.1933
 -----------------------------------------------------------------
 Calculating analytic gradient of the SCF energy
 Gradient of SCF Energy
            1           2           3           4           5           6
    1   0.0000447   0.0000016  -0.0002596  -0.0000037  -0.0000076   0.0000371
    2  -0.0000078   0.0003205   0.0004326   0.0000120   0.0000008  -0.0000118
    3   0.0000053   0.0001581   0.0000736  -0.0000210  -0.0000118   0.0000036
            7           8           9          10
    1   0.0000261  -0.0000199   0.0000491   0.0001324
    2  -0.0002040  -0.0000906  -0.0001481  -0.0003035
    3  -0.0001270   0.0000074   0.0000028  -0.0000909
 Max gradient component =       4.326E-04
 RMS gradient           =       1.416E-04
 Gradient time:  CPU 6.10 s  wall 6.34 s
 Geometry Optimization Parameters
   NAtoms,    NIC,     NZ,  NCons,   NDum,   NFix, NCnnct, MaxDiis
       10      59       0       1       0       0       0       0

 Cartesian Hessian Update
 Hessian Updated using BFGS Update


** CONSTRAINED OPTIMIZATION IN DELOCALIZED INTERNAL COORDINATES **
   Searching for a Minimum

   Optimization Cycle:   4

                       Coordinates (Angstroms)
     ATOM                X               Y               Z
      1  C         1.2284197403   -0.2646448482    0.0013690145
      2  C        -0.0425259888    0.5774420596    0.0006705419
      3  N        -1.2902989509   -0.1836064897    0.0022491697
      4  H         2.1239954813    0.3566879337   -0.0007620223
      5  H         1.2618689628   -0.9068388898   -0.8795331143
      6  H         1.2639901140   -0.9037109855    0.8844596162
      7  H        -0.0523908091    1.2268583283   -0.8750720083
      8  H        -0.0517294800    1.2322853735    0.8723329482
      9  H        -1.3234700579   -0.7861587232   -0.8119130406
     10  H        -1.3138621586   -0.7999162259    0.8065566355
   Point Group: c1    Number of degrees of freedom:    24


   Energy is   -135.153024327

              Constraints and their Current Values
                                        Value     Constraint
   Dihedral:       10   3   2   7     -180.000     -180.000
 Hessian Updated using BFGS Update

 22 Hessian modes will be used to form the next step
  Hessian Eigenvalues:
     0.024621    0.045161    0.070381    0.078567    0.082661    0.083497
     0.114478    0.140720    0.159769    0.159942    0.160742    0.166216
     0.227790    0.326168    0.347445    0.347524    0.347755    0.348182
     0.355182    0.370474    0.454217    0.472877

 Minimum Search - Taking Simple RFO Step
 Searching for Lamda that Minimizes Along All modes
 Value Taken    Lamda =   0.00000000
 Step Taken.  Stepsize is  0.003843

                             Maximum     Tolerance    Cnvgd?
         Gradient           0.000132      0.000300     YES
         Displacement       0.002697      0.001200      NO
         Energy change     -0.000003      0.000001      NO


 New Cartesian Coordinates Obtained by Inverse Iteration

 Displacement from previous Coordinates is:  0.003161
 ----------------------------------------------------------------
             Standard Nuclear Orientation (Angstroms)
    I     Atom           X                Y                Z
 ----------------------------------------------------------------
    1      C       1.2285224973    -0.2646625498     0.0014159607
    2      C      -0.0424260805     0.5771839388     0.0005496159
    3      N      -1.2900818771    -0.1839058066     0.0025218273
    4      H       2.1240315604     0.3567740371    -0.0006125512
    5      H       1.2622229366    -0.9069715919    -0.8793786716
    6      H       1.2639035916    -0.9035403500     0.8846130933
    7      H      -0.0525094437     1.2268168963    -0.8750553558
    8      H      -0.0516828880     1.2324640364     0.8719755684
    9      H      -1.3244714144    -0.7853911491    -0.8122664824
   10      H      -1.3135120291    -0.8003699284     0.8065947359
 ----------------------------------------------------------------
 Molecular Point Group                 C1    NOp =  1
 Largest Abelian Subgroup              C1    NOp =  1
 Nuclear Repulsion Energy =    83.0391631368 hartrees
 There are       13 alpha and       13 beta electrons

                       Distance Matrix (Angstroms)
             C (  1)   C (  2)   N (  3)   H (  4)   H (  5)   H (  6)
   C (  2)  1.524473
   N (  3)  2.519899  1.461474
   H (  4)  1.090011  2.177641  3.456662
   H (  5)  1.090640  2.163123  2.795502  1.764085
   H (  6)  1.090621  2.163472  2.796212  1.764040  1.763996
   H (  7)  2.152616  1.090325  2.071682  2.501790  2.506311  3.060686
   H (  8)  2.153645  1.090349  2.072604  2.502394  3.061172  2.508673
   H (  9)  2.729655  2.039834  1.013335  3.722297  2.590420  3.097264
   H ( 10)  2.719786  2.040349  1.013464  3.715814  3.080305  2.580659
             H (  7)   H (  8)   H (  9)
   H (  8)  1.747040
   H (  9)  2.381346  2.920343
   H ( 10)  2.920199  2.393512  1.618968
 
 Applying Cartesian multipole field
    Component          Value
    ---------          -----
     (2,0,0)        1.00000E-11
     (0,2,0)        2.00000E-10
     (0,0,2)       -3.00000E-10
 Nucleus-field energy     =     0.0000000026 hartrees
 Requested basis set is cc-pVTZ
 There are 72 shells and 188 basis functions
 A cutoff of  1.0D-11 yielded   2593 shell pairs
 There are     17813 function pairs (     22304 Cartesian)
 Smallest overlap matrix eigenvalue = 8.55E-04
 Guess from superposition of atomic densities
 Warning:  Energy on first SCF cycle will be non-variational
 An unrestricted hybrid HF-DFT SCF calculation will be
 performed using Pulay DIIS extrapolation
 Exchange:     0.5400 Hartree-Fock + 1.0000 M06-2X
 Correlation:  1.0000 M06-2X
 Using SG-1 standard quadrature grid
 SCF converges when DIIS error is below 1.0E-08
 ---------------------------------------
  Cycle       Energy         DIIS Error
 ---------------------------------------
    1    -126.0852608144      3.49E-02
    2    -134.9354211885      1.34E-02
    3    -135.1006488577      4.00E-03
    4    -135.1230947533      2.88E-03
    5    -135.1526980728      2.92E-04
    6    -135.1530092030      5.91E-05
    7    -135.1530243050      8.53E-06
    8    -135.1530246475      3.09E-06
    9    -135.1530246841      9.03E-07
   10    -135.1530246881      1.07E-07
   11    -135.1530246882      2.58E-08
   12    -135.1530246882      5.44E-09 Convergence criterion met
 ---------------------------------------
 <S^2> = 0.0000
 SCF time:  CPU 21.11 s  wall 25.60 s
 SCF   energy in the final basis set = -135.1530246882
 Total energy in the final basis set = -135.1530246882
 
 --------------------------------------------------------------
 
                    Orbital Energies (a.u.)
 --------------------------------------------------------------
 
 Alpha MOs
 -- Occupied --
-14.719 -10.556 -10.524  -0.985  -0.824  -0.694  -0.570  -0.505
 -0.478  -0.474  -0.422  -0.400  -0.305
 -- Virtual --
  0.066   0.106   0.110   0.120   0.151   0.160   0.179   0.213
  0.260   0.291   0.303   0.358   0.362   0.368   0.421   0.447
  0.468   0.484   0.502   0.513   0.527   0.535   0.552   0.587
  0.597   0.624   0.637   0.677   0.761   0.790   0.810   0.856
  0.864   0.951   0.970   1.006   1.026   1.058   1.094   1.103
  1.126   1.182   1.182   1.203   1.208   1.218   1.251   1.308
  1.320   1.332   1.345   1.358   1.422   1.424   1.461   1.493
  1.568   1.568   1.607   1.620   1.688   1.754   1.868   1.875
  2.250   2.286   2.300   2.332   2.419   2.440   2.483   2.551
  2.607   2.667   2.675   2.679   2.792   2.810   2.835   2.846
  2.894   2.915   2.940   2.987   2.993   2.994   3.075   3.093
  3.105   3.115   3.150   3.220   3.230   3.235   3.274   3.308
  3.318   3.336   3.360   3.402   3.442   3.444   3.475   3.493
  3.505   3.531   3.556   3.635   3.642   3.649   3.688   3.738
  3.773   3.781   3.820   3.822   3.846   3.894   3.896   3.925
  3.930   3.960   3.993   4.022   4.046   4.080   4.123   4.129
  4.151   4.191   4.202   4.254   4.274   4.308   4.324   4.359
  4.368   4.472   4.486   4.696   4.709   4.758   4.765   4.816
  4.831   4.874   4.879   4.935   4.967   5.035   5.100   5.131
  5.193   5.260   5.264   5.310   5.318   5.356   5.384   5.454
  5.529   5.561   5.664   5.749   5.777   5.805   5.814   5.891
  6.039   6.066   6.147   6.721  12.158  12.815  13.424
 
 Beta MOs
 -- Occupied --
-14.719 -10.556 -10.524  -0.985  -0.824  -0.694  -0.570  -0.505
 -0.478  -0.474  -0.422  -0.400  -0.305
 -- Virtual --
  0.066   0.106   0.110   0.120   0.151   0.160   0.179   0.213
  0.260   0.291   0.303   0.358   0.362   0.368   0.421   0.447
  0.468   0.484   0.502   0.513   0.527   0.535   0.552   0.587
  0.597   0.624   0.637   0.677   0.761   0.790   0.810   0.856
  0.864   0.951   0.970   1.006   1.026   1.058   1.094   1.103
  1.126   1.182   1.182   1.203   1.208   1.218   1.251   1.308
  1.320   1.332   1.345   1.358   1.422   1.424   1.461   1.493
  1.568   1.568   1.607   1.620   1.688   1.754   1.868   1.875
  2.250   2.286   2.300   2.332   2.419   2.440   2.483   2.551
  2.607   2.667   2.675   2.679   2.792   2.810   2.835   2.846
  2.894   2.915   2.940   2.987   2.993   2.994   3.075   3.093
  3.105   3.115   3.150   3.220   3.230   3.235   3.274   3.308
  3.318   3.336   3.360   3.402   3.442   3.444   3.475   3.493
  3.505   3.531   3.556   3.635   3.642   3.649   3.688   3.738
  3.773   3.781   3.820   3.822   3.846   3.894   3.896   3.925
  3.930   3.960   3.993   4.022   4.046   4.080   4.123   4.129
  4.151   4.191   4.202   4.254   4.274   4.308   4.324   4.359
  4.368   4.472   4.486   4.696   4.709   4.758   4.765   4.816
  4.831   4.874   4.879   4.935   4.967   5.035   5.100   5.131
  5.193   5.260   5.264   5.310   5.318   5.356   5.384   5.454
  5.529   5.561   5.664   5.749   5.777   5.805   5.814   5.891
  6.039   6.066   6.147   6.721  12.158  12.815  13.424
 --------------------------------------------------------------
 
          Ground-State Mulliken Net Atomic Charges

     Atom                 Charge (a.u.)    Spin (a.u.)
  --------------------------------------------------------
      1 C                    -0.314775       0.000000
      2 C                    -0.126932       0.000000
      3 N                    -0.413882       0.000000
      4 H                     0.097425       0.000000
      5 H                     0.098180       0.000000
      6 H                     0.098043       0.000000
      7 H                     0.112957       0.000000
      8 H                     0.113115       0.000000
      9 H                     0.168068       0.000000
     10 H                     0.167801       0.000000
  --------------------------------------------------------
  Sum of atomic charges =     0.000000
  Sum of spin   charges =     0.000000

 -----------------------------------------------------------------
                    Cartesian Multipole Moments
 -----------------------------------------------------------------
    Charge (ESU x 10^10)
                 0.0000
    Dipole Moment (Debye)
         X       1.0076      Y      -0.8166      Z      -0.0171
       Tot       1.2971
    Quadrupole Moments (Debye-Ang)
        XX     -24.4039     XY       2.1981     YY     -20.1297
        XZ       0.0431     YZ      -0.0140     ZZ     -19.2418
    Octopole Moments (Debye-Ang^2)
       XXX       4.6019    XXY      -2.8095    XYY      -2.2117
       YYY      -1.1030    XXZ      -0.1134    XYZ       0.0058
       YYZ       0.0025    XZZ      -2.8515    YZZ      -1.4946
       ZZZ      -0.0897
    Hexadecapole Moments (Debye-Ang^3)
      XXXX    -194.7267   XXXY       9.5819   XXYY     -38.5839
      XYYY       3.5792   YYYY     -63.6165   XXXZ       0.1486
      XXYZ       0.0058   XYYZ      -0.0290   YYYZ       0.0028
      XXZZ     -34.7741   XYZZ       1.7621   YYZZ     -14.5159
      XZZZ       0.0364   YZZZ       0.0130   ZZZZ     -38.1915
 -----------------------------------------------------------------
 Calculating analytic gradient of the SCF energy
 Gradient of SCF Energy
            1           2           3           4           5           6
    1   0.0000034   0.0000510  -0.0002151  -0.0000041  -0.0000022   0.0000209
    2  -0.0000025   0.0001893   0.0002821   0.0000152   0.0000069   0.0000058
    3   0.0000137   0.0001108   0.0001079  -0.0000220  -0.0000080  -0.0000061
            7           8           9          10
    1   0.0000256  -0.0000332   0.0000265   0.0001271
    2  -0.0001545  -0.0000373  -0.0000724  -0.0002326
    3  -0.0000976   0.0000050  -0.0000016  -0.0001021
 Max gradient component =       2.821E-04
 RMS gradient           =       1.021E-04
 Gradient time:  CPU 6.08 s  wall 6.47 s
 Geometry Optimization Parameters
   NAtoms,    NIC,     NZ,  NCons,   NDum,   NFix, NCnnct, MaxDiis
       10      59       0       1       0       0       0       0

 Cartesian Hessian Update
 Hessian Updated using BFGS Update


** CONSTRAINED OPTIMIZATION IN DELOCALIZED INTERNAL COORDINATES **
   Searching for a Minimum

   Optimization Cycle:   5

                       Coordinates (Angstroms)
     ATOM                X               Y               Z
      1  C         1.2285224973   -0.2646625498    0.0014159607
      2  C        -0.0424260805    0.5771839388    0.0005496159
      3  N        -1.2900818771   -0.1839058066    0.0025218273
      4  H         2.1240315604    0.3567740371   -0.0006125512
      5  H         1.2622229366   -0.9069715919   -0.8793786716
      6  H         1.2639035916   -0.9035403500    0.8846130933
      7  H        -0.0525094437    1.2268168963   -0.8750553558
      8  H        -0.0516828880    1.2324640364    0.8719755684
      9  H        -1.3244714144   -0.7853911491   -0.8122664824
     10  H        -1.3135120291   -0.8003699284    0.8065947359
   Point Group: c1    Number of degrees of freedom:    24


   Energy is   -135.153024688

              Constraints and their Current Values
                                        Value     Constraint
   Dihedral:       10   3   2   7     -180.000     -180.000
 Hessian Updated using BFGS Update

 23 Hessian modes will be used to form the next step
  Hessian Eigenvalues:
     0.018588    0.045456    0.069773    0.078483    0.082565    0.083501
     0.101733    0.138481    0.159890    0.159980    0.160000    0.162310
     0.164967    0.224874    0.325003    0.346643    0.347539    0.347665
     0.348082    0.348958    0.366812    0.453504    0.454678

 Minimum Search - Taking Simple RFO Step
 Searching for Lamda that Minimizes Along All modes
 Value Taken    Lamda =   0.00000000
 Step Taken.  Stepsize is  0.002781

                             Maximum     Tolerance    Cnvgd?
         Gradient           0.000062      0.000300     YES
         Displacement       0.001939      0.001200      NO
         Energy change      0.000000      0.000001     YES


                       Distance Matrix (Angstroms)
             C (  1)   C (  2)   N (  3)   H (  4)   H (  5)   H (  6)
   C (  2)  1.524473
   N (  3)  2.519899  1.461474
   H (  4)  1.090011  2.177641  3.456662
   H (  5)  1.090640  2.163123  2.795502  1.764085
   H (  6)  1.090621  2.163472  2.796212  1.764040  1.763996
   H (  7)  2.152616  1.090325  2.071682  2.501790  2.506311  3.060686
   H (  8)  2.153645  1.090349  2.072604  2.502394  3.061172  2.508673
   H (  9)  2.729655  2.039834  1.013335  3.722297  2.590420  3.097264
   H ( 10)  2.719786  2.040349  1.013464  3.715814  3.080305  2.580659
             H (  7)   H (  8)   H (  9)
   H (  8)  1.747040
   H (  9)  2.381346  2.920343
   H ( 10)  2.920199  2.393512  1.618968
 
 Final energy is   -135.153024688187     


 ******************************
 **  OPTIMIZATION CONVERGED  **
 ******************************

                       Coordinates (Angstroms)
     ATOM                X               Y               Z
      1  C         1.2285224973   -0.2646625498    0.0014159607
      2  C        -0.0424260805    0.5771839388    0.0005496159
      3  N        -1.2900818771   -0.1839058066    0.0025218273
      4  H         2.1240315604    0.3567740371   -0.0006125512
      5  H         1.2622229366   -0.9069715919   -0.8793786716
      6  H         1.2639035916   -0.9035403500    0.8846130933
      7  H        -0.0525094437    1.2268168963   -0.8750553558
      8  H        -0.0516828880    1.2324640364    0.8719755684
      9  H        -1.3244714144   -0.7853911491   -0.8122664824
     10  H        -1.3135120291   -0.8003699284    0.8065947359

Z-matrix Print:
$molecule
0 1
C 
H  1 1.090325
H  1 1.090349 2 106.479527
N  1 1.461474 2 107.666191 3 -115.317773 0
H  4 1.013335 1 109.694177 2 -63.901893 0
H  4 1.013464 1 109.729330 2 180.000000 0
C  1 1.524473 2 109.705690 3 118.744992 0
H  7 1.090011 1 111.721704 2 -58.391974 0
H  7 1.090621 1 110.548108 2 -178.680256 0
H  7 1.090640 1 110.519186 2 61.880014 0
$end

PES scan, value: -180.0000 energy: -135.1530246882

                       Distance Matrix (Angstroms)
             C (  1)   C (  2)   N (  3)   H (  4)   H (  5)   H (  6)
   C (  2)  1.524473
   N (  3)  2.519899  1.461474
   H (  4)  1.090011  2.177641  3.456662
   H (  5)  1.090640  2.163123  2.795502  1.764085
   H (  6)  1.090621  2.163472  2.796212  1.764040  1.763996
   H (  7)  2.152616  1.090325  2.071682  2.501790  2.506311  3.060686
   H (  8)  2.153645  1.090349  2.072604  2.502394  3.061172  2.508673
   H (  9)  2.729655  2.039834  1.013335  3.722297  2.590420  3.097264
   H ( 10)  2.719786  2.040349  1.013464  3.715814  3.080305  2.580659
             H (  7)   H (  8)   H (  9)
   H (  8)  1.747040
   H (  9)  2.381346  2.920343
   H ( 10)  2.920199  2.393512  1.618968
 
 Applying Cartesian multipole field
    Component          Value
    ---------          -----
     (2,0,0)        1.00000E-11
     (0,2,0)        2.00000E-10
     (0,0,2)       -3.00000E-10
 Nucleus-field energy     =     0.0000000026 hartrees
 Guess from superposition of atomic densities
 Warning:  Energy on first SCF cycle will be non-variational
 An unrestricted hybrid HF-DFT SCF calculation will be
 performed using Pulay DIIS extrapolation
 Exchange:     0.5400 Hartree-Fock + 1.0000 M06-2X
 Correlation:  1.0000 M06-2X
 Using SG-1 standard quadrature grid
 SCF converges when DIIS error is below 1.0E-08
 ---------------------------------------
  Cycle       Energy         DIIS Error
 ---------------------------------------
    1    -126.0852608118      3.49E-02
    2    -134.9354211858      1.34E-02
    3    -135.1006488551      4.00E-03
    4    -135.1230947506      2.88E-03
    5    -135.1526980702      2.92E-04
    6    -135.1530092004      5.91E-05
    7    -135.1530243023      8.53E-06
    8    -135.1530246449      3.09E-06
    9    -135.1530246814      9.03E-07
   10    -135.1530246854      1.07E-07
   11    -135.1530246856      2.58E-08
   12    -135.1530246855      5.44E-09 Convergence criterion met
 ---------------------------------------
 <S^2> = 0.0000
 SCF time:  CPU 20.72 s  wall 24.29 s
 SCF   energy in the final basis set = -135.1530246855
 Total energy in the final basis set = -135.1530246855
 
 --------------------------------------------------------------
 
                    Orbital Energies (a.u.)
 --------------------------------------------------------------
 
 Alpha MOs
 -- Occupied --
-14.719 -10.556 -10.524  -0.985  -0.824  -0.694  -0.570  -0.505
 -0.478  -0.474  -0.422  -0.400  -0.305
 -- Virtual --
  0.066   0.106   0.110   0.120   0.151   0.160   0.179   0.213
  0.260   0.291   0.303   0.358   0.362   0.368   0.421   0.447
  0.468   0.484   0.502   0.513   0.527   0.535   0.552   0.587
  0.597   0.624   0.637   0.677   0.761   0.790   0.810   0.856
  0.864   0.951   0.970   1.006   1.026   1.058   1.094   1.103
  1.126   1.182   1.182   1.203   1.208   1.218   1.251   1.308
  1.320   1.332   1.345   1.358   1.422   1.424   1.461   1.493
  1.568   1.568   1.607   1.620   1.688   1.754   1.868   1.875
  2.250   2.286   2.300   2.332   2.419   2.440   2.483   2.551
  2.607   2.667   2.675   2.679   2.792   2.810   2.835   2.846
  2.894   2.915   2.940   2.987   2.993   2.994   3.075   3.093
  3.105   3.115   3.150   3.220   3.230   3.235   3.274   3.308
  3.318   3.336   3.360   3.402   3.442   3.444   3.475   3.493
  3.505   3.531   3.556   3.635   3.642   3.649   3.688   3.738
  3.773   3.781   3.820   3.822   3.846   3.894   3.896   3.925
  3.930   3.960   3.993   4.022   4.046   4.080   4.123   4.129
  4.151   4.191   4.202   4.254   4.274   4.308   4.324   4.359
  4.368   4.472   4.486   4.696   4.709   4.758   4.765   4.816
  4.831   4.874   4.879   4.935   4.967   5.035   5.100   5.131
  5.193   5.260   5.264   5.310   5.318   5.356   5.384   5.454
  5.529   5.561   5.664   5.749   5.777   5.805   5.814   5.891
  6.039   6.066   6.147   6.721  12.158  12.815  13.424
 
 Beta MOs
 -- Occupied --
-14.719 -10.556 -10.524  -0.985  -0.824  -0.694  -0.570  -0.505
 -0.478  -0.474  -0.422  -0.400  -0.305
 -- Virtual --
  0.066   0.106   0.110   0.120   0.151   0.160   0.179   0.213
  0.260   0.291   0.303   0.358   0.362   0.368   0.421   0.447
  0.468   0.484   0.502   0.513   0.527   0.535   0.552   0.587
  0.597   0.624   0.637   0.677   0.761   0.790   0.810   0.856
  0.864   0.951   0.970   1.006   1.026   1.058   1.094   1.103
  1.126   1.182   1.182   1.203   1.208   1.218   1.251   1.308
  1.320   1.332   1.345   1.358   1.422   1.424   1.461   1.493
  1.568   1.568   1.607   1.620   1.688   1.754   1.868   1.875
  2.250   2.286   2.300   2.332   2.419   2.440   2.483   2.551
  2.607   2.667   2.675   2.679   2.792   2.810   2.835   2.846
  2.894   2.915   2.940   2.987   2.993   2.994   3.075   3.093
  3.105   3.115   3.150   3.220   3.230   3.235   3.274   3.308
  3.318   3.336   3.360   3.402   3.442   3.444   3.475   3.493
  3.505   3.531   3.556   3.635   3.642   3.649   3.688   3.738
  3.773   3.781   3.820   3.822   3.846   3.894   3.896   3.925
  3.930   3.960   3.993   4.022   4.046   4.080   4.123   4.129
  4.151   4.191   4.202   4.254   4.274   4.308   4.324   4.359
  4.368   4.472   4.486   4.696   4.709   4.758   4.765   4.816
  4.831   4.874   4.879   4.935   4.967   5.035   5.100   5.131
  5.193   5.260   5.264   5.310   5.318   5.356   5.384   5.454
  5.529   5.561   5.664   5.749   5.777   5.805   5.814   5.891
  6.039   6.066   6.147   6.721  12.158  12.815  13.424
 --------------------------------------------------------------
 
          Ground-State Mulliken Net Atomic Charges

     Atom                 Charge (a.u.)    Spin (a.u.)
  --------------------------------------------------------
      1 C                    -0.314775       0.000000
      2 C                    -0.126932       0.000000
      3 N                    -0.413882       0.000000
      4 H                     0.097425       0.000000
      5 H                     0.098180       0.000000
      6 H                     0.098043       0.000000
      7 H                     0.112957       0.000000
      8 H                     0.113115       0.000000
      9 H                     0.168068       0.000000
     10 H                     0.167801       0.000000
  --------------------------------------------------------
  Sum of atomic charges =     0.000000
  Sum of spin   charges =     0.000000

 -----------------------------------------------------------------
                    Cartesian Multipole Moments
 -----------------------------------------------------------------
    Charge (ESU x 10^10)
                 0.0000
    Dipole Moment (Debye)
         X       1.0076      Y      -0.8166      Z      -0.0171
       Tot       1.2971
    Quadrupole Moments (Debye-Ang)
        XX     -24.4039     XY       2.1981     YY     -20.1297
        XZ       0.0431     YZ      -0.0140     ZZ     -19.2418
    Octopole Moments (Debye-Ang^2)
       XXX       4.6019    XXY      -2.8095    XYY      -2.2117
       YYY      -1.1030    XXZ      -0.1134    XYZ       0.0058
       YYZ       0.0025    XZZ      -2.8515    YZZ      -1.4946
       ZZZ      -0.0897
    Hexadecapole Moments (Debye-Ang^3)
      XXXX    -194.7267   XXXY       9.5819   XXYY     -38.5839
      XYYY       3.5792   YYYY     -63.6165   XXXZ       0.1486
      XXYZ       0.0058   XYYZ      -0.0290   YYYZ       0.0028
      XXZZ     -34.7741   XYZZ       1.7621   YYZZ     -14.5159
      XZZZ       0.0364   YZZZ       0.0130   ZZZZ     -38.1915
 -----------------------------------------------------------------
 Calculating analytic gradient of the SCF energy
 Gradient of SCF Energy
            1           2           3           4           5           6
    1   0.0000034   0.0000510  -0.0002151  -0.0000041  -0.0000022   0.0000209
    2  -0.0000025   0.0001893   0.0002821   0.0000152   0.0000069   0.0000058
    3   0.0000137   0.0001108   0.0001079  -0.0000220  -0.0000080  -0.0000061
            7           8           9          10
    1   0.0000256  -0.0000332   0.0000265   0.0001271
    2  -0.0001545  -0.0000373  -0.0000724  -0.0002326
    3  -0.0000976   0.0000050  -0.0000016  -0.0001021
 Max gradient component =       2.821E-04
 RMS gradient           =       1.021E-04
 Gradient time:  CPU 6.18 s  wall 6.42 s
 Geometry Optimization Parameters
   NAtoms,    NIC,     NZ,  NCons,   NDum,   NFix, NCnnct, MaxDiis
       10      59       0       1       0       0       0       0


** CONSTRAINED OPTIMIZATION IN DELOCALIZED INTERNAL COORDINATES **
   Searching for a Minimum

   Optimization Cycle:   1

                       Coordinates (Angstroms)
     ATOM                X               Y               Z
      1  C         1.2285224973   -0.2646625498    0.0014159607
      2  C        -0.0424260805    0.5771839388    0.0005496159
      3  N        -1.2900818771   -0.1839058066    0.0025218273
      4  H         2.1240315604    0.3567740371   -0.0006125512
      5  H         1.2622229366   -0.9069715919   -0.8793786716
      6  H         1.2639035916   -0.9035403500    0.8846130933
      7  H        -0.0525094437    1.2268168963   -0.8750553558
      8  H        -0.0516828880    1.2324640364    0.8719755684
      9  H        -1.3244714144   -0.7853911491   -0.8122664824
     10  H        -1.3135120291   -0.8003699284    0.8065947359
   Point Group: c1    Number of degrees of freedom:    24


   Energy is   -135.153024686

              Constraints and their Current Values
                                        Value     Constraint
   Dihedral:       10   3   2   7     -180.000     -170.000

 Attempting to Generate Delocalized Internal Coordinates

   Using Lagrange Multiplier Algorithm


 25 Hessian modes will be used to form the next step
  Hessian Eigenvalues:
    -0.977753    0.045000    0.057261    0.070418    0.079395    0.082518
     0.083531    0.105692    0.137276    0.160000    0.160000    0.160000
     0.160000    0.160000    0.219809    0.299398    0.347388    0.347410
     0.347723    0.347751    0.348114    0.367804    0.453973    0.454187
     1.022753

 Minimum Search - Taking P-RFO Step
 Searching for Lamda that Maximizes Along the Constraint modes Only
 Value Taken    Lamda =   0.01560555
 Searching for Lamda that Minimizes Along All other modes
 Value Taken    Lamda =  -0.01442388
 Step Taken.  Stepsize is  0.171948

                             Maximum     Tolerance    Cnvgd?
         Gradient            0.174533       0.000300      NO
         Displacement        0.171945       0.001200      NO
         Energy change     *********       0.000001      NO


[...]
    Quadrupole Moments (Debye-Ang)
        XX     -23.4848     XY       0.9645     YY     -19.4206
        XZ       2.6622     YZ      -0.5834     ZZ     -20.9240
    Octopole Moments (Debye-Ang^2)
       XXX       1.5004    XXY      -0.1567    XYY      -2.7265
       YYY      -0.9363    XXZ      -5.8638    XYZ       0.2884
       YYZ      -0.4976    XZZ      -1.0039    YZZ       0.2183
       ZZZ      -5.2415
    Hexadecapole Moments (Debye-Ang^3)
      XXXX    -176.8669   XXXY      -2.9084   XXYY     -34.7297
      XYYY      -4.3943   YYYY     -48.6928   XXXZ      27.1331
      XXYZ      -1.4087   XYYZ       5.2111   YYYZ      -5.6599
      XXZZ     -40.2432   XYZZ      -1.6387   YYZZ     -19.8838
      XZZZ      20.1184   YZZZ      -4.2475   ZZZZ     -59.4853
 -----------------------------------------------------------------
 Calculating analytic gradient of the SCF energy
 Gradient of SCF Energy
            1           2           3           4           5           6
    1   0.0001716  -0.0002595   0.0001328  -0.0000212  -0.0000321   0.0000197
    2  -0.0000258   0.0000784   0.0000392   0.0000296   0.0000189   0.0000049
    3  -0.0001307   0.0004327   0.0000512   0.0000197   0.0000016  -0.0000272
            7           8           9          10
    1  -0.0000446   0.0000440  -0.0000248   0.0000140
    2  -0.0000540  -0.0000046  -0.0000381  -0.0000485
    3  -0.0002460  -0.0000860   0.0000124  -0.0000276
 Max gradient component =       4.327E-04
 RMS gradient           =       1.175E-04
 Gradient time:  CPU 6.07 s  wall 6.30 s
 Geometry Optimization Parameters
   NAtoms,    NIC,     NZ,  NCons,   NDum,   NFix, NCnnct, MaxDiis
       10      59       0       1       0       0       0       0

 Cartesian Hessian Update
 Hessian Updated using BFGS Update


** CONSTRAINED OPTIMIZATION IN DELOCALIZED INTERNAL COORDINATES **
   Searching for a Minimum

   Optimization Cycle:   7

                       Coordinates (Angstroms)
     ATOM                X               Y               Z
      1  C         1.1656030198   -0.1032417569   -0.4197003787
      2  C         0.0293829394    0.3949147579    0.4671168158
      3  N        -1.2428685886   -0.3024569133    0.2986654923
      4  H         2.0871044804    0.4531605806   -0.2435033057
      5  H         0.9033295178    0.0013704536   -1.4734921249
      6  H         1.3666221277   -1.1588664827   -0.2297119348
      7  H        -0.1460191702    1.4554842181    0.2790748548
      8  H         0.3192677146    0.3146945527    1.5155982226
      9  H        -1.5594526720   -0.2123227343   -0.6597677634
     10  H        -1.1189725158   -1.2943391428    0.4660778625
   Point Group: c1    Number of degrees of freedom:    24


   Energy is   -135.152780915

              Constraints and their Current Values
                                        Value     Constraint
   Dihedral:       10   3   2   7      180.000      180.000
 Hessian Updated using BFGS Update

 23 Hessian modes will be used to form the next step
  Hessian Eigenvalues:
     0.016806    0.042248    0.055507    0.074644    0.082584    0.083505
     0.099263    0.138085    0.159579    0.160009    0.160163    0.160843
     0.165258    0.229224    0.325219    0.346563    0.346880    0.347178
     0.347262    0.349377    0.357582    0.453822    0.455389

 Minimum Search - Taking Simple RFO Step
 Searching for Lamda that Minimizes Along All modes
 Value Taken    Lamda =   0.00000000
 Step Taken.  Stepsize is  0.003853

                             Maximum     Tolerance    Cnvgd?
         Gradient           0.000170      0.000300     YES
         Displacement       0.002646      0.001200      NO
         Energy change     -0.000003      0.000001      NO


 New Cartesian Coordinates Obtained by Inverse Iteration

 Displacement from previous Coordinates is:  0.003945
 ----------------------------------------------------------------
             Standard Nuclear Orientation (Angstroms)
    I     Atom           X                Y                Z
 ----------------------------------------------------------------
    1      C       1.1653229547    -0.1032759238    -0.4196720153
    2      C       0.0295798871     0.3951257011     0.4669247158
    3      N      -1.2429461023    -0.3024459801     0.2987340790
    4      H       2.0870390613     0.4529743143    -0.2440737372
    5      H       0.9031313793     0.0008068996    -1.4735386328
    6      H       1.3661246523    -1.1588110220    -0.2290622419
    7      H      -0.1461151276     1.4558542414     0.2800018239
    8      H       0.3190395116     0.3148569279     1.5156237463
    9      H      -1.5591776027    -0.2123068177    -0.6598599208
   10      H      -1.1180017605    -1.2943808080     0.4652799236
 ----------------------------------------------------------------
 Molecular Point Group                 C1    NOp =  1
 Largest Abelian Subgroup              C1    NOp =  1
 Nuclear Repulsion Energy =    83.0140627601 hartrees
 There are       13 alpha and       13 beta electrons

                       Distance Matrix (Angstroms)
             C (  1)   C (  2)   N (  3)   H (  4)   H (  5)   H (  6)
   C (  2)  1.524589
   N (  3)  2.521019  1.460896
   H (  4)  1.090784  2.177614  3.457470
   H (  5)  1.090969  2.164250  2.799743  1.765694
   H (  6)  1.091241  2.164594  2.796280  1.765728  1.762895
   H (  7)  2.154136  1.091308  2.072440  2.503478  2.508582  3.063085
   H (  8)  2.153230  1.090871  2.074050  2.498286  3.061843  2.512372
   H (  9)  2.737240  2.040286  1.013425  3.729661  2.602010  3.104650
   H ( 10)  2.723131  2.042395  1.013550  3.718699  3.085694  2.582900
             H (  7)   H (  8)   H (  9)
   H (  8)  1.744994
   H (  9)  2.379674  2.922042
   H ( 10)  2.922787  2.399574  1.622178
 
 Applying Cartesian multipole field
    Component          Value
    ---------          -----
     (2,0,0)        1.00000E-11
     (0,2,0)        2.00000E-10
     (0,0,2)       -3.00000E-10
 Nucleus-field energy     =    -0.0000000027 hartrees
 Requested basis set is cc-pVTZ
 There are 72 shells and 188 basis functions
 A cutoff of  1.0D-11 yielded   2593 shell pairs
 There are     17813 function pairs (     22304 Cartesian)
 Smallest overlap matrix eigenvalue = 8.59E-04
 Guess from superposition of atomic densities
 Warning:  Energy on first SCF cycle will be non-variational
 An unrestricted hybrid HF-DFT SCF calculation will be
 performed using Pulay DIIS extrapolation
 Exchange:     0.5400 Hartree-Fock + 1.0000 M06-2X
 Correlation:  1.0000 M06-2X
 Using SG-1 standard quadrature grid
 SCF converges when DIIS error is below 1.0E-08
 ---------------------------------------
  Cycle       Energy         DIIS Error
 ---------------------------------------
    1    -126.0883263624      3.49E-02
    2    -134.9337457516      1.34E-02
    3    -135.0998959730      4.02E-03
    4    -135.1227664648      2.88E-03
    5    -135.1524582320      2.91E-04
    6    -135.1527662571      5.86E-05
    7    -135.1527810551      8.41E-06
    8    -135.1527813864      3.05E-06
    9    -135.1527814223      8.70E-07
   10    -135.1527814260      1.05E-07
   11    -135.1527814262      2.59E-08
   12    -135.1527814262      5.44E-09 Convergence criterion met
 ---------------------------------------
 <S^2> = 0.0000
 SCF time:  CPU 21.01 s  wall 25.90 s
 SCF   energy in the final basis set = -135.1527814262
 Total energy in the final basis set = -135.1527814262
 
 --------------------------------------------------------------
 
                    Orbital Energies (a.u.)
 --------------------------------------------------------------
 
 Alpha MOs
 -- Occupied --
-14.719 -10.556 -10.524  -0.985  -0.823  -0.694  -0.570  -0.506
 -0.478  -0.474  -0.422  -0.399  -0.304
 -- Virtual --
  0.065   0.105   0.110   0.120   0.151   0.160   0.179   0.213
  0.259   0.291   0.303   0.358   0.361   0.368   0.421   0.447
  0.468   0.483   0.502   0.513   0.527   0.534   0.551   0.586
  0.596   0.624   0.638   0.676   0.760   0.789   0.811   0.856
  0.863   0.951   0.970   1.006   1.026   1.057   1.094   1.103
  1.125   1.181   1.182   1.203   1.208   1.218   1.250   1.308
  1.320   1.333   1.344   1.358   1.421   1.425   1.461   1.492
  1.568   1.568   1.606   1.620   1.689   1.753   1.870   1.875
  2.246   2.285   2.294   2.330   2.416   2.436   2.483   2.545
  2.606   2.663   2.673   2.674   2.791   2.809   2.832   2.844
  2.891   2.914   2.937   2.987   2.990   2.995   3.075   3.091
  3.103   3.112   3.146   3.219   3.227   3.234   3.271   3.306
  3.315   3.333   3.357   3.397   3.436   3.439   3.474   3.491
  3.500   3.529   3.552   3.633   3.640   3.649   3.683   3.735
  3.768   3.776   3.818   3.820   3.845   3.891   3.893   3.923
  3.927   3.956   3.990   4.020   4.044   4.078   4.122   4.129
  4.148   4.188   4.199   4.253   4.272   4.307   4.322   4.355
  4.366   4.468   4.481   4.694   4.701   4.755   4.759   4.812
  4.826   4.871   4.875   4.928   4.965   5.030   5.097   5.130
  5.182   5.253   5.262   5.304   5.311   5.354   5.376   5.446
  5.521   5.554   5.663   5.746   5.775   5.804   5.807   5.878
  6.034   6.061   6.144   6.717  12.144  12.820  13.412
 
 Beta MOs
 -- Occupied --
-14.719 -10.556 -10.524  -0.985  -0.823  -0.694  -0.570  -0.506
 -0.478  -0.474  -0.422  -0.399  -0.304
 -- Virtual --
  0.065   0.105   0.110   0.120   0.151   0.160   0.179   0.213
  0.259   0.291   0.303   0.358   0.361   0.368   0.421   0.447
  0.468   0.483   0.502   0.513   0.527   0.534   0.551   0.586
  0.596   0.624   0.638   0.676   0.760   0.789   0.811   0.856
  0.863   0.951   0.970   1.006   1.026   1.057   1.094   1.103
  1.125   1.181   1.182   1.203   1.208   1.218   1.250   1.308
  1.320   1.333   1.344   1.358   1.421   1.425   1.461   1.492
  1.568   1.568   1.606   1.620   1.689   1.753   1.870   1.875
  2.246   2.285   2.294   2.330   2.416   2.436   2.483   2.545
  2.606   2.663   2.673   2.674   2.791   2.809   2.832   2.844
  2.891   2.914   2.937   2.987   2.990   2.995   3.075   3.091
  3.103   3.112   3.146   3.219   3.227   3.234   3.271   3.306
  3.315   3.333   3.357   3.397   3.436   3.439   3.474   3.491
  3.500   3.529   3.552   3.633   3.640   3.649   3.683   3.735
  3.768   3.776   3.818   3.820   3.845   3.891   3.893   3.923
  3.927   3.956   3.990   4.020   4.044   4.078   4.122   4.129
  4.148   4.188   4.199   4.253   4.272   4.307   4.322   4.355
  4.366   4.468   4.481   4.694   4.701   4.755   4.759   4.812
  4.826   4.871   4.875   4.928   4.965   5.030   5.097   5.130
  5.182   5.253   5.262   5.304   5.311   5.354   5.376   5.446
  5.521   5.554   5.663   5.746   5.775   5.804   5.807   5.878
  6.034   6.061   6.144   6.717  12.144  12.820  13.412
 --------------------------------------------------------------
 
          Ground-State Mulliken Net Atomic Charges

     Atom                 Charge (a.u.)    Spin (a.u.)
  --------------------------------------------------------
      1 C                    -0.322865       0.000000
      2 C                    -0.135469       0.000000
      3 N                    -0.419806       0.000000
      4 H                     0.099660       0.000000
      5 H                     0.101197       0.000000
      6 H                     0.101401       0.000000
      7 H                     0.117429       0.000000
      8 H                     0.116873       0.000000
      9 H                     0.170684       0.000000
     10 H                     0.170895       0.000000
  --------------------------------------------------------
  Sum of atomic charges =     0.000000
  Sum of spin   charges =     0.000000

 -----------------------------------------------------------------
                    Cartesian Multipole Moments
 -----------------------------------------------------------------
    Charge (ESU x 10^10)
                 0.0000
    Dipole Moment (Debye)
         X       0.8633      Y      -0.4890      Z      -0.8143
       Tot       1.2836
    Quadrupole Moments (Debye-Ang)
        XX     -23.4885     XY       0.9612     YY     -19.4199
        XZ       2.6621     YZ      -0.5801     ZZ     -20.9252
    Octopole Moments (Debye-Ang^2)
       XXX       1.5204    XXY      -0.1507    XYY      -2.7221
       YYY      -0.9358    XXZ      -5.8691    XYZ       0.2837
       YYZ      -0.4971    XZZ      -0.9993    YZZ       0.2205
       ZZZ      -5.2450
    Hexadecapole Moments (Debye-Ang^3)
      XXXX    -176.8402   XXXY      -2.9183   XXYY     -34.7319
      XYYY      -4.3982   YYYY     -48.6986   XXXZ      27.1246
      XXYZ      -1.4071   XYYZ       5.2134   YYYZ      -5.6580
      XXZZ     -40.2391   XYZZ      -1.6418   YYZZ     -19.8857
      XZZZ      20.1116   YZZZ      -4.2486   ZZZZ     -59.4822
 -----------------------------------------------------------------
 Calculating analytic gradient of the SCF energy
 Gradient of SCF Energy
            1           2           3           4           5           6
    1   0.0000425   0.0000116  -0.0000146  -0.0000154  -0.0000105   0.0000048
    2  -0.0000228   0.0000423   0.0000015   0.0000311   0.0000231   0.0000195
    3  -0.0000371   0.0001445   0.0001185  -0.0000014  -0.0000008  -0.0000117
            7           8           9          10
    1  -0.0000611  -0.0000003  -0.0000014   0.0000444
    2  -0.0000343   0.0000348  -0.0000504  -0.0000449
    3  -0.0001387  -0.0000257   0.0000012  -0.0000488
 Max gradient component =       1.445E-04
 RMS gradient           =       5.102E-05
 Gradient time:  CPU 6.01 s  wall 6.40 s
 Geometry Optimization Parameters
   NAtoms,    NIC,     NZ,  NCons,   NDum,   NFix, NCnnct, MaxDiis
       10      59       0       1       0       0       0       0

 Cartesian Hessian Update
 Hessian Updated using BFGS Update


** CONSTRAINED OPTIMIZATION IN DELOCALIZED INTERNAL COORDINATES **
   Searching for a Minimum

   Optimization Cycle:   8

                       Coordinates (Angstroms)
     ATOM                X               Y               Z
      1  C         1.1653229547   -0.1032759238   -0.4196720153
      2  C         0.0295798871    0.3951257011    0.4669247158
      3  N        -1.2429461023   -0.3024459801    0.2987340790
      4  H         2.0870390613    0.4529743143   -0.2440737372
      5  H         0.9031313793    0.0008068996   -1.4735386328
      6  H         1.3661246523   -1.1588110220   -0.2290622419
      7  H        -0.1461151276    1.4558542414    0.2800018239
      8  H         0.3190395116    0.3148569279    1.5156237463
      9  H        -1.5591776027   -0.2123068177   -0.6598599208
     10  H        -1.1180017605   -1.2943808080    0.4652799236
   Point Group: c1    Number of degrees of freedom:    24


   Energy is   -135.152781426

              Constraints and their Current Values
                                        Value     Constraint
   Dihedral:       10   3   2   7      180.000      180.000
 Hessian Updated using BFGS Update

 23 Hessian modes will be used to form the next step
  Hessian Eigenvalues:
     0.016971    0.030338    0.060413    0.075159    0.082424    0.083507
     0.104958    0.137903    0.156382    0.159864    0.160040    0.161604
     0.165267    0.228545    0.317982    0.345897    0.346947    0.347101
     0.347321    0.348571    0.358579    0.453118    0.453857

 Minimum Search - Taking Simple RFO Step
 Searching for Lamda that Minimizes Along All modes
 Value Taken    Lamda =   0.00000000
 Step Taken.  Stepsize is  0.001912

                             Maximum     Tolerance    Cnvgd?
         Gradient           0.000033      0.000300     YES
         Displacement       0.001008      0.001200     YES
         Energy change     -0.000001      0.000001     YES


                       Distance Matrix (Angstroms)
             C (  1)   C (  2)   N (  3)   H (  4)   H (  5)   H (  6)
   C (  2)  1.524589
   N (  3)  2.521019  1.460896
   H (  4)  1.090784  2.177614  3.457470
   H (  5)  1.090969  2.164250  2.799743  1.765694
   H (  6)  1.091241  2.164594  2.796280  1.765728  1.762895
   H (  7)  2.154136  1.091308  2.072440  2.503478  2.508582  3.063085
   H (  8)  2.153230  1.090871  2.074050  2.498286  3.061843  2.512372
   H (  9)  2.737240  2.040286  1.013425  3.729661  2.602010  3.104650
   H ( 10)  2.723131  2.042395  1.013550  3.718699  3.085694  2.582900
             H (  7)   H (  8)   H (  9)
   H (  8)  1.744994
   H (  9)  2.379674  2.922042
   H ( 10)  2.922787  2.399574  1.622178
 
 Final energy is   -135.152781426182     


 ******************************
 **  OPTIMIZATION CONVERGED  **
 ******************************

                       Coordinates (Angstroms)
     ATOM                X               Y               Z
      1  C         1.1653229547   -0.1032759238   -0.4196720153
      2  C         0.0295798871    0.3951257011    0.4669247158
      3  N        -1.2429461023   -0.3024459801    0.2987340790
      4  H         2.0870390613    0.4529743143   -0.2440737372
      5  H         0.9031313793    0.0008068996   -1.4735386328
      6  H         1.3661246523   -1.1588110220   -0.2290622419
      7  H        -0.1461151276    1.4558542414    0.2800018239
      8  H         0.3190395116    0.3148569279    1.5156237463
      9  H        -1.5591776027   -0.2123068177   -0.6598599208
     10  H        -1.1180017605   -1.2943808080    0.4652799236

Z-matrix Print:
$molecule
0 1
C 
H  1 1.090871
H  1 1.091308 2 106.194660
N  1 1.460896 2 107.858992 3 115.235388 0
H  4 1.013425 1 109.769424 2 -177.621520 0
H  4 1.013550 1 109.938787 2 65.765673 0
C  1 1.524589 2 109.713987 3 -118.556842 0
H  7 1.090784 1 111.663819 2 57.817614 0
H  7 1.090969 1 110.581116 2 178.174372 0
H  7 1.091241 1 110.592225 2 -62.525496 0
$end

PES scan, value:  180.0000 energy: -135.1527814262
------- Summary of potential scan: ------ 
 -180.0000      -135.1530246882
 -170.0000      -135.1527808087
 -160.0000      -135.1522696802
 -150.0000      -135.1514232686
 -140.0000      -135.1504979639
 -130.0000      -135.1497362635
 -120.0000      -135.1493694576
 -110.0000      -135.1495710409
 -100.0000      -135.1502898128
  -90.0000      -135.1511878321
  -80.0000      -135.1520137492
  -70.0000      -135.1525382143
  -60.0000      -135.1527093815
  -50.0000      -135.1524674668
  -40.0000      -135.1519588708
  -30.0000      -135.1512417831
  -20.0000      -135.1505250187
  -10.0000      -135.1498801864
    0.0000      -135.1496133735
   10.0000      -135.1497359046
   20.0000      -135.1503181469
   30.0000      -135.1511241299
   40.0000      -135.1518782282
   50.0000      -135.1524876100
   60.0000      -135.1527111775
   70.0000      -135.1525249614
   80.0000      -135.1519014709
   90.0000      -135.1511121379
  100.0000      -135.1502424772
  110.0000      -135.1495770613
  120.0000      -135.1492674648
  130.0000      -135.1494543722
  140.0000      -135.1501311009
  150.0000      -135.1510434843
  160.0000      -135.1519221325
  170.0000      -135.1525817761
  180.0000      -135.1527814262
----------------------------------------- 
Archival summary:
1\1\node21\JobtypUnspecified\ProcedureUnspecified\BasisUnspecified\127\alongd\WedAug214:25:142017WedAug214:25:142017\0\\#,JobtypUnspecified,ProcedureUnspecified,BasisUnspecified,\\0,1\C\H,1,1.09087\H,1,1.09131,2,106.195\N,1,1.4609,2,107.859,3,115.235,0\H,4,1.01342,1,109.769,2,-177.622,0\H,4,1.01355,1,109.939,2,65.7657,0\C,1,1.52459,2,109.714,3,-118.557,0\H,7,1.09078,1,111.664,2,57.8176,0\H,7,1.09097,1,110.581,2,178.174,0\H,7,1.09124,1,110.592,2,-62.5255,0\\\@

 Total job time:  10388.41s(wall), 8669.85s(cpu) 
 Wed Aug  2 14:25:14 2017

        *************************************************************
        *                                                           *
        *  Thank you very much for using Q-Chem.  Have a nice day.  *
        *                                                           *
        *************************************************************


0 sent ACK to 0 
now end server 0 ... 
cleanup process ... done
