
Running Job 1 of 2 npropyl.in
qchem npropyl.in_22787.0 /scratch/edames/qchem22787/ 8
/opt/qchem/bin/mpi/mpirun_qchem -machinefile /tmp/319207.1.normal1/hostfile -np 8 /opt/qchem/exe/qcprog.exe npropyl.in_22787.0 /scratch/edames/qchem22787/

Process 0 of 8 is on node20.cluster - thread support 0
Process 1 of 8 is on node20.cluster - thread support 0
Process 5 of 8 is on node20.cluster - thread support 0
Process 2 of 8 is on node20.cluster - thread support 0
Process 6 of 8 is on node20.cluster - thread support 0
Process 7 of 8 is on node20.cluster - thread support 0
initial socket setup ...start
initial socket setup ...done 
now start server 0 ... 
set process cleaner
set process cleaner
set process cleaner
set process cleaner
set process cleaner
set process cleaner
set process cleaner
                  Welcome to Q-Chem
     A Quantum Leap Into The Future Of Chemistry


 Q-Chem 4.2, Q-Chem, Inc., Pleasanton, CA (2014).

 Y. Shao,  Z. Gan,  E. Epifanovsky,  A. T. B. Gilbert,  M. Wormit,  
 J. Kussmann,  A. W. Lange,  A. Behn,  J. Deng,  X. Feng,  D. Ghosh,  
 M. Goldey,  P. R. Horn,  L. D. Jacobson,  I. Kaliman,  R. Z. Khaliullin,  
 T. Kus,  A. Landau,  J. Liu,  E. I. Proynov,  Y. M. Rhee,  R. M. Richard,  
 M. A. Rohrdanz,  R. P. Steele,  E. J. Sundstrom,  H. L. Woodcock III,  
 P. M. Zimmerman,  D. Zuev,  B. Albrecht,  E. Alguire,  B. Austin,  
 G. J. O. Beran,  Y. A. Bernard,  E. Berquist,  K. Brandhorst,  
 K. B. Bravaya,  S. T. Brown,  D. Casanova,  C.-M. Chang,  Y. Chen,  
 S. H. Chien,  K. D. Closser,  D. L. Crittenden,  M. Diedenhofen,  
 R. A. DiStasio Jr.,  H. Do,  A. D. Dutoi,  R. G. Edgar,  S. Fatehi,  
 L. Fusti-Molnar,  A. Ghysels,  A. Golubeva-Zadorozhnaya,  J. Gomes,  
 M. W. D. Hanson-Heine,  P. H. P. Harbach,  A. W. Hauser,  E. G. Hohenstein,  
 Z. C. Holden,  T.-C. Jagau,  H. Ji,  B. Kaduk,  K. Khistyaev,  Jaehoon Kim,  
 Jihan Kim,  R. A. King,  P. Klunzinger,  D. Kosenkov,  T. Kowalczyk,  
 C. M. Krauter,  K. U. Lao,  A. Laurent,  K. V. Lawler,  S. V. Levchenko,  
 C. Y. Lin,  F. Liu,  E. Livshits,  R. C. Lochan,  A. Luenser,  P. Manohar,  
 S. F. Manzer,  S.-P. Mao,  N. Mardirossian,  A. V. Marenich,  S. A. Maurer,  
 N. J. Mayhall,  C. M. Oana,  R. Olivares-Amaya,  D. P. O'Neill,  
 J. A. Parkhill,  T. M. Perrine,  R. Peverati,  P. A. Pieniazek,  A. Prociuk,  
 D. R. Rehn,  E. Rosta,  N. J. Russ,  N. Sergueev,  S. M. Sharada,  
 S. Sharma,  D. W. Small,  A. Sodt,  T. Stein,  D. Stuck,  Y.-C. Su,  
 A. J. W. Thom,  T. Tsuchimochi,  L. Vogt,  O. Vydrov,  T. Wang,  
 M. A. Watson,  J. Wenzel,  A. White,  C. F. Williams,  V. Vanovschi,  
 S. Yeganeh,  S. R. Yost,  Z.-Q. You,  I. Y. Zhang,  X. Zhang,  Y. Zhao,  
 B. R. Brooks,  G. K. L. Chan,  D. M. Chipman,  C. J. Cramer,  
 W. A. Goddard III,  M. S. Gordon,  W. J. Hehre,  A. Klamt,  
 H. F. Schaefer III,  M. W. Schmidt,  C. D. Sherrill,  D. G. Truhlar,  
 A. Warshel,  X. Xu,  A. Aspuru-Guzik,  R. Baer,  A. T. Bell,  N. A. Besley,  
 J.-D. Chai,  A. Dreuw,  B. D. Dunietz,  T. R. Furlani,  S. R. Gwaltney,  
 C.-P. Hsu,  Y. Jung,  J. Kong,  D. S. Lambrecht,  W. Liang,  C. Ochsenfeld,  
 V. A. Rassolov,  L. V. Slipchenko,  J. E. Subotnik,  T. Van Voorhis,  
 J. M. Herbert,  A. I. Krylov,  P. M. W. Gill,  M. Head-Gordon

 Contributors to earlier versions of Q-Chem not listed above: 
 R. D. Adamson,  J. Baker,  E. F. C. Byrd,  A. K. Chakraborty,  C.-L. Cheng,  
 H. Dachsel,  R. J. Doerksen,  G. Hawkins,  A. Heyden,  S. Hirata,  
 G. Kedziora,  F. J. Keil,  C. Kelley,  P. P. Korambath,  W. Kurlancheek,  
 A. M. Lee,  M. S. Lee,  D. Liotard,  I. Lotan,  P. E. Maslen,  N. Nair,  
 D. Neuhauser,  R. Olson,  B. Peters,  J. Ritchie,  N. E. Schultz,  
 N. Shenvi,  A. C. Simmonett,  K. S. Thanthiriwatte,  Q. Wu,  W. Zhang

 Q-Chem 4.2.0 for Intel X86 Linux

 Parts of Q-Chem use Armadillo 4.100.2 (Dirt Cruiser).
 http://arma.sourceforge.net/

 Q-Chem begins on Mon Jul  7 08:59:37 2014  

Host: 
0

     Scratch files written to /scratch/edames/qchem22787.0//
 May2514 8580_ilyak 4150   
 Parallel job on  8  processors
Processing $rem in /opt/qchem/config/preferences.
 MEM_TOTAL  2000 
Warning: disabling incdft.
 Q-Chem warning in module /home/scratch/svnadmin/8580_ilyak/qchem/forms1/BasisType.C, line 1209:

 Setting pure/cartesian flag to 2111 for general basis


Finally everything over in PARseQInput

--------------------------------------------------------------
User input:
--------------------------------------------------------------
$rem
XC_GRID 000075000434
JOBTYPE sp
EXCHANGE M08SO
SCF_ALGORITHM DIIS_GDM
BASIS gen
GUI=2
UNRESTRICTED TRUE
CORRELATION NONE
$end

$comment
geo is min of a M08SOgrid scan 6 1 2 7 at -105 degrees
$end

$molecule
0 2
C         0.0540002454   -0.5429426250    0.1493380063
C        -1.2108677109    0.2638458564   -0.1627584407
C         1.2946072156    0.2773922345    0.0363887892
H         1.2412898553    1.3658144398    0.0335966427
H         0.1184848072   -1.4157376152   -0.5188267412
H        -0.0278003231   -0.9691561152    1.1656303731
H        -1.1573069409    0.6944022955   -1.1696794126
H        -1.3246494402    1.0920972801    0.5480609493
H        -2.1126499115   -0.3549257188   -0.1055698812
H         2.2796006509   -0.1826823346    0.0237534078
$end

$basis
H  0
S  3 1.00
3.386500000000E+01 2.549380000000E-02
5.094790000000E+00 1.903730000000E-01
1.158790000000E+00 8.521610000000E-01
S  1 1.00
3.258400000000E-01 1.000000000000E+00
S  1 1.00
1.027410000000E-01 1.000000000000E+00
S  1 1.00
3.600000000000E-02 1.000000000000E+00
P  1 1.00
1.500000000000E+00 1.000000000000E+00
P  1 1.00
3.750000000000E-01 1.000000000000E+00
****
C 0
S  6 1.00
4.563240000000E+03 1.966650000000E-03
6.820240000000E+02 1.523060000000E-02
1.549730000000E+02 7.612690000000E-02
4.445530000000E+01 2.608010000000E-01
1.302900000000E+01 6.164620000000E-01
1.827730000000E+00 2.210060000000E-01
S  3 1.00
2.096420000000E+01 1.146600000000E-01
4.803310000000E+00 9.199990000000E-01
1.459330000000E+00 -3.030680000000E-03
S  1 1.00
4.834560000000E-01 1.000000000000E+00
S  1 1.00
1.455850000000E-01 1.000000000000E+00
S  1 1.00
4.380000000000E-02 1.000000000000E+00
P  3 1.00
2.096420000000E+01 4.024870000000E-02
4.803310000000E+00 2.375940000000E-01
1.459330000000E+00 8.158540000000E-01
P  1 1.00
4.834560000000E-01 1.000000000000E+00
P  1 1.00
1.455850000000E-01 1.000000000000E+00
P  1 1.00
4.380000000000E-02 1.000000000000E+00
D  1 1.00
1.252000000000E+00 1.000000000000E+00
D  1 1.00
3.130000000000E-01 1.000000000000E+00
F  1 1.00
8.000000000000E-01 1.000000000000E+00
****
O  0
S  6 1.00
8.588500000000E+03 1.895150000000E-03
1.297230000000E+03 1.438590000000E-02
2.992960000000E+02 7.073200000000E-02
8.737710000000E+01 2.400010000000E-01
2.567890000000E+01 5.947970000000E-01
3.740040000000E+00 2.808020000000E-01
S  3 1.00
4.211750000000E+01 1.138890000000E-01
9.628370000000E+00 9.208110000000E-01
2.853320000000E+00 -3.274470000000E-03
S  1 1.00
9.056610000000E-01 1.000000000000E+00
S  1 1.00
2.556110000000E-01 1.000000000000E+00
S  1 1.00
8.450000000000E-02 1.000000000000E+00
P  3 1.00
4.211750000000E+01 3.651140000000E-02
9.628370000000E+00 2.371530000000E-01
2.853320000000E+00 8.197020000000E-01
P  1 1.00
9.056610000000E-01 1.000000000000E+00
P  1 1.00
2.556110000000E-01 1.000000000000E+00
P  1 1.00
8.450000000000E-02 1.000000000000E+00
D  1 1.00
2.584000000000E+00 1.000000000000E+00
D  1 1.00
6.460000000000E-01 1.000000000000E+00
F  1 1.00
1.400000000000E+00 1.000000000000E+00
****
$end

--------------------------------------------------------------
 ----------------------------------------------------------------
             Standard Nuclear Orientation (Angstroms)
    I     Atom           X                Y                Z
 ----------------------------------------------------------------
    1      C       0.0806837508    -0.5669863561     0.0316488110
    2      C      -1.2181477357     0.2442550028    -0.0242709546
    3      C       1.2946681776     0.2983621557    -0.0155340935
    4      H       1.2234485809     1.3654205555     0.1938162693
    5      H       0.1058689581    -1.2950683978    -0.7939635249
    6      H       0.0873763941    -1.1802183306     0.9509426710
    7      H      -1.2523082556     0.8590904360    -0.9314357115
    8      H      -1.2883257496     0.9190022301     0.8382846283
    9      H      -2.1022006986    -0.4021030462    -0.0186529313
   10      H       2.2829156150    -0.1199082616    -0.1900539780
 ----------------------------------------------------------------
 Molecular Point Group                 C1    NOp =  1
 Largest Abelian Subgroup              C1    NOp =  1
 Nuclear Repulsion Energy =    75.7859625329 hartrees
 There are       13 alpha and       12 beta electrons
 Requested basis set is non-standard
 There are 78 shells and 172 basis functions

Total QAlloc Memory Limit   2000 MB
Mega-Array Size        61 MB
MEM_STATIC part        62 MB

                       Distance Matrix (Angstroms)
             C (  1)   C (  2)   C (  3)   H (  4)   H (  5)   H (  6)
   C (  2)  1.532385
   C (  3)  1.491581  2.513414
   H (  4)  2.250868  2.695546  1.089731
   H (  5)  1.101078  2.171397  2.134998  3.050065
   H (  6)  1.105079  2.164384  2.139587  2.888629  1.748780
   H (  7)  2.176716  1.096420  2.764124  2.766213  2.550283  3.081701
   H (  8)  2.175548  1.097365  2.790351  2.631281  3.083849  2.512364
   H (  9)  2.189681  1.095153  3.468340  3.772165  2.504808  2.517901
   H ( 10)  2.258065  3.523853  1.087217  1.864411  2.546613  2.691937
             H (  7)   H (  8)   H (  9)
   H (  8)  1.771100
   H (  9)  1.773724  1.772584
   H ( 10)  3.742445  3.858831  4.397529
 
 A cutoff of  1.0D-09 yielded   3015 shell pairs
 There are     14777 function pairs (     17547 Cartesian)
 Smallest overlap matrix eigenvalue = 5.90E-05

  Scale SEOQF with 1.000000e-01/1.000000e-01/1.000000e-01

 Standard Electronic Orientation quadrupole field applied
 Nucleus-field energy     =     0.0000000015 hartrees
 Guess MOs from core Hamiltonian diagonalization
 An unrestricted hybrid HF-DFT SCF calculation will be
 performed using Pulay DIIS + Geometric Direct Minimization
 Exchange:     0.5679 Hartree-Fock + 1.0000 M08SO
 SCF converges when RMS gradient is below 1.0E-05
 ---------------------------------------
  Cycle       Energy         DIIS Error
 ---------------------------------------
    1     -84.4139681713      1.06E-01
    2     -93.3839313514      4.35E-02
    3    -109.1347649330      4.77E-02
    4    -116.7070518523      1.94E-02
    5    -117.9442359103      1.07E-02
    6    -118.3772222187      2.72E-03 Done DIIS. Switching to GDM
    7    -118.4120775293      1.47E-02 Normal BFGS step
    8    -118.4128490144      8.19E-03 Normal BFGS step
    9    -118.4140918897      5.69E-04 Normal BFGS step
   10    -118.4140990612      3.10E-04 Normal BFGS step
   11    -118.4141002020      6.52E-05 Normal BFGS step
   12    -118.4141002790      2.99E-05 Normal BFGS step
   13    -118.4141002914      8.77E-06 Convergence criterion met
 ---------------------------------------
 <S^2> = 0.7554
 SCF time:  CPU 80.25 s  wall 95.80 s
 SCF   energy in the final basis set = -118.4141002914
 Total energy in the final basis set = -118.4141002914
 Analysis of SCF Wavefunction
 
 Final energy is   -118.4141002914
 --------------------------------------------------------------
                    Orbital Energies (a.u.)
 --------------------------------------------------------------
 
 Alpha MOs
 -- Occupied --
-10.503 -10.498 -10.484  -0.884  -0.765  -0.669  -0.531  -0.521
 -0.480  -0.426  -0.420  -0.412  -0.267
 -- Virtual --
 -0.020  -0.004  -0.002   0.004   0.025   0.032   0.036   0.058
  0.073   0.082   0.091   0.111   0.114   0.126   0.132   0.136
  0.138   0.151   0.165   0.195   0.199   0.213   0.224   0.252
  0.264   0.299   0.318   0.327   0.433   0.437   0.458   0.479
  0.499   0.515   0.533   0.551   0.555   0.570   0.581   0.586
  0.592   0.615   0.619   0.633   0.646   0.680   0.697   0.736
  0.790   0.811   0.836   0.867   0.919   0.936   0.953   0.992
  1.020   1.049   1.057   1.131   1.141   1.162   1.194   1.205
  1.240   1.271   1.281   1.300   1.316   1.349   1.361   1.404
  1.416   1.445   1.454   1.475   1.488   1.514   1.528   1.575
  1.588   1.607   1.734   2.371   2.390   2.421   2.513   2.562
  2.590   2.606   2.692   2.712   2.763   2.799   2.818   2.822
  2.898   2.912   2.928   2.970   3.005   3.034   3.060   3.099
  3.123   3.141   3.191   3.218   3.265   3.289   3.311   3.343
  3.349   3.421   3.446   3.506   3.539   3.545   3.574   3.617
  3.628   3.705   3.756   3.790   3.862   3.914   3.960   3.962
  3.972   4.005   4.019   4.086   4.088   4.110   4.132   4.194
  4.218   4.256   4.268   4.294   4.400   4.418   4.445   4.484
  4.514   4.524   4.592   4.828   4.890   5.146   5.378   5.415
  5.440   5.560   5.631   5.650  23.999  24.125  24.246
 
 Beta MOs
 -- Occupied --
-10.499 -10.486 -10.484  -0.878  -0.752  -0.655  -0.523  -0.512
 -0.477  -0.420  -0.417  -0.410
 -- Virtual --
 -0.030  -0.026  -0.009  -0.007   0.002   0.021   0.028   0.030
  0.053   0.074   0.078   0.087   0.103   0.108   0.121   0.125
  0.131   0.134   0.139   0.157   0.195   0.200   0.215   0.227
  0.255   0.264   0.304   0.324   0.330   0.433   0.438   0.459
  0.478   0.504   0.532   0.547   0.553   0.566   0.583   0.591
  0.594   0.624   0.637   0.641   0.648   0.651   0.685   0.712
  0.738   0.795   0.815   0.836   0.871   0.925   0.946   0.961
  0.998   1.030   1.053   1.071   1.136   1.144   1.167   1.199
  1.219   1.252   1.285   1.300   1.304   1.332   1.364   1.366
  1.414   1.420   1.451   1.458   1.486   1.505   1.527   1.540
  1.580   1.594   1.618   1.741   2.379   2.419   2.436   2.531
  2.572   2.598   2.636   2.721   2.795   2.816   2.838   2.877
  2.908   2.935   2.968   2.979   3.025   3.050   3.076   3.096
  3.117   3.165   3.170   3.233   3.265   3.285   3.325   3.355
  3.372   3.424   3.454   3.500   3.533   3.561   3.576   3.597
  3.621   3.635   3.709   3.766   3.790   3.862   3.914   3.956
  3.979   3.989   4.035   4.040   4.091   4.125   4.133   4.157
  4.202   4.243   4.285   4.312   4.318   4.409   4.463   4.482
  4.506   4.537   4.554   4.607   4.966   4.989   5.188   5.388
  5.504   5.544   5.559   5.634   5.655  24.011  24.129  24.259
 --------------------------------------------------------------
 
          Ground-State Mulliken Net Atomic Charges

     Atom                 Charge (a.u.)    Spin (a.u.)
  --------------------------------------------------------
      1 C                    -0.228394      -0.112535
      2 C                    -0.613000       0.015198
      3 C                    -0.328949       1.098094
      4 H                     0.146758      -0.052886
      5 H                     0.163961       0.033479
      6 H                     0.169747       0.060872
      7 H                     0.182768       0.001935
      8 H                     0.178038       0.001638
      9 H                     0.167904       0.000454
     10 H                     0.161167      -0.046248
  --------------------------------------------------------
  Sum of atomic charges =     0.000000
  Sum of spin   charges =     1.000000

 -----------------------------------------------------------------
                    Cartesian Multipole Moments
 -----------------------------------------------------------------
    Charge (ESU x 10^10)
                 0.0000
    Dipole Moment (Debye)
         X      -0.2018      Y      -0.2275      Z       0.0623
       Tot       0.3104
    Quadrupole Moments (Debye-Ang)
        XX     -21.5924     XY      -0.1382     YY     -21.0379
        XZ      -0.1065     YZ       0.3222     ZZ     -22.1781
    Octopole Moments (Debye-Ang^2)
       XXX       0.3483    XXY      -1.6195    XYY      -0.0918
       YYY       0.2042    XXZ      -0.5983    XYZ       0.3733
       YYZ       0.3338    XZZ      -1.9425    YZZ      -0.7719
       ZZZ       0.2326
    Hexadecapole Moments (Debye-Ang^3)
      XXXX    -191.5596   XXXY      -0.5030   XXYY     -44.7364
      XYYY       0.8700   YYYY     -71.0024   XXXZ      -1.9550
      XXYZ       0.7472   XYYZ       0.3666   YYYZ       1.3258
      XXZZ     -42.9627   XYZZ      -1.8692   YYZZ     -17.7672
      XZZZ       0.2170   YZZZ       0.1370   ZZZZ     -41.6383
 -----------------------------------------------------------------
Archival summary:
1\1\node20\SP\ProcedureUnspecified\BasisUnspecified\37(2)\edames\MonJul709:01:142014MonJul709:01:142014\0\\#,ProcedureUnspecified,BasisUnspecified,\\0,2\C\H,1,1.10108\H,1,1.10508,2,104.873\C,1,1.49158,2,109.955,3,-118.317,0\H,4,1.08722,1,121.445,2,44.3342,0\H,4,1.08973,1,120.585,2,-139.946,0\C,1,1.53238,2,110.004,3,117.338,0\H,7,1.09515,1,111.813,2,-55.4254,0\H,7,1.09642,1,110.7,2,65.1216,0\H,7,1.09737,1,110.551,2,-175.655,0\\\@

 Total job time:  97.21s(wall), 80.53s(cpu) 
 Mon Jul  7 09:01:14 2014

        *************************************************************
        *                                                           *
        *  Thank you very much for using Q-Chem.  Have a nice day.  *
        *                                                           *
        *************************************************************


0 sent ACK to 0 
now end server 0 ... 
cleanup process ... done

Running Job 2 of 2 npropyl.in
qchem npropyl.in_22787.1 /scratch/edames/qchem22787/ 8
/opt/qchem/bin/mpi/mpirun_qchem -machinefile /tmp/319207.1.normal1/hostfile -np 8 /opt/qchem/exe/qcprog.exe npropyl.in_22787.1 /scratch/edames/qchem22787/

Process 1 of 8 is on node20.cluster - thread support 0
Process 4 of 8 is on node20.cluster - thread support 0
Process 0 of 8 is on node20.cluster - thread support 0
Process 3 of 8 is on node20.cluster - thread support 0
Process 2 of 8 is on node20.cluster - thread support 0
Process 5 of 8 is on node20.cluster - thread support 0
Process 6 of 8 is on node20.cluster - thread support 0
Process 7 of 8 is on node20.cluster - thread support 0
initial socket setup ...start
initial socket setup ...done 
now start server 0 ... 
set process cleaner
set process cleaner
set process cleaner
set process cleaner
set process cleaner
set process cleaner
set process cleaner
                  Welcome to Q-Chem
     A Quantum Leap Into The Future Of Chemistry


 Q-Chem 4.2, Q-Chem, Inc., Pleasanton, CA (2014).

 Y. Shao,  Z. Gan,  E. Epifanovsky,  A. T. B. Gilbert,  M. Wormit,  
 J. Kussmann,  A. W. Lange,  A. Behn,  J. Deng,  X. Feng,  D. Ghosh,  
 M. Goldey,  P. R. Horn,  L. D. Jacobson,  I. Kaliman,  R. Z. Khaliullin,  
 T. Kus,  A. Landau,  J. Liu,  E. I. Proynov,  Y. M. Rhee,  R. M. Richard,  
 M. A. Rohrdanz,  R. P. Steele,  E. J. Sundstrom,  H. L. Woodcock III,  
 P. M. Zimmerman,  D. Zuev,  B. Albrecht,  E. Alguire,  B. Austin,  
 G. J. O. Beran,  Y. A. Bernard,  E. Berquist,  K. Brandhorst,  
 K. B. Bravaya,  S. T. Brown,  D. Casanova,  C.-M. Chang,  Y. Chen,  
 S. H. Chien,  K. D. Closser,  D. L. Crittenden,  M. Diedenhofen,  
 R. A. DiStasio Jr.,  H. Do,  A. D. Dutoi,  R. G. Edgar,  S. Fatehi,  
 L. Fusti-Molnar,  A. Ghysels,  A. Golubeva-Zadorozhnaya,  J. Gomes,  
 M. W. D. Hanson-Heine,  P. H. P. Harbach,  A. W. Hauser,  E. G. Hohenstein,  
 Z. C. Holden,  T.-C. Jagau,  H. Ji,  B. Kaduk,  K. Khistyaev,  Jaehoon Kim,  
 Jihan Kim,  R. A. King,  P. Klunzinger,  D. Kosenkov,  T. Kowalczyk,  
 C. M. Krauter,  K. U. Lao,  A. Laurent,  K. V. Lawler,  S. V. Levchenko,  
 C. Y. Lin,  F. Liu,  E. Livshits,  R. C. Lochan,  A. Luenser,  P. Manohar,  
 S. F. Manzer,  S.-P. Mao,  N. Mardirossian,  A. V. Marenich,  S. A. Maurer,  
 N. J. Mayhall,  C. M. Oana,  R. Olivares-Amaya,  D. P. O'Neill,  
 J. A. Parkhill,  T. M. Perrine,  R. Peverati,  P. A. Pieniazek,  A. Prociuk,  
 D. R. Rehn,  E. Rosta,  N. J. Russ,  N. Sergueev,  S. M. Sharada,  
 S. Sharma,  D. W. Small,  A. Sodt,  T. Stein,  D. Stuck,  Y.-C. Su,  
 A. J. W. Thom,  T. Tsuchimochi,  L. Vogt,  O. Vydrov,  T. Wang,  
 M. A. Watson,  J. Wenzel,  A. White,  C. F. Williams,  V. Vanovschi,  
 S. Yeganeh,  S. R. Yost,  Z.-Q. You,  I. Y. Zhang,  X. Zhang,  Y. Zhao,  
 B. R. Brooks,  G. K. L. Chan,  D. M. Chipman,  C. J. Cramer,  
 W. A. Goddard III,  M. S. Gordon,  W. J. Hehre,  A. Klamt,  
 H. F. Schaefer III,  M. W. Schmidt,  C. D. Sherrill,  D. G. Truhlar,  
 A. Warshel,  X. Xu,  A. Aspuru-Guzik,  R. Baer,  A. T. Bell,  N. A. Besley,  
 J.-D. Chai,  A. Dreuw,  B. D. Dunietz,  T. R. Furlani,  S. R. Gwaltney,  
 C.-P. Hsu,  Y. Jung,  J. Kong,  D. S. Lambrecht,  W. Liang,  C. Ochsenfeld,  
 V. A. Rassolov,  L. V. Slipchenko,  J. E. Subotnik,  T. Van Voorhis,  
 J. M. Herbert,  A. I. Krylov,  P. M. W. Gill,  M. Head-Gordon

 Contributors to earlier versions of Q-Chem not listed above: 
 R. D. Adamson,  J. Baker,  E. F. C. Byrd,  A. K. Chakraborty,  C.-L. Cheng,  
 H. Dachsel,  R. J. Doerksen,  G. Hawkins,  A. Heyden,  S. Hirata,  
 G. Kedziora,  F. J. Keil,  C. Kelley,  P. P. Korambath,  W. Kurlancheek,  
 A. M. Lee,  M. S. Lee,  D. Liotard,  I. Lotan,  P. E. Maslen,  N. Nair,  
 D. Neuhauser,  R. Olson,  B. Peters,  J. Ritchie,  N. E. Schultz,  
 N. Shenvi,  A. C. Simmonett,  K. S. Thanthiriwatte,  Q. Wu,  W. Zhang

 Q-Chem 4.2.0 for Intel X86 Linux

 Parts of Q-Chem use Armadillo 4.100.2 (Dirt Cruiser).
 http://arma.sourceforge.net/

 Q-Chem begins on Mon Jul  7 09:01:20 2014  

Host: 
0

     Scratch files written to /scratch/edames/qchem22787.0//
 May2514 8580_ilyak 4150   
 Parallel job on  8  processors
Processing $rem in /opt/qchem/config/preferences.
 MEM_TOTAL  2000 

 Q-Chem warning in module /home/scratch/svnadmin/8580_ilyak/qchem/libgen/rem.C, line 2637:

 !!Desired Analytical derivatives not available.

 2-order derivative to be evaluated numerically with 1-order analytical derivatives

 Q-Chem warning in module /home/scratch/svnadmin/8580_ilyak/qchem/libgen/rem.C, line 2644:

 !!Parallel diagonalization not available.

Warning: disabling incdft.
 Q-Chem warning in module /home/scratch/svnadmin/8580_ilyak/qchem/forms1/BasisType.C, line 1209:

 Setting pure/cartesian flag to 2111 for general basis


Finally everything over in PARseQInput

--------------------------------------------------------------
User input:
--------------------------------------------------------------

$molecule
READ
$end

$rem
JOBTYPE Freq
iprint 10000000
XC_GRID 000075000434
EXCHANGE M08SO
BASIS gen
GUI=2
SCF_GUESS READ
$end

$basis
H  0
S  3 1.00
3.386500000000E+01 2.549380000000E-02
5.094790000000E+00 1.903730000000E-01
1.158790000000E+00 8.521610000000E-01
S  1 1.00
3.258400000000E-01 1.000000000000E+00
S  1 1.00
1.027410000000E-01 1.000000000000E+00
S  1 1.00
3.600000000000E-02 1.000000000000E+00
P  1 1.00
1.500000000000E+00 1.000000000000E+00
P  1 1.00
3.750000000000E-01 1.000000000000E+00
****
C 0
S  6 1.00
4.563240000000E+03 1.966650000000E-03
6.820240000000E+02 1.523060000000E-02
1.549730000000E+02 7.612690000000E-02
4.445530000000E+01 2.608010000000E-01
1.302900000000E+01 6.164620000000E-01
1.827730000000E+00 2.210060000000E-01
S  3 1.00
2.096420000000E+01 1.146600000000E-01
4.803310000000E+00 9.199990000000E-01
1.459330000000E+00 -3.030680000000E-03
S  1 1.00
4.834560000000E-01 1.000000000000E+00
S  1 1.00
1.455850000000E-01 1.000000000000E+00
S  1 1.00
4.380000000000E-02 1.000000000000E+00
P  3 1.00
2.096420000000E+01 4.024870000000E-02
4.803310000000E+00 2.375940000000E-01
1.459330000000E+00 8.158540000000E-01
P  1 1.00
4.834560000000E-01 1.000000000000E+00
P  1 1.00
1.455850000000E-01 1.000000000000E+00
P  1 1.00
4.380000000000E-02 1.000000000000E+00
D  1 1.00
1.252000000000E+00 1.000000000000E+00
D  1 1.00
3.130000000000E-01 1.000000000000E+00
F  1 1.00
8.000000000000E-01 1.000000000000E+00
****
O  0
S  6 1.00
8.588500000000E+03 1.895150000000E-03
1.297230000000E+03 1.438590000000E-02
2.992960000000E+02 7.073200000000E-02
8.737710000000E+01 2.400010000000E-01
2.567890000000E+01 5.947970000000E-01
3.740040000000E+00 2.808020000000E-01
S  3 1.00
4.211750000000E+01 1.138890000000E-01
9.628370000000E+00 9.208110000000E-01
2.853320000000E+00 -3.274470000000E-03
S  1 1.00
9.056610000000E-01 1.000000000000E+00
S  1 1.00
2.556110000000E-01 1.000000000000E+00
S  1 1.00
8.450000000000E-02 1.000000000000E+00
P  3 1.00
4.211750000000E+01 3.651140000000E-02
9.628370000000E+00 2.371530000000E-01
2.853320000000E+00 8.197020000000E-01
P  1 1.00
9.056610000000E-01 1.000000000000E+00
P  1 1.00
2.556110000000E-01 1.000000000000E+00
P  1 1.00
8.450000000000E-02 1.000000000000E+00
D  1 1.00
2.584000000000E+00 1.000000000000E+00
D  1 1.00
6.460000000000E-01 1.000000000000E+00
F  1 1.00
1.400000000000E+00 1.000000000000E+00
****
--------------------------------------------------------------
 ----------------------------------------------------------------
             Standard Nuclear Orientation (Angstroms)
    I     Atom           X                Y                Z
 ----------------------------------------------------------------
    1      C       0.0806837508    -0.5669863561     0.0316488110
    2      C      -1.2181477357     0.2442550028    -0.0242709546
    3      C       1.2946681776     0.2983621557    -0.0155340935
    4      H       1.2234485809     1.3654205555     0.1938162693
    5      H       0.1058689581    -1.2950683978    -0.7939635249
    6      H       0.0873763941    -1.1802183306     0.9509426710
    7      H      -1.2523082556     0.8590904360    -0.9314357115
    8      H      -1.2883257496     0.9190022301     0.8382846283
    9      H      -2.1022006986    -0.4021030462    -0.0186529313
   10      H       2.2829156150    -0.1199082616    -0.1900539780
 ----------------------------------------------------------------
 Molecular Point Group                 C1    NOp =  1
 Nuclear Repulsion Energy =    75.7859625329 hartrees
 There are       13 alpha and       12 beta electrons
 Requested basis set is non-standard
 There are 78 shells and 172 basis functions

Total QAlloc Memory Limit   2000 MB
Mega-Array Size        77 MB
MEM_STATIC part        62 MB

                       Distance Matrix (Angstroms)
             C (  1)   C (  2)   C (  3)   H (  4)   H (  5)   H (  6)
   C (  2)  1.532385
   C (  3)  1.491581  2.513414
   H (  4)  2.250868  2.695546  1.089731
   H (  5)  1.101078  2.171397  2.134998  3.050065
   H (  6)  1.105079  2.164384  2.139587  2.888629  1.748780
   H (  7)  2.176716  1.096420  2.764124  2.766213  2.550283  3.081701
   H (  8)  2.175548  1.097365  2.790351  2.631281  3.083849  2.512364
   H (  9)  2.189681  1.095153  3.468340  3.772165  2.504808  2.517901
   H ( 10)  2.258065  3.523853  1.087217  1.864411  2.546613  2.691937
             H (  7)   H (  8)   H (  9)
   H (  8)  1.771100
   H (  9)  1.773724  1.772584
   H ( 10)  3.742445  3.858831  4.397529
 
 A cutoff of  1.0D-11 yielded   3045 shell pairs
 There are     14929 function pairs (     17723 Cartesian)
 Smallest overlap matrix eigenvalue = 5.90E-05
 Guess MOs from SCF MO coefficient file
Reading MOs from coefficient file
Reading MOs from coefficient file
 An unrestricted hybrid HF-DFT SCF calculation will be
 performed using Pulay DIIS extrapolation
 Exchange:     0.5679 Hartree-Fock + 1.0000 M08SO
 SCF converges when DIIS error is below 1.0E-08
 ---------------------------------------
  Cycle       Energy         DIIS Error
 ---------------------------------------
    1    -118.4141003114      1.63E-07
    2    -118.4141003116      8.38E-08
    3    -118.4141003117      2.00E-08
    4    -118.4141003117      6.62E-09 Convergence criterion met
 ---------------------------------------
 <S^2> = 0.7554
 SCF time:  CPU 27.71 s  wall 33.08 s
 SCF   energy in the final basis set = -118.4141003117
 Total energy in the final basis set = -118.4141003117
 Analysis of SCF Wavefunction
 
 --------------------------------------------------------------
                    Orbital Energies (a.u.)
 --------------------------------------------------------------
 
 Alpha MOs
 -- Occupied --
-10.503 -10.498 -10.484  -0.884  -0.765  -0.669  -0.531  -0.521
 -0.480  -0.426  -0.420  -0.412  -0.267
 -- Virtual --
 -0.020  -0.004  -0.002   0.004   0.025   0.032   0.036   0.058
  0.073   0.082   0.091   0.111   0.114   0.126   0.132   0.136
  0.138   0.151   0.165   0.195   0.199   0.213   0.224   0.252
  0.264   0.299   0.318   0.327   0.433   0.437   0.458   0.479
  0.499   0.515   0.533   0.551   0.555   0.570   0.581   0.586
  0.592   0.615   0.619   0.633   0.646   0.680   0.697   0.736
  0.790   0.811   0.836   0.867   0.919   0.936   0.953   0.992
  1.020   1.049   1.057   1.131   1.141   1.162   1.194   1.205
  1.240   1.271   1.281   1.300   1.316   1.349   1.361   1.404
  1.416   1.445   1.454   1.475   1.488   1.514   1.528   1.575
  1.588   1.607   1.734   2.371   2.390   2.421   2.513   2.562
  2.590   2.606   2.692   2.712   2.763   2.799   2.818   2.822
  2.898   2.912   2.928   2.970   3.005   3.034   3.060   3.099
  3.123   3.141   3.191   3.218   3.265   3.289   3.311   3.343
  3.349   3.421   3.446   3.506   3.539   3.545   3.574   3.617
  3.628   3.705   3.756   3.790   3.862   3.914   3.960   3.962
  3.972   4.005   4.019   4.086   4.088   4.110   4.132   4.194
  4.218   4.256   4.268   4.294   4.400   4.418   4.445   4.484
  4.514   4.524   4.592   4.828   4.890   5.146   5.378   5.415
  5.440   5.560   5.631   5.650  23.999  24.125  24.246
 
 Beta MOs
 -- Occupied --
-10.499 -10.486 -10.484  -0.878  -0.752  -0.655  -0.523  -0.512
 -0.477  -0.420  -0.417  -0.410
 -- Virtual --
 -0.030  -0.026  -0.009  -0.007   0.002   0.021   0.028   0.030
  0.053   0.074   0.078   0.087   0.103   0.108   0.121   0.125
  0.131   0.134   0.139   0.157   0.195   0.200   0.215   0.227
  0.255   0.264   0.304   0.324   0.330   0.433   0.438   0.459
  0.478   0.504   0.532   0.547   0.553   0.566   0.583   0.591
  0.594   0.624   0.637   0.641   0.648   0.651   0.685   0.712
  0.738   0.795   0.815   0.836   0.871   0.925   0.946   0.961
  0.998   1.030   1.053   1.071   1.136   1.144   1.167   1.199
  1.219   1.252   1.285   1.300   1.304   1.332   1.364   1.366
  1.414   1.420   1.451   1.458   1.486   1.505   1.527   1.540
  1.580   1.594   1.618   1.741   2.379   2.419   2.436   2.531
  2.572   2.598   2.636   2.721   2.796   2.816   2.838   2.877
  2.908   2.935   2.968   2.979   3.025   3.050   3.076   3.096
  3.117   3.165   3.170   3.233   3.265   3.285   3.325   3.355
  3.372   3.424   3.454   3.500   3.533   3.561   3.576   3.597
  3.621   3.635   3.709   3.766   3.790   3.862   3.914   3.956
  3.979   3.989   4.035   4.040   4.091   4.125   4.133   4.157
  4.202   4.243   4.285   4.312   4.318   4.409   4.463   4.482
  4.506   4.537   4.554   4.607   4.966   4.989   5.188   5.388
  5.504   5.544   5.559   5.634   5.655  24.011  24.129  24.259
 --------------------------------------------------------------
 
          Ground-State Mulliken Net Atomic Charges

     Atom                 Charge (a.u.)    Spin (a.u.)
  --------------------------------------------------------
      1 C                    -0.228380      -0.112497
      2 C                    -0.612999       0.015198
      3 C                    -0.328957       1.098108
      4 H                     0.146760      -0.052895
      5 H                     0.163960       0.033466
      6 H                     0.169744       0.060856
      7 H                     0.182767       0.001934
      8 H                     0.178036       0.001636
      9 H                     0.167904       0.000451
     10 H                     0.161165      -0.046257
  --------------------------------------------------------
  Sum of atomic charges =     0.000000
  Sum of spin   charges =     1.000000

 -----------------------------------------------------------------
                    Cartesian Multipole Moments
 -----------------------------------------------------------------
    Charge (ESU x 10^10)
                 0.0000
    Dipole Moment (Debye)
         X      -0.2018      Y      -0.2275      Z       0.0622
       Tot       0.3104
    Quadrupole Moments (Debye-Ang)
        XX     -21.5923     XY      -0.1382     YY     -21.0379
        XZ      -0.1065     YZ       0.3222     ZZ     -22.1781
    Octopole Moments (Debye-Ang^2)
       XXX       0.3485    XXY      -1.6194    XYY      -0.0917
       YYY       0.2043    XXZ      -0.5984    XYZ       0.3733
       YYZ       0.3338    XZZ      -1.9424    YZZ      -0.7718
       ZZZ       0.2325
    Hexadecapole Moments (Debye-Ang^3)
      XXXX    -191.5592   XXXY      -0.5028   XXYY     -44.7364
      XYYY       0.8701   YYYY     -71.0025   XXXZ      -1.9549
      XXYZ       0.7472   XYYZ       0.3665   YYYZ       1.3258
      XXZZ     -42.9625   XYZZ      -1.8691   YYZZ     -17.7673
      XZZZ       0.2170   YZZZ       0.1370   ZZZZ     -41.6381
 -----------------------------------------------------------------
 Calculating analytic gradient of the SCF energy
 Exchange:     0.5679 Hartree-Fock + 1.0000 M08SO
 Gradient of Nuclear Repulsion Energy
            1           2           3           4           5           6
    1  -0.2109844   4.7480594  -5.0352704  -0.3525140  -0.0723526  -0.0474107
    2   4.0728023  -1.8300071  -2.2888945  -1.9091103   1.5697240   1.3621804
    3  -0.2363929   0.1573247   0.2058664  -0.3380420   1.4382812  -1.6254716
            7           8           9          10
    1   0.5062579   0.5668817   1.8101001  -1.9127670
    2  -1.1753696  -1.2742319   0.9389258   0.5339808
    3   1.5603507  -1.4551498   0.0020077   0.2912257
 nuclear-nuclear gradient
            1           2           3           4           5           6
    1  -0.2109844   4.7480594  -5.0352704  -0.3525140  -0.0723526  -0.0474107
    2   4.0728023  -1.8300071  -2.2888945  -1.9091103   1.5697240   1.3621804
    3  -0.2363929   0.1573247   0.2058664  -0.3380420   1.4382812  -1.6254716
            7           8           9          10
    1   0.5062579   0.5668817   1.8101001  -1.9127670
    2  -1.1753696  -1.2742319   0.9389258   0.5339808
    3   1.5603507  -1.4551498   0.0020077   0.2912257
 Gradient of Nuclear Attraction Energy
            1           2           3           4           5           6
    1   0.1797711  -7.6629764   8.5116872   0.4854266   0.1317334   0.0792061
    2  -4.7321817   2.0158134   3.0358328   5.5118280  -4.3697199  -3.7044461
    3   0.0849437  -0.0989500  -0.2740321   0.9577663  -3.9481707   4.4353555
            7           8           9          10
    1  -1.0612893  -1.2205882  -4.7813090   5.3383385
    2   3.2014762   3.4427368  -2.6736305  -1.7277089
    3  -4.1926142   3.9121846  -0.0151368  -0.8613464
 Gradient of Overlap and Kinetic Energy
            1           2           3           4           5           6
    1   0.0160514  -0.1930206   0.1496203   0.0329998  -0.0044059   0.0039033
    2  -0.3396707   0.1654204   0.1404012  -0.4972208   0.3465818   0.2850577
    3   0.0348927  -0.0205871   0.0079468  -0.0917835   0.3549934  -0.3892362
            7           8           9          10
    1   0.0229750   0.0374817   0.4057043  -0.4713094
    2  -0.2771445  -0.3002392   0.2832370   0.1935771
    3   0.3865602  -0.3652567  -0.0003333   0.0828038
 Gradient of Coulomb and Exchange Energy
            1           2           3           4           5           6
    1   0.0252174   3.0664954  -3.5974396  -0.1600591  -0.0559889  -0.0355459
    2   0.9301344  -0.3155478  -0.8605598  -3.1957740   2.5154064   2.1082271
    3   0.1243590  -0.0427367   0.0608029  -0.5446027   2.2171905  -2.4890977
            7           8           9          10
    1   0.5369303   0.6236188   2.6370340  -3.0402625
    2  -1.7980806  -1.9213008   1.5013348   1.0361603
    3   2.3138019  -2.1554791   0.0133158   0.5024461
 Gradient of Coulomb and Exchange Energy
            1           2           3           4           5           6
    1   0.0252174   3.0664954  -3.5974396  -0.1600591  -0.0559889  -0.0355459
    2   0.9301344  -0.3155478  -0.8605598  -3.1957740   2.5154064   2.1082271
    3   0.1243590  -0.0427367   0.0608029  -0.5446027   2.2171905  -2.4890977
            7           8           9          10
    1   0.5369303   0.6236188   2.6370340  -3.0402625
    2  -1.7980806  -1.9213008   1.5013348   1.0361603
    3   2.3138019  -2.1554791   0.0133158   0.5024461
 Using Euler-Maclaurin-Lebedev (75,434) quadrature formula
 Gradient of XC Energy
            1           2           3           4           5           6
    1  -0.0099435   0.0413494  -0.0287841  -0.0058684   0.0008746  -0.0001390
    2   0.0681269  -0.0358228  -0.0276759   0.0913052  -0.0617681  -0.0507792
    3  -0.0076103   0.0045531  -0.0007437   0.0168208  -0.0616728   0.0679604
            7           8           9          10
    1  -0.0049613  -0.0075206  -0.0712313   0.0862242
    2   0.0489779   0.0527105  -0.0491852  -0.0358892
    3  -0.0674911   0.0634842  -0.0000323  -0.0152684
 Gradient of SCF Energy
            1           2           3           4           5           6
    1   0.0001121  -0.0000927  -0.0001866  -0.0000151  -0.0001394   0.0000139
    2  -0.0007887  -0.0001439  -0.0008963   0.0010281   0.0002242   0.0002398
    3   0.0001922  -0.0003960  -0.0001597   0.0001589   0.0006217  -0.0004895
            7           8           9          10
    1  -0.0000874  -0.0001267   0.0002980   0.0002240
    2  -0.0001406  -0.0003246   0.0006819   0.0001201
    3   0.0006076  -0.0002169  -0.0001790  -0.0001393
 Max gradient component =       1.028E-03
 RMS gradient           =       3.997E-04
 Gradient time:  CPU 9.61 s  wall 11.40 s
 ######################################################
 ######################################################
 # Starting finite difference calculation for IDERIV  #
 Finite diff step size: 1.89e-03 a.u.
 ----------------------------------------------------------------
             Standard Nuclear Orientation (Angstroms)
    I     Atom           X                Y                Z
 ----------------------------------------------------------------
    1      C       0.0816837508    -0.5669863561     0.0316488110
    2      C      -1.2181477357     0.2442550028    -0.0242709546
    3      C       1.2946681776     0.2983621557    -0.0155340935
    4      H       1.2234485809     1.3654205555     0.1938162693
    5      H       0.1058689581    -1.2950683978    -0.7939635249
    6      H       0.0873763941    -1.1802183306     0.9509426710
    7      H      -1.2523082556     0.8590904360    -0.9314357115
    8      H      -1.2883257496     0.9190022301     0.8382846283
    9      H      -2.1022006986    -0.4021030462    -0.0186529313
   10      H       2.2829156150    -0.1199082616    -0.1900539780
 ----------------------------------------------------------------
 Nuclear Repulsion Energy =    75.7855679297 hartrees
 There are       13 alpha and       12 beta electrons

                       Distance Matrix (Angstroms)
             C (  1)   C (  2)   C (  3)   H (  4)   H (  5)   H (  6)
   C (  2)  1.533232
   C (  3)  1.490767  2.513414
   H (  4)  2.250360  2.695546  1.089731
   H (  5)  1.101056  2.171397  2.134998  3.050065
   H (  6)  1.105073  2.164384  2.139587  2.888629  1.748780
   H (  7)  2.177329  1.096420  2.764124  2.766213  2.550283  3.081701
   H (  8)  2.176178  1.097365  2.790351  2.631281  3.083849  2.512364
   H (  9)  2.190678  1.095153  3.468340  3.772165  2.504808  2.517901
   H ( 10)  2.257089  3.523853  1.087217  1.864411  2.546613  2.691937
             H (  7)   H (  8)   H (  9)
   H (  8)  1.771100
   H (  9)  1.773724  1.772584
   H ( 10)  3.742445  3.858831  4.397529
 
 Requested basis set is non-standard
 There are 78 shells and 172 basis functions
 A cutoff of  1.0D-11 yielded   3045 shell pairs
 There are     14929 function pairs (     17723 Cartesian)
 Smallest overlap matrix eigenvalue = 5.90E-05
 Guess MOs from SCF MO coefficient file
Reading MOs from coefficient file
Reading MOs from coefficient file
 An unrestricted hybrid HF-DFT SCF calculation will be
 performed using Pulay DIIS extrapolation
 Exchange:     0.5679 Hartree-Fock + 1.0000 M08SO
 SCF converges when DIIS error is below 1.0E-08
 ---------------------------------------
  Cycle       Energy         DIIS Error
 ---------------------------------------
    1    -118.4140695506      3.25E-05
    2    -118.4140992206      3.07E-06
    3    -118.4140992526      1.88E-06
    4    -118.4140992645      3.75E-07
    5    -118.4140992652      9.90E-08
    6    -118.4140992652      2.06E-08
    7    -118.4140992652      9.94E-09 Convergence criterion met
 ---------------------------------------
 <S^2> = 0.7554
 SCF time:  CPU 47.13 s  wall 55.65 s
 SCF   energy in the final basis set = -118.4140992652
 Total energy in the final basis set = -118.4140992652
 Analysis of SCF Wavefunction
 
 --------------------------------------------------------------
                    Orbital Energies (a.u.)
 --------------------------------------------------------------
 
 Alpha MOs
 -- Occupied --
-10.503 -10.498 -10.485  -0.884  -0.765  -0.669  -0.531  -0.521
 -0.480  -0.426  -0.421  -0.412  -0.267
 -- Virtual --
 -0.020  -0.004  -0.002   0.004   0.025   0.032   0.036   0.058
  0.073   0.082   0.091   0.111   0.114   0.126   0.132   0.136
  0.138   0.151   0.165   0.195   0.199   0.213   0.224   0.252
  0.264   0.299   0.318   0.327   0.433   0.437   0.458   0.479
  0.499   0.515   0.533   0.551   0.555   0.570   0.581   0.586
  0.591   0.615   0.620   0.633   0.646   0.680   0.697   0.736
  0.790   0.811   0.836   0.867   0.919   0.936   0.953   0.992
  1.020   1.049   1.057   1.131   1.141   1.162   1.194   1.205
  1.240   1.271   1.281   1.300   1.316   1.349   1.361   1.403
  1.416   1.445   1.454   1.475   1.488   1.514   1.528   1.575
  1.588   1.607   1.734   2.371   2.390   2.421   2.513   2.561
  2.590   2.606   2.692   2.712   2.763   2.799   2.818   2.822
  2.898   2.912   2.928   2.970   3.004   3.034   3.060   3.099
  3.124   3.141   3.191   3.218   3.265   3.289   3.311   3.343
  3.349   3.421   3.446   3.507   3.539   3.545   3.574   3.617
  3.628   3.705   3.756   3.790   3.862   3.914   3.960   3.962
  3.972   4.005   4.019   4.086   4.088   4.110   4.132   4.194
  4.218   4.256   4.268   4.294   4.399   4.417   4.445   4.484
  4.513   4.524   4.593   4.828   4.890   5.146   5.377   5.414
  5.441   5.560   5.631   5.650  23.999  24.125  24.246
 
 Beta MOs
 -- Occupied --
-10.499 -10.486 -10.484  -0.878  -0.752  -0.655  -0.523  -0.512
 -0.477  -0.420  -0.417  -0.410
 -- Virtual --
 -0.030  -0.026  -0.009  -0.007   0.002   0.021   0.028   0.030
  0.053   0.074   0.078   0.087   0.103   0.108   0.121   0.125
  0.131   0.134   0.139   0.157   0.195   0.201   0.215   0.227
  0.255   0.264   0.304   0.324   0.330   0.433   0.438   0.459
  0.478   0.504   0.532   0.547   0.553   0.566   0.583   0.591
  0.594   0.624   0.637   0.641   0.648   0.651   0.685   0.712
  0.738   0.795   0.815   0.836   0.871   0.925   0.946   0.961
  0.998   1.030   1.053   1.071   1.136   1.144   1.166   1.199
  1.219   1.252   1.285   1.300   1.304   1.332   1.364   1.366
  1.414   1.420   1.451   1.458   1.486   1.505   1.527   1.540
  1.580   1.594   1.618   1.741   2.379   2.419   2.436   2.531
  2.572   2.598   2.636   2.721   2.795   2.816   2.838   2.877
  2.908   2.935   2.968   2.979   3.025   3.050   3.076   3.096
  3.117   3.165   3.171   3.233   3.264   3.285   3.325   3.354
  3.372   3.424   3.454   3.500   3.533   3.561   3.576   3.597
  3.621   3.635   3.709   3.766   3.790   3.861   3.914   3.955
  3.979   3.989   4.035   4.040   4.091   4.125   4.133   4.157
  4.202   4.243   4.285   4.312   4.318   4.407   4.463   4.482
  4.506   4.537   4.555   4.607   4.966   4.989   5.188   5.387
  5.504   5.544   5.560   5.634   5.655  24.011  24.129  24.259
 --------------------------------------------------------------
 
          Ground-State Mulliken Net Atomic Charges

     Atom                 Charge (a.u.)    Spin (a.u.)
  --------------------------------------------------------
      1 C                    -0.228567      -0.112563
      2 C                    -0.612892       0.015199
      3 C                    -0.328846       1.097903
      4 H                     0.146802      -0.052908
      5 H                     0.163963       0.033552
      6 H                     0.169710       0.061053
      7 H                     0.182755       0.001937
      8 H                     0.178025       0.001636
      9 H                     0.167928       0.000462
     10 H                     0.161121      -0.046272
  --------------------------------------------------------
  Sum of atomic charges =     0.000000
  Sum of spin   charges =     1.000000

 -----------------------------------------------------------------
                    Cartesian Multipole Moments
 -----------------------------------------------------------------
    Charge (ESU x 10^10)
                 0.0000
    Dipole Moment (Debye)
         X      -0.2013      Y      -0.2274      Z       0.0623
       Tot       0.3100
    Quadrupole Moments (Debye-Ang)
        XX     -21.5925     XY      -0.1365     YY     -21.0376
        XZ      -0.1063     YZ       0.3223     ZZ     -22.1778
    Octopole Moments (Debye-Ang^2)
       XXX       0.3333    XXY      -1.6191    XYY      -0.0958
       YYY       0.2049    XXZ      -0.5979    XYZ       0.3733
       YYZ       0.3336    XZZ      -1.9459    YZZ      -0.7718
       ZZZ       0.2325
    Hexadecapole Moments (Debye-Ang^3)
      XXXX    -191.5659   XXXY      -0.4906   XXYY     -44.7375
      XYYY       0.8860   YYYY     -71.0020   XXXZ      -1.9541
      XXYZ       0.7473   XYYZ       0.3664   YYYZ       1.3264
      XXZZ     -42.9628   XYZZ      -1.8642   YYZZ     -17.7672
      XZZZ       0.2165   YZZZ       0.1374   ZZZZ     -41.6369
 -----------------------------------------------------------------
 Calculating analytic gradient of the SCF energy
 Exchange:     0.5679 Hartree-Fock + 1.0000 M08SO
 Gradient of Nuclear Repulsion Energy
            1           2           3           4           5           6
    1  -0.2066459   4.7448243  -5.0382703  -0.3524805  -0.0710959  -0.0461658
    2   4.0731095  -1.8262395  -2.2932019  -1.9093029   1.5697800   1.3621920
    3  -0.2364107   0.1570650   0.2061013  -0.3380582   1.4383446  -1.6254890
            7           8           9          10
    1   0.5062375   0.5668509   1.8097832  -1.9130376
    2  -1.1751736  -1.2740216   0.9389618   0.5338962
    3   1.5602183  -1.4550356   0.0019967   0.2912676
 nuclear-nuclear gradient
            1           2           3           4           5           6
    1  -0.2066459   4.7448243  -5.0382703  -0.3524805  -0.0710959  -0.0461658
    2   4.0731095  -1.8262395  -2.2932019  -1.9093029   1.5697800   1.3621920
    3  -0.2364107   0.1570650   0.2061013  -0.3380582   1.4383446  -1.6254890
            7           8           9          10
    1   0.5062375   0.5668509   1.8097832  -1.9130376
    2  -1.1751736  -1.2740216   0.9389618   0.5338962
    3   1.5602183  -1.4550356   0.0019967   0.2912676
 Gradient of Nuclear Attraction Energy
            1           2           3           4           5           6
    1   0.1857780  -7.6600973   8.5144616   0.4854132   0.1259640   0.0735745
    2  -4.7342154   2.0088113   3.0446951   5.5126712  -4.3697085  -3.7041128
    3   0.0850097  -0.0984653  -0.2741215   0.9577842  -3.9482863   4.4351002
            7           8           9          10
    1  -1.0613704  -1.2206374  -4.7814504   5.3383642
    2   3.2009828   3.4422056  -2.6730273  -1.7283021
    3  -4.1921459   3.9117371  -0.0151559  -0.8614564
 Gradient of Overlap and Kinetic Energy
            1           2           3           4           5           6
    1   0.0146670  -0.1929264   0.1496750   0.0330087  -0.0038450   0.0044478
    2  -0.3395273   0.1655833   0.1401216  -0.4972759   0.3465796   0.2850228
    3   0.0348673  -0.0205982   0.0079385  -0.0917881   0.3550017  -0.3892055
            7           8           9          10
    1   0.0229876   0.0374914   0.4057579  -0.4712639
    2  -0.2771226  -0.3002130   0.2831753   0.1936562
    3   0.3865232  -0.3652173  -0.0003303   0.0828089
 Gradient of Coulomb and Exchange Energy
            1           2           3           4           5           6
    1   0.0168979   3.0664501  -3.5976277  -0.1600826  -0.0520131  -0.0316741
    2   0.9317611  -0.3123157  -0.8650671  -3.1963713   2.5153539   2.1079201
    3   0.1243287  -0.0429638   0.0606816  -0.5446002   2.2172442  -2.4888599
            7           8           9          10
    1   0.5370170   0.6236853   2.6374197  -3.0400726
    2  -1.7978002  -1.9210001   1.5007754   1.0367439
    3   2.3134995  -2.1551823   0.0133421   0.5025100
 Gradient of Coulomb and Exchange Energy
            1           2           3           4           5           6
    1   0.0168979   3.0664501  -3.5976277  -0.1600826  -0.0520131  -0.0316741
    2   0.9317611  -0.3123157  -0.8650671  -3.1963713   2.5153539   2.1079201
    3   0.1243287  -0.0429638   0.0606816  -0.5446002   2.2172442  -2.4888599
            7           8           9          10
    1   0.5370170   0.6236853   2.6374197  -3.0400726
    2  -1.7978002  -1.9210001   1.5007754   1.0367439
    3   2.3134995  -2.1551823   0.0133421   0.5025100
 Using Euler-Maclaurin-Lebedev (75,434) quadrature formula
 Gradient of XC Energy
            1           2           3           4           5           6
    1  -0.0097018   0.0413509  -0.0287749  -0.0058664   0.0007631  -0.0002472
    2   0.0680860  -0.0358740  -0.0275924   0.0913147  -0.0617679  -0.0507725
    3  -0.0076084   0.0045567  -0.0007403   0.0168205  -0.0616745   0.0679546
            7           8           9          10
    1  -0.0049635  -0.0075225  -0.0712488   0.0862111
    2   0.0489751   0.0527077  -0.0491726  -0.0359043
    3  -0.0674874   0.0634804  -0.0000331  -0.0152685
 Gradient of SCF Energy
            1           2           3           4           5           6
    1   0.0009953  -0.0003984  -0.0005363  -0.0000076  -0.0002268  -0.0000648
    2  -0.0007861  -0.0000346  -0.0010446   0.0010358   0.0002371   0.0002496
    3   0.0001866  -0.0004056  -0.0001404   0.0001581   0.0006297  -0.0004996
            7           8           9          10
    1  -0.0000918  -0.0001323   0.0002616   0.0002012
    2  -0.0001385  -0.0003214   0.0007127   0.0000899
    3   0.0006077  -0.0002177  -0.0001804  -0.0001383
 Max gradient component =       1.045E-03
 RMS gradient           =       4.664E-04
 Gradient time:  CPU 9.84 s  wall 11.19 s
 ----------------------------------------------------------------
             Standard Nuclear Orientation (Angstroms)
    I     Atom           X                Y                Z
 ----------------------------------------------------------------
    1      C       0.0796837508    -0.5669863561     0.0316488110
    2      C      -1.2181477357     0.2442550028    -0.0242709546
    3      C       1.2946681776     0.2983621557    -0.0155340935
    4      H       1.2234485809     1.3654205555     0.1938162693
    5      H       0.1058689581    -1.2950683978    -0.7939635249
    6      H       0.0873763941    -1.1802183306     0.9509426710
    7      H      -1.2523082556     0.8590904360    -0.9314357115
    8      H      -1.2883257496     0.9190022301     0.8382846283
    9      H      -2.1022006986    -0.4021030462    -0.0186529313
   10      H       2.2829156150    -0.1199082616    -0.1900539780
 ----------------------------------------------------------------
 Nuclear Repulsion Energy =    75.7863653360 hartrees
 There are       13 alpha and       12 beta electrons

                       Distance Matrix (Angstroms)
             C (  1)   C (  2)   C (  3)   H (  4)   H (  5)   H (  6)
   C (  2)  1.531537
   C (  3)  1.492395  2.513414
   H (  4)  2.251376  2.695546  1.089731
   H (  5)  1.101102  2.171397  2.134998  3.050065
   H (  6)  1.105085  2.164384  2.139587  2.888629  1.748780
   H (  7)  2.176104  1.096420  2.764124  2.766213  2.550283  3.081701
   H (  8)  2.174919  1.097365  2.790351  2.631281  3.083849  2.512364
   H (  9)  2.188684  1.095153  3.468340  3.772165  2.504808  2.517901
   H ( 10)  2.259040  3.523853  1.087217  1.864411  2.546613  2.691937
             H (  7)   H (  8)   H (  9)
   H (  8)  1.771100
   H (  9)  1.773724  1.772584
   H ( 10)  3.742445  3.858831  4.397529
 
 Requested basis set is non-standard
 There are 78 shells and 172 basis functions
 A cutoff of  1.0D-11 yielded   3045 shell pairs
 There are     14929 function pairs (     17723 Cartesian)
 Smallest overlap matrix eigenvalue = 5.90E-05
 Guess MOs from SCF MO coefficient file
Reading MOs from coefficient file
Reading MOs from coefficient file
 An unrestricted hybrid HF-DFT SCF calculation will be
 performed using Pulay DIIS extrapolation
 Exchange:     0.5679 Hartree-Fock + 1.0000 M08SO
 SCF converges when DIIS error is below 1.0E-08
 ---------------------------------------
  Cycle       Energy         DIIS Error
 ---------------------------------------
    1    -118.4141638799      6.51E-05
    2    -118.4140995097      6.13E-06
    3    -118.4140996377      3.75E-06
    4    -118.4140996855      7.50E-07
    5    -118.4140996883      1.98E-07
    6    -118.4140996887      4.11E-08
    7    -118.4140996887      1.99E-08
    8    -118.4140996888      5.50E-09 Convergence criterion met
 ---------------------------------------
 <S^2> = 0.7554
 SCF time:  CPU 54.26 s  wall 62.91 s
 SCF   energy in the final basis set = -118.4140996888
 Total energy in the final basis set = -118.4140996888
 Analysis of SCF Wavefunction
 
 --------------------------------------------------------------
                    Orbital Energies (a.u.)
 --------------------------------------------------------------
 
 Alpha MOs
 -- Occupied --
-10.503 -10.498 -10.484  -0.884  -0.765  -0.669  -0.531  -0.521
 -0.480  -0.426  -0.420  -0.412  -0.267
 -- Virtual --
 -0.020  -0.004  -0.002   0.004   0.025   0.032   0.036   0.058
  0.073   0.082   0.091   0.111   0.114   0.126   0.132   0.136
  0.138   0.151   0.165   0.194   0.199   0.213   0.224   0.252
  0.263   0.299   0.318   0.328   0.433   0.437   0.458   0.479
  0.499   0.515   0.533   0.550   0.555   0.570   0.581   0.586
  0.592   0.615   0.619   0.632   0.646   0.680   0.697   0.736
  0.790   0.811   0.836   0.867   0.919   0.936   0.953   0.992
  1.020   1.049   1.057   1.131   1.141   1.162   1.194   1.205
  1.240   1.271   1.281   1.300   1.316   1.349   1.361   1.404
  1.416   1.445   1.454   1.475   1.488   1.514   1.528   1.575
  1.588   1.607   1.734   2.371   2.389   2.421   2.513   2.562
  2.590   2.606   2.692   2.712   2.763   2.799   2.818   2.822
  2.898   2.913   2.928   2.970   3.005   3.034   3.060   3.099
  3.123   3.141   3.191   3.218   3.265   3.289   3.311   3.343
  3.349   3.421   3.446   3.506   3.539   3.545   3.574   3.617
  3.628   3.705   3.756   3.790   3.863   3.914   3.960   3.963
  3.972   4.005   4.018   4.086   4.088   4.111   4.132   4.194
  4.218   4.256   4.267   4.293   4.401   4.419   4.445   4.483
  4.514   4.524   4.592   4.827   4.889   5.146   5.378   5.415
  5.439   5.559   5.631   5.650  24.000  24.125  24.246
 
 Beta MOs
 -- Occupied --
-10.499 -10.486 -10.484  -0.878  -0.752  -0.655  -0.523  -0.512
 -0.477  -0.420  -0.417  -0.410
 -- Virtual --
 -0.030  -0.026  -0.009  -0.007   0.002   0.021   0.028   0.030
  0.053   0.074   0.078   0.087   0.103   0.108   0.121   0.125
  0.131   0.134   0.139   0.157   0.195   0.200   0.216   0.227
  0.255   0.264   0.304   0.324   0.329   0.433   0.438   0.459
  0.478   0.504   0.532   0.547   0.553   0.566   0.583   0.591
  0.594   0.624   0.637   0.641   0.648   0.651   0.685   0.712
  0.739   0.794   0.815   0.836   0.871   0.925   0.946   0.961
  0.998   1.030   1.053   1.071   1.136   1.144   1.167   1.199
  1.219   1.252   1.285   1.300   1.305   1.332   1.364   1.366
  1.414   1.420   1.450   1.458   1.486   1.504   1.527   1.540
  1.580   1.594   1.618   1.741   2.379   2.419   2.436   2.531
  2.572   2.598   2.636   2.721   2.796   2.816   2.838   2.877
  2.908   2.935   2.968   2.979   3.025   3.051   3.076   3.096
  3.117   3.165   3.170   3.233   3.265   3.286   3.325   3.355
  3.372   3.424   3.454   3.500   3.533   3.561   3.576   3.597
  3.621   3.635   3.709   3.765   3.790   3.862   3.914   3.956
  3.979   3.989   4.034   4.040   4.091   4.125   4.133   4.157
  4.202   4.242   4.285   4.312   4.317   4.411   4.463   4.482
  4.506   4.537   4.553   4.607   4.965   4.988   5.188   5.389
  5.504   5.543   5.558   5.634   5.655  24.012  24.129  24.259
 --------------------------------------------------------------
 
          Ground-State Mulliken Net Atomic Charges

     Atom                 Charge (a.u.)    Spin (a.u.)
  --------------------------------------------------------
      1 C                    -0.228194      -0.112426
      2 C                    -0.613107       0.015198
      3 C                    -0.329068       1.098314
      4 H                     0.146716      -0.052882
      5 H                     0.163959       0.033377
      6 H                     0.169779       0.060658
      7 H                     0.182779       0.001930
      8 H                     0.178047       0.001636
      9 H                     0.167880       0.000439
     10 H                     0.161208      -0.046244
  --------------------------------------------------------
  Sum of atomic charges =     0.000000
  Sum of spin   charges =     1.000000

 -----------------------------------------------------------------
                    Cartesian Multipole Moments
 -----------------------------------------------------------------
    Charge (ESU x 10^10)
                 0.0000
    Dipole Moment (Debye)
         X      -0.2022      Y      -0.2276      Z       0.0622
       Tot       0.3107
    Quadrupole Moments (Debye-Ang)
        XX     -21.5921     XY      -0.1398     YY     -21.0381
        XZ      -0.1066     YZ       0.3221     ZZ     -22.1784
    Octopole Moments (Debye-Ang^2)
       XXX       0.3636    XXY      -1.6198    XYY      -0.0877
       YYY       0.2037    XXZ      -0.5988    XYZ       0.3732
       YYZ       0.3339    XZZ      -1.9389    YZZ      -0.7719
       ZZZ       0.2326
    Hexadecapole Moments (Debye-Ang^3)
      XXXX    -191.5525   XXXY      -0.5151   XXYY     -44.7353
      XYYY       0.8541   YYYY     -71.0031   XXXZ      -1.9558
      XXYZ       0.7470   XYYZ       0.3667   YYYZ       1.3252
      XXZZ     -42.9622   XYZZ      -1.8741   YYZZ     -17.7674
      XZZZ       0.2175   YZZZ       0.1366   ZZZZ     -41.6394
 -----------------------------------------------------------------
 Calculating analytic gradient of the SCF energy
 Exchange:     0.5679 Hartree-Fock + 1.0000 M08SO
 Gradient of Nuclear Repulsion Energy
            1           2           3           4           5           6
    1  -0.2153243   4.7512972  -5.0322720  -0.3525473  -0.0736092  -0.0486555
    2   4.0725155  -1.8337821  -2.2845954  -1.9089176   1.5696657   1.3621669
    3  -0.2363764   0.1575849   0.2056320  -0.3380258   1.4382151  -1.6254514
            7           8           9          10
    1   0.5062782   0.5669123   1.8104174  -1.9124967
    2  -1.1755657  -1.2744424   0.9388897   0.5340653
    3   1.5604832  -1.4552641   0.0020187   0.2911838
 nuclear-nuclear gradient
            1           2           3           4           5           6
    1  -0.2153243   4.7512972  -5.0322720  -0.3525473  -0.0736092  -0.0486555
    2   4.0725155  -1.8337821  -2.2845954  -1.9089176   1.5696657   1.3621669
    3  -0.2363764   0.1575849   0.2056320  -0.3380258   1.4382151  -1.6254514
            7           8           9          10
    1   0.5062782   0.5669123   1.8104174  -1.9124967
    2  -1.1755657  -1.2744424   0.9388897   0.5340653
    3   1.5604832  -1.4552641   0.0020187   0.2911838
 Gradient of Nuclear Attraction Energy
            1           2           3           4           5           6
    1   0.1737664  -7.6658510   8.5089048   0.4854397   0.1375041   0.0848366
    2  -4.7301775   2.0228261   3.0269820   5.5109846  -4.3697250  -3.7047756
    3   0.0848828  -0.0994358  -0.2739461   0.9577488  -3.9480455   4.4356012
            7           8           9          10
    1  -1.0612073  -1.2205382  -4.7811656   5.3383105
    2   3.2019697   3.4432681  -2.6742354  -1.7271169
    3  -4.1930830   3.9126328  -0.0151179  -0.8612373
 Gradient of Overlap and Kinetic Energy
            1           2           3           4           5           6
    1   0.0174362  -0.1931161   0.1495667   0.0329909  -0.0049669   0.0033590
    2  -0.3398134   0.1652578   0.1406809  -0.4971657   0.3465832   0.2850920
    3   0.0349179  -0.0205761   0.0079553  -0.0917790   0.3549842  -0.3892659
            7           8           9          10
    1   0.0229623   0.0374720   0.4056505  -0.4713545
    2  -0.2771664  -0.3002655   0.2832990   0.1934981
    3   0.3865974  -0.3652963  -0.0003364   0.0827988
 Gradient of Coulomb and Exchange Energy
            1           2           3           4           5           6
    1   0.0335357   3.0665364  -3.5972444  -0.1600354  -0.0599660  -0.0394167
    2   0.9285195  -0.3187845  -0.8560573  -3.1951765   2.5154552   2.1085321
    3   0.1243855  -0.0425088   0.0609271  -0.5446056   2.2171304  -2.4893291
            7           8           9          10
    1   0.5368429   0.6235516   2.6366459  -3.0404500
    2  -1.7983609  -1.9216013   1.5018957   1.0355779
    3   2.3141047  -2.1557764   0.0132895   0.5023827
 Gradient of Coulomb and Exchange Energy
            1           2           3           4           5           6
    1   0.0335357   3.0665364  -3.5972444  -0.1600354  -0.0599660  -0.0394167
    2   0.9285195  -0.3187845  -0.8560573  -3.1951765   2.5154552   2.1085321
    3   0.1243855  -0.0425088   0.0609271  -0.5446056   2.2171304  -2.4893291
            7           8           9          10
    1   0.5368429   0.6235516   2.6366459  -3.0404500
    2  -1.7983609  -1.9216013   1.5018957   1.0355779
    3   2.3141047  -2.1557764   0.0132895   0.5023827
 Using Euler-Maclaurin-Lebedev (75,434) quadrature formula
 Gradient of XC Energy
            1           2           3           4           5           6
    1  -0.0101855   0.0413481  -0.0287932  -0.0058705   0.0009861  -0.0000307
    2   0.0681674  -0.0357715  -0.0277591   0.0912956  -0.0617682  -0.0507859
    3  -0.0076120   0.0045495  -0.0007473   0.0168212  -0.0616709   0.0679661
            7           8           9          10
    1  -0.0049592  -0.0075187  -0.0712138   0.0862373
    2   0.0489806   0.0527133  -0.0491980  -0.0358741
    3  -0.0674947   0.0634880  -0.0000316  -0.0152683
 Gradient of SCF Energy
            1           2           3           4           5           6
    1  -0.0007716   0.0002146   0.0001618  -0.0000227  -0.0000519   0.0000927
    2  -0.0007885  -0.0002543  -0.0007488   0.0010204   0.0002109   0.0002297
    3   0.0001978  -0.0003863  -0.0001789   0.0001596   0.0006134  -0.0004791
            7           8           9          10
    1  -0.0000831  -0.0001210   0.0003344   0.0002467
    2  -0.0001428  -0.0003278   0.0006511   0.0001502
    3   0.0006075  -0.0002160  -0.0001776  -0.0001403
 Max gradient component =       1.020E-03
 RMS gradient           =       4.144E-04
 Gradient time:  CPU 9.80 s  wall 11.18 s
 ----------------------------------------------------------------
             Standard Nuclear Orientation (Angstroms)
    I     Atom           X                Y                Z
 ----------------------------------------------------------------
    1      C       0.0806837508    -0.5659863561     0.0316488110
    2      C      -1.2181477357     0.2442550028    -0.0242709546
    3      C       1.2946681776     0.2983621557    -0.0155340935
    4      H       1.2234485809     1.3654205555     0.1938162693
    5      H       0.1058689581    -1.2950683978    -0.7939635249
    6      H       0.0873763941    -1.1802183306     0.9509426710
    7      H      -1.2523082556     0.8590904360    -0.9314357115
    8      H      -1.2883257496     0.9190022301     0.8382846283
    9      H      -2.1022006986    -0.4021030462    -0.0186529313
   10      H       2.2829156150    -0.1199082616    -0.1900539780
 ----------------------------------------------------------------
 Nuclear Repulsion Energy =    75.7936589040 hartrees
 There are       13 alpha and       12 beta electrons

                       Distance Matrix (Angstroms)
             C (  1)   C (  2)   C (  3)   H (  4)   H (  5)   H (  6)
   C (  2)  1.531856
   C (  3)  1.491001  2.513414
   H (  4)  2.250009  2.695546  1.089731
   H (  5)  1.101740  2.171397  2.134998  3.050065
   H (  6)  1.105634  2.164384  2.139587  2.888629  1.748780
   H (  7)  2.176061  1.096420  2.764124  2.766213  2.550283  3.081701
   H (  8)  2.174865  1.097365  2.790351  2.631281  3.083849  2.512364
   H (  9)  2.189606  1.095153  3.468340  3.772165  2.504808  2.517901
   H ( 10)  2.257867  3.523853  1.087217  1.864411  2.546613  2.691937
             H (  7)   H (  8)   H (  9)
   H (  8)  1.771100
   H (  9)  1.773724  1.772584
   H ( 10)  3.742445  3.858831  4.397529
 
 Requested basis set is non-standard
 There are 78 shells and 172 basis functions
 A cutoff of  1.0D-11 yielded   3045 shell pairs
 There are     14929 function pairs (     17723 Cartesian)
 Smallest overlap matrix eigenvalue = 5.89E-05
 Guess MOs from SCF MO coefficient file
Reading MOs from coefficient file
Reading MOs from coefficient file
 An unrestricted hybrid HF-DFT SCF calculation will be
 performed using Pulay DIIS extrapolation
 Exchange:     0.5679 Hartree-Fock + 1.0000 M08SO
 SCF converges when DIIS error is below 1.0E-08
 ---------------------------------------
  Cycle       Energy         DIIS Error
 ---------------------------------------
    1    -118.4135846099      4.40E-05
    2    -118.4141007525      4.72E-06
    3    -118.4141008496      3.12E-06
    4    -118.4141008844      6.00E-07
    5    -118.4141008867      1.82E-07
    6    -118.4141008872      5.25E-08
    7    -118.4141008872      1.94E-08
    8    -118.4141008873      6.30E-09 Convergence criterion met
 ---------------------------------------
 <S^2> = 0.7554
 SCF time:  CPU 53.84 s  wall 63.51 s
 SCF   energy in the final basis set = -118.4141008873
 Total energy in the final basis set = -118.4141008873
 Analysis of SCF Wavefunction
 
 --------------------------------------------------------------
                    Orbital Energies (a.u.)
 --------------------------------------------------------------
 
 Alpha MOs
 -- Occupied --
-10.503 -10.498 -10.484  -0.884  -0.765  -0.668  -0.531  -0.521
 -0.480  -0.426  -0.420  -0.412  -0.266
 -- Virtual --
 -0.020  -0.004  -0.002   0.004   0.025   0.032   0.036   0.058
  0.073   0.082   0.091   0.111   0.114   0.126   0.132   0.136
  0.138   0.151   0.165   0.194   0.199   0.213   0.224   0.252
  0.264   0.299   0.319   0.327   0.433   0.437   0.458   0.479
  0.499   0.515   0.533   0.551   0.555   0.570   0.581   0.586
  0.592   0.615   0.620   0.633   0.646   0.680   0.697   0.736
  0.790   0.811   0.836   0.867   0.919   0.936   0.953   0.992
  1.020   1.049   1.057   1.130   1.141   1.162   1.194   1.205
  1.240   1.271   1.281   1.300   1.316   1.348   1.361   1.404
  1.416   1.445   1.454   1.475   1.488   1.514   1.528   1.575
  1.588   1.607   1.734   2.371   2.390   2.421   2.513   2.562
  2.590   2.606   2.692   2.712   2.763   2.799   2.818   2.822
  2.898   2.913   2.928   2.970   3.005   3.034   3.060   3.098
  3.124   3.141   3.191   3.218   3.265   3.289   3.311   3.343
  3.349   3.421   3.446   3.507   3.539   3.545   3.574   3.618
  3.628   3.705   3.756   3.790   3.862   3.914   3.960   3.963
  3.972   4.005   4.019   4.086   4.088   4.111   4.132   4.194
  4.218   4.256   4.268   4.294   4.399   4.418   4.446   4.484
  4.514   4.524   4.592   4.828   4.890   5.145   5.378   5.415
  5.440   5.559   5.631   5.649  23.999  24.125  24.247
 
 Beta MOs
 -- Occupied --
-10.499 -10.486 -10.484  -0.878  -0.752  -0.655  -0.523  -0.512
 -0.477  -0.420  -0.417  -0.410
 -- Virtual --
 -0.030  -0.026  -0.009  -0.007   0.002   0.021   0.028   0.030
  0.053   0.074   0.078   0.087   0.103   0.108   0.121   0.125
  0.131   0.134   0.139   0.157   0.195   0.200   0.215   0.227
  0.255   0.264   0.304   0.324   0.330   0.433   0.438   0.459
  0.478   0.504   0.532   0.547   0.553   0.566   0.583   0.591
  0.594   0.624   0.637   0.641   0.648   0.651   0.685   0.712
  0.738   0.795   0.815   0.836   0.871   0.925   0.946   0.961
  0.998   1.030   1.053   1.071   1.136   1.144   1.167   1.199
  1.219   1.252   1.285   1.300   1.304   1.332   1.364   1.366
  1.414   1.420   1.451   1.458   1.486   1.505   1.527   1.540
  1.580   1.594   1.618   1.741   2.379   2.419   2.436   2.531
  2.572   2.599   2.636   2.721   2.796   2.816   2.839   2.877
  2.908   2.935   2.968   2.979   3.025   3.051   3.076   3.096
  3.117   3.165   3.171   3.233   3.264   3.285   3.325   3.355
  3.372   3.424   3.454   3.500   3.533   3.561   3.576   3.597
  3.621   3.635   3.709   3.766   3.790   3.861   3.915   3.956
  3.979   3.989   4.035   4.041   4.091   4.125   4.133   4.157
  4.202   4.243   4.285   4.312   4.318   4.409   4.464   4.482
  4.506   4.537   4.553   4.607   4.966   4.989   5.188   5.388
  5.504   5.544   5.559   5.634   5.654  24.011  24.129  24.260
 --------------------------------------------------------------
 
          Ground-State Mulliken Net Atomic Charges

     Atom                 Charge (a.u.)    Spin (a.u.)
  --------------------------------------------------------
      1 C                    -0.228132      -0.112654
      2 C                    -0.613007       0.015226
      3 C                    -0.328916       1.097856
      4 H                     0.146732      -0.052895
      5 H                     0.163844       0.033598
      6 H                     0.169618       0.061097
      7 H                     0.182715       0.001941
      8 H                     0.177984       0.001640
      9 H                     0.167954       0.000454
     10 H                     0.161208      -0.046263
  --------------------------------------------------------
  Sum of atomic charges =     0.000000
  Sum of spin   charges =     1.000000

 -----------------------------------------------------------------
                    Cartesian Multipole Moments
 -----------------------------------------------------------------
    Charge (ESU x 10^10)
                 0.0000
    Dipole Moment (Debye)
         X      -0.2019      Y      -0.2273      Z       0.0622
       Tot       0.3103
    Quadrupole Moments (Debye-Ang)
        XX     -21.5891     XY      -0.1380     YY     -21.0402
        XZ      -0.1066     YZ       0.3219     ZZ     -22.1805
    Octopole Moments (Debye-Ang^2)
       XXX       0.3490    XXY      -1.6259    XYY      -0.0920
       YYY       0.1901    XXZ      -0.5991    XYZ       0.3732
       YYZ       0.3342    XZZ      -1.9422    YZZ      -0.7737
       ZZZ       0.2320
    Hexadecapole Moments (Debye-Ang^3)
      XXXX    -191.5186   XXXY      -0.5024   XXYY     -44.7346
      XYYY       0.8682   YYYY     -70.9830   XXXZ      -1.9558
      XXYZ       0.7468   XYYZ       0.3667   YYYZ       1.3240
      XXZZ     -42.9621   XYZZ      -1.8690   YYZZ     -17.7680
      XZZZ       0.2171   YZZZ       0.1366   ZZZZ     -41.6501
 -----------------------------------------------------------------
 Calculating analytic gradient of the SCF energy
 Exchange:     0.5679 Hartree-Fock + 1.0000 M08SO
 Gradient of Nuclear Repulsion Energy
            1           2           3           4           5           6
    1  -0.2106866   4.7518316  -5.0395753  -0.3527068  -0.0722956  -0.0473981
    2   4.0726853  -1.8295587  -2.2889218  -1.9092888   1.5693307   1.3622739
    3  -0.2365751   0.1574871   0.2060337  -0.3380694   1.4364105  -1.6237482
            7           8           9          10
    1   0.5064541   0.5670922   1.8101360  -1.9128514
    2  -1.1754164  -1.2742970   0.9390831   0.5341097
    3   1.5604924  -1.4552738   0.0020085   0.2912342
 nuclear-nuclear gradient
            1           2           3           4           5           6
    1  -0.2106866   4.7518316  -5.0395753  -0.3527068  -0.0722956  -0.0473981
    2   4.0726853  -1.8295587  -2.2889218  -1.9092888   1.5693307   1.3622739
    3  -0.2365751   0.1574871   0.2060337  -0.3380694   1.4364105  -1.6237482
            7           8           9          10
    1   0.5064541   0.5670922   1.8101360  -1.9128514
    2  -1.1754164  -1.2742970   0.9390831   0.5341097
    3   1.5604924  -1.4552738   0.0020085   0.2912342
 Gradient of Nuclear Attraction Energy
            1           2           3           4           5           6
    1   0.1781342  -7.6705155   8.5210409   0.4849021   0.1316051   0.0792276
    2  -4.7208064   2.0116679   3.0327767   5.5118147  -4.3707978  -3.7068081
    3   0.0855721  -0.0993151  -0.2743747   0.9578222  -3.9428785   4.4302455
            7           8           9          10
    1  -1.0610601  -1.2203051  -4.7822264   5.3391972
    2   3.2011693   3.4423761  -2.6736418  -1.7277506
    3  -4.1930141   3.9126322  -0.0151840  -0.8615057
 Gradient of Overlap and Kinetic Energy
            1           2           3           4           5           6
    1   0.0161357  -0.1927871   0.1492915   0.0330933  -0.0043927   0.0039027
    2  -0.3404275   0.1657098   0.1406258  -0.4971760   0.3465995   0.2852046
    3   0.0348755  -0.0205767   0.0079477  -0.0917826   0.3544185  -0.3886662
            7           8           9          10
    1   0.0229247   0.0374273   0.4057908  -0.4713861
    2  -0.2771199  -0.3002119   0.2832225   0.1935732
    3   0.3865796  -0.3652857  -0.0003296   0.0828196
 Gradient of Coulomb and Exchange Energy
            1           2           3           4           5           6
    1   0.0265048   3.0701977  -3.6023783  -0.1594561  -0.0559221  -0.0355818
    2   0.9204323  -0.3123067  -0.8579147  -3.1956360   2.5166030   2.1101845
    3   0.1239609  -0.0425392   0.0609732  -0.5446280   2.2140089  -2.4859812
            7           8           9          10
    1   0.5365728   0.6231995   2.6378151  -3.0409515
    2  -1.7977612  -1.9209139   1.5012197   1.0360930
    3   2.3140418  -2.1557738   0.0133573   0.5025799
 Gradient of Coulomb and Exchange Energy
            1           2           3           4           5           6
    1   0.0265048   3.0701977  -3.6023783  -0.1594561  -0.0559221  -0.0355818
    2   0.9204323  -0.3123067  -0.8579147  -3.1956360   2.5166030   2.1101845
    3   0.1239609  -0.0425392   0.0609732  -0.5446280   2.2140089  -2.4859812
            7           8           9          10
    1   0.5365728   0.6231995   2.6378151  -3.0409515
    2  -1.7977612  -1.9209139   1.5012197   1.0360930
    3   2.3140418  -2.1557738   0.0133573   0.5025799
 Using Euler-Maclaurin-Lebedev (75,434) quadrature formula
 Gradient of XC Energy
            1           2           3           4           5           6
    1  -0.0099748   0.0412876  -0.0286936  -0.0058876   0.0008725  -0.0001387
    2   0.0682958  -0.0358748  -0.0277181   0.0912960  -0.0617838  -0.0508209
    3  -0.0076046   0.0045497  -0.0007459   0.0168208  -0.0615662   0.0678565
            7           8           9          10
    1  -0.0049486  -0.0075063  -0.0712504   0.0862400
    2   0.0489688   0.0526996  -0.0491783  -0.0358843
    3  -0.0674932   0.0634880  -0.0000334  -0.0152717
 Gradient of SCF Energy
            1           2           3           4           5           6
    1   0.0001133   0.0000143  -0.0003149  -0.0000551  -0.0001328   0.0000117
    2   0.0001795  -0.0003626  -0.0011520   0.0010099  -0.0000485   0.0000340
    3   0.0002288  -0.0003942  -0.0001660   0.0001631   0.0003933  -0.0002936
            7           8           9          10
    1  -0.0000572  -0.0000924   0.0002651   0.0002481
    2  -0.0001594  -0.0003471   0.0007052   0.0001410
    3   0.0006064  -0.0002130  -0.0001812  -0.0001437
 Max gradient component =       1.152E-03
 RMS gradient           =       3.840E-04
 Gradient time:  CPU 9.73 s  wall 11.19 s
 ----------------------------------------------------------------
             Standard Nuclear Orientation (Angstroms)
    I     Atom           X                Y                Z
 ----------------------------------------------------------------
    1      C       0.0806837508    -0.5679863561     0.0316488110
    2      C      -1.2181477357     0.2442550028    -0.0242709546
    3      C       1.2946681776     0.2983621557    -0.0155340935
    4      H       1.2234485809     1.3654205555     0.1938162693
    5      H       0.1058689581    -1.2950683978    -0.7939635249
    6      H       0.0873763941    -1.1802183306     0.9509426710
    7      H      -1.2523082556     0.8590904360    -0.9314357115
    8      H      -1.2883257496     0.9190022301     0.8382846283
    9      H      -2.1022006986    -0.4021030462    -0.0186529313
   10      H       2.2829156150    -0.1199082616    -0.1900539780
 ----------------------------------------------------------------
 Nuclear Repulsion Energy =    75.7782659453 hartrees
 There are       13 alpha and       12 beta electrons

                       Distance Matrix (Angstroms)
             C (  1)   C (  2)   C (  3)   H (  4)   H (  5)   H (  6)
   C (  2)  1.532914
   C (  3)  1.492161  2.513414
   H (  4)  2.251726  2.695546  1.089731
   H (  5)  1.100417  2.171397  2.134998  3.050065
   H (  6)  1.104524  2.164384  2.139587  2.888629  1.748780
   H (  7)  2.177372  1.096420  2.764124  2.766213  2.550283  3.081701
   H (  8)  2.176231  1.097365  2.790351  2.631281  3.083849  2.512364
   H (  9)  2.189756  1.095153  3.468340  3.772165  2.504808  2.517901
   H ( 10)  2.258263  3.523853  1.087217  1.864411  2.546613  2.691937
             H (  7)   H (  8)   H (  9)
   H (  8)  1.771100
   H (  9)  1.773724  1.772584
   H ( 10)  3.742445  3.858831  4.397529
 
 Requested basis set is non-standard
 There are 78 shells and 172 basis functions
 A cutoff of  1.0D-11 yielded   3045 shell pairs
 There are     14929 function pairs (     17723 Cartesian)
 Smallest overlap matrix eigenvalue = 5.90E-05
 Guess MOs from SCF MO coefficient file
Reading MOs from coefficient file
Reading MOs from coefficient file
 An unrestricted hybrid HF-DFT SCF calculation will be
 performed using Pulay DIIS extrapolation
 Exchange:     0.5679 Hartree-Fock + 1.0000 M08SO
 SCF converges when DIIS error is below 1.0E-08
 ---------------------------------------
  Cycle       Energy         DIIS Error
 ---------------------------------------
    1    -118.4150774608      5.74E-05
    2    -118.4140975848      7.09E-06
    3    -118.4140978229      4.65E-06
    4    -118.4140979010      9.45E-07
    5    -118.4140979054      2.73E-07
    6    -118.4140979062      7.27E-08
    7    -118.4140979063      2.68E-08
    8    -118.4140979063      1.14E-08
    9    -118.4140979063      2.40E-09 Convergence criterion met
 ---------------------------------------
 <S^2> = 0.7554
 SCF time:  CPU 60.55 s  wall 70.24 s
 SCF   energy in the final basis set = -118.4140979063
 Total energy in the final basis set = -118.4140979063
 Analysis of SCF Wavefunction
 
 --------------------------------------------------------------
                    Orbital Energies (a.u.)
 --------------------------------------------------------------
 
 Alpha MOs
 -- Occupied --
-10.503 -10.498 -10.485  -0.884  -0.765  -0.669  -0.531  -0.521
 -0.480  -0.426  -0.420  -0.412  -0.267
 -- Virtual --
 -0.020  -0.004  -0.002   0.004   0.025   0.032   0.036   0.058
[...]
     7    1.098235491148166e-03   1.156252608282017e-03   3.477990298264812e-04
     8    1.944364310451551e-03   1.750215224641561e-03  -3.765820387350710e-04
     9    2.296220788535908e-01   1.340728466035135e-01  -9.725044264872814e-04
    10   -1.104417392075396e-03  -9.335026267999283e-04  -5.446315798885843e-05

Order 1, Length 30
    Atom      X          Y          Z
     1    1.629676381919084e-02   1.233876732763289e-02   9.482904766366012e-05
     2   -1.246273995643996e-01  -1.393229887053120e-01   9.017192400360540e-04
     3    2.725218587584045e-03  -2.251260922095274e-03  -1.229468707778144e-04
     4    2.462092224664528e-04   2.935556227132623e-04   1.679761889502948e-04
     5   -8.727634386305212e-04   7.588334388492404e-04  -1.981951817226107e-04
     6   -1.054574773370093e-03   6.491288318681959e-04   1.004954601500063e-04
     7   -1.304782939202483e-02  -1.046303072323590e-02  -1.309301263446663e-03
     8   -1.463121169708704e-02  -1.146400160628801e-02   1.483125281402302e-03
     9    1.340728466035135e-01   1.486949643008301e-01  -9.740351028036056e-04
    10    8.931965794499942e-04   7.614143880919628e-04  -1.420574915400180e-04

Order 1, Length 30
    Atom      X          Y          Z
     1   -7.371488310309410e-04  -1.141981525382431e-03  -7.917265575258028e-04
     2    8.660487069884338e-04   1.104373292931720e-03  -4.623747982552473e-02
     3   -1.755282706375067e-04   1.995605682666641e-04   7.962707360460834e-04
     4    7.220995280000116e-05   9.308347546588143e-05  -1.808984835243759e-04
     5    2.551862830028649e-04   2.448459600445584e-04  -2.368648089734642e-05
     6   -1.620533876076489e-04  -3.083239303880472e-04  -1.729257364131185e-04
     7    2.203699664279493e-02   1.569645879248503e-02   7.989726782801734e-04
     8   -2.113434484016350e-02  -1.489501830226576e-02   7.338170865961859e-04
     9   -9.725044264872814e-04  -9.740351028036056e-04   4.480737328962089e-02
    10   -4.822390693925680e-05  -1.995238408615492e-05   2.714116528800349e-04


    10 Order 1, Length 30
    Atom      X          Y          Z
     1   -1.204250841229245e-02   1.275059691390288e-02   2.400468596829199e-03
     2   -2.611623235423797e-03  -4.289381578670502e-03   3.934544617480397e-04
     3   -2.917811263728153e-01   1.015490923193379e-01   4.842564004031386e-02
     4    2.068590905259223e-03  -2.472678667285678e-03  -3.344400377232520e-04
     5    7.134765549453824e-04   4.823594749778406e-05  -4.063242850369047e-04
     6   -1.529921203624242e-04  -2.576529275238118e-04   4.380494518959087e-04
     7    1.793130964818364e-04   1.253948575848151e-05  -8.194578113680676e-05
     8    1.797819501533869e-04   3.933455320181799e-05   1.083092780081485e-04
     9   -1.104417392075396e-03   8.931965794499942e-04  -4.822390693925680e-05
    10    3.045582313502728e-01  -1.082597402723256e-01  -5.089234715441261e-02

Order 1, Length 30
    Atom      X          Y          Z
     1   -1.595878734854985e-02   1.105944403921629e-02   2.636338937447799e-03
     2   -1.970012024428297e-03  -2.491185711121481e-03   1.744932679585816e-04
     3    1.026895160397664e-01  -9.882932579594894e-02  -2.532449100383046e-02
     4    2.330369018457831e-02  -5.267930887617425e-03  -3.764120522568341e-03
     5    8.930979080330961e-04   7.232985220022741e-04  -4.470792913820348e-04
     6    5.578281303856820e-04   3.876313480466573e-05   4.711697889362976e-04
     7   -7.361280359511951e-05   4.138702731960520e-06  -2.612060295395747e-04
     8   -2.490772598383669e-04   7.896607488835198e-05   3.195607322040294e-04
     9   -9.335026267999283e-04   7.614143880919628e-04  -1.995238408615492e-05
    10   -1.082597402723256e-01   9.391802471767852e-02   2.621704107929054e-02

Order 1, Length 30
    Atom      X          Y          Z
     1    5.198695824946630e-04  -2.310625313870958e-03   1.291353282928601e-03
     2   -4.538711596411257e-04   7.229316900135461e-04   8.156849445985874e-04
     3    4.702712864714303e-02  -2.388260953421954e-02  -2.147870523914548e-02
     4    4.660430030660960e-03  -1.569278879554404e-03   2.861083281547524e-03
     5    2.647081367884199e-04   1.056418227359309e-03   5.628486033615307e-04
     6   -9.448836654293142e-04  -1.726149486910235e-04   2.866706605534846e-04
     7    1.006631410135069e-05  -1.052940890956729e-04   4.336289445341574e-05
     8   -1.437450089125525e-04   1.572760075783383e-04   6.114311568447275e-05
     9   -5.446315798885843e-05  -1.420574915400180e-04   2.714116528800349e-04
    10   -5.089234715441261e-02   2.621704107929054e-02   1.526294320356608e-02




 # Finishing finite difference calculation for IDERIV #
 ######################################################
 ######################################################
 Requested basis set is non-standard
 There are 78 shells and 172 basis functions
 **********************************************************************
 **                                                                  **
 **                       VIBRATIONAL ANALYSIS                       **
 **                       --------------------                       **
 **                                                                  **
 **        VIBRATIONAL FREQUENCIES (CM**-1) AND NORMAL MODES         **
 **     FORCE CONSTANTS (mDYN/ANGSTROM) AND REDUCED MASSES (AMU)     **
 **                  INFRARED INTENSITIES (KM/MOL)                   **
 **                                                                  **
 **********************************************************************
 

 Mode:                 1                      2                      3
 Frequency:        95.40                 228.62                 364.35
 Force Cnst:      0.0055                 0.0343                 0.1572
 Red. Mass:       1.0312                 1.1137                 2.0099
 IR Active:          YES                    YES                    YES
 IR Intens:        1.011                  0.073                  0.530
 Raman Active:       YES                    YES                    YES
               X      Y      Z        X      Y      Z        X      Y      Z
 C          0.002  0.002  0.029   -0.001 -0.004 -0.075   -0.001  0.171 -0.016
 C         -0.003 -0.002 -0.034    0.002  0.001  0.012   -0.159 -0.059  0.004
 C         -0.002  0.004 -0.011   -0.001  0.003  0.061    0.172 -0.057  0.001
 H          0.110 -0.134  0.732   -0.041  0.012  0.001    0.518 -0.043  0.034
 H          0.020 -0.056  0.089    0.002  0.084 -0.155   -0.008  0.150 -0.001
 H         -0.022  0.082  0.087   -0.003 -0.106 -0.143    0.002  0.142 -0.031
 H         -0.037 -0.118 -0.110   -0.291 -0.365 -0.225   -0.389 -0.087 -0.006
 H          0.029  0.108 -0.117    0.317  0.352 -0.237   -0.372 -0.087  0.007
 H          0.000 -0.005  0.087   -0.013  0.027  0.577    0.047 -0.345  0.026
 H         -0.072  0.076 -0.577    0.026  0.006  0.206    0.051 -0.392  0.101
 TransDip   0.008 -0.007  0.031   -0.001 -0.003 -0.008   -0.012 -0.009  0.018

 Mode:                 4                      5                      6
 Frequency:       508.42                 746.92                 881.79
 Force Cnst:      0.1843                 0.3882                 0.7729
 Red. Mass:       1.2099                 1.1809                 1.6871
 IR Active:          YES                    YES                    YES
 IR Intens:       54.006                  0.376                  0.240
 Raman Active:       YES                    YES                    YES
               X      Y      Z        X      Y      Z        X      Y      Z
 C          0.002 -0.007 -0.017    0.006 -0.006 -0.101    0.037 -0.098  0.011
 C          0.011  0.000  0.012   -0.012  0.008 -0.031   -0.133  0.082  0.017
 C         -0.029  0.020 -0.129    0.022 -0.017  0.060    0.158 -0.026 -0.021
 H          0.004 -0.109  0.554   -0.111  0.003 -0.082   -0.432 -0.072  0.059
 H         -0.039 -0.141  0.103    0.126 -0.416  0.277   -0.235 -0.085 -0.008
 H          0.083  0.150  0.093   -0.179  0.453  0.220    0.012 -0.111 -0.004
 H          0.008  0.040  0.039   -0.338  0.253  0.152   -0.088 -0.014 -0.053
 H          0.050 -0.031  0.040    0.272 -0.230  0.183   -0.304  0.155 -0.055
 H         -0.005  0.023  0.010   -0.001 -0.006  0.179   -0.111  0.042 -0.067
 H          0.085 -0.086  0.754    0.048  0.110 -0.078    0.426  0.580  0.041
 TransDip   0.028 -0.039  0.231   -0.017  0.010  0.003   -0.012  0.008 -0.007

 Mode:                 7                      8                      9
 Frequency:       914.05                1038.61                1087.30
 Force Cnst:      0.7041                 0.8681                 1.5052
 Red. Mass:       1.4304                 1.3658                 2.1610
 IR Active:          YES                    YES                    YES
 IR Intens:        1.147                  1.307                  0.241
 Raman Active:       YES                    YES                    YES
               X      Y      Z        X      Y      Z        X      Y      Z
 C          0.000  0.084 -0.007   -0.014  0.040 -0.130    0.222  0.004  0.000
 C          0.133  0.040  0.012    0.002 -0.036  0.085   -0.097  0.117 -0.005
 C         -0.065 -0.088 -0.003   -0.009 -0.015  0.070   -0.143 -0.109  0.010
 H         -0.368 -0.115  0.026   -0.026  0.001 -0.034   -0.206 -0.125 -0.011
 H         -0.296  0.064 -0.001   -0.347 -0.250  0.124    0.570 -0.013  0.016
 H         -0.176  0.072 -0.009    0.515  0.359  0.089    0.537 -0.036 -0.013
 H         -0.210 -0.099 -0.066    0.394 -0.236 -0.075   -0.229  0.102 -0.015
 H         -0.309 -0.023  0.020   -0.156  0.211 -0.130   -0.239  0.118 -0.012
 H          0.514 -0.489 -0.004   -0.080  0.080 -0.208   -0.026  0.016 -0.003
 H          0.032  0.157  0.008   -0.045 -0.037 -0.058   -0.202 -0.213 -0.018
 TransDip  -0.022 -0.025 -0.007   -0.011  0.002 -0.035    0.005 -0.015 -0.001

 Mode:                10                     11                     12
 Frequency:      1156.77                1248.59                1346.48
 Force Cnst:      1.4979                 1.0986                 1.5977
 Red. Mass:       1.8999                 1.1961                 1.4957
 IR Active:          YES                    YES                    YES
 IR Intens:        0.177                  0.058                  2.052
 Raman Active:       YES                    YES                    YES
               X      Y      Z        X      Y      Z        X      Y      Z
 C          0.000  0.208  0.044   -0.017 -0.010  0.063    0.198  0.012 -0.001
 C         -0.027 -0.125 -0.026    0.008  0.005 -0.110   -0.019 -0.053 -0.005
 C          0.009 -0.135 -0.025    0.002  0.007  0.025   -0.034  0.027  0.007
 H         -0.525 -0.184  0.045    0.021  0.013  0.004   -0.066  0.015  0.008
 H          0.134  0.281 -0.018   -0.544  0.082 -0.035   -0.669 -0.017 -0.004
 H          0.025  0.042 -0.066    0.659 -0.093 -0.001   -0.507 -0.007 -0.003
 H          0.283  0.073  0.096   -0.244  0.221  0.052   -0.064  0.132  0.110
 H          0.424 -0.070 -0.024    0.180 -0.224  0.088   -0.037  0.100 -0.113
 H         -0.283  0.245  0.048    0.021 -0.012  0.178   -0.218  0.213 -0.005
 H          0.157  0.236  0.001   -0.014 -0.013 -0.020   -0.167 -0.258 -0.012
 TransDip   0.012 -0.003 -0.006   -0.006 -0.005  0.002    0.034  0.031  0.000

 Mode:                13                     14                     15
 Frequency:      1393.26                1445.03                1453.48
 Force Cnst:      1.4949                 1.4697                 1.3328
 Red. Mass:       1.3070                 1.1946                 1.0708
 IR Active:          YES                    YES                    YES
 IR Intens:        3.714                  2.176                  3.179
 Raman Active:       YES                    YES                    YES
               X      Y      Z        X      Y      Z        X      Y      Z
 C          0.061 -0.004  0.000    0.035  0.017 -0.002    0.015 -0.072  0.006
 C         -0.134  0.069 -0.007    0.003 -0.027  0.002   -0.003  0.003  0.000
 C         -0.023 -0.002  0.003   -0.100 -0.069  0.003   -0.008 -0.015  0.001
 H          0.102  0.012 -0.012    0.673  0.005 -0.078    0.018 -0.009 -0.013
 H         -0.159 -0.023  0.005   -0.059 -0.001  0.013   -0.003  0.516 -0.478
 H         -0.101 -0.021 -0.004   -0.017  0.002 -0.010   -0.022  0.565  0.397
 H          0.508 -0.144 -0.158   -0.050  0.152  0.120   -0.001 -0.076 -0.052
 H          0.518 -0.138  0.188    0.000  0.152 -0.137   -0.020 -0.075  0.059
 H          0.279 -0.469  0.016   -0.020  0.009 -0.031   -0.039  0.043  0.008
 H         -0.008  0.028  0.011    0.212  0.621  0.081    0.014  0.027  0.008
 TransDip   0.055 -0.028  0.002    0.012  0.046 -0.002    0.003  0.057 -0.001

 Mode:                16                     17                     18
 Frequency:      1477.90                1484.37                2924.81
 Force Cnst:      1.3379                 1.3817                 5.4024
 Red. Mass:       1.0396                 1.0643                 1.0719
 IR Active:          YES                    YES                    YES
 IR Intens:        7.748                  4.300                 25.652
 Raman Active:       YES                    YES                    YES
               X      Y      Z        X      Y      Z        X      Y      Z
 C          0.003  0.001 -0.019   -0.029 -0.033  0.001   -0.003  0.051 -0.057
 C          0.001 -0.001 -0.050   -0.026 -0.040  0.001   -0.001 -0.003  0.004
 C         -0.005 -0.002  0.001    0.025  0.017  0.000    0.002  0.000 -0.001
 H          0.032  0.002 -0.008   -0.129  0.005  0.013    0.000  0.010 -0.002
 H          0.031 -0.034  0.010    0.066  0.058 -0.074    0.003 -0.081 -0.134
 H         -0.041  0.015 -0.010    0.050  0.069  0.064    0.004 -0.534  0.825
 H          0.471  0.144  0.052    0.107  0.508  0.354    0.000  0.025 -0.039
 H         -0.471 -0.149  0.051    0.099  0.480 -0.381   -0.001 -0.016 -0.019
 H         -0.016  0.027  0.706    0.211 -0.331  0.030    0.021  0.020  0.001
 H          0.008  0.024  0.005   -0.038 -0.125 -0.016   -0.001  0.005  0.001
 TransDip   0.000  0.005  0.089    0.041  0.052  0.000    0.000  0.135 -0.090

 Mode:                19                     20                     21
 Frequency:      2981.15                2990.42                3056.91
 Force Cnst:      5.6833                 5.4596                 6.0654
 Red. Mass:       1.0854                 1.0362                 1.1017
 IR Active:          YES                    YES                    YES
 IR Intens:       15.343                 25.203                 28.305
 Raman Active:       YES                    YES                    YES
               X      Y      Z        X      Y      Z        X      Y      Z
 C          0.002 -0.046 -0.069   -0.001 -0.005 -0.009    0.000 -0.004 -0.012
 C         -0.002  0.009  0.011    0.037 -0.033 -0.002   -0.012 -0.017 -0.089
 C         -0.001  0.002  0.000    0.000  0.000  0.000    0.000  0.000  0.000
 H          0.000 -0.016 -0.008    0.003 -0.007 -0.002    0.001 -0.002 -0.002
 H         -0.021  0.636  0.733   -0.001  0.076  0.089   -0.006  0.081  0.091
 H          0.001 -0.091  0.095    0.002 -0.014  0.014    0.003 -0.035  0.049
 H          0.002  0.003  0.001   -0.006  0.312 -0.476    0.011 -0.368  0.523
 H          0.008 -0.109 -0.142   -0.028  0.384  0.504   -0.041  0.445  0.561
 H          0.013  0.008  0.004   -0.401 -0.310  0.001    0.177  0.130 -0.021
 H          0.011 -0.008  0.001   -0.001  0.003  0.001    0.002 -0.001  0.000
 TransDip  -0.003 -0.090 -0.087    0.129 -0.094 -0.018   -0.029 -0.039 -0.163

 Mode:                22                     23                     24
 Frequency:      3067.80                3125.50                3231.81
 Force Cnst:      6.1121                 6.0603                 6.8750
 Red. Mass:       1.1023                 1.0529                 1.1172
 IR Active:          YES                    YES                    YES
 IR Intens:       24.606                 13.225                 11.523
 Raman Active:       YES                    YES                    YES
               X      Y      Z        X      Y      Z        X      Y      Z
 C          0.000 -0.004  0.001    0.003  0.001 -0.001    0.000  0.002  0.001
 C         -0.053 -0.073  0.022    0.000 -0.002  0.000    0.000  0.000  0.000
 C          0.001  0.001  0.000   -0.044 -0.046 -0.004   -0.064  0.074  0.020
 H          0.003 -0.016 -0.003   -0.061  0.773  0.151    0.032 -0.588 -0.114
 H         -0.001  0.020  0.023   -0.001  0.004  0.008   -0.002 -0.015 -0.017
 H         -0.002  0.022 -0.033    0.001  0.002 -0.005   -0.002 -0.003  0.005
 H         -0.022  0.273 -0.428   -0.002  0.006 -0.010    0.001  0.000  0.001
 H         -0.022  0.107  0.165   -0.003  0.005  0.006    0.002 -0.001 -0.001
 H          0.669  0.493  0.001    0.007  0.008  0.000   -0.002 -0.002  0.000
 H         -0.006  0.004  0.001    0.549 -0.244 -0.101    0.723 -0.301 -0.128
 TransDip  -0.094 -0.123  0.036   -0.094 -0.068 -0.007   -0.077  0.074  0.021

 STANDARD THERMODYNAMIC QUANTITIES AT   298.15 K  AND     1.00 ATM

   This Molecule has  0 Imaginary Frequencies
   Zero point vibrational energy:       54.681 kcal/mol

   Atom    1 Element C  Has Mass   12.00000
   Atom    2 Element C  Has Mass   12.00000
   Atom    3 Element C  Has Mass   12.00000
   Atom    4 Element H  Has Mass    1.00783
   Atom    5 Element H  Has Mass    1.00783
   Atom    6 Element H  Has Mass    1.00783
   Atom    7 Element H  Has Mass    1.00783
   Atom    8 Element H  Has Mass    1.00783
   Atom    9 Element H  Has Mass    1.00783
   Atom   10 Element H  Has Mass    1.00783
   Molecular Mass:    43.054810 amu
   Principal axes and moments of inertia in amu*Bohr^2:
                             1           2           3
    Eigenvalues --       55.74776   198.87236   231.60427
          X               0.99998    -0.00643    -0.00157
          Y               0.00646     0.99981     0.01858
          Z               0.00145    -0.01859     0.99983
   Rotational Symmetry Number is   1
   The Molecule is an Asymmetric Top
   Translational Enthalpy:        0.889 kcal/mol
   Rotational Enthalpy:           0.889 kcal/mol
   Vibrational Enthalpy:         56.036 kcal/mol
   gas constant (RT):             0.592 kcal/mol
   Translational Entropy:        37.206  cal/mol.K
   Rotational Entropy:           22.467  cal/mol.K
   Vibrational Entropy:           8.039  cal/mol.K

   Total Enthalpy:               58.406 kcal/mol
   Total Entropy:                67.711  cal/mol.K
Archival summary:
1\1\node20\FREQ\ProcedureUnspecified\BasisUnspecified\37(2)\edames\MonJul710:12:032014MonJul710:12:032014\0\\#,FREQ,ProcedureUnspecified,BasisUnspecified,\\0,2\C\H,1,1.10108\H,1,1.10508,2,104.873\C,1,1.49158,2,109.955,3,-118.317,0\H,4,1.08722,1,121.445,2,44.3342,0\H,4,1.08973,1,120.585,2,-139.946,0\C,1,1.53238,2,110.004,3,117.338,0\H,7,1.09515,1,111.813,2,-55.4254,0\H,7,1.09642,1,110.7,2,65.1216,0\H,7,1.09737,1,110.551,2,-175.655,0\\\@

 Total job time:  4242.44s(wall), 3557.14s(cpu) 
 Mon Jul  7 10:12:03 2014

        *************************************************************
        *                                                           *
        *  Thank you very much for using Q-Chem.  Have a nice day.  *
        *                                                           *
        *************************************************************


0 sent ACK to 0 
now end server 0 ... 
cleanup process ... done
remove work dirs /scratch/edames/qchem22787.0 -- /scratch/edames/qchem22787.7
rm -rf /scratch/edames/qchem22787.0
rm -rf /scratch/edames/qchem22787.1
rm -rf /scratch/edames/qchem22787.2
rm -rf /scratch/edames/qchem22787.3
rm -rf /scratch/edames/qchem22787.4
rm -rf /scratch/edames/qchem22787.5
rm -rf /scratch/edames/qchem22787.6
rm -rf /scratch/edames/qchem22787.7
rm -rf /scratch/edames/qchem22787
