 Entering Gaussian System, Link 0=/Local/ce_dana/g09/g09
 Initial command:
 /Local/ce_dana/g09/l1.exe "/storage/ce_dana/alongd/scratch/g09/Gau-54431.inp" -scrdir="/storage/ce_dana/alongd/scratch/g09/"
 Entering Link 1 = /Local/ce_dana/g09/l1.exe PID=     54434.
  
 Copyright (c) 1988,1990,1992,1993,1995,1998,2003,2009,2013,
            Gaussian, Inc.  All Rights Reserved.
  
 This is part of the Gaussian(R) 09 program.  It is based on
 the Gaussian(R) 03 system (copyright 2003, Gaussian, Inc.),
 the Gaussian(R) 98 system (copyright 1998, Gaussian, Inc.),
 the Gaussian(R) 94 system (copyright 1995, Gaussian, Inc.),
 the Gaussian 92(TM) system (copyright 1992, Gaussian, Inc.),
 the Gaussian 90(TM) system (copyright 1990, Gaussian, Inc.),
 the Gaussian 88(TM) system (copyright 1988, Gaussian, Inc.),
 the Gaussian 86(TM) system (copyright 1986, Carnegie Mellon
 University), and the Gaussian 82(TM) system (copyright 1983,
 Carnegie Mellon University). Gaussian is a federally registered
 trademark of Gaussian, Inc.
  
 This software contains proprietary and confidential information,
 including trade secrets, belonging to Gaussian, Inc.
  
 This software is provided under written license and may be
 used, copied, transmitted, or stored only in accord with that
 written license.
  
 The following legend is applicable only to US Government
 contracts under FAR:
  
                    RESTRICTED RIGHTS LEGEND
  
 Use, reproduction and disclosure by the US Government is
 subject to restrictions as set forth in subparagraphs (a)
 and (c) of the Commercial Computer Software - Restricted
 Rights clause in FAR 52.227-19.
  
 Gaussian, Inc.
 340 Quinnipiac St., Bldg. 40, Wallingford CT 06492
  
  
 ---------------------------------------------------------------
 Warning -- This program may not be used in any manner that
 competes with the business of Gaussian, Inc. or will provide
 assistance to any competitor of Gaussian, Inc.  The licensee
 of this program is prohibited from giving any competitor of
 Gaussian, Inc. access to this program.  By using this program,
 the user acknowledges that Gaussian, Inc. is engaged in the
 business of creating and licensing software in the field of
 computational chemistry and represents and warrants to the
 licensee that it is not a competitor of Gaussian, Inc. and that
 it will not use this program in any manner prohibited above.
 ---------------------------------------------------------------
  

 Cite this work as:
 Gaussian 09, Revision D.01,
 M. J. Frisch, G. W. Trucks, H. B. Schlegel, G. E. Scuseria, 
 M. A. Robb, J. R. Cheeseman, G. Scalmani, V. Barone, B. Mennucci, 
 G. A. Petersson, H. Nakatsuji, M. Caricato, X. Li, H. P. Hratchian, 
 A. F. Izmaylov, J. Bloino, G. Zheng, J. L. Sonnenberg, M. Hada, 
 M. Ehara, K. Toyota, R. Fukuda, J. Hasegawa, M. Ishida, T. Nakajima, 
 Y. Honda, O. Kitao, H. Nakai, T. Vreven, J. A. Montgomery, Jr., 
 J. E. Peralta, F. Ogliaro, M. Bearpark, J. J. Heyd, E. Brothers, 
 K. N. Kudin, V. N. Staroverov, T. Keith, R. Kobayashi, J. Normand, 
 K. Raghavachari, A. Rendell, J. C. Burant, S. S. Iyengar, J. Tomasi, 
 M. Cossi, N. Rega, J. M. Millam, M. Klene, J. E. Knox, J. B. Cross, 
 V. Bakken, C. Adamo, J. Jaramillo, R. Gomperts, R. E. Stratmann, 
 O. Yazyev, A. J. Austin, R. Cammi, C. Pomelli, J. W. Ochterski, 
 R. L. Martin, K. Morokuma, V. G. Zakrzewski, G. A. Voth, 
 P. Salvador, J. J. Dannenberg, S. Dapprich, A. D. Daniels, 
 O. Farkas, J. B. Foresman, J. V. Ortiz, J. Cioslowski, 
 and D. J. Fox, Gaussian, Inc., Wallingford CT, 2013.
 
 ******************************************
 Gaussian 09:  ES64L-G09RevD.01 24-Apr-2013
                23-Oct-2022 
 ******************************************
 %chk=check.chk
 %mem=7168mb
 %NProcShared=10
 Will use up to   10 processors via shared memory.
 ----------------------------------------------------------------------
 #P opt=(modredundant, calcfc, noeigentest, maxStep=5) scf=(tight, dire
 ct) integral=(grid=ultrafine, Acc2E=12) guess=read b2plypd3/def2tzvp I
 Op(2/9=2000) scf=xqc
 ----------------------------------------------------------------------
 1/8=5,10=4,11=1,18=120,19=15,38=1/1,3;
 2/9=2000,12=2,17=6,18=5,40=1/2;
 3/5=44,7=101,11=9,16=1,25=1,30=1,71=2,74=-60,75=-5,116=-2,140=1/1,2,3;
 4/5=1/1;
 5/5=2,8=3,13=1,32=2,38=6,87=12/2,8;
 8/6=3,8=1,10=1,19=11,30=-1,87=12/1;
 9/15=3,16=-3,87=12/6;
 11/6=1,8=1,15=11,17=12,24=-1,27=1,28=-2,29=300,32=6,42=3,87=12/1,2,10;
 10/6=2,21=1,87=12/2;
 8/6=4,8=1,10=1,19=11,30=-1,87=12/11,4;
 10/5=1,20=4,87=12/2;
 11/12=2,14=11,16=1,17=2,28=-2,42=3,87=12/2,10,12;
 6/7=2,8=2,9=2,10=2/1;
 7/10=1,12=2,25=1,44=2,87=12/1,2,3,16;
 1/8=5,10=4,11=1,18=20,19=15/3(2);
 2/9=2000/2;
 99//99;
 2/9=2000/2;
 3/5=44,7=101,11=9,16=1,25=1,30=1,71=1,74=-60,75=-5/1,2,3;
 4/5=5,16=3,69=1/1;
 5/5=2,8=3,13=1,32=2,38=5,87=12/2,8;
 8/6=4,10=1,87=12/1;
 9/15=2,16=-3,87=12/6;
 10/5=1,87=12/2;
 7/12=2,87=12/1,2,3,16;
 1/8=5,11=1,18=20,19=15/3(-8);
 2/9=2000/2;
 6/7=2,8=2,9=2,10=2/1;
 99//99;
 Leave Link    1 at Sun Oct 23 07:25:02 2022, MaxMem=   939524096 cpu:         0.1
 (Enter /Local/ce_dana/g09/l101.exe)
 -------------
 1,2-Butadiene
 -------------
 Symbolic Z-matrix:
 Charge =  0 Multiplicity = 1
 C                    -1.57005  -0.31383  -0.10935 
 C                    -0.39848   0.62165   0.01284 
 C                    -0.10155   1.55285  -0.85132 
 C                     0.1888    2.48205  -1.72036 
 H                    -1.23329  -1.35203  -0.13587 
 H                    -2.2368   -0.21086   0.74902 
 H                    -2.1391   -0.11222  -1.01469 
 H                     0.24073   0.50846   0.88371 
 H                    -0.21315   3.48367  -1.62848 
 H                     0.84327   2.28232  -2.56003 
 
 The following ModRedundant input section has been read:
 D       5       1       2       3 S  12 30.000                                
 
 NAtoms=     10 NQM=       10 NQMF=       0 NMMI=      0 NMMIF=      0
                NMic=       0 NMicF=      0.
                    Isotopes and Nuclear Properties:
 (Nuclear quadrupole moments (NQMom) in fm**2, nuclear magnetic moments (NMagM)
  in nuclear magnetons)

  Atom         1           2           3           4           5           6           7           8           9          10
 IAtWgt=          12          12          12          12           1           1           1           1           1           1
 AtmWgt=  12.0000000  12.0000000  12.0000000  12.0000000   1.0078250   1.0078250   1.0078250   1.0078250   1.0078250   1.0078250
 NucSpn=           0           0           0           0           1           1           1           1           1           1
 AtZEff=   0.0000000   0.0000000   0.0000000   0.0000000   0.0000000   0.0000000   0.0000000   0.0000000   0.0000000   0.0000000
 NQMom=    0.0000000   0.0000000   0.0000000   0.0000000   0.0000000   0.0000000   0.0000000   0.0000000   0.0000000   0.0000000
 NMagM=    0.0000000   0.0000000   0.0000000   0.0000000   2.7928460   2.7928460   2.7928460   2.7928460   2.7928460   2.7928460
 AtZNuc=   6.0000000   6.0000000   6.0000000   6.0000000   1.0000000   1.0000000   1.0000000   1.0000000   1.0000000   1.0000000
 Leave Link  101 at Sun Oct 23 07:25:02 2022, MaxMem=   939524096 cpu:         0.3
 (Enter /Local/ce_dana/g09/l103.exe)

 GradGradGradGradGradGradGradGradGradGradGradGradGradGradGradGradGradGrad
 Berny optimization.
 Initialization pass.
                           ----------------------------
                           !    Initial Parameters    !
                           ! (Angstroms and Degrees)  !
 --------------------------                            --------------------------
 ! Name  Definition              Value          Derivative Info.                !
 --------------------------------------------------------------------------------
 ! R1    R(1,2)                  1.5042         calculate D2E/DX2 analytically  !
 ! R2    R(1,5)                  1.0918         calculate D2E/DX2 analytically  !
 ! R3    R(1,6)                  1.0918         calculate D2E/DX2 analytically  !
 ! R4    R(1,7)                  1.0882         calculate D2E/DX2 analytically  !
 ! R5    R(2,3)                  1.3046         calculate D2E/DX2 analytically  !
 ! R6    R(2,8)                  1.0862         calculate D2E/DX2 analytically  !
 ! R7    R(3,4)                  1.305          calculate D2E/DX2 analytically  !
 ! R8    R(4,9)                  1.0832         calculate D2E/DX2 analytically  !
 ! R9    R(4,10)                 1.0832         calculate D2E/DX2 analytically  !
 ! A1    A(2,1,5)              110.6789         calculate D2E/DX2 analytically  !
 ! A2    A(2,1,6)              110.679          calculate D2E/DX2 analytically  !
 ! A3    A(2,1,7)              111.0792         calculate D2E/DX2 analytically  !
 ! A4    A(5,1,6)              107.2871         calculate D2E/DX2 analytically  !
 ! A5    A(5,1,7)              108.4985         calculate D2E/DX2 analytically  !
 ! A6    A(6,1,7)              108.4986         calculate D2E/DX2 analytically  !
 ! A7    A(1,2,3)              124.566          calculate D2E/DX2 analytically  !
 ! A8    A(1,2,8)              117.3011         calculate D2E/DX2 analytically  !
 ! A9    A(3,2,8)              118.1329         calculate D2E/DX2 analytically  !
 ! A10   A(3,4,9)              121.2908         calculate D2E/DX2 analytically  !
 ! A11   A(3,4,10)             121.2907         calculate D2E/DX2 analytically  !
 ! A12   A(9,4,10)             117.4183         calculate D2E/DX2 analytically  !
 ! A13   L(2,3,4,7,-1)         179.6302         calculate D2E/DX2 analytically  !
 ! A14   L(2,3,4,7,-2)         179.9999         calculate D2E/DX2 analytically  !
 ! D1    D(5,1,2,3)            120.5931         Scan                            !
 ! D2    D(5,1,2,8)            -59.4069         calculate D2E/DX2 analytically  !
 ! D3    D(6,1,2,3)           -120.5932         calculate D2E/DX2 analytically  !
 ! D4    D(6,1,2,8)             59.4068         calculate D2E/DX2 analytically  !
 ! D5    D(7,1,2,3)              0.0            calculate D2E/DX2 analytically  !
 ! D6    D(7,1,2,8)           -180.0            calculate D2E/DX2 analytically  !
 ! D7    D(1,2,4,9)             89.9724         calculate D2E/DX2 analytically  !
 ! D8    D(1,2,4,10)           -89.9725         calculate D2E/DX2 analytically  !
 ! D9    D(8,2,4,9)            -90.0275         calculate D2E/DX2 analytically  !
 ! D10   D(8,2,4,10)            90.0275         calculate D2E/DX2 analytically  !
 --------------------------------------------------------------------------------
 Trust Radius=5.00D-02 FncErr=1.00D-07 GrdErr=1.00D-07
 Number of optimizations in scan=  13
 Number of steps in this run=     43 maximum allowed number of steps=    100.
 GradGradGradGradGradGradGradGradGradGradGradGradGradGradGradGradGradGrad

 Leave Link  103 at Sun Oct 23 07:25:02 2022, MaxMem=   939524096 cpu:         0.0
 (Enter /Local/ce_dana/g09/l202.exe)
                          Input orientation:                          
 ---------------------------------------------------------------------
 Center     Atomic      Atomic             Coordinates (Angstroms)
 Number     Number       Type             X           Y           Z
 ---------------------------------------------------------------------
      1          6           0       -1.570045   -0.313834   -0.109346
      2          6           0       -0.398477    0.621651    0.012844
      3          6           0       -0.101550    1.552846   -0.851316
      4          6           0        0.188803    2.482049   -1.720360
      5          1           0       -1.233291   -1.352030   -0.135866
      6          1           0       -2.236795   -0.210860    0.749023
      7          1           0       -2.139103   -0.112217   -1.014694
      8          1           0        0.240726    0.508457    0.883706
      9          1           0       -0.213153    3.483674   -1.628477
     10          1           0        0.843271    2.282323   -2.560030
 ---------------------------------------------------------------------
                    Distance matrix (angstroms):
                    1          2          3          4          5
     1  C    0.000000
     2  C    1.504205   0.000000
     3  C    2.488271   1.304631   0.000000
     4  C    3.675034   2.609593   1.304975   0.000000
     5  H    1.091768   2.148126   3.198595   4.385560   0.000000
     6  H    1.091768   2.148126   3.198596   4.385560   1.758499
     7  H    1.088178   2.150390   2.636427   3.556308   1.769172
     8  H    2.222882   1.086183   2.053826   3.267862   2.583344
     9  H    4.309290   3.304460   2.084354   1.083173   5.162616
    10  H    4.309290   3.304459   2.084353   1.083173   4.837065
                    6          7          8          9         10
     6  H    0.000000
     7  H    1.769173   0.000000
     8  H    2.583344   3.106887   0.000000
     9  H    4.837067   4.125099   3.920330   0.000000
    10  H    5.162616   4.125099   3.920329   1.851234   0.000000
 Stoichiometry    C4H6
 Framework group  C1[X(C4H6)]
 Deg. of freedom    24
 Full point group                 C1      NOp   1
 Largest Abelian subgroup         C1      NOp   1
 Largest concise Abelian subgroup C1      NOp   1
                         Standard orientation:                         
 ---------------------------------------------------------------------
 Center     Atomic      Atomic             Coordinates (Angstroms)
 Number     Number       Type             X           Y           Z
 ---------------------------------------------------------------------
      1          6           0       -1.738186   -0.368609   -0.000000
      2          6           0       -0.557226    0.563040   -0.000000
      3          6           0        0.689299    0.178025    0.000000
      4          6           0        1.933642   -0.215131   -0.000000
      5          1           0       -2.362845   -0.199263    0.879250
      6          1           0       -2.362846   -0.199264   -0.879249
      7          1           0       -1.416578   -1.408176    0.000001
      8          1           0       -0.763894    1.629381   -0.000000
      9          1           0        2.470496   -0.383315   -0.925617
     10          1           0        2.470495   -0.383314    0.925617
 ---------------------------------------------------------------------
 Rotational constants (GHZ):     34.4044362      4.2138786      3.9467015
 Leave Link  202 at Sun Oct 23 07:25:02 2022, MaxMem=   939524096 cpu:         0.0
 (Enter /Local/ce_dana/g09/l301.exe)
 Standard basis: def2TZVP (5D, 7F)
 Ernie: Thresh=  0.10000D-02 Tol=  0.10000D-05 Strict=F.
 There are   180 symmetry adapted cartesian basis functions of A   symmetry.
 There are   160 symmetry adapted basis functions of A   symmetry.
   160 basis functions,   252 primitive gaussians,   180 cartesian basis functions
    15 alpha electrons       15 beta electrons
       nuclear repulsion energy       102.5909242129 Hartrees.
 IExCor=  419 DFT=T Ex+Corr=B2PLYPD3 ExCW=0 ScaHFX=  0.530000
 ScaDFX=  0.470000  0.470000  0.730000  0.730000 ScalE2=  0.270000  0.270000
 IRadAn=      5 IRanWt=     -1 IRanGd=            0 ICorTp=0 IEmpDi=141
 NAtoms=   10 NActive=   10 NUniq=   10 SFac= 1.00D+00 NAtFMM=   60 NAOKFM=F Big=F
 Integral buffers will be    131072 words long.
 Regular integral format.
 Two-electron integral symmetry is turned on.
 R6Disp:  Grimme-D3(BJ) Dispersion energy=       -0.0045175378 Hartrees.
 Nuclear repulsion after empirical dispersion term =      102.5864066751 Hartrees.
 Leave Link  301 at Sun Oct 23 07:25:02 2022, MaxMem=   939524096 cpu:         0.1
 (Enter /Local/ce_dana/g09/l302.exe)
 NPDir=0 NMtPBC=     1 NCelOv=     1 NCel=       1 NClECP=     1 NCelD=      1
         NCelK=      1 NCelE2=     1 NClLst=     1 CellRange=     0.0.
 One-electron integrals computed using PRISM.
   1 Symmetry operations used in ECPInt.
 ECPInt:  NShTT=    2346 NPrTT=    6892 LenC2=    2336 LenP2D=    5873.
 LDataN:  DoStor=T MaxTD1= 6 Len=  172
 NBasis=   160 RedAO= T EigKep=  5.91D-05  NBF=   160
 NBsUse=   160 1.00D-06 EigRej= -1.00D+00 NBFU=   160
 Precomputing XC quadrature grid using
 IXCGrd= 4 IRadAn=           5 IRanWt=          -1 IRanGd=           0 AccXCQ= 0.00D+00.
 Generated NRdTot=       0 NPtTot=           0 NUsed=           0 NTot=          32
 NSgBfM=   179   179   179   179   179 MxSgAt=    10 MxSgA2=    10.
 Leave Link  302 at Sun Oct 23 07:25:03 2022, MaxMem=   939524096 cpu:         1.8
 (Enter /Local/ce_dana/g09/l303.exe)
 DipDrv:  MaxL=1.
 Leave Link  303 at Sun Oct 23 07:25:03 2022, MaxMem=   939524096 cpu:         0.1
 (Enter /Local/ce_dana/g09/l401.exe)
 Initial guess from the checkpoint file:  "check.chk"
 B after Tr=    -0.000000   -0.000000   -0.000000
         Rot=   -0.000000    0.000000    1.000000   -0.000000 Ang= 180.00 deg.
 Guess basis will be translated and rotated to current coordinates.
 JPrj=2 DoOrth=T DoCkMO=T.
 Leave Link  401 at Sun Oct 23 07:25:03 2022, MaxMem=   939524096 cpu:         0.5
 (Enter /Local/ce_dana/g09/l502.exe)
 Closed shell SCF:
 Using DIIS extrapolation, IDIIS=  1040.
 Integral symmetry usage will be decided dynamically.
 Keep R1 ints in memory in canonical form, NReq=86024690.
 IVT=      106270 IEndB=      106270 NGot=   939524096 MDV=   856464187
 LenX=   856464187 LenY=   856431346
 Requested convergence on RMS density matrix=1.00D-08 within  64 cycles.
 Requested convergence on MAX density matrix=1.00D-06.
 Requested convergence on             energy=1.00D-06.
 No special actions if energy rises.
 FoFCou: FMM=F IPFlag=           0 FMFlag=           0 FMFlg1=           0
         NFxFlg=           0 DoJE=F BraDBF=F KetDBF=F FulRan=T
         wScrn=  0.000000 ICntrl=     600 IOpCl=  0 I1Cent=           0 NGrid=           0
         NMat0=    1 NMatS0=  12880 NMatT0=    0 NMatD0=    1 NMtDS0=    0 NMtDT0=    0
 Symmetry not used in FoFCou.

 Cycle   1  Pass 1  IDiag  1:
 E= -155.671947034975    
 DIIS: error= 5.74D-08 at cycle   1 NSaved=   1.
 NSaved= 1 IEnMin= 1 EnMin= -155.671947034975     IErMin= 1 ErrMin= 5.74D-08
 ErrMax= 5.74D-08  0.00D+00 EMaxC= 1.00D-01 BMatC= 9.39D-13 BMatP= 9.39D-13
 IDIUse=1 WtCom= 1.00D+00 WtEn= 0.00D+00
 Coeff-Com:  0.100D+01
 Coeff:      0.100D+01
 Gap=     0.362 Goal=   None    Shift=    0.000
 RMSDP=7.88D-09 MaxDP=1.48D-07              OVMax= 2.32D-07

 SCF Done:  E(RB2PLYPD3) =  -155.671947035     A.U. after    1 cycles
            NFock=  1  Conv=0.79D-08     -V/T= 2.0038
 KE= 1.550837660695D+02 PE=-5.660172345481D+02 EE= 1.526751147685D+02
 Leave Link  502 at Sun Oct 23 07:25:08 2022, MaxMem=   939524096 cpu:        14.8
 (Enter /Local/ce_dana/g09/l508.exe)
 QCSCF skips out because SCF is already converged.
 Leave Link  508 at Sun Oct 23 07:25:09 2022, MaxMem=   939524096 cpu:         0.0
 (Enter /Local/ce_dana/g09/l801.exe)
 DoSCS=T DFT=T ScalE2(SS,OS)=  0.270000  0.270000
 ExpMin= 9.52D-02 ExpMax= 1.36D+04 ExpMxC= 4.63D+02 IAcc=3 IRadAn=         5 AccDes= 0.00D+00
 HarFok:  IExCor=  205 AccDes= 0.00D+00 IRadAn=         5 IDoV=-2 UseB2=F ITyADJ=14
 ICtDFT= 12500011 ScaDFX=  1.000000  1.000000  1.000000  1.000000
 Largest valence mixing into a core orbital is  8.96D-05
 Largest core mixing into a valence orbital is  2.30D-05
 Range of M.O.s used for correlation:     5   160
 NBasis=   160 NAE=    15 NBE=    15 NFC=     4 NFV=     0
 NROrb=    156 NOA=    11 NOB=    11 NVA=   145 NVB=   145

 **** Warning!!: The largest alpha MO coefficient is  0.39223205D+02

 Leave Link  801 at Sun Oct 23 07:25:09 2022, MaxMem=   939524096 cpu:         1.3
 (Enter /Local/ce_dana/g09/l906.exe)
 DoSCS=T DFT=T ScalE2(SS,OS)=  0.270000  0.270000
 Frozen-core derivative calculation, NFC=   4 NFV=   0.
 FulOut=F Deriv=T AODrv=T NAtomX=    10
   MMem=           0  MDisk=          11 MDiskD=          11
  W3Min=      432000 MinDsk=     1786190 NBas6D=         180
 NBas2D=       16644    NTT=       16290    LW2=     7400000
    MDV=   939189972 MDiskM=       26033 NBas2p=       16623
 Disk-based method using ON**2 memory for 11 occupieds at a time.
 Permanent disk used for amplitudes=     5826825 words.
 Estimated scratch disk usage=   117219240 words.
 IMap=   1   2   3   4   5   6   7   8   9  10  11  12  13  14  15
 Actual    scratch disk usage=   113302440 words.
 JobTyp=1 Pass  1:  I=   5 to  15 NPSUse= 10 ParTrn=T ParDer=T DoDerP=T.
 (rs|ai) integrals will be sorted in core.
 Spin components of T(2) and E(2):
     alpha-alpha T2 =       0.4132396747D-01 E2=     -0.2454012449D-01
     alpha-beta  T2 =       0.2595204524D+00 E2=     -0.1603128643D+00
     beta-beta   T2 =       0.4132396747D-01 E2=     -0.2454012449D-01
 The integrals were generated   1 times.
 E2(B2PLYPD3) =    -0.2093931133D+00 E(B2PLYPD3) =    -0.15588134014829D+03
 Leave Link  906 at Sun Oct 23 07:26:35 2022, MaxMem=   939524096 cpu:       682.8
 (Enter /Local/ce_dana/g09/l1101.exe)
 Using compressed Sx but separate Hx and Fx, NAtomX=    10.
 Will process     11 centers per pass.
   1 Symmetry operations used in ECPInt.
 ECPInt:  NShTT=    2346 NPrTT=    6892 LenC2=    2336 LenP2D=    5873.
 LDataN:  DoStor=T MaxTD1= 7 Len=  274
 R6Disp: Adding Grimme-D3(BJ) dispersion energy 1st derivatives to the gradient.
 Leave Link 1101 at Sun Oct 23 07:26:37 2022, MaxMem=   939524096 cpu:         4.4
 (Enter /Local/ce_dana/g09/l1102.exe)
 Leave Link 1102 at Sun Oct 23 07:26:39 2022, MaxMem=   939524096 cpu:         0.1
 (Enter /Local/ce_dana/g09/l1110.exe)
 Forming Gx(P) for the SCF density, NAtomX=    10.
 Integral derivatives from FoFJK, PRISM(SPDF).
 Do as many integral derivatives as possible in FoFJK.
 G2DrvN: MDV=     939523912.
 G2DrvN: will do    11 centers at a time, making    1 passes.
 Calling FoFCou, ICntrl=  3107 FMM=F I1Cent=   0 AccDes= 1.00D-12.
 FoFJK:  IHMeth= 1 ICntrl=    3107 DoSepK=F KAlg= 0 I1Cent=   0 FoldK=F
 IRaf=         0 NMat=   1 IRICut=       1 DoRegI=T DoRafI=F ISym2E= 0.
 FoFCou: FMM=F IPFlag=           0 FMFlag=      100000 FMFlg1=           0
         NFxFlg=           0 DoJE=F BraDBF=F KetDBF=F FulRan=T
         wScrn=  0.000000 ICntrl=    3107 IOpCl=  0 I1Cent=           0 NGrid=           0
         NMat0=    1 NMatS0=      1 NMatT0=    0 NMatD0=    1 NMtDS0=    0 NMtDT0=    0
 Symmetry not used in FoFCou.
 End of G2Drv F.D. properties file   721 does not exist.
 End of G2Drv F.D. properties file   722 does not exist.
 End of G2Drv F.D. properties file   788 does not exist.
 Leave Link 1110 at Sun Oct 23 07:26:58 2022, MaxMem=   939524096 cpu:       164.4
 (Enter /Local/ce_dana/g09/l1002.exe)
 Minotr:  Closed shell wavefunction.
          IDoAtm=1111111111
          Frozen-core window.
          Direct CPHF calculation.
          Differentiating once with respect to electric field.
                with respect to dipole field.
          Differentiating once with respect to nuclear coordinates.
          Requested convergence is 1.0D-08 RMS, and 1.0D-07 maximum.
          Secondary convergence is 1.0D-12 RMS, and 1.0D-12 maximum.
          NewPWx=T KeepS1=T KeepF1=T KeepIn=T MapXYZ=F SortEE=F KeepMc=T.
          MDV=     939523836 using IRadAn=       1.
 Generate precomputed XC quadrature information.
 Keep R1 ints in memory in canonical form, NReq=85922921.
 FoFCou: FMM=F IPFlag=           0 FMFlag=           0 FMFlg1=           0
         NFxFlg=           0 DoJE=F BraDBF=F KetDBF=F FulRan=T
         wScrn=  0.000000 ICntrl=     600 IOpCl=  0 I1Cent=           0 NGrid=           0
         NMat0=    1 NMatS0=  12880 NMatT0=    0 NMatD0=    1 NMtDS0=    0 NMtDT0=    0
 Symmetry not used in FoFCou.
          Solving linear equations simultaneously, MaxMat=       0.
          There are    33 degrees of freedom in the 1st order CPHF.  IDoFFX=6 NUNeed=    33.
     30 vectors produced by pass  0 Test12= 6.59D-15 3.03D-09 XBig12= 4.53D+01 4.37D+00.
 AX will form    30 AO Fock derivatives at one time.
     30 vectors produced by pass  1 Test12= 6.59D-15 3.03D-09 XBig12= 2.25D+00 2.51D-01.
     30 vectors produced by pass  2 Test12= 6.59D-15 3.03D-09 XBig12= 2.43D-02 6.03D-02.
     30 vectors produced by pass  3 Test12= 6.59D-15 3.03D-09 XBig12= 1.26D-04 2.75D-03.
     30 vectors produced by pass  4 Test12= 6.59D-15 3.03D-09 XBig12= 6.32D-07 1.41D-04.
     30 vectors produced by pass  5 Test12= 6.59D-15 3.03D-09 XBig12= 1.32D-09 5.82D-06.
     13 vectors produced by pass  6 Test12= 6.59D-15 3.03D-09 XBig12= 2.82D-12 3.02D-07.
      3 vectors produced by pass  7 Test12= 6.59D-15 3.03D-09 XBig12= 7.92D-15 1.39D-08.
 InvSVY:  IOpt=1 It=  1 EMax= 3.55D-15
 Solved reduced A of dimension   196 with    33 vectors.
 FullF1:  Do perturbations    1 to    33.
 Saving first derivative matrices.
 End of Minotr F.D. properties file   721 does not exist.
 End of Minotr F.D. properties file   722 does not exist.
 End of Minotr F.D. properties file   788 does not exist.
 Leave Link 1002 at Sun Oct 23 07:27:32 2022, MaxMem=   939524096 cpu:       233.0
 (Enter /Local/ce_dana/g09/l811.exe)
 MDV=   939524096.
 DoSCS=T DFT=T ScalE2(SS,OS)=  0.270000  0.270000
 Form MO integral derivatives with frozen-active canonical formalism.
 MOERI=1 MOERIx=1 NAtoms=    10 NAtomX=    10.
 Discarding MO integrals.
 MO basis two electron integral derivatives will not be stored on disk.
 IAlg= 3 DoFC=T DoPWx=T Debug=F.
 Frozen-core window:  NFC=   4 NFV=   0.
 Reordered first order wavefunction length =      9461250
 In DefCFB: NBatch=  1 ICI= 15 ICA=145 LFMax= 49
            Large arrays: LIAPS=   250560000 LIARS=    98658000 words.
 In StABat: MaxSiz= 36 MinSiz= 36 NAtomB=  5
 DoIAMN: NPSUse= 10.
 Leave Link  811 at Sun Oct 23 07:29:54 2022, MaxMem=   939524096 cpu:       669.0
 (Enter /Local/ce_dana/g09/l804.exe)
 Frozen-core window:  NFC=   4 NFV=   0.
 Closed-shell transformation, MDV=   939524096 ITran=4 ISComp=1.
 Semi-Direct transformation.
 ModeAB=           2 MOrb=            15 LenV=     938555053
 LASXX=     28767765 LTotXX=    28767765 LenRXX=    28767765
 LTotAB=    29298600 MaxLAS=    39096000 LenRXY=    39096000
 NonZer=    57535530 LenScr=    87073280 LnRSAI=           0
 LnScr1=           0 LExtra=           0 Total=    154937045
 MaxDsk=          -1 SrtSym=           F ITran=            4
 DoSDTr:  NPSUse= 10
 JobTyp=0 Pass  1:  I=   1 to  15.
 (rs|ai) integrals will be sorted in core.
 Complete sort for first half transformation.
 First half transformation complete.
 Begin second half transformation for I=  10.
 Begin second half transformation for I=  10.
 Complete sort for second half transformation.
 Second half transformation complete.
 SymMOI:  orbitals are not symmetric.
 DoSCS=T DFT=T ScalE2(SS,OS)=  0.270000  0.270000
 Spin components of T(2) and E(2):
     alpha-alpha T2 =       0.4132396747D-01 E2=     -0.2454012449D-01
     alpha-beta  T2 =       0.2595204524D+00 E2=     -0.1603128643D+00
     beta-beta   T2 =       0.4132396747D-01 E2=     -0.2454012449D-01
 E2(B2PLYPD3) =    -0.2093931133D+00 E(B2PLYPD3) =    -0.15588134014829D+03
 Leave Link  804 at Sun Oct 23 07:30:45 2022, MaxMem=   939524096 cpu:        77.7
 (Enter /Local/ce_dana/g09/l1002.exe)
 Minotr:  Closed shell wavefunction.
          Computing MP2/KS-MP2 derivatives.
          Using Z-Vector for PSCF gradient.
          Skipping F1 and S1 gradient terms here.
          IDoAtm=1111111111
          Frozen-core window.
          Direct CPHF calculation.
          Differentiating once with respect to electric field.
                with respect to dipole field.
          Differentiating once with respect to nuclear coordinates.
          Requested convergence is 1.0D-10 RMS, and 1.0D-09 maximum.
          NewPWx=T KeepS1=F KeepF1=F KeepIn=T MapXYZ=F SortEE=F KeepMc=T.
          MDV=     939523836 using IRadAn=       5.
 Using stored XC quadrature information.
 Keep R1 ints in memory in canonical form, NReq=85919961.
 FoFCou: FMM=F IPFlag=           0 FMFlag=           0 FMFlg1=           0
         NFxFlg=           0 DoJE=F BraDBF=F KetDBF=F FulRan=T
         wScrn=  0.000000 ICntrl=     600 IOpCl=  0 I1Cent=           0 NGrid=           0
         NMat0=    1 NMatS0=  12880 NMatT0=    0 NMatD0=    1 NMtDS0=    0 NMtDT0=    0
 Symmetry not used in FoFCou.
          Solving linear equations separately, MaxMat=       0.
          There are     1 degrees of freedom in the 1st order CPHF.  IDoFFX=0 NUNeed=     1.
 LinEq1:  Iter=  0 NonCon=     1 RMS=1.68D-03 Max=2.16D-02 NDo=     1
 AX will form     1 AO Fock derivatives at one time.
 LinEq1:  Iter=  1 NonCon=     1 RMS=6.67D-04 Max=8.08D-03 NDo=     1
 LinEq1:  Iter=  2 NonCon=     1 RMS=1.88D-04 Max=3.54D-03 NDo=     1
 LinEq1:  Iter=  3 NonCon=     1 RMS=1.11D-04 Max=1.96D-03 NDo=     1
 LinEq1:  Iter=  4 NonCon=     1 RMS=2.12D-05 Max=3.18D-04 NDo=     1
 LinEq1:  Iter=  5 NonCon=     1 RMS=6.70D-06 Max=6.32D-05 NDo=     1
 LinEq1:  Iter=  6 NonCon=     1 RMS=3.35D-06 Max=1.01D-04 NDo=     1
 LinEq1:  Iter=  7 NonCon=     1 RMS=1.16D-06 Max=1.35D-05 NDo=     1
 LinEq1:  Iter=  8 NonCon=     1 RMS=6.21D-07 Max=1.12D-05 NDo=     1
 LinEq1:  Iter=  9 NonCon=     1 RMS=1.92D-07 Max=1.60D-06 NDo=     1
 LinEq1:  Iter= 10 NonCon=     1 RMS=2.84D-08 Max=2.40D-07 NDo=     1
 LinEq1:  Iter= 11 NonCon=     1 RMS=5.38D-09 Max=5.31D-08 NDo=     1
 LinEq1:  Iter= 12 NonCon=     1 RMS=6.72D-10 Max=1.08D-08 NDo=     1
 LinEq1:  Iter= 13 NonCon=     1 RMS=1.20D-10 Max=1.55D-09 NDo=     1
 LinEq1:  Iter= 14 NonCon=     0 RMS=2.31D-11 Max=2.84D-10 NDo=     1
 Linear equations converged to 1.000D-10 1.000D-09 after    14 iterations.
 End of Minotr F.D. properties file   721 does not exist.
 End of Minotr F.D. properties file   722 does not exist.
 End of Minotr F.D. properties file   788 does not exist.
 Leave Link 1002 at Sun Oct 23 07:31:14 2022, MaxMem=   939524096 cpu:       148.1
 (Enter /Local/ce_dana/g09/l1102.exe)
 Use density number 2.
 Symmetrizing basis deriv contribution to polar:
 IMax=3 JMax=2 DiffMx= 0.00D+00
 Leave Link 1102 at Sun Oct 23 07:31:14 2022, MaxMem=   939524096 cpu:         0.1
 (Enter /Local/ce_dana/g09/l1110.exe)
 Forming Gx(P) for generalized density number  2 NAtomX=    10.
 Integral derivatives from FoFJK, PRISM(SPDF).
 Do as many integral derivatives as possible in FoFJK.
 G2DrvN: MDV=     939523912.
 G2DrvN: will do    11 centers at a time, making    1 passes.
 Calling FoFCou, ICntrl=  3107 FMM=F I1Cent=   0 AccDes= 1.00D-12.
 FoFJK:  IHMeth= 1 ICntrl=    3107 DoSepK=F KAlg= 0 I1Cent=   0 FoldK=F
 IRaf=         0 NMat=   1 IRICut=       1 DoRegI=T DoRafI=F ISym2E= 0.
 FoFCou: FMM=F IPFlag=           0 FMFlag=      100000 FMFlg1=           0
         NFxFlg=           0 DoJE=F BraDBF=F KetDBF=F FulRan=T
         wScrn=  0.000000 ICntrl=    3107 IOpCl=  0 I1Cent=           0 NGrid=           0
         NMat0=    1 NMatS0=      1 NMatT0=    0 NMatD0=    1 NMtDS0=    0 NMtDT0=    0
 Symmetry not used in FoFCou.
 End of G2Drv F.D. properties file   721 does not exist.
 End of G2Drv F.D. properties file   722 does not exist.
 End of G2Drv F.D. properties file   788 does not exist.
 Leave Link 1110 at Sun Oct 23 07:31:36 2022, MaxMem=   939524096 cpu:       177.2
 (Enter /Local/ce_dana/g09/l1112.exe)
 MP22nd: MDV=     939524096
 DoSCS=T DFT=T ScalE2(SS,OS)=  0.270000  0.270000
 Using stored XC quadrature information.
 This link is doing NAtomX=    10 total of    33 degrees of freedom.
 Using ON3 I/O method in MakUI.
 Frozen-core window:  NFC=   4 NFV=   0.
 Using Ix for Sx.
 Use MO integrals over full window.
 Using OV2 memory method for fx*t*t/D, MaxI=    15 DoOO2=F NP=  10.
 R2 and R3 integrals will be kept in memory, NReq=   268345170.
 FoFCou: FMM=F IPFlag=           0 FMFlag=           0 FMFlg1=           0
         NFxFlg=           0 DoJE=F BraDBF=F KetDBF=F FulRan=T
         wScrn=  0.000000 ICntrl=     600 IOpCl=  0 I1Cent=           0 NGrid=           0
         NMat0=    1 NMatS0=      1 NMatT0=    0 NMatD0=    1 NMtDS0=    0 NMtDT0=    0
 Symmetry not used in FoFCou.
 DD1Dir will call FoFMem   1 times, MxPair=       346
 NAB=   120 NAA=   105 NBB=     0.
 Symmetry is being used.
 FoFJK:  IHMeth= 1 ICntrl=       0 DoSepK=F KAlg= 0 I1Cent=   0 FoldK=F
 IRaf=         0 NMat=  33 IRICut=      82 DoRegI=T DoRafI=T ISym2E= 2.
 R6Disp: Adding Grimme-D3(BJ) dispersion energy 1st derivatives to the gradient.
 Discarding MO integrals.
 Leave Link 1112 at Sun Oct 23 07:35:33 2022, MaxMem=   939524096 cpu:       680.6
 (Enter /Local/ce_dana/g09/l601.exe)
 Copying SCF densities to generalized density rwf, IOpCl= 0 IROHF=0.

 **********************************************************************

            Population analysis using the SCF density.

 **********************************************************************

 Orbital symmetries:
       Occupied  (A) (A) (A) (A) (A) (A) (A) (A) (A) (A) (A) (A)
                 (A) (A) (A)
       Virtual   (A) (A) (A) (A) (A) (A) (A) (A) (A) (A) (A) (A)
                 (A) (A) (A) (A) (A) (A) (A) (A) (A) (A) (A) (A)
                 (A) (A) (A) (A) (A) (A) (A) (A) (A) (A) (A) (A)
                 (A) (A) (A) (A) (A) (A) (A) (A) (A) (A) (A) (A)
                 (A) (A) (A) (A) (A) (A) (A) (A) (A) (A) (A) (A)
                 (A) (A) (A) (A) (A) (A) (A) (A) (A) (A) (A) (A)
                 (A) (A) (A) (A) (A) (A) (A) (A) (A) (A) (A) (A)
                 (A) (A) (A) (A) (A) (A) (A) (A) (A) (A) (A) (A)
                 (A) (A) (A) (A) (A) (A) (A) (A) (A) (A) (A) (A)
                 (A) (A) (A) (A) (A) (A) (A) (A) (A) (A) (A) (A)
                 (A) (A) (A) (A) (A) (A) (A) (A) (A) (A) (A) (A)
                 (A) (A) (A) (A) (A) (A) (A) (A) (A) (A) (A) (A)
                 (A)
 The electronic state is 1-A.
 Alpha  occ. eigenvalues --  -10.63031 -10.62414 -10.61588 -10.61363  -0.92242
 Alpha  occ. eigenvalues --   -0.84775  -0.75440  -0.59450  -0.53937  -0.51213
 Alpha  occ. eigenvalues --   -0.48400  -0.48047  -0.44187  -0.31220  -0.30003
 Alpha virt. eigenvalues --    0.06213   0.07667   0.10082   0.12037   0.13270
 Alpha virt. eigenvalues --    0.15754   0.16111   0.17109   0.19670   0.21968
 Alpha virt. eigenvalues --    0.24079   0.26108   0.26425   0.29153   0.30059
 Alpha virt. eigenvalues --    0.31241   0.33963   0.39925   0.42698   0.42913
 Alpha virt. eigenvalues --    0.45983   0.48712   0.51687   0.51904   0.52527
 Alpha virt. eigenvalues --    0.53174   0.54488   0.57268   0.59000   0.59200
 Alpha virt. eigenvalues --    0.62515   0.63264   0.67815   0.74136   0.76401
 Alpha virt. eigenvalues --    0.86495   0.87588   0.92224   0.95852   0.99272
 Alpha virt. eigenvalues --    1.02341   1.04848   1.04871   1.10567   1.14276
 Alpha virt. eigenvalues --    1.15714   1.24242   1.24536   1.29800   1.30857
 Alpha virt. eigenvalues --    1.40495   1.50048   1.53048   1.56797   1.59697
 Alpha virt. eigenvalues --    1.60941   1.64429   1.65098   1.66096   1.68405
 Alpha virt. eigenvalues --    1.70826   1.72831   1.77124   1.78817   1.86848
 Alpha virt. eigenvalues --    1.87900   1.92607   1.93326   1.94211   2.05560
 Alpha virt. eigenvalues --    2.05562   2.14430   2.21270   2.24726   2.27796
 Alpha virt. eigenvalues --    2.29065   2.29766   2.43922   2.46157   2.49875
 Alpha virt. eigenvalues --    2.51593   2.53243   2.59937   2.63413   2.63447
 Alpha virt. eigenvalues --    2.65518   2.67778   2.70442   2.73787   2.77017
 Alpha virt. eigenvalues --    2.77242   2.88414   2.88929   2.91919   2.96857
 Alpha virt. eigenvalues --    2.98098   3.03544   3.04057   3.06131   3.12554
 Alpha virt. eigenvalues --    3.14973   3.17145   3.18336   3.20405   3.22057
 Alpha virt. eigenvalues --    3.24717   3.27363   3.31881   3.32485   3.36913
 Alpha virt. eigenvalues --    3.36973   3.42815   3.44934   3.46317   3.50694
 Alpha virt. eigenvalues --    3.60930   3.62308   3.64306   3.66393   3.76175
 Alpha virt. eigenvalues --    3.86582   3.87115   3.93019   4.02639   4.06459
 Alpha virt. eigenvalues --    4.12598   4.20276   4.24621   4.35489   4.40343
 Alpha virt. eigenvalues --    4.50006   4.54353   4.66297   4.66819   4.81317
 Alpha virt. eigenvalues --    4.83934   4.93471   5.12050   5.22880   5.30092
 Alpha virt. eigenvalues --    5.44496  22.72344  22.92490  23.08672  23.89320
          Condensed to atoms (all electrons):
               1          2          3          4          5          6
     1  C    4.863770   0.294311  -0.057699  -0.004785   0.409841   0.409841
     2  C    0.294311   4.966678   0.730588  -0.077770  -0.035344  -0.035344
     3  C   -0.057699   0.730588   4.757999   0.671250  -0.006277  -0.006277
     4  C   -0.004785  -0.077770   0.671250   4.884620   0.000014   0.000014
     5  H    0.409841  -0.035344  -0.006277   0.000014   0.577806  -0.038107
     6  H    0.409841  -0.035344  -0.006277   0.000014  -0.038107   0.577806
     7  H    0.415273  -0.065920   0.021834   0.006444  -0.020735  -0.020735
     8  H   -0.053806   0.387114  -0.021347   0.001508  -0.000260  -0.000260
     9  H    0.000026  -0.002609  -0.041317   0.406486  -0.000077   0.000165
    10  H    0.000026  -0.002609  -0.041317   0.406486   0.000165  -0.000077
               7          8          9         10
     1  C    0.415273  -0.053806   0.000026   0.000026
     2  C   -0.065920   0.387114  -0.002609  -0.002609
     3  C    0.021834  -0.021347  -0.041317  -0.041317
     4  C    0.006444   0.001508   0.406486   0.406486
     5  H   -0.020735  -0.000260  -0.000077   0.000165
     6  H   -0.020735  -0.000260   0.000165  -0.000077
     7  H    0.541373   0.005208  -0.000045  -0.000045
     8  H    0.005208   0.557596  -0.000112  -0.000112
     9  H   -0.000045  -0.000112   0.539665  -0.037093
    10  H   -0.000045  -0.000112  -0.037093   0.539665
 Mulliken charges:
               1
     1  C   -0.276797
     2  C   -0.159095
     3  C   -0.007436
     4  C   -0.294268
     5  H    0.112974
     6  H    0.112974
     7  H    0.117349
     8  H    0.124471
     9  H    0.134914
    10  H    0.134914
 Sum of Mulliken charges =   0.00000
 Mulliken charges with hydrogens summed into heavy atoms:
               1
     1  C    0.066501
     2  C   -0.034624
     3  C   -0.007436
     4  C   -0.024440
 APT charges:
               1
     1  C    0.083640
     2  C   -0.049622
     3  C    0.063479
     4  C   -0.162911
     5  H   -0.021877
     6  H   -0.021877
     7  H    0.000897
     8  H    0.020352
     9  H    0.043959
    10  H    0.043959
 Sum of APT charges =   0.00000
 APT charges with hydrogens summed into heavy atoms:
               1
     1  C    0.040783
     2  C   -0.029270
     3  C    0.063479
     4  C   -0.074992
 Electronic spatial extent (au):  <R**2>=            350.8877
 Charge=             -0.0000 electrons
 Dipole moment (field-independent basis, Debye):
    X=             -0.4477    Y=             -0.0512    Z=              0.0000  Tot=              0.4506
 Quadrupole moment (field-independent basis, Debye-Ang):
   XX=            -22.8874   YY=            -25.9805   ZZ=            -25.8902
   XY=             -1.2521   XZ=             -0.0000   YZ=              0.0000
 Traceless Quadrupole moment (field-independent basis, Debye-Ang):
   XX=              2.0319   YY=             -1.0611   ZZ=             -0.9708
   XY=             -1.2521   XZ=             -0.0000   YZ=              0.0000
 Octapole moment (field-independent basis, Debye-Ang**2):
  XXX=              2.4067  YYY=              1.7258  ZZZ=              0.0000  XYY=             -3.5449
  XXY=             -2.2274  XXZ=             -0.0000  XZZ=              1.0137  YZZ=             -1.0386
  YYZ=             -0.0000  XYZ=              0.0000
 Hexadecapole moment (field-independent basis, Debye-Ang**3):
 XXXX=           -370.7770 YYYY=            -65.3179 ZZZZ=            -43.1733 XXXY=             -9.2302
 XXXZ=             -0.0000 YYYX=             -1.0991 YYYZ=             -0.0000 ZZZX=              0.0000
 ZZZY=              0.0000 XXYY=            -80.1139 XXZZ=            -62.5729 YYZZ=            -20.2303
 XXYZ=              0.0000 YYXZ=             -0.0000 ZZXY=             -1.6713
 N-N= 1.025864066751D+02 E-N=-5.660172351023D+02  KE= 1.550837660695D+02
  Exact polarizability:  77.376  -7.324  38.980   0.000  -0.000  35.254
 Approx polarizability:  82.235 -11.240  45.439   0.000  -0.000  41.324
 No NMR shielding tensors so no spin-rotation constants.
 Leave Link  601 at Sun Oct 23 07:35:34 2022, MaxMem=   939524096 cpu:         1.4
 (Enter /Local/ce_dana/g09/l701.exe)
 Compute integral second derivatives.
 ... and contract with generalized density number  2.
 R6Disp: Adding Grimme-D3(BJ) dispersion energy 2nd derivatives to the Hessian.
   1 Symmetry operations used in ECPInt.
 ECPInt:  NShTT=    2346 NPrTT=    6892 LenC2=    2336 LenP2D=    5873.
 LDataN:  DoStor=T MaxTD1= 8 Len=  415
 Leave Link  701 at Sun Oct 23 07:35:34 2022, MaxMem=   939524096 cpu:         4.8
 (Enter /Local/ce_dana/g09/l702.exe)
 L702 exits ... SP integral derivatives will be done elsewhere.
 Leave Link  702 at Sun Oct 23 07:35:34 2022, MaxMem=   939524096 cpu:         0.0
 (Enter /Local/ce_dana/g09/l703.exe)
 Compute integral second derivatives, UseDBF=F ICtDFT=           0.
 Integral derivatives from FoFJK, PRISM(SPDF).
 Calling FoFJK, ICntrl=  10100127 FMM=F ISym2X=0 I1Cent= 0 IOpClX= 0 NMat=1 NMatS=1 NMatT=0.
 FoFJK:  IHMeth= 1 ICntrl=10100127 DoSepK=F KAlg= 0 I1Cent=   0 FoldK=F
 IRaf=         0 NMat=   1 IRICut=       1 DoRegI=T DoRafI=F ISym2E= 0.
 FoFCou: FMM=F IPFlag=           0 FMFlag=      100000 FMFlg1=         800
         NFxFlg=           0 DoJE=F BraDBF=F KetDBF=F FulRan=T
         wScrn=  0.000000 ICntrl=10100127 IOpCl=  0 I1Cent=           0 NGrid=           0
         NMat0=    1 NMatS0=      1 NMatT0=    0 NMatD0=    1 NMtDS0=    0 NMtDT0=    0
 Symmetry not used in FoFCou.
 Leave Link  703 at Sun Oct 23 07:36:13 2022, MaxMem=   939524096 cpu:       381.5
 (Enter /Local/ce_dana/g09/l716.exe)
 Dipole        =-1.67674308D-01-2.21068511D-02 7.22311414D-08
 Polarizability= 7.73756484D+01-7.32380114D+00 3.89799111D+01
                 1.95252109D-06-4.87622867D-07 3.52544523D+01
 ***** Axes restored to original set *****
 -------------------------------------------------------------------
 Center     Atomic                   Forces (Hartrees/Bohr)
 Number     Number              X              Y              Z
 -------------------------------------------------------------------
      1        6           0.000000500    0.000000005   -0.000000195
      2        6          -0.000000657    0.000000175   -0.000000963
      3        6          -0.000000186   -0.000000430    0.000000780
      4        6           0.000000374    0.000000058   -0.000000498
      5        1          -0.000000100    0.000000003    0.000000033
      6        1          -0.000000181    0.000000004    0.000000143
      7        1          -0.000000021    0.000000135   -0.000000065
      8        1           0.000000343   -0.000000071    0.000000491
      9        1           0.000000027    0.000000006    0.000000103
     10        1          -0.000000099    0.000000116    0.000000172
 -------------------------------------------------------------------
 Cartesian Forces:  Max     0.000000963 RMS     0.000000337
 Force constants in Cartesian coordinates: 
                1             2             3             4             5 
      1  0.507279D+00
      2 -0.379213D-01  0.519078D+00
      3  0.118391D-01 -0.160712D-01  0.574116D+00
      4 -0.157671D+00 -0.682746D-01 -0.170815D-01  0.406743D+00
      5 -0.673473D-01 -0.120906D+00 -0.423619D-02  0.181752D+00  0.515665D+00
      6 -0.182773D-01 -0.528774D-02 -0.788760D-01  0.829945D-01 -0.295279D+00
      7 -0.596796D-02 -0.209910D-01  0.186305D-01 -0.965602D-01 -0.980315D-01
      8 -0.127993D-01 -0.217791D-01  0.154731D-01 -0.988972D-01 -0.325382D+00
      9  0.806631D-02  0.618335D-02  0.264767D-02  0.627381D-01  0.257612D+00
     10  0.233612D-02 -0.180625D-02 -0.211849D-02  0.653039D-02 -0.322334D-02
     11  0.824241D-03  0.520201D-02  0.229687D-02 -0.306234D-02 -0.742801D-02
     12 -0.551082D-02 -0.686223D-03  0.893702D-03  0.464291D-02  0.135569D-01
     13 -0.728330D-01  0.808665D-01 -0.160009D-03  0.683715D-02 -0.296195D-01
     14  0.829767D-01 -0.281260D+00 -0.645721D-02  0.183862D-02 -0.202675D-01
     15 -0.494468D-03 -0.694261D-02 -0.477140D-01  0.191687D-02 -0.686902D-03
     16 -0.142401D+00  0.185144D-01  0.124875D+00 -0.163023D-01 -0.168342D-02
     17  0.179701D-01 -0.464655D-01 -0.215622D-01 -0.163228D-01 -0.145930D-02
     18  0.123190D+00 -0.228526D-01 -0.212941D+00 -0.222618D-02  0.259405D-02
     19 -0.119550D+00  0.270477D-01 -0.115591D+00 -0.151206D-01  0.445537D-02
     20  0.289150D-01 -0.583943D-01  0.457052D-01 -0.123615D-01  0.287313D-02
     21 -0.117999D+00  0.435877D-01 -0.238409D+00 -0.181834D-03  0.182934D-03
     22 -0.112203D-01  0.203692D-02 -0.199799D-01 -0.140095D+00  0.109894D-01
     23 -0.126102D-01  0.491443D-02 -0.153747D-01  0.119688D-01 -0.457019D-01
     24 -0.109065D-02  0.123583D-02  0.125094D-02 -0.135607D+00  0.273888D-01
     25  0.342573D-02 -0.339975D-02 -0.317100D-02  0.208641D-02  0.755784D-03
     26  0.690634D-03 -0.123071D-02 -0.549732D-03  0.191004D-02  0.266928D-02
     27  0.278852D-02 -0.278754D-02 -0.285994D-02  0.153083D-02  0.549971D-03
     28 -0.339777D-02  0.392726D-02  0.275736D-02  0.355217D-02  0.195281D-02
     29 -0.698606D-03  0.841033D-03  0.776046D-03  0.144912D-02 -0.633281D-04
     30 -0.251159D-02  0.362113D-02  0.189182D-02  0.127316D-02 -0.168234D-02
                6             7             8             9            10 
      6  0.601791D+00
      7  0.616218D-01  0.175611D+00
      8  0.256631D+00  0.194808D+00  0.711521D+00
      9 -0.300492D+00 -0.173107D+00 -0.559037D+00  0.631358D+00
     10  0.485049D-02 -0.824398D-01 -0.727287D-01  0.964160D-01  0.293082D+00
     11  0.137394D-01 -0.731511D-01 -0.343512D+00  0.250743D+00 -0.641148D-01
     12 -0.629923D-02  0.969607D-01  0.251222D+00 -0.298776D+00 -0.260126D+00
     13  0.872526D-03 -0.123546D-02 -0.142890D-02 -0.232551D-02 -0.916785D-03
     14  0.204569D-02 -0.150867D-02 -0.222915D-03 -0.281971D-02 -0.586394D-03
     15  0.685995D-04  0.153326D-03  0.324195D-04 -0.726533D-04 -0.730967D-04
     16  0.205080D-01 -0.267578D-02  0.737660D-03 -0.186910D-02  0.683538D-03
     17  0.189347D-01 -0.247995D-02  0.280419D-03 -0.103794D-02  0.575379D-03
     18  0.439991D-02 -0.955861D-04 -0.150700D-03  0.864319D-03  0.411128D-03
     19 -0.218692D-01  0.133319D-02  0.213470D-02 -0.105874D-02  0.850583D-04
     20 -0.188881D-01  0.553477D-03  0.160603D-02 -0.165081D-02  0.245831D-03
     21 -0.134503D-02  0.980433D-03  0.142360D-03  0.767505D-03 -0.153447D-04
     22 -0.134344D+00  0.764887D-02 -0.883340D-03  0.578302D-02  0.581248D-03
     23  0.284996D-01  0.118646D-01 -0.386818D-02  0.230267D-01 -0.216286D-02
     24 -0.223233D+00 -0.106570D-01  0.856999D-02 -0.195836D-01 -0.120835D-02
     25  0.305722D-02  0.592324D-02 -0.883935D-02 -0.114406D-02 -0.779978D-01
     26 -0.107089D-02  0.507281D-02 -0.224392D-01  0.469565D-02  0.104653D+00
     27  0.135970D-02 -0.734312D-02  0.242234D-01  0.980976D-03  0.195594D-01
     28  0.585738D-03 -0.163675D-02 -0.210317D-02  0.650122D-02 -0.141944D+00
     29  0.676282D-03 -0.161362D-01  0.379563D-02  0.222847D-01  0.391486D-01
     30  0.262654D-02  0.128562D-01  0.289405D-02 -0.176939D-01  0.142305D+00
               11            12            13            14            15 
     11  0.694970D+00
     12 -0.201152D+00  0.559784D+00
     13  0.455719D-03  0.153708D-02  0.801031D-01
     14  0.131267D-04  0.911109D-03 -0.856056D-01  0.308628D+00
     15  0.157298D-03  0.224070D-03 -0.208914D-02  0.683613D-02  0.461551D-01
     16 -0.142351D-02  0.348378D-04 -0.685512D-02  0.169537D-02  0.869440D-02
     17 -0.124052D-02 -0.978095D-05  0.191063D-01 -0.312572D-02 -0.258313D-01
     18 -0.341007D-03 -0.122612D-03 -0.294255D-03 -0.256600D-03 -0.801602D-03
     19 -0.340314D-03  0.740559D-03 -0.572573D-02  0.147977D-02 -0.815436D-02
     20 -0.236739D-03  0.350708D-03  0.150604D-01 -0.443648D-02  0.266700D-01
     21 -0.314006D-03  0.206581D-03  0.204689D-02 -0.389556D-03  0.198081D-02
     22 -0.283823D-02 -0.337367D-03  0.600644D-03 -0.413823D-03  0.113463D-03
     23  0.134449D-02  0.110895D-02  0.140571D-02  0.746098D-03 -0.500736D-04
     24  0.343048D-03  0.229360D-02  0.103868D-03  0.712290D-04  0.128579D-04
     25  0.104040D+00  0.197952D-01 -0.798380D-03 -0.651829D-03  0.139845D-03
     26 -0.289782D+00 -0.239586D-01 -0.248228D-03 -0.149029D-03 -0.498128D-04
     27 -0.234127D-01 -0.458488D-01 -0.592653D-03 -0.499979D-03  0.134684D-03
     28  0.396104D-01  0.142263D+00  0.823655D-03  0.775857D-03 -0.206836D-03
     29 -0.593295D-01 -0.413436D-01  0.762460D-05  0.742128D-04 -0.135196D-03
     30 -0.420605D-01 -0.212355D+00  0.901216D-03  0.558898D-03  0.120852D-04
               16            17            18            19            20 
     16  0.155029D+00
     17 -0.153372D-01  0.519185D-01
     18 -0.138200D+00  0.245230D-01  0.227939D+00
     19  0.117511D-01 -0.460559D-02  0.167976D-01  0.130103D+00
     20 -0.243017D-02 -0.227128D-03 -0.380696D-02 -0.263010D-01  0.608154D-01
     21 -0.137230D-01  0.538458D-02 -0.197053D-01  0.128987D+00 -0.485825D-01
     22  0.795246D-03  0.103485D-02  0.463981D-03 -0.272708D-02 -0.360097D-02
     23  0.733923D-04  0.362115D-03  0.531015D-03 -0.366624D-02 -0.191313D-02
     24 -0.633014D-03 -0.563381D-03  0.202234D-03  0.792293D-04  0.153248D-03
     25  0.666477D-03  0.810199D-03 -0.383705D-04 -0.581339D-04 -0.432934D-04
     26  0.670645D-04  0.170829D-03 -0.221571D-03 -0.882391D-04 -0.770233D-04
     27  0.802667D-03  0.798293D-03  0.726496D-04  0.150190D-04  0.331607D-04
     28 -0.691398D-03 -0.751287D-03 -0.884881D-05 -0.904932D-04 -0.377542D-04
     29 -0.213553D-03 -0.213703D-03 -0.185740D-04 -0.116173D-03 -0.971017D-05
     30 -0.490318D-03 -0.635927D-03  0.923779D-04  0.543310D-04  0.160202D-04
               21            22            23            24            25 
     21  0.255202D+00
     22 -0.495097D-05  0.144786D+00
     23  0.792217D-04 -0.631164D-02  0.443226D-01
     24  0.126448D-02  0.148452D+00 -0.371594D-01  0.237332D+00
     25 -0.593014D-04 -0.345290D-02  0.337441D-02  0.318061D-02  0.728813D-01
     26 -0.574893D-04 -0.128107D-02  0.141546D-02  0.108283D-02 -0.112014D+00
     27  0.364245D-04 -0.207583D-02  0.200025D-02  0.197968D-02 -0.231891D-01
     28 -0.304405D-04  0.308296D-02 -0.393604D-02 -0.262016D-02 -0.267601D-02
     29 -0.332301D-04  0.126789D-02 -0.162197D-02 -0.112224D-02  0.159677D-01
     30  0.147020D-05  0.192900D-02 -0.266162D-02 -0.151875D-02  0.142891D-02
               26            27            28            29            30 
     26  0.311226D+00
     27  0.192458D-01  0.429275D-01
     28  0.123827D-02  0.850429D-02  0.142977D+00
     29 -0.180360D-02 -0.201507D-01 -0.406763D-01  0.583309D-01
     30  0.883729D-03  0.121714D-02 -0.157746D+00  0.390665D-01  0.225727D+00
 FormGI is forming the generalized inverse of G from B-inverse, IUseBI=4.
 Force constants in internal coordinates: 
                1             2             3             4             5 
      1  0.301720D+00
      2  0.771168D-02  0.337297D+00
      3  0.771165D-02  0.343562D-02  0.337298D+00
      4  0.416496D-02  0.228457D-02  0.228455D-02  0.346633D+00
      5  0.194042D-01 -0.859015D-03 -0.859011D-03  0.696032D-04  0.660672D+00
      6  0.630263D-02  0.338739D-03  0.338739D-03 -0.560890D-03  0.109782D-01
      7 -0.149801D-02  0.368254D-03  0.368251D-03  0.801051D-03  0.159242D-01
      8  0.533240D-03 -0.512170D-04 -0.807318D-04  0.442727D-04 -0.299411D-02
      9  0.533239D-03 -0.807319D-04 -0.512174D-04  0.442723D-04 -0.299411D-02
     10  0.165009D-01  0.177050D-02 -0.631645D-02 -0.601258D-02  0.178256D-02
     11  0.165008D-01 -0.631645D-02  0.177050D-02 -0.601258D-02  0.178257D-02
     12  0.179130D-01 -0.578898D-02 -0.578898D-02  0.239477D-02 -0.442233D-02
     13 -0.194081D-01  0.647275D-02  0.647275D-02 -0.103030D-02 -0.657936D-03
     14 -0.170053D-01  0.571110D-02 -0.126659D-02  0.548188D-02  0.810233D-03
     15 -0.170053D-01 -0.126658D-02  0.571109D-02  0.548187D-02  0.810232D-03
     16  0.199044D-01  0.280145D-02  0.280144D-02 -0.391931D-02  0.141303D-01
     17  0.479318D-02 -0.126252D-02 -0.126252D-02  0.391771D-02 -0.265015D-01
     18 -0.246976D-01 -0.153893D-02 -0.153893D-02  0.160092D-05  0.123713D-01
     19  0.369060D-03 -0.100751D-03  0.117954D-03  0.566410D-04 -0.941839D-04
     20  0.369067D-03  0.117954D-03 -0.100751D-03  0.566393D-04 -0.941519D-04
     21 -0.739453D-03 -0.172356D-04 -0.172354D-04 -0.113557D-03  0.185897D-03
     22 -0.191540D-02 -0.118137D-03 -0.118132D-03 -0.117363D-04 -0.812000D-03
     23  0.000000D+00 -0.194863D-04  0.194886D-04  0.000000D+00  0.000000D+00
     24  0.154730D-02 -0.890804D-04 -0.506733D-02  0.447983D-02 -0.728402D-03
     25  0.154729D-02  0.286912D-03 -0.544333D-02  0.447984D-02 -0.728466D-03
     26 -0.154729D-02  0.506735D-02  0.890822D-04 -0.447983D-02  0.728466D-03
     27 -0.154730D-02  0.544334D-02 -0.286909D-03 -0.447982D-02  0.728401D-03
     28  0.000000D+00 -0.462672D-02  0.462670D-02  0.000000D+00  0.000000D+00
     29  0.000000D+00 -0.425073D-02  0.425071D-02  0.000000D+00  0.000000D+00
     30 -0.319138D-03  0.591145D-03 -0.648806D-03  0.532572D-04 -0.239451D-05
     31  0.319140D-03  0.648807D-03 -0.591145D-03 -0.532757D-04  0.246786D-05
     32 -0.319137D-03  0.230001D-03 -0.287662D-03  0.532752D-04 -0.246404D-05
     33  0.319141D-03  0.287663D-03 -0.230002D-03 -0.532576D-04  0.239833D-05
                6             7             8             9            10 
      6  0.350257D+00
      7 -0.238085D-02  0.663872D+00
      8 -0.791567D-04  0.107953D-01  0.357829D+00
      9 -0.791565D-04  0.107953D-01  0.314058D-02  0.357828D+00
     10 -0.908919D-03  0.167366D-02 -0.987579D-04  0.304115D-03  0.104962D+00
     11 -0.908918D-03  0.167365D-02  0.304113D-03 -0.987597D-04 -0.185365D-01
     12  0.363495D-02  0.368286D-03  0.256001D-04  0.255998D-04 -0.220784D-01
     13  0.991519D-04 -0.136525D-02 -0.188513D-04 -0.188516D-04 -0.385346D-01
     14 -0.102526D-02 -0.125748D-02 -0.598806D-04 -0.161618D-03 -0.383804D-01
     15 -0.102527D-02 -0.125748D-02 -0.161618D-03 -0.598799D-04  0.100443D-01
     16 -0.137919D-01 -0.132152D-02  0.705797D-04  0.705797D-04  0.771814D-02
     17  0.468294D-02  0.196408D-03  0.969131D-04  0.969120D-04 -0.717855D-02
     18  0.910897D-02  0.112511D-02 -0.167493D-03 -0.167492D-03 -0.539592D-03
     19 -0.390806D-04  0.131124D-01  0.681017D-02 -0.128410D-01 -0.683707D-03
     20 -0.390837D-04  0.131125D-01 -0.128410D-01  0.681021D-02  0.979659D-03
     21  0.795086D-04 -0.262216D-01  0.603098D-02  0.603097D-02 -0.297185D-03
     22  0.152809D-02  0.112078D-02  0.790466D-04  0.790436D-04 -0.114378D-02
     23  0.000000D+00  0.000000D+00 -0.668902D-03  0.668914D-03  0.305015D-02
     24  0.518538D-03 -0.218604D-03 -0.732664D-04 -0.343624D-04 -0.638106D-03
     25  0.518535D-03 -0.218590D-03 -0.683801D-04 -0.392492D-04  0.108817D-02
     26 -0.518535D-03  0.218591D-03  0.343634D-04  0.732676D-04  0.656072D-02
     27 -0.518538D-03  0.218605D-03  0.392497D-04  0.683808D-04  0.828699D-02
     28  0.000000D+00  0.000000D+00  0.515041D-04 -0.515037D-04 -0.791294D-02
     29  0.000000D+00  0.000000D+00  0.563904D-04 -0.563905D-04 -0.618666D-02
     30  0.183197D-03 -0.118008D-03 -0.147069D-03  0.145365D-03  0.360335D-02
     31 -0.183196D-03  0.117994D-03 -0.145363D-03  0.147073D-03  0.379318D-02
     32  0.183195D-03 -0.117989D-03  0.181063D-03 -0.182768D-03  0.356498D-03
     33 -0.183198D-03  0.118013D-03  0.182768D-03 -0.181061D-03  0.546330D-03
               11            12            13            14            15 
     11  0.104962D+00
     12 -0.220785D-01  0.107448D+00
     13 -0.385345D-01  0.102621D-01  0.558495D-01
     14  0.100443D-01 -0.388912D-01  0.701295D-02  0.560826D-01
     15 -0.383804D-01 -0.388912D-01  0.701295D-02  0.747001D-02  0.560827D-01
     16  0.771813D-02 -0.105710D-01 -0.550465D-02  0.289352D-03  0.289360D-03
     17 -0.717855D-02  0.143369D-01  0.412261D-02 -0.215600D-02 -0.215601D-02
     18 -0.539585D-03 -0.376590D-02  0.138204D-02  0.186665D-02  0.186665D-02
     19  0.979654D-03 -0.751059D-05 -0.885814D-04  0.973683D-04 -0.309100D-03
     20 -0.683705D-03 -0.750916D-05 -0.885844D-04 -0.309103D-03  0.973662D-04
     21 -0.297182D-03  0.135475D-04  0.178291D-03  0.213236D-03  0.213235D-03
     22 -0.114378D-02 -0.653821D-03  0.100979D-02  0.103384D-02  0.103385D-02
     23 -0.305015D-02  0.000000D+00  0.000000D+00 -0.831802D-03  0.831800D-03
     24 -0.656070D-02  0.770681D-02 -0.101657D-01  0.958974D-02 -0.230919D-03
     25 -0.828698D-02  0.770680D-02 -0.101657D-01  0.901845D-02  0.340378D-03
     26  0.638096D-03 -0.770682D-02  0.101657D-01  0.230912D-03 -0.958970D-02
     27 -0.108818D-02 -0.770682D-02  0.101657D-01 -0.340382D-03 -0.901841D-02
     28  0.791294D-02  0.000000D+00  0.000000D+00 -0.951905D-02  0.951902D-02
     29  0.618666D-02  0.000000D+00  0.000000D+00 -0.100903D-01  0.100903D-01
     30 -0.379318D-02  0.105440D-03  0.757555D-04 -0.967872D-03  0.978737D-03
     31 -0.360335D-02 -0.105431D-03 -0.757598D-04 -0.978738D-03  0.967871D-03
     32 -0.546323D-03  0.105433D-03  0.757565D-04  0.409440D-04 -0.300763D-04
     33 -0.356498D-03 -0.105439D-03 -0.757588D-04  0.300779D-04 -0.409421D-04
               16            17            18            19            20 
     16  0.931236D-01
     17 -0.481817D-01  0.829641D-01
     18 -0.449419D-01 -0.347824D-01  0.797243D-01
     19  0.390853D-05  0.211007D-04 -0.250094D-04  0.730825D-01
     20  0.391304D-05  0.211004D-04 -0.250133D-04 -0.387062D-01  0.730826D-01
     21 -0.192069D-04 -0.426739D-04  0.618808D-04 -0.343763D-01 -0.343765D-01
     22 -0.113379D-01 -0.129578D-03  0.114675D-01  0.755440D-04  0.755299D-04
     23  0.000000D+00  0.000000D+00  0.000000D+00 -0.704609D-02  0.704610D-02
     24 -0.150065D-02  0.201650D-02 -0.515850D-03 -0.392353D-03  0.313703D-03
     25 -0.150066D-02  0.201650D-02 -0.515841D-03  0.185277D-03 -0.263928D-03
     26  0.150066D-02 -0.201650D-02  0.515841D-03 -0.313704D-03  0.392355D-03
     27  0.150065D-02 -0.201650D-02  0.515850D-03  0.263927D-03 -0.185276D-03
     28  0.000000D+00  0.000000D+00  0.000000D+00 -0.514986D-04  0.514985D-04
     29  0.000000D+00  0.000000D+00  0.000000D+00  0.526131D-03 -0.526132D-03
     30 -0.111447D-02  0.682285D-04  0.104624D-02 -0.146170D-02  0.145735D-02
     31  0.111451D-02 -0.682388D-04 -0.104627D-02 -0.145736D-02  0.146171D-02
     32 -0.111449D-02  0.682385D-04  0.104626D-02  0.146477D-02 -0.146912D-02
     33  0.111449D-02 -0.682289D-04 -0.104626D-02  0.146911D-02 -0.146476D-02
               21            22            23            24            25 
     21  0.687534D-01
     22  0.249697D-05  0.924948D-01
     23  0.000000D+00  0.000000D+00  0.429625D-01
     24  0.787364D-04  0.101606D-03  0.392336D-02  0.134187D-01
     25  0.787371D-04  0.101597D-03 -0.367491D-02  0.967935D-02  0.140866D-01
     26 -0.787377D-04 -0.101599D-03  0.392336D-02 -0.383338D-02 -0.757273D-02
     27 -0.787370D-04 -0.101607D-03 -0.367491D-02 -0.757274D-02 -0.316553D-02
     28  0.000000D+00  0.000000D+00  0.292661D-02 -0.339100D-02 -0.756762D-02
     29  0.000000D+00  0.000000D+00 -0.467166D-02 -0.713036D-02 -0.316042D-02
     30 -0.428916D-04 -0.341359D-02  0.628825D-02 -0.525461D-03  0.181130D-02
     31  0.428887D-04  0.341360D-02  0.628823D-02 -0.552330D-03  0.178443D-02
     32 -0.428889D-04 -0.341362D-02 -0.744574D-02  0.130132D-02 -0.792805D-03
     33  0.428914D-04  0.341357D-02 -0.744576D-02  0.127445D-02 -0.819673D-03
               26            27            28            29            30 
     26  0.134187D-01
     27  0.967935D-02  0.140866D-01
     28 -0.339101D-02 -0.756762D-02  0.139311D-01
     29 -0.713036D-02 -0.316041D-02  0.975449D-02  0.137244D-01
     30 -0.552329D-03  0.178443D-02 -0.179191D-02  0.544846D-03  0.171516D-01
     31 -0.525460D-03  0.181130D-02 -0.179192D-02  0.544845D-03 -0.164508D-03
     32  0.127445D-02 -0.819673D-03  0.940201D-03 -0.115392D-02  0.116643D-01
     33  0.130132D-02 -0.792803D-03  0.940199D-03 -0.115392D-02 -0.565185D-02
               31            32            33 
     31  0.171516D-01
     32 -0.565185D-02  0.174848D-01
     33  0.116643D-01  0.168692D-03  0.174848D-01
 Leave Link  716 at Sun Oct 23 07:36:13 2022, MaxMem=   939524096 cpu:         0.1
 (Enter /Local/ce_dana/g09/l103.exe)

 GradGradGradGradGradGradGradGradGradGradGradGradGradGradGradGradGradGrad
 Berny optimization.
 Red2BG is reusing G-inverse.
 Internal  Forces:  Max     0.000000610 RMS     0.000000179
 Search for a local minimum.
 Step number   1 out of a maximum of   43 on scan point     1 out of    13
 All quantities printed in internal units (Hartrees-Bohrs-Radians)
 RMS Force = .18162D-06 SwitMx=.10000D-02 MixMth= 2
 Mixed Optimization -- En-DIIS/RFO-DIIS
 Second derivative matrix not updated -- analytic derivatives used.
 ITU=  0
     Eigenvalues ---    0.01087   0.02286   0.03357   0.03814   0.04763
     Eigenvalues ---    0.05822   0.08644   0.10079   0.10932   0.11185
     Eigenvalues ---    0.12303   0.12848   0.14829   0.16833   0.31399
     Eigenvalues ---    0.33471   0.34190   0.34992   0.35204   0.35628
     Eigenvalues ---    0.36071   0.64986   0.680821000.000001000.00000
     Eigenvalues --- 1000.000001000.000001000.000001000.000001000.00000
     Eigenvalues --- 1000.000001000.000001000.00000
 RFO step:  Lambda= 0.00000000D+00 EMin= 1.08721318D-02
 Linear search not attempted -- first point.
 Iteration  1 RMS(Cart)=  0.00000063 RMS(Int)=  0.00000000
 Iteration  1 RMS(Cart)=  0.00000000 RMS(Int)=  0.00000000
 ITry= 1 IFail=0 DXMaxC= 1.53D-06 DCOld= 1.00D+10 DXMaxT= 5.00D-02 DXLimC= 3.00D+00 Rises=F
 Variable       Old X    -DE/DX   Delta X   Delta X   Delta X     New X
                                 (Linear)    (Quad)   (Total)
    R1        2.84254  -0.00000   0.00000  -0.00000  -0.00000   2.84254
    R2        2.06314  -0.00000   0.00000  -0.00000  -0.00000   2.06314
    R3        2.06314   0.00000   0.00000   0.00000   0.00000   2.06314
    R4        2.05636   0.00000   0.00000   0.00000   0.00000   2.05636
    R5        2.46540  -0.00000   0.00000  -0.00000  -0.00000   2.46539
    R6        2.05259   0.00000   0.00000   0.00000   0.00000   2.05259
    R7        2.46605   0.00000   0.00000   0.00000   0.00000   2.46605
    R8        2.04690   0.00000   0.00000   0.00000   0.00000   2.04690
    R9        2.04690  -0.00000   0.00000  -0.00000  -0.00000   2.04690
    A1        1.93171   0.00000   0.00000   0.00000   0.00000   1.93171
    A2        1.93171  -0.00000   0.00000  -0.00000  -0.00000   1.93171
    A3        1.93870  -0.00000   0.00000  -0.00000  -0.00000   1.93870
    A4        1.87251  -0.00000   0.00000  -0.00000  -0.00000   1.87251
    A5        1.89366   0.00000   0.00000   0.00000   0.00000   1.89366
    A6        1.89366   0.00000   0.00000  -0.00000  -0.00000   1.89366
    A7        2.17409   0.00000   0.00000   0.00000   0.00000   2.17409
    A8        2.04729  -0.00000   0.00000  -0.00000  -0.00000   2.04729
    A9        2.06181  -0.00000   0.00000  -0.00000  -0.00000   2.06181
   A10        2.11692  -0.00000   0.00000  -0.00000  -0.00000   2.11692
   A11        2.11692   0.00000   0.00000   0.00000   0.00000   2.11692
   A12        2.04934  -0.00000   0.00000   0.00000   0.00000   2.04934
   A13        3.13514  -0.00000   0.00000  -0.00000  -0.00000   3.13514
   A14        3.14159   0.00000   0.00000   0.00000   0.00000   3.14159
    D1        2.10475   0.00000   0.00000   0.00000  -0.00000   2.10475
    D2       -1.03685   0.00000   0.00000  -0.00000  -0.00000  -1.03685
    D3       -2.10475   0.00000   0.00000  -0.00000  -0.00000  -2.10475
    D4        1.03684   0.00000   0.00000  -0.00000  -0.00000   1.03684
    D5        0.00000  -0.00000   0.00000  -0.00000  -0.00000  -0.00000
    D6       -3.14159  -0.00000   0.00000  -0.00000  -0.00000   3.14159
    D7        1.57032   0.00000   0.00000   0.00000   0.00000   1.57032
    D8       -1.57032   0.00000   0.00000   0.00000   0.00000  -1.57032
    D9       -1.57128  -0.00000   0.00000   0.00000   0.00000  -1.57128
   D10        1.57128   0.00000   0.00000   0.00000   0.00000   1.57128
         Item               Value     Threshold  Converged?
 Maximum Force            0.000001     0.000450     YES
 RMS     Force            0.000000     0.000300     YES
 Maximum Displacement     0.000002     0.001800     YES
 RMS     Displacement     0.000001     0.001200     YES
 Predicted change in Energy=-1.791792D-12
 Optimization completed.
    -- Stationary point found.
                           ----------------------------
                           !   Optimized Parameters   !
                           ! (Angstroms and Degrees)  !
 --------------------------                            --------------------------
 ! Name  Definition              Value          Derivative Info.                !
 --------------------------------------------------------------------------------
 ! R1    R(1,2)                  1.5042         -DE/DX =    0.0                 !
 ! R2    R(1,5)                  1.0918         -DE/DX =    0.0                 !
 ! R3    R(1,6)                  1.0918         -DE/DX =    0.0                 !
 ! R4    R(1,7)                  1.0882         -DE/DX =    0.0                 !
 ! R5    R(2,3)                  1.3046         -DE/DX =    0.0                 !
 ! R6    R(2,8)                  1.0862         -DE/DX =    0.0                 !
 ! R7    R(3,4)                  1.305          -DE/DX =    0.0                 !
 ! R8    R(4,9)                  1.0832         -DE/DX =    0.0                 !
 ! R9    R(4,10)                 1.0832         -DE/DX =    0.0                 !
 ! A1    A(2,1,5)              110.6789         -DE/DX =    0.0                 !
 ! A2    A(2,1,6)              110.679          -DE/DX =    0.0                 !
 ! A3    A(2,1,7)              111.0792         -DE/DX =    0.0                 !
 ! A4    A(5,1,6)              107.2871         -DE/DX =    0.0                 !
 ! A5    A(5,1,7)              108.4985         -DE/DX =    0.0                 !
 ! A6    A(6,1,7)              108.4986         -DE/DX =    0.0                 !
 ! A7    A(1,2,3)              124.566          -DE/DX =    0.0                 !
 ! A8    A(1,2,8)              117.3011         -DE/DX =    0.0                 !
 ! A9    A(3,2,8)              118.1329         -DE/DX =    0.0                 !
 ! A10   A(3,4,9)              121.2908         -DE/DX =    0.0                 !
 ! A11   A(3,4,10)             121.2907         -DE/DX =    0.0                 !
 ! A12   A(9,4,10)             117.4183         -DE/DX =    0.0                 !
 ! A13   L(2,3,4,7,-1)         179.6302         -DE/DX =    0.0                 !
 ! A14   L(2,3,4,7,-2)         179.9999         -DE/DX =    0.0                 !
 ! D1    D(5,1,2,3)            120.5931         -DE/DX =    0.0                 !
 ! D2    D(5,1,2,8)            -59.4069         -DE/DX =    0.0                 !
 ! D3    D(6,1,2,3)           -120.5932         -DE/DX =    0.0                 !
 ! D4    D(6,1,2,8)             59.4068         -DE/DX =    0.0                 !
 ! D5    D(7,1,2,3)              0.0            -DE/DX =    0.0                 !
 ! D6    D(7,1,2,8)            180.0            -DE/DX =    0.0                 !
 ! D7    D(1,2,4,9)             89.9724         -DE/DX =    0.0                 !
 ! D8    D(1,2,4,10)           -89.9725         -DE/DX =    0.0                 !
 ! D9    D(8,2,4,9)            -90.0275         -DE/DX =    0.0                 !
 ! D10   D(8,2,4,10)            90.0275         -DE/DX =    0.0                 !
 --------------------------------------------------------------------------------
 Lowest energy point so far.  Saving SCF results.
 Iteration  1 RMS(Cart)=  0.02446718 RMS(Int)=  0.07695546
 Iteration  2 RMS(Cart)=  0.01154849 RMS(Int)=  0.07204899
 Iteration  3 RMS(Cart)=  0.00545806 RMS(Int)=  0.07023378
 Iteration  4 RMS(Cart)=  0.00258583 RMS(Int)=  0.06949603
 Iteration  5 RMS(Cart)=  0.00122533 RMS(Int)=  0.06917473
 Iteration  6 RMS(Cart)=  0.00058049 RMS(Int)=  0.06902895
 Iteration  7 RMS(Cart)=  0.00027494 RMS(Int)=  0.06896135
 Iteration  8 RMS(Cart)=  0.00013020 RMS(Int)=  0.06892966
 Iteration  9 RMS(Cart)=  0.00006166 RMS(Int)=  0.06891473
 Iteration 10 RMS(Cart)=  0.00002920 RMS(Int)=  0.06890767
 Iteration 11 RMS(Cart)=  0.00001382 RMS(Int)=  0.06890434
 Iteration 12 RMS(Cart)=  0.00000655 RMS(Int)=  0.06890276
 Iteration 13 RMS(Cart)=  0.00000310 RMS(Int)=  0.06890201
 Iteration 14 RMS(Cart)=  0.00000147 RMS(Int)=  0.06890165
 Iteration 15 RMS(Cart)=  0.00000070 RMS(Int)=  0.06890149
 Iteration  1 RMS(Cart)=  0.02462892 RMS(Int)=  0.04771131
 Iteration  2 RMS(Cart)=  0.02476240 RMS(Int)=  0.04466382
 Iteration  3 RMS(Cart)=  0.02013617 RMS(Int)=  0.05091962
 Iteration  4 RMS(Cart)=  0.01071334 RMS(Int)=  0.05665259
 Iteration  5 RMS(Cart)=  0.00566038 RMS(Int)=  0.06015398
 Iteration  6 RMS(Cart)=  0.00297927 RMS(Int)=  0.06210299
 Iteration  7 RMS(Cart)=  0.00156492 RMS(Int)=  0.06315291
 Iteration  8 RMS(Cart)=  0.00082113 RMS(Int)=  0.06371061
 Iteration  9 RMS(Cart)=  0.00043061 RMS(Int)=  0.06400489
 Iteration 10 RMS(Cart)=  0.00022575 RMS(Int)=  0.06415966
 Iteration 11 RMS(Cart)=  0.00011833 RMS(Int)=  0.06424091
 Iteration 12 RMS(Cart)=  0.00006202 RMS(Int)=  0.06428354
 Iteration 13 RMS(Cart)=  0.00003251 RMS(Int)=  0.06430589
 Iteration 14 RMS(Cart)=  0.00001704 RMS(Int)=  0.06431761
 Iteration 15 RMS(Cart)=  0.00000893 RMS(Int)=  0.06432375
 Iteration 16 RMS(Cart)=  0.00000468 RMS(Int)=  0.06432697
 Iteration 17 RMS(Cart)=  0.00000245 RMS(Int)=  0.06432866
 Iteration 18 RMS(Cart)=  0.00000129 RMS(Int)=  0.06432954
 Iteration 19 RMS(Cart)=  0.00000067 RMS(Int)=  0.06433001
 GradGradGradGradGradGradGradGradGradGradGradGradGradGradGradGradGradGrad

 Leave Link  103 at Sun Oct 23 07:36:13 2022, MaxMem=   939524096 cpu:         0.2
 (Enter /Local/ce_dana/g09/l202.exe)
                          Input orientation:                          
 ---------------------------------------------------------------------
 Center     Atomic      Atomic             Coordinates (Angstroms)
 Number     Number       Type             X           Y           Z
 ---------------------------------------------------------------------
      1          6           0       -1.552304   -0.343032   -0.194321
      2          6           0       -0.342123    0.543057   -0.078908
      3          6           0       -0.104626    1.562993   -0.856792
      4          6           0        0.182847    2.520437   -1.696487
      5          1           0       -1.339532   -1.365419    0.145622
      6          1           0       -2.163004   -0.089760    0.675901
      7          1           0       -2.168677   -0.218004   -1.083180
      8          1           0        0.250980    0.464596    0.827905
      9          1           0       -0.230336    3.514812   -1.578833
     10          1           0        0.847160    2.352378   -2.535423
 ---------------------------------------------------------------------
                    Distance matrix (angstroms):
                    1          2          3          4          5
     1  C    0.000000
     2  C    1.504331   0.000000
     3  C    2.483460   1.304522   0.000000
     4  C    3.669701   2.608099   1.305536   0.000000
     5  H    1.098230   2.165069   3.332481   4.561894   0.000000
     6  H    1.092880   2.070218   3.052484   4.236079   1.608294
     7  H    1.088861   2.219026   2.735601   3.661266   1.874566
     8  H    2.224644   1.086387   2.042336   3.256328   2.518769
     9  H    4.306673   3.330705   2.084884   1.083210   5.293460
    10  H    4.301561   3.274523   2.084905   1.083222   5.078548
                    6          7          8          9         10
     6  H    0.000000
     7  H    1.763758   0.000000
     8  H    2.481478   3.157994   0.000000
     9  H    4.670328   4.235181   3.915082   0.000000
    10  H    5.033659   4.220326   3.902708   1.851301   0.000000
 Stoichiometry    C4H6
 Framework group  C1[X(C4H6)]
 Deg. of freedom    24
 Full point group                 C1      NOp   1
 RotChk:  IX=2 Diff= 1.27D-01
 Largest Abelian subgroup         C1      NOp   1
 Largest concise Abelian subgroup C1      NOp   1
                         Standard orientation:                         
 ---------------------------------------------------------------------
 Center     Atomic      Atomic             Coordinates (Angstroms)
 Number     Number       Type             X           Y           Z
 ---------------------------------------------------------------------
      1          6           0       -1.727401   -0.386326    0.031465
      2          6           0       -0.554689    0.555831    0.041434
      3          6           0        0.691086    0.174943   -0.027446
      4          6           0        1.937991   -0.210573    0.004674
      5          1           0       -2.580234    0.022696    0.589574
      6          1           0       -2.189428   -0.240503   -0.948154
      7          1           0       -1.505587   -1.446604    0.142040
      8          1           0       -0.758607    1.610487   -0.120914
      9          1           0        2.475918   -0.451632   -0.904100
     10          1           0        2.476014   -0.297690    0.940789
 ---------------------------------------------------------------------
 Rotational constants (GHZ):     34.8392056      4.2103716      3.9344909
 Leave Link  202 at Sun Oct 23 07:36:13 2022, MaxMem=   939524096 cpu:         0.0
 (Enter /Local/ce_dana/g09/l301.exe)
 Standard basis: def2TZVP (5D, 7F)
 Ernie: Thresh=  0.10000D-02 Tol=  0.10000D-05 Strict=F.
 There are   180 symmetry adapted cartesian basis functions of A   symmetry.
 There are   160 symmetry adapted basis functions of A   symmetry.
   160 basis functions,   252 primitive gaussians,   180 cartesian basis functions
    15 alpha electrons       15 beta electrons
       nuclear repulsion energy       102.5526641741 Hartrees.
 IExCor=  419 DFT=T Ex+Corr=B2PLYPD3 ExCW=0 ScaHFX=  0.530000
 ScaDFX=  0.470000  0.470000  0.730000  0.730000 ScalE2=  0.270000  0.270000
 IRadAn=      5 IRanWt=     -1 IRanGd=            0 ICorTp=0 IEmpDi=141
 NAtoms=   10 NActive=   10 NUniq=   10 SFac= 1.00D+00 NAtFMM=   60 NAOKFM=F Big=F
 Integral buffers will be    131072 words long.
 Regular integral format.
 Two-electron integral symmetry is turned on.
 R6Disp:  Grimme-D3(BJ) Dispersion energy=       -0.0045086021 Hartrees.
 Nuclear repulsion after empirical dispersion term =      102.5481555721 Hartrees.
 Leave Link  301 at Sun Oct 23 07:36:13 2022, MaxMem=   939524096 cpu:         0.1
 (Enter /Local/ce_dana/g09/l302.exe)
 NPDir=0 NMtPBC=     1 NCelOv=     1 NCel=       1 NClECP=     1 NCelD=      1
         NCelK=      1 NCelE2=     1 NClLst=     1 CellRange=     0.0.
 One-electron integrals computed using PRISM.
   1 Symmetry operations used in ECPInt.
 ECPInt:  NShTT=    2346 NPrTT=    6892 LenC2=    2334 LenP2D=    5871.
 LDataN:  DoStor=T MaxTD1= 6 Len=  172
 NBasis=   160 RedAO= T EigKep=  5.88D-05  NBF=   160
 NBsUse=   160 1.00D-06 EigRej= -1.00D+00 NBFU=   160
 Precomputing XC quadrature grid using
 IXCGrd= 4 IRadAn=           5 IRanWt=          -1 IRanGd=           0 AccXCQ= 0.00D+00.
 Generated NRdTot=       0 NPtTot=           0 NUsed=           0 NTot=          32
 NSgBfM=   179   179   179   179   179 MxSgAt=    10 MxSgA2=    10.
 Leave Link  302 at Sun Oct 23 07:36:15 2022, MaxMem=   939524096 cpu:         1.9
 (Enter /Local/ce_dana/g09/l303.exe)
 DipDrv:  MaxL=1.
 Leave Link  303 at Sun Oct 23 07:36:15 2022, MaxMem=   939524096 cpu:         0.1
 (Enter /Local/ce_dana/g09/l401.exe)
 Initial guess from the checkpoint file:  "check.chk"
 B after Tr=    -0.000000    0.000000    0.000000
         Rot=    0.999536    0.030139    0.004349    0.001161 Ang=   3.49 deg.
 Guess basis will be translated and rotated to current coordinates.
 JPrj=2 DoOrth=T DoCkMO=T.
 Generating alternative initial guess.
 ExpMin= 9.52D-02 ExpMax= 1.36D+04 ExpMxC= 4.63D+02 IAcc=2 IRadAn=         4 AccDes= 0.00D+00
 Harris functional with IExCor=  419 and IRadAn=       4 diagonalized for initial guess.
 HarFok:  IExCor=  419 AccDes= 0.00D+00 IRadAn=         4 IDoV= 1 UseB2=F ITyADJ=14
 ICtDFT=  3500011 ScaDFX=  1.000000  1.000000  1.000000  1.000000
 FoFCou: FMM=F IPFlag=           0 FMFlag=      100000 FMFlg1=           0
         NFxFlg=           0 DoJE=T BraDBF=F KetDBF=T FulRan=T
         wScrn=  0.000000 ICntrl=     500 IOpCl=  0 I1Cent=   200000004 NGrid=           0
         NMat0=    1 NMatS0=      1 NMatT0=    0 NMatD0=    1 NMtDS0=    0 NMtDT0=    0
 Petite list used in FoFCou.
 Harris En= -156.098556889633    
 Leave Link  401 at Sun Oct 23 07:36:16 2022, MaxMem=   939524096 cpu:         4.3
 (Enter /Local/ce_dana/g09/l502.exe)
 Closed shell SCF:
 Using DIIS extrapolation, IDIIS=  1040.
 Integral symmetry usage will be decided dynamically.
 Keep R1 ints in memory in canonical form, NReq=86024690.
 IVT=      106270 IEndB=      106270 NGot=   939524096 MDV=   856464187
 LenX=   856464187 LenY=   856431346
 Requested convergence on RMS density matrix=1.00D-08 within  64 cycles.
 Requested convergence on MAX density matrix=1.00D-06.
 Requested convergence on             energy=1.00D-06.
 No special actions if energy rises.
 FoFCou: FMM=F IPFlag=           0 FMFlag=           0 FMFlg1=           0
         NFxFlg=           0 DoJE=F BraDBF=F KetDBF=F FulRan=T
         wScrn=  0.000000 ICntrl=     600 IOpCl=  0 I1Cent=           0 NGrid=           0
         NMat0=    1 NMatS0=  12880 NMatT0=    0 NMatD0=    1 NMtDS0=    0 NMtDT0=    0
 Symmetry not used in FoFCou.
 Integral accuracy reduced to 1.0D-05 until final iterations.

 Cycle   1  Pass 0  IDiag  1:
 E= -155.646226003728    
 DIIS: error= 6.35D-03 at cycle   1 NSaved=   1.
 NSaved= 1 IEnMin= 1 EnMin= -155.646226003728     IErMin= 1 ErrMin= 6.35D-03
 ErrMax= 6.35D-03  0.00D+00 EMaxC= 1.00D-01 BMatC= 1.38D-02 BMatP= 1.38D-02
 IDIUse=3 WtCom= 9.37D-01 WtEn= 6.35D-02
 Coeff-Com:  0.100D+01
 Coeff-En:   0.100D+01
 Coeff:      0.100D+01
 Gap=     0.750 Goal=   None    Shift=    0.000
 GapD=    0.750 DampG=2.000 DampE=1.000 DampFc=2.0000 IDamp=-1.
 RMSDP=1.15D-03 MaxDP=2.76D-02              OVMax= 3.78D-02

 Cycle   2  Pass 0  IDiag  1:
 E= -155.662150663177     Delta-E=       -0.015924659449 Rises=F Damp=F
 DIIS: error= 1.25D-03 at cycle   2 NSaved=   2.
 NSaved= 2 IEnMin= 2 EnMin= -155.662150663177     IErMin= 2 ErrMin= 1.25D-03
 ErrMax= 1.25D-03  0.00D+00 EMaxC= 1.00D-01 BMatC= 3.14D-04 BMatP= 1.38D-02
 IDIUse=3 WtCom= 9.87D-01 WtEn= 1.25D-02
 Coeff-Com: -0.113D+00 0.111D+01
 Coeff-En:   0.000D+00 0.100D+01
 Coeff:     -0.112D+00 0.111D+01
 Gap=     0.357 Goal=   None    Shift=    0.000
 RMSDP=2.15D-04 MaxDP=4.07D-03 DE=-1.59D-02 OVMax= 1.06D-02

 Cycle   3  Pass 0  IDiag  1:
 E= -155.662853595644     Delta-E=       -0.000702932467 Rises=F Damp=F
 DIIS: error= 3.51D-04 at cycle   3 NSaved=   3.
 NSaved= 3 IEnMin= 3 EnMin= -155.662853595644     IErMin= 3 ErrMin= 3.51D-04
 ErrMax= 3.51D-04  0.00D+00 EMaxC= 1.00D-01 BMatC= 2.64D-05 BMatP= 3.14D-04
 IDIUse=3 WtCom= 9.96D-01 WtEn= 3.51D-03
 Coeff-Com: -0.277D-01 0.155D+00 0.873D+00
 Coeff-En:   0.000D+00 0.000D+00 0.100D+01
 Coeff:     -0.276D-01 0.154D+00 0.873D+00
 Gap=     0.356 Goal=   None    Shift=    0.000
 RMSDP=4.76D-05 MaxDP=9.79D-04 DE=-7.03D-04 OVMax= 2.42D-03

 Cycle   4  Pass 0  IDiag  1:
 E= -155.662889857974     Delta-E=       -0.000036262330 Rises=F Damp=F
[...]
           R1           1.50421   1.50734   1.51225   1.50706   1.50426
           R2           1.09177   1.08980   1.08840   1.08992   1.09183
           R3           1.09177   1.09252   1.09008   1.08806   1.08814
           R4           1.08818   1.08816   1.09022   1.09258   1.09164
           R5           1.30463   1.30485   1.30492   1.30481   1.30463
           R6           1.08618   1.08586   1.08532   1.08592   1.08620
           R7           1.30498   1.30493   1.30487   1.30494   1.30497
           R8           1.08317   1.08323   1.08331   1.08326   1.08317
           R9           1.08317   1.08325   1.08331   1.08324   1.08317
           A1         110.67894 110.68318 110.50157 110.73416 110.67923
           A2         110.67899 110.45429 111.30673 111.46980 111.09122
           A3         111.07924 111.54553 111.26031 110.46425 110.64913
           A4         107.28710 106.76607 107.99718 109.20860 108.43848
           A5         108.49851 109.20844 107.92032 106.76351 107.31018
           A6         108.49858 108.02915 107.71058 108.04883 108.55387
           A7         124.56603 124.56083 124.49097 124.56446 124.52224
           A8         117.30110 117.41777 117.79420 117.41509 117.36329
           A9         118.13287 117.92029 117.71463 117.91946 118.11404
           A10        121.29079 121.26646 121.31174 121.33848 121.28814
           A11        121.29066 121.33229 121.30275 121.26309 121.29230
           A12        117.41834 117.40102 117.38529 117.39821 117.41935
           A13        179.63020 179.48636 179.68003 180.19037 179.65946
           A14        179.99994 180.93127 179.74263 178.59934 179.71605
           D1         120.59311 150.59330-179.40673-149.40705-119.40711
           D2         -59.40688 -33.14872   0.75575  34.33280  60.34892
           D3        -120.59318 -91.37908 -59.41349 -27.61026   1.11840
           D4          59.40684  84.87890 120.74899 156.12958-179.12556
           D5           0.00003  28.78011  60.72713  92.53045 121.76932
           D6         180.00004-154.96191-119.11039 -83.72971 -58.47464
           D7          89.97244  87.51087  90.07434  92.36619  89.77899
           D8         -89.97250 -92.44570 -89.87556 -87.60414 -90.17606
           D9         -90.02754 -89.23385 -90.06990 -90.90118 -90.02491
           D10         90.02752  90.80959  89.98020  89.12849  90.02003
                           6         7         8         9        10
     Eigenvalues --  -155.88011-155.87879-155.88021-155.88134-155.88013
           R1           1.50782   1.51225   1.50745   1.50429   1.50778
           R2           1.09196   1.09008   1.08855   1.08817   1.08858
           R3           1.08904   1.09017   1.09165   1.09173   1.09024
           R4           1.08929   1.08842   1.09036   1.09177   1.09153
           R5           1.30482   1.30494   1.30485   1.30463   1.30487
           R6           1.08590   1.08532   1.08588   1.08616   1.08585
           R7           1.30492   1.30487   1.30492   1.30498   1.30492
           R8           1.08323   1.08331   1.08324   1.08317   1.08322
           R9           1.08325   1.08331   1.08322   1.08317   1.08324
           A1         110.79765 111.27559 111.26382 111.07392 111.25479
           A2         110.95487 111.29519 111.07007 110.66954 110.36280
           A3         110.95668 110.49646 110.37221 110.69394 111.09413
           A4         107.34357 107.75296 108.73908 108.49596 107.82797
           A5         108.14103 107.93605 107.83855 108.50423 108.70100
           A6         108.51832 107.94016 107.41901 107.28382 107.46245
           A7         124.51630 124.51465 124.54028 124.57133 124.54297
           A8         117.49767 117.76868 117.43759 117.29590 117.45367
           A9         117.88649 117.71649 117.92742 118.13265 117.90723
           A10        121.27310 121.30390 121.32912 121.29104 121.26414
           A11        121.32477 121.31079 121.26606 121.29040 121.33073
           A12        117.40192 117.38509 117.40459 117.41838 117.40494
           A13        179.34237 179.63346 179.31941 179.70614 180.19639
           A14        181.86145 179.61955 178.38431 180.40732 181.41694
           D1         -89.40679 -59.40679 -29.40676   0.59314  30.59318
           D2          86.87942 120.75420 154.21483-179.53720-153.05605
           D3          29.73139  60.79014  91.88235 121.17316 150.24804
           D4        -153.98240-119.04886 -84.49606 -58.95718 -33.40118
           D5         150.45285-179.29932-149.08695-120.01368 -90.65778
           D6         -33.26094   0.86168  34.53464  59.85598  85.69299
           D7          87.58298  90.02689  92.25690  89.86380  87.67693
           D8         -92.38130 -89.92481 -87.69617 -90.07870 -92.27991
           D9         -89.22535 -90.06273 -90.88122 -90.00159 -89.16299
           D10         90.81036  89.98557  89.16571  90.05591  90.88017
                          11        12        13
     Eigenvalues --  -155.87879-155.88019-155.88134
           R1           1.51227   1.50760   1.50418
           R2           1.09017   1.09201   1.09175
           R3           1.08837   1.08938   1.09170
           R4           1.09010   1.08902   1.08817
           R5           1.30494   1.30483   1.30462
           R6           1.08534   1.08594   1.08617
           R7           1.30486   1.30492   1.30498
           R8           1.08331   1.08324   1.08317
           R9           1.08331   1.08322   1.08318
           A1         111.27098 110.78032 110.63545
           A2         110.51903 110.96082 110.67732
           A3         111.27047 110.95413 111.09693
           A4         107.96656 108.12346 107.28323
           A5         107.69548 107.37226 108.49560
           A6         107.97484 108.52181 108.53345
           A7         124.50550 124.51301 124.57956
           A8         117.78523 117.48814 117.26824
           A9         117.70917 117.90041 118.15220
           A10        121.30941 121.32751 121.29073
           A11        121.30518 121.26800 121.29155
           A12        117.38519 117.40427 117.41758
           A13        179.65811 179.49481 179.63815
           A14        180.17766 179.10795 180.05458
           D1          60.59307  90.59312 120.59312
           D2        -119.28600 -85.71411 -59.42409
           D3        -179.46405-149.29740-120.62679
           D4           0.65688  34.39538  59.35599
           D5         -59.51110 -28.56923   0.02110
           D6         120.60983 155.12354 180.00389
           D7          90.04634  92.38495  89.96542
           D8         -89.90350 -87.56641 -89.95572
           D9         -90.05765 -90.83718 -90.04444
           D10         89.99251  89.21146  90.03443
 Largest change from initial coordinates is atom    6       0.000 Angstoms.
 Leave Link  103 at Sun Oct 23 08:29:46 2022, MaxMem=   939524096 cpu:         0.1
 (Enter /Local/ce_dana/g09/l202.exe)
                          Input orientation:                          
 ---------------------------------------------------------------------
 Center     Atomic      Atomic             Coordinates (Angstroms)
 Number     Number       Type             X           Y           Z
 ---------------------------------------------------------------------
      1          6           0       -1.577886   -0.310018   -0.114025
      2          6           0       -0.510203    0.257566   -1.008707
      3          6           0       -0.112217    1.499861   -0.990507
      4          6           0        0.279796    2.744345   -0.966959
      5          1           0       -2.399860   -0.716934   -0.706219
      6          1           0       -1.179478   -1.126191    0.491739
      7          1           0       -1.976752    0.452366    0.552152
      8          1           0       -0.042102   -0.420202   -1.716711
      9          1           0        1.092310    3.066221   -0.327049
     10          1           0       -0.193222    3.495044   -1.588229
 ---------------------------------------------------------------------
                    Distance matrix (angstroms):
                    1          2          3          4          5
     1  C    0.000000
     2  C    1.504179   0.000000
     3  C    2.488387   1.304616   0.000000
     4  C    3.675270   2.609581   1.304978   0.000000
     5  H    1.091749   2.147546   3.198173   4.385088   0.000000
     6  H    1.091704   2.148034   3.198789   4.386152   1.758389
     7  H    1.088171   2.150580   2.636955   3.557088   1.769119
     8  H    2.222471   1.086167   2.054004   3.268043   2.582280
     9  H    4.309793   3.304732   2.084357   1.083175   5.162488
    10  H    4.309184   3.304177   2.084367   1.083176   4.836108
                    6          7          8          9         10
     6  H    0.000000
     7  H    1.769502   0.000000
     8  H    2.582498   3.106764   0.000000
     9  H    4.838156   4.126061   3.920867   0.000000
    10  H    5.162826   4.125542   3.920267   1.851231   0.000000
 Stoichiometry    C4H6
 Framework group  C1[X(C4H6)]
 Deg. of freedom    24
 Full point group                 C1      NOp   1
 RotChk:  IX=0 Diff= 4.35D-15
 Largest Abelian subgroup         C1      NOp   1
 Largest concise Abelian subgroup C1      NOp   1
                         Standard orientation:                         
 ---------------------------------------------------------------------
 Center     Atomic      Atomic             Coordinates (Angstroms)
 Number     Number       Type             X           Y           Z
 ---------------------------------------------------------------------
      1          6           0       -1.738285   -0.368602   -0.000094
      2          6           0       -0.557194    0.562837    0.000122
      3          6           0        0.689345    0.177918   -0.000394
      4          6           0        1.933773   -0.214975    0.000098
      5          1           0       -2.362172   -0.199040    0.879639
      6          1           0       -2.363397   -0.198258   -0.878749
      7          1           0       -1.417170   -1.408313   -0.000366
      8          1           0       -0.764296    1.629077    0.000464
      9          1           0        2.471001   -0.383136   -0.925307
     10          1           0        2.470199   -0.383401    0.925923
 ---------------------------------------------------------------------
 Rotational constants (GHZ):     34.4170960      4.2134189      3.9464524
 Leave Link  202 at Sun Oct 23 08:29:46 2022, MaxMem=   939524096 cpu:         0.0
 (Enter /Local/ce_dana/g09/l601.exe)
 Copying SCF densities to generalized density rwf, IOpCl= 0 IROHF=0.

 **********************************************************************

            Population analysis using the SCF density.

 **********************************************************************

 Orbital symmetries:
       Occupied  (A) (A) (A) (A) (A) (A) (A) (A) (A) (A) (A) (A)
                 (A) (A) (A)
       Virtual   (A) (A) (A) (A) (A) (A) (A) (A) (A) (A) (A) (A)
                 (A) (A) (A) (A) (A) (A) (A) (A) (A) (A) (A) (A)
                 (A) (A) (A) (A) (A) (A) (A) (A) (A) (A) (A) (A)
                 (A) (A) (A) (A) (A) (A) (A) (A) (A) (A) (A) (A)
                 (A) (A) (A) (A) (A) (A) (A) (A) (A) (A) (A) (A)
                 (A) (A) (A) (A) (A) (A) (A) (A) (A) (A) (A) (A)
                 (A) (A) (A) (A) (A) (A) (A) (A) (A) (A) (A) (A)
                 (A) (A) (A) (A) (A) (A) (A) (A) (A) (A) (A) (A)
                 (A) (A) (A) (A) (A) (A) (A) (A) (A) (A) (A) (A)
                 (A) (A) (A) (A) (A) (A) (A) (A) (A) (A) (A) (A)
                 (A) (A) (A) (A) (A) (A) (A) (A) (A) (A) (A) (A)
                 (A) (A) (A) (A) (A) (A) (A) (A) (A) (A) (A) (A)
                 (A)
 The electronic state is 1-A.
 Alpha  occ. eigenvalues --  -10.63030 -10.62413 -10.61588 -10.61362  -0.92242
 Alpha  occ. eigenvalues --   -0.84776  -0.75440  -0.59452  -0.53939  -0.51213
 Alpha  occ. eigenvalues --   -0.48397  -0.48048  -0.44190  -0.31219  -0.30003
 Alpha virt. eigenvalues --    0.06211   0.07669   0.10083   0.12038   0.13270
 Alpha virt. eigenvalues --    0.15753   0.16111   0.17109   0.19668   0.21968
 Alpha virt. eigenvalues --    0.24078   0.26104   0.26425   0.29153   0.30058
 Alpha virt. eigenvalues --    0.31245   0.33967   0.39926   0.42699   0.42913
 Alpha virt. eigenvalues --    0.45981   0.48715   0.51694   0.51904   0.52527
 Alpha virt. eigenvalues --    0.53177   0.54487   0.57267   0.59003   0.59200
 Alpha virt. eigenvalues --    0.62517   0.63257   0.67817   0.74137   0.76404
 Alpha virt. eigenvalues --    0.86497   0.87590   0.92224   0.95851   0.99279
 Alpha virt. eigenvalues --    1.02342   1.04842   1.04870   1.10569   1.14273
 Alpha virt. eigenvalues --    1.15709   1.24252   1.24537   1.29807   1.30857
 Alpha virt. eigenvalues --    1.40501   1.50048   1.53048   1.56796   1.59697
 Alpha virt. eigenvalues --    1.60937   1.64425   1.65098   1.66100   1.68408
 Alpha virt. eigenvalues --    1.70826   1.72842   1.77119   1.78816   1.86843
 Alpha virt. eigenvalues --    1.87902   1.92605   1.93325   1.94207   2.05556
 Alpha virt. eigenvalues --    2.05565   2.14430   2.21285   2.24722   2.27796
 Alpha virt. eigenvalues --    2.29075   2.29772   2.43923   2.46169   2.49884
 Alpha virt. eigenvalues --    2.51595   2.53248   2.59937   2.63392   2.63447
 Alpha virt. eigenvalues --    2.65533   2.67784   2.70446   2.73788   2.77020
 Alpha virt. eigenvalues --    2.77239   2.88416   2.88932   2.91913   2.96878
 Alpha virt. eigenvalues --    2.98099   3.03541   3.04072   3.06138   3.12548
 Alpha virt. eigenvalues --    3.14972   3.17146   3.18333   3.20410   3.22051
 Alpha virt. eigenvalues --    3.24718   3.27372   3.31878   3.32482   3.36913
 Alpha virt. eigenvalues --    3.36969   3.42823   3.44923   3.46319   3.50704
 Alpha virt. eigenvalues --    3.60945   3.62316   3.64298   3.66392   3.76166
 Alpha virt. eigenvalues --    3.86598   3.87124   3.93015   4.02628   4.06464
 Alpha virt. eigenvalues --    4.12584   4.20288   4.24615   4.35484   4.40344
 Alpha virt. eigenvalues --    4.50033   4.54369   4.66319   4.66811   4.81334
 Alpha virt. eigenvalues --    4.83938   4.93466   5.12055   5.22881   5.30095
 Alpha virt. eigenvalues --    5.44505  22.72361  22.92493  23.08690  23.89322
          Condensed to atoms (all electrons):
               1          2          3          4          5          6
     1  C    4.863694   0.294303  -0.057680  -0.004785   0.409876   0.409877
     2  C    0.294303   4.966711   0.730645  -0.077778  -0.035414  -0.035364
     3  C   -0.057680   0.730645   4.757889   0.671265  -0.006286  -0.006270
     4  C   -0.004785  -0.077778   0.671265   4.884610   0.000015   0.000013
     5  H    0.409876  -0.035414  -0.006286   0.000015   0.577894  -0.038121
     6  H    0.409877  -0.035364  -0.006270   0.000013  -0.038121   0.577760
     7  H    0.415228  -0.065871   0.021830   0.006438  -0.020738  -0.020699
     8  H   -0.053843   0.387092  -0.021305   0.001511  -0.000262  -0.000261
     9  H    0.000025  -0.002602  -0.041376   0.406532  -0.000077   0.000164
    10  H    0.000026  -0.002615  -0.041261   0.406434   0.000165  -0.000077
               7          8          9         10
     1  C    0.415228  -0.053843   0.000025   0.000026
     2  C   -0.065871   0.387092  -0.002602  -0.002615
     3  C    0.021830  -0.021305  -0.041376  -0.041261
     4  C    0.006438   0.001511   0.406532   0.406434
     5  H   -0.020738  -0.000262  -0.000077   0.000165
     6  H   -0.020699  -0.000261   0.000164  -0.000077
     7  H    0.541356   0.005211  -0.000045  -0.000045
     8  H    0.005211   0.557628  -0.000113  -0.000112
     9  H   -0.000045  -0.000113   0.539685  -0.037099
    10  H   -0.000045  -0.000112  -0.037099   0.539673
 Mulliken charges:
               1
     1  C   -0.276721
     2  C   -0.159106
     3  C   -0.007452
     4  C   -0.294255
     5  H    0.112948
     6  H    0.112977
     7  H    0.117336
     8  H    0.124454
     9  H    0.134907
    10  H    0.134912
 Sum of Mulliken charges =  -0.00000
 Mulliken charges with hydrogens summed into heavy atoms:
               1
     1  C    0.066541
     2  C   -0.034653
     3  C   -0.007452
     4  C   -0.024437
 Electronic spatial extent (au):  <R**2>=            350.9041
 Charge=             -0.0000 electrons
 Dipole moment (field-independent basis, Debye):
    X=             -0.4482    Y=             -0.0512    Z=              0.0008  Tot=              0.4512
 Quadrupole moment (field-independent basis, Debye-Ang):
   XX=            -22.8873   YY=            -25.9804   ZZ=            -25.8902
   XY=             -1.2539   XZ=              0.0005   YZ=             -0.0001
 Traceless Quadrupole moment (field-independent basis, Debye-Ang):
   XX=              2.0320   YY=             -1.0611   ZZ=             -0.9709
   XY=             -1.2539   XZ=              0.0005   YZ=             -0.0001
 Octapole moment (field-independent basis, Debye-Ang**2):
  XXX=              2.4073  YYY=              1.7223  ZZZ=              0.0045  XYY=             -3.5471
  XXY=             -2.2239  XXZ=             -0.0030  XZZ=              1.0136  YZZ=             -1.0376
  YYZ=              0.0020  XYZ=             -0.0006
 Hexadecapole moment (field-independent basis, Debye-Ang**3):
 XXXX=           -370.8259 YYYY=            -65.3030 ZZZZ=            -43.1720 XXXY=             -9.2439
 XXXZ=              0.0087 YYYX=             -1.0990 YYYZ=              0.0024 ZZZX=              0.0006
 ZZZY=             -0.0013 XXYY=            -80.1151 XXZZ=            -62.5810 YYZZ=            -20.2269
 XXYZ=             -0.0033 YYXZ=              0.0001 ZZXY=             -1.6743
 N-N= 1.025863986559D+02 E-N=-5.660174123691D+02  KE= 1.550839952153D+02
 No NMR shielding tensors so no spin-rotation constants.
 Leave Link  601 at Sun Oct 23 08:29:46 2022, MaxMem=   939524096 cpu:         1.8
 (Enter /Local/ce_dana/g09/l9999.exe)

 Test job not archived.
 1\1\GINC-TECH-WN084\Scan\RB2PLYPD3-FC\def2TZVP\C4H6\ALONGD\23-Oct-2022
 \0\\#P opt=(modredundant, calcfc, noeigentest, maxStep=5) scf=(tight, 
 direct) integral=(grid=ultrafine, Acc2E=12) guess=read b2plypd3/def2tz
 vp IOp(2/9=2000) scf=xqc\\1,2-Butadiene\\0,1\C,-1.5778860272,-0.310017
 8798,-0.114024946\C,-0.5102033923,0.2575660451,-1.0087074714\C,-0.1122
 17027,1.4998613556,-0.9905069073\C,0.2797964357,2.7443447213,-0.966959
 2735\H,-2.3998604058,-0.7169336288,-0.706219424\H,-1.1794776002,-1.126
 190621,0.4917393069\H,-1.9767522522,0.4523662757,0.5521515961\H,-0.042
 1016558,-0.4202023041,-1.7167107291\H,1.0923100544,3.0662213961,-0.327
 0494617\H,-0.1932221296,3.4950436399,-1.5882286899\\Version=ES64L-G09R
 evD.01\State=1-A\HF=-155.671947,-155.6707008,-155.6692561,-155.6707841
 ,-155.6719452,-155.6706351,-155.6692563,-155.6707355,-155.6719464,-155
 .6706534,-155.6692557,-155.6707169,-155.6719478\MP2=-155.8813401,-155.
 8801749,-155.8787925,-155.8802533,-155.8813378,-155.8801148,-155.87879
 26,-155.8802053,-155.8813396,-155.8801271,-155.8787923,-155.8801927,-1
 55.88134\RMSD=7.877e-09,5.136e-09,7.908e-09,4.408e-09,7.660e-09,3.472e
 -09,3.305e-09,8.220e-09,3.322e-09,3.920e-09,4.751e-09,7.880e-09,8.690e
 -09\PG=C01 [X(C4H6)]\\@


            THE IRISH PIG
 'TWAS AN EVENING IN NOVEMBER,
 AS I VERY WELL REMEMBER
 I WAS STROLLING DOWN THE STREET IN DRUNKEN PRIDE,
 BUT MY KNEES WERE ALL A'FLUTTER
 SO I LANDED IN THE GUTTER,
 AND A PIG CAME UP AND LAY DOWN BY MY SIDE.

 YES, I LAY THERE IN THE GUTTER
 THINKING THOUGHTS I COULD NOT UTTER
 WHEN A COLLEEN PASSING BY DID SOFTLY SAY,
 'YE CAN TELL A MAN THAT BOOZES
 BY THE COMPANY THAT HE CHOOSES.' -
 AT THAT, THE PIG GOT UP AND WALKED AWAY!
     -- THE ECONOMIST, AUGUST 23, 1986
 Job cpu time:       0 days  6 hours 17 minutes 46.7 seconds.
 File lengths (MBytes):  RWF=   2863 Int=      0 D2E=      0 Chk=      4 Scr=      1
 Normal termination of Gaussian 09 at Sun Oct 23 08:29:47 2022.
