
 Working directory              : /var/lib/condor/execute/dir_54969/molpro.g5ya8TmmRc/
 Global scratch directory       : /var/lib/condor/execute/dir_54969/molpro.g5ya8TmmRc/
 Wavefunction directory         : /srv01/technion/alongd/wfu/
 Main file repository           : /var/lib/condor/execute/dir_54969/molpro.g5ya8TmmRc/

 id        : dana

 Nodes     nprocs
 tech-wn087    9
 Distribution of processes:   nprocs(total)=   10   nprocs(compute)=    9   nprocs(helper)=    1
 GA implementation: MPI file
 GA implementation (serial work in mppx): MPI file

 Using customized tuning parameters: mindgm=1; mindgv=20; mindgc=4; mindgr=1; noblas=0; minvec=7
 default implementation of scratch files=sf  


 Variables initialized (1009), CPU time= 0.02 sec
 ***,1,2-Butadiene
 memory,448,m;
 file,1,file1.int                                                                !allocate permanent integral file
 file,2,file2.wfu                                                                !allocate permanent wave-function (dump) file
 
 geometry={angstrom;
 C      -1.57004500   -0.31383400   -0.10934600
 C      -0.39847700    0.62165100    0.01284400
 C      -0.10155000    1.55284600   -0.85131600
 C       0.18880300    2.48204900   -1.72036000
 H      -1.23329100   -1.35203000   -0.13586600
 H      -2.23679500   -0.21086000    0.74902300
 H      -2.13910300   -0.11221700   -1.01469400
 H       0.24072600    0.50845700    0.88370600
 H      -0.21315300    3.48367400   -1.62847700
 H       0.84327100    2.28232300   -2.56003000}
 
 basis=cc-pvtz-f12
 
 
 
 int;
 {hf;
 maxit,1000;
 wf,spin=0,charge=0;}
 
 ccsd(t)-f12;
 
 
 
 Commands initialized (810), CPU time= 0.01 sec, 661 directives.
 Default parameters read. Elapsed time= 0.20 sec

 Checking input...
 Passed
1


                                         ***  PROGRAM SYSTEM MOLPRO  ***
                                       Copyright, TTI GmbH Stuttgart, 2015
                                    Version 2021.2 linked Jul 16 2021 12:17:16


 **********************************************************************************************************************************
 LABEL *   1,2-Butadiene                                                                 
  64 bit mpp version                                                                     DATE: 23-Oct-22          TIME: 07:29:49  
 **********************************************************************************************************************************

 SHA1:             dade016a989826d9d859d6207854b99675d53db3
 **********************************************************************************************************************************

 Memory per process:       448 MW
 Total memory per node:   4032 MW

 GA preallocation disabled
 GA check disabled

 Variable memory set to 448.0 MW



 Permanent file  1  file1.int        assigned.  Implementation=df  
 Permanent file  2  file2.wfu        assigned.  Implementation=df    Size=  0.10 GB


 PROGRAM * RESTART 


 Reading variables from file 2

 _FNUC           =      0.00000000
 _BASIS          =    CC-PVTZ-F12
 _NELEC          =     23.00000000
 _PROGRAM        =    UCCSD(T)-F12
 _DMX_SCF        =     -0.18726881
 _DMY_SCF        =     -0.03330868
 _DMZ_SCF        =      0.14918982
 _HOMO           =     12.10000000
 _EHOMO          =     -0.42459511
 _LUMO           =     13.10000000
 _ELUMO          =      0.05774179
 _EMP2           =   -168.87426980
 _EMP2_SING      =     -0.37679338
 _EMP2_TRIP      =     -0.22733740
 _EMP2_SINGLES   =     -0.00289537
 _EMP2_SCS       =   -168.86403614
 _ECSING(1:2)    =     -0.45051168    -0.44227948
 _ECTRIP(1:2)    =     -0.20672291    -0.20608128
 _ECTRIPAB(1:2)  =     -0.06967028    -0.06945639
 _ECTRIPAA(1:2)  =     -0.07416794    -0.07394117
 _ECTRIPBB(1:2)  =     -0.06288469    -0.06268373
 _ECSINGLES      =     -0.00416776
 _EF12           =     -0.05078624
 _EF12_SING      =     -0.04513251
 _EF12_TRIP      =     -0.00565372
 _ECSING_F12(1:2)=     -0.04461845    -0.03638625
 _ECTRIP_F12(1:2)=     -0.00542126    -0.00477963
 _ECTRIPAB_F12(1:2)   =     -0.00180839    -0.00159449
 _ECTRIPAA_F12(1:2)   =     -0.00198828    -0.00176151
 _ECTRIPBB_F12(1:2)   =     -0.00162459    -0.00142363
 _EF12_RHFRELAX  =     -0.00151050
 _EF12_CONVSUPPRS=     -0.00049061
 _EF12_CONVSUPPRT=     -0.00022555
 _EF12_SINGLES   =     -0.00151539
 _EF12_SCS       =     -0.05767734
 _EF12S          =     -0.05056793
 _EF12S_SING     =     -0.04512159
 _EF12S_TRIP     =     -0.00544633
 _EF12S_SCS      =     -0.05753533
 _EF12D          =     -0.05073898
 _EF12D_SING     =     -0.04526972
 _EF12D_TRIP     =     -0.00546925
 _EF12D_SCS      =     -0.05772730
 _EF12F          =     -0.05359399
 _EF12F_SING     =     -0.04780458
 _EF12F_TRIP     =     -0.00578941
 _EF12F_SCS      =     -0.06096817
 _ENERGC(1:2)    =   -168.92864621  -168.91977238
 _ENERG_CC(1:2)  =      0.00000000     0.00000000
 _ENERG_CV(1:2)  =      0.00000000     0.00000000
 _ENERG_VV(1:2)  =     -0.66140235    -0.65252853
 _ENERGR         =   -168.26724385
 _ENERGT(1:6)    =   -168.95842997  -168.96051522  -168.95791134  -168.94955614  -168.95164140  -168.94903751
 _ENERGY(1:2)    =   -168.95842997  -168.94955614
 _ENERGY_METHOD  =    UCCSD(T)-F12
 _ENERGY_BASIS   =    cc-pVTZ-F12
 _ENUC           =     63.37181514
 _IPROC_MPP      =      0.00000000
 _IPROC_MPPX     =      0.00000000
 _ORBITAL        =   2126.20000000
 _ECDIAG(1:2)    =     -0.12763462    -0.12536254
 _EPDIAG(1:2)    =     -0.12763462    -0.12536254
 _STATUS         =      1.00000000
 _T1DIAG         =      0.03137318
 _D1DIAG         =      0.09998198
 _D2DIAG         =      0.18722006
 !DFBASIS_MP2    =    CC-PVTZ-F12-MP2FIT
 !DFBASIS_F12K   =    VTZ-F12-JKFIT
 !RIBASIS_MP2    =    CC-PVTZ-F12_OPT
 !RIBASIS_EXCH   =     
 _DATE           =    17-Oct-21
 _METHODC        =    UCCSD-F12a
 _METHODC        =    UCCSD-F12b
 _METHODT        =    UCCSD(T)-F12a
 _METHODT        =    UCCSD[T]-F12a
 _METHODT        =    UCCSD-T-F12a
 _METHODT        =    UCCSD(T)-F12b
 _METHODT        =    UCCSD[T]-F12b
 _METHODT        =    UCCSD-T-F12b
 _OUTPUT         =    /storage/ce_dana/alongd/runs/ARC/debug2/calcs/Species/HNO/sp_a3414/input.out
 _PGROUP         =    C1  
 _TIME           =    16:28:08
 _ANSATZ         =    F12/3C(FIX)
 _SVDDEL         =      0.00000000
 _SYM_CATION     =      1.00000000

 Geometry written to block  1 of record 710


 **********************************************************************************************************************************
 DATASETS  * FILE   NREC   LENGTH (MB)   RECORD NAMES
              1       2       11.48       500      710   
                                          VAR     GEOM   

              2      77      100.25       500      610      700     1000      520     2100     7360     7350      701     1001   
                                          VAR    BASINP    GEOM     BASIS   MCVARS     RHF    F12ABS    EF12     GEOM     BASIS   
                                         2101      702     1002     2102      703     1003     2103     1004     2104     1005   
                                          RHF     GEOM     BASIS     RHF     GEOM     BASIS     RHF     BASIS     RHF     BASIS   
                                         2105      702(1)  1006     2106     1007     2107      704     1008     2108      705   
                                          RHF     GEOM     BASIS     RHF     BASIS     RHF     GEOM     BASIS     RHF     GEOM   
                                         1009     2109      706     1010     2110      707     1011     2111      708     1012   
                                         BASIS     RHF     GEOM     BASIS     RHF     GEOM     BASIS     RHF     GEOM     BASIS   
                                         2112      709     1013     2113      710     1014     2114      711     1015     2115   
                                          RHF     GEOM     BASIS     RHF     GEOM     BASIS     RHF     GEOM     BASIS     RHF  
                                          712     1016     2116      713     1017     2117      714     1018     2118     1019   
                                         GEOM     BASIS     RHF     GEOM     BASIS     RHF     GEOM     BASIS     RHF     BASIS   
                                         2119     1020     2120     1021     2121     1022     2122     1023     2123      714(1)
                                          RHF     BASIS     RHF     BASIS     RHF     BASIS     RHF     BASIS     RHF     GEOM   
                                         1024     2124      715     1025     2125     1026     2126   
                                         BASIS     RHF     GEOM     BASIS     RHF     BASIS     RHF  

 PROGRAMS   *        TOTAL   RESTART
 CPU TIMES  *         8.96      8.74
 REAL TIME  *        10.34 SEC
 DISK USED  *       111.73 MB (local),     1005.56 MB (total)
 **********************************************************************************************************************************

 Geometry recognized as XYZ

 SETTING BASIS          =    CC-PVTZ-F12


 Using spherical harmonics

 Library entry C      S cc-pVTZ-F12          selected for orbital group  1
 Library entry C      P cc-pVTZ-F12          selected for orbital group  1
 Library entry C      D cc-pVTZ-F12          selected for orbital group  1
 Library entry C      F cc-pVTZ-F12          selected for orbital group  1
 Library entry H      S cc-pVTZ-F12          selected for orbital group  2
 Library entry H      P cc-pVTZ-F12          selected for orbital group  2
 Library entry H      D cc-pVTZ-F12          selected for orbital group  2


 PROGRAM * SEWARD (Integral evaluation for generally contracted gaussian basis sets)     Author: Roland Lindh, 1990

 Geometry written to block  1 of record 711


 Point group  C1  



 ATOMIC COORDINATES

 NR  ATOM    CHARGE       X              Y              Z

   1  C       6.00   -2.966955053   -0.593060309   -0.206633993
   2  C       6.00   -0.753012397    1.174750135    0.024271642
   3  C       6.00   -0.191901688    2.934453654   -1.608754086
   4  C       6.00    0.356785962    4.690392838   -3.251009236
   5  H       1.00   -2.330582222   -2.554966412   -0.256749530
   6  H       1.00   -4.226929947   -0.398467651    1.415448331
   7  H       1.00   -4.042318822   -0.212059397   -1.917493760
   8  H       1.00    0.454906211    0.960844476    1.669962315
   9  H       1.00   -0.402800793    6.583189767   -3.077375530
  10  H       1.00    1.593551239    4.312965398   -4.837755571

 Bond lengths in Bohr (Angstrom)

 1-2  2.842536414  1-5  2.063142629  1-6  2.063141803  1-7  2.056358450  2-3  2.465395451
     ( 1.504205491)     ( 1.091768062)     ( 1.091767625)     ( 1.088178029)     ( 1.304631088)

  2- 8  2.052588800   3- 4  2.466045931   4- 9  2.046900319   4-10  2.046901013
       ( 1.086183217)       ( 1.304975308)       ( 1.083173002)       ( 1.083173369)

 Bond angles

  1-2-3  124.56602607   1-2-8  117.30109968   2-1-5  110.67893957   2-1-6  110.67899185

  2-1-7  111.07923630   2-3-4  179.63020222   3-2-8  118.13287424   3-4-9  121.29079289

  3- 4-10  121.29066107   5- 1- 6  107.28710175   5- 1- 7  108.49850977   6- 1- 7  108.49858026

  9- 4-10  117.41833937

 NUCLEAR CHARGE:                   30
 NUMBER OF PRIMITIVE AOS:         414
 NUMBER OF SYMMETRY AOS:          372
 NUMBER OF CONTRACTIONS:          320   (  320A   )
 NUMBER OF INNER CORE ORBITALS:     0   (    0A   )
 NUMBER OF OUTER CORE ORBITALS:     4   (    4A   )
 NUMBER OF VALENCE ORBITALS:       22   (   22A   )

 MOLECULE CHANGED: INITIALIZING OCCUPATION AND DUMP RECORDS


 NUCLEAR REPULSION ENERGY  102.59092466


 Eigenvalues of metric

         1 0.167E-04 0.360E-04 0.549E-04 0.588E-04 0.765E-04 0.152E-03 0.164E-03 0.175E-03


 Contracted 2-electron integrals neglected if value below      1.0D-12
 AO integral compression algorithm  1   Integral accuracy      1.0D-12

     5818.810 MB (compressed) written to integral file ( 49.8%)

     Node minimum: 636.486 MB, node maximum: 656.933 MB


 NUMBER OF SORTED TWO-ELECTRON INTEGRALS:  146538639.     BUFFER LENGTH:  32768
 NUMBER OF SEGMENTS:   5  SEGMENT LENGTH:   31995999      RECORD LENGTH: 524288

 Memory used in sort:      32.55 MW

 SORT1 READ  1460228702. AND WROTE   136634956. INTEGRALS IN    393 RECORDS. CPU TIME:   176.01 SEC, REAL TIME:   203.67 SEC
 SORT2 READ  1220362134. AND WROTE  1318950480. INTEGRALS IN  22185 RECORDS. CPU TIME:     3.63 SEC, REAL TIME:    78.53 SEC

 Node minimum:   146527227.  Node maximum:   146572881. integrals

 OPERATOR DM      FOR CENTER  0  COORDINATES:    0.000000    0.000000    0.000000


 **********************************************************************************************************************************
 DATASETS  * FILE   NREC   LENGTH (MB)   RECORD NAMES
              1      19       32.57       500      710      610      711      900      950      970     1027      129      960   
                                          VAR     GEOM    BASINP    GEOM    SYMINP    ZMAT    AOBASIS   BASIS     P2S    ABASIS    
                                         1100     1400     1410     1200     1210     1080     1600     1650     1700   
                                           S        T        V       H0       H01     AOSYM     SMH    MOLCAS    OPER   

              2      79      100.60       500      610      700     1000      520     2100     7360     7350      701     1001   
                                          VAR    BASINP    GEOM     BASIS   MCVARS     RHF    F12ABS    EF12     GEOM     BASIS   
                                         2101      702     1002     2102      703     1003     2103     1004     2104     1005   
                                          RHF     GEOM     BASIS     RHF     GEOM     BASIS     RHF     BASIS     RHF     BASIS   
                                         2105      702(1)  1006     2106     1007     2107      704     1008     2108      705   
                                          RHF     GEOM     BASIS     RHF     BASIS     RHF     GEOM     BASIS     RHF     GEOM   
                                         1009     2109      706     1010     2110      707     1011     2111      708     1012   
                                         BASIS     RHF     GEOM     BASIS     RHF     GEOM     BASIS     RHF     GEOM     BASIS   
                                         2112      709     1013     2113      710     1014     2114      711     1015     2115   
                                          RHF     GEOM     BASIS     RHF     GEOM     BASIS     RHF     GEOM     BASIS     RHF  
                                          712     1016     2116      713     1017     2117      714     1018     2118     1019   
                                         GEOM     BASIS     RHF     GEOM     BASIS     RHF     GEOM     BASIS     RHF     BASIS   
                                         2119     1020     2120     1021     2121     1022     2122     1023     2123      714(1)
                                          RHF     BASIS     RHF     BASIS     RHF     BASIS     RHF     BASIS     RHF     GEOM   
                                         1024     2124      715     1025     2125     1026     2126      711(1)  1027   
                                         BASIS     RHF     GEOM     BASIS     RHF     BASIS     RHF     GEOM     BASIS   

 PROGRAMS   *        TOTAL       INT   RESTART
 CPU TIMES  *       198.20    188.94      8.74
 REAL TIME  *       373.43 SEC
 DISK USED  *       133.26 MB (local),       20.15 GB (total)
 GA USED    *         0.00 MB       (max)       0.00 MB       (current)
 **********************************************************************************************************************************


 Program * Restricted Hartree-Fock

 Orbital guess generated from atomic densities. Full valence occupancy:   26

 Initial occupancy:  15

 NELEC=   30   SYM=1   MS2= 0   THRE=1.0D-08   THRD=3.2D-06   THRG=3.2D-06  HFMA2=F  DIIS_START=2   DIIS_MAX=10   DIIS_INCORE=F

 Level shifts:    0.00 (CLOSED)    0.00 (OPEN)    0.30 (GAP_MIN)

 ITER           ETOT              DE          GRAD        DDIFF     DIIS  NEXP   TIME(IT)  TIME(TOT)  DIAG
   1     -154.91668065    -154.91668065     0.00D+00     0.35D-01     0     0       1.87      3.80    start
   2     -154.95996025      -0.04327960     0.25D-02     0.29D-02     1     0       2.00      5.80    diag
   3     -154.96515033      -0.00519009     0.91D-03     0.85D-03     2     0       1.98      7.78    diag
   4     -154.96607148      -0.00092115     0.32D-03     0.40D-03     3     0       1.98      9.76    diag
   5     -154.96612106      -0.00004958     0.81D-04     0.10D-03     4     0       2.02     11.78    diag
   6     -154.96612705      -0.00000599     0.29D-04     0.34D-04     5     0       1.95     13.73    diag
   7     -154.96612765      -0.00000060     0.60D-05     0.12D-04     6     0       2.10     15.83    diag
   8     -154.96612774      -0.00000009     0.27D-05     0.41D-05     7     0       1.95     17.78    diag
   9     -154.96612775      -0.00000001     0.90D-06     0.15D-05     8     0       1.95     19.73    diag
  10     -154.96612775      -0.00000000     0.13D-06     0.29D-06     0     0       1.92     21.65    diag/orth

 Final occupancy:  15

 !RHF STATE 1.1 Energy               -154.966127745968
  RHF One-electron energy            -410.572497364406
  RHF Two-electron energy             153.015444957072
  RHF Kinetic energy                  154.798076798147
  RHF Nuclear energy                  102.590924661365
  RHF Virial quotient                  -1.001085613926

 !RHF STATE 1.1 Dipole moment          -0.09998910    -0.14298938     0.07101059
 Dipole moment /Debye                  -0.25414695    -0.36344276     0.18049091

 Orbital energies:

           1.1          2.1          3.1          4.1          5.1          6.1          7.1          8.1          9.1         10.1
    -11.248526   -11.238768   -11.229942   -11.226844    -1.086624    -0.998963    -0.891458    -0.702715    -0.638937    -0.604984

          11.1         12.1         13.1         14.1         15.1         16.1         17.1
     -0.572799    -0.569417    -0.528417    -0.372049    -0.360360     0.049690     0.052881


 HOMO     15.1    -0.360360 =      -9.8059eV
 LUMO     16.1     0.049690 =       1.3521eV
 LUMO-HOMO         0.410050 =      11.1580eV

 Orbitals saved in record  2127.2


 **********************************************************************************************************************************
 DATASETS  * FILE   NREC   LENGTH (MB)   RECORD NAMES
              1      19       32.57       500      710      610      711      900      950      970     1027      129      960   
                                          VAR     GEOM    BASINP    GEOM    SYMINP    ZMAT    AOBASIS   BASIS     P2S    ABASIS    
                                         1100     1400     1410     1200     1210     1080     1600     1650     1700   
                                           S        T        V       H0       H01     AOSYM     SMH    MOLCAS    OPER   

              2      80      104.55       500      610      700     1000      520     2100     7360     7350      701     1001   
                                          VAR    BASINP    GEOM     BASIS   MCVARS     RHF    F12ABS    EF12     GEOM     BASIS   
                                         2101      702     1002     2102      703     1003     2103     1004     2104     1005   
                                          RHF     GEOM     BASIS     RHF     GEOM     BASIS     RHF     BASIS     RHF     BASIS   
                                         2105      702(1)  1006     2106     1007     2107      704     1008     2108      705   
                                          RHF     GEOM     BASIS     RHF     BASIS     RHF     GEOM     BASIS     RHF     GEOM   
                                         1009     2109      706     1010     2110      707     1011     2111      708     1012   
                                         BASIS     RHF     GEOM     BASIS     RHF     GEOM     BASIS     RHF     GEOM     BASIS   
                                         2112      709     1013     2113      710     1014     2114      711     1015     2115   
                                          RHF     GEOM     BASIS     RHF     GEOM     BASIS     RHF     GEOM     BASIS     RHF  
                                          712     1016     2116      713     1017     2117      714     1018     2118     1019   
                                         GEOM     BASIS     RHF     GEOM     BASIS     RHF     GEOM     BASIS     RHF     BASIS   
                                         2119     1020     2120     1021     2121     1022     2122     1023     2123      714(1)
                                          RHF     BASIS     RHF     BASIS     RHF     BASIS     RHF     BASIS     RHF     GEOM   
                                         1024     2124      715     1025     2125     1026     2126      711(1)  1027     2127   
                                         BASIS     RHF     GEOM     BASIS     RHF     BASIS     RHF     GEOM     BASIS     RHF  

 PROGRAMS   *        TOTAL    HF-SCF       INT   RESTART
 CPU TIMES  *       232.30     34.05    188.94      8.74
 REAL TIME  *       411.81 SEC
 DISK USED  *       143.86 MB (local),       20.24 GB (total)
 GA USED    *         0.00 MB       (max)       0.00 MB       (current)
 **********************************************************************************************************************************


 PROGRAM * CCSD (Closed-shell coupled cluster)     Authors: C. Hampel, H.-J. Werner, 1991, M. Deegan, P.J. Knowles, 1992

                                  CCSD-F12 implementation by  H.-J. Werner, 2007

                   Density fitting integral evaluation by F.R. Manby, 2003,2007, G. Knizia, 2010


 Basis set VTZ-F12/JKFIT generated.      Number of basis functions:   692 
 Basis set CC-PVTZ-F12/OPTRI generated.  Number of basis functions:   546 
 Basis set CC-PVTZ-F12/MP2FIT generated. Number of basis functions:   700 

 Convergence thresholds:  THRVAR = 1.00D-08  THRDEN = 1.00D-06

 CCSD(T)     terms to be evaluated (factor= 1.000)


 Number of core orbitals:           4 (   4 )
 Number of closed-shell orbitals:  11 (  11 )
 Number of external orbitals:     305 ( 305 )

 Molecular orbitals read from record     2127.2  Type=RHF/CANONICAL  

 MP2-F12 correlation treatment (H.-J. Werner, 2006)
 ==================================================

 Using MP2-F12 with ansatz 3C(FIX)

 Using projected zeroth-order Hamiltonian (+Z)

 FOCKRIB=T FOCKRIC=T FOCKRIP=T CABSP=T CABSA=T CABSK=T CABSF=T GBC=F EBC=F DMAT=T NOFIK=T NOPAO=1 SOLVE=-1  USEPAO=0
 EXCH_A= T EXCH_B= F EXCH_C= F EXCH_P= F

 Geminal basis:    OPTFULL  GEM_TYPE=SLATER  BETA=1.0  NGEM=6

 Optimizing Gaussian exponents for each gem_beta

 Geminal optimization for beta= 1.0000
 Weight function:   m=0, omega= 1.4646

 Augmented Hessian optimization of geminal fit. Trust ratio= 0.40000
 Convergence reached after   2 iterations. Final gradient= 9.01D-16, Step= 4.09D-06, Delta= 1.28D-09

 Alpha:                 0.19532     0.81920     2.85917     9.50073    35.69989   197.79328
 Coeff:                 0.27070     0.30552     0.18297     0.10986     0.06810     0.04224


 All pairs explicitly correlated. Number of r12-pairs:           66

 Excluding core orbitals from MO domains

 AO(A)-basis ORBITAL           loaded. Number of functions:     320
 RI(R)-basis CC-PVTZ-F12/OPTRI loaded. Number of functions:     546
 DF-basis VTZ-F12/JKFIT        loaded. Number of functions:     692

 Screening thresholds:   THRAO=  1.00D-10  THRMO=  1.00D-09  THRPROD=  1.00D-09
                         THRSW=  1.00D-05  THROV=  1.00D-12  THRAOF12= 1.00D-08

 CPU time for Fock operators                      1.68 sec

 Construction of ABS:
 Smallest eigenvalue of S          4.31E-05  (threshold= 1.00E-08)
 Ratio eigmin/eigmax               4.82E-06  (threshold= 1.00E-09)
 Smallest eigenvalue of S kept     4.31E-05  (threshold= 4.31E-05, 0 functions deleted, 546 kept)

 Construction of CABS:
 Smallest eigenvalue of S          1.03E-07  (threshold= 1.00E-08)
 Ratio eigmin/eigmax               1.03E-07  (threshold= 1.00E-09)
 Smallest eigenvalue of S kept     1.03E-07  (threshold= 1.03E-07, 0 functions deleted, 546 kept)

 CPU time for CABS singles                        0.33 sec

 CABS-singles contribution of  -0.00129088 patched into reference energy.
 New reference energy        -154.96741863

 AO(A)-basis ORBITAL           loaded. Number of functions:     320
 RI(R)-basis CC-PVTZ-F12/OPTRI loaded. Number of functions:     546
 DF-basis CC-PVTZ-F12/MP2FIT   loaded. Number of functions:     700

 Screening thresholds:   THRAO=  1.00D-10  THRMO=  1.00D-09  THRPROD=  1.00D-09
                         THRSW=  1.00D-05  THROV=  1.00D-12  THRAOF12= 1.00D-08

 CPU time for 3-index integral evaluation         3.99 sec
 CPU time for first  half transformation          0.21 sec (11779.0 MFLOP/sec)
 CPU time for second half transformation          0.03 sec ( 1872.6 MFLOP/sec)
 CPU time for sorting                             0.17 sec
 CPU time for fitting                             0.13 sec (11209.7 MFLOP/sec)
 CPU time for tilde quantities                    0.14 sec (14679.0 MFLOP/sec)
 CPU time for assembly                            1.09 sec (15864.3 MFLOP/sec)
 CPU time for tranop_f12                          2.27 sec (10707.8 MFLOP/sec)
 CPU time for f12 integrals (total)              11.13 sec, Elapsed time:     54.48 sec
 F12-matrices built in  9 passes.
 F12-matrices built in  9 passes.
 F12-matrices built in  9 passes.
 F12-matrices built in  9 passes.
 FC-matrix built in  9 passes.
 CPU time for f12 matrices (total)                1.01 sec, Elapsed time:      1.09 sec

 Diagonal F12 approximation with fixed coefficients:  TSING= 0.500,  TTRIP= 0.250 (scaled by -1/beta)

 DF-MP2-F12 energy corrections:
 ==============================
 Approx.                                    Singlet             Triplet             Total
 DF-MP2-F12/3*C(DX,FIX)                -0.048308881767     -0.004257182438     -0.052566064205
 DF-MP2-F12/3*C(FIX)                   -0.047364220904     -0.004290717950     -0.051654938854
 DF-MP2-F12/3C(FIX)                    -0.047371763600     -0.004383607661     -0.051755371261

 DF-MP2-F12 correlation energies:
 ================================
 Approx.                                    Singlet             Triplet             Ecorr            Total Energy
 DF-MP2                                -0.442675399993     -0.227869544112     -0.670544944105   -155.637963570827
 DF-MP2-F12/3*C(DX,FIX)                -0.490984281761     -0.232126726550     -0.723111008310   -155.690529635032
 DF-MP2-F12/3*C(FIX)                   -0.490039620897     -0.232160262062     -0.722199882959   -155.689618509681
 DF-MP2-F12/3C(FIX)                    -0.490047163593     -0.232253151773     -0.722300315366   -155.689718942088

 SCS-DF-MP2 energies (F_SING= 1.20000  F_TRIP= 0.62222  F_PARALLEL= 0.33333):
 ============================================================================
 SCS-DF-MP2                            -0.672995974106   -155.640414600828
 SCS-DF-MP2-F12/3*C(DX,FIX)            -0.733615545743   -155.701034172466
 SCS-DF-MP2-F12/3*C(FIX)               -0.732502819248   -155.699921445970
 SCS-DF-MP2-F12/3C(FIX)                -0.732569668526   -155.699988295248
 Symmetry transformation completed.

 Number of N-1 electron functions:              11
 Number of N-2 electron functions:              66
 Number of singly external CSFs:              3355
 Number of doubly external CSFs:           5629690
 Total number of CSFs:                     5633046

 Pair and operator lists are different

 Length of J-op  integral file:             793.50 MB
 Length of K-op  integral file:             969.00 MB
 Length of 3-ext integral record:             0.00 MB

 Memory could be reduced to 398.01 Mwords without degradation in triples

 Integral transformation finished. Total CPU:  63.15 sec, npass=  1  Memory used: 210.72 MW

 Reference energy:                   -154.96741863

 Adding F12 terms to K(Cij), methodcc=6,  factor= 1.0

 ITER.      SQ.NORM     CORR.ENERGY   TOTAL ENERGY   ENERGY CHANGE        DEN1      VAR(S)    VAR(P)  DIIS     TIME  TIME/IT
   1      1.23231886    -0.69035912  -155.65777774    -0.01972964    -0.00103400  0.34D-02  0.38D-02  1  1    93.85    19.37
   2      1.24919113    -0.69261790  -155.66003653    -0.00225878    -0.01583158  0.67D-04  0.64D-03  2  2   109.12    19.15
   3      1.25731078    -0.69303663  -155.66045526    -0.00041873    -0.00413683  0.33D-04  0.66D-04  3  3   124.03    18.51
   4      1.26067331    -0.69312142  -155.66054004    -0.00008479    -0.00128043  0.25D-05  0.90D-05  4  4   140.50    18.89
   5      1.26163861    -0.69313647  -155.66055510    -0.00001505    -0.00018352  0.40D-06  0.11D-05  5  5   155.82    18.81
   6      1.26187680    -0.69313034  -155.66054896     0.00000613    -0.00002539  0.58D-07  0.11D-06  6  6   171.26    18.74
   7      1.26191581    -0.69312985  -155.66054848     0.00000049    -0.00000719  0.87D-08  0.15D-07  6  2   185.33    18.66
   8      1.26192418    -0.69312987  -155.66054850    -0.00000002    -0.00000210  0.16D-08  0.19D-08  6  1   198.95    18.35

 Norm of t1 vector:      0.07927002      S-energy:     0.00000053      T1 diagnostic:  0.01195040
                                                                       D1 diagnostic:  0.03129886
                                                                       D2 diagnostic:  0.18546222 (internal)

 Doubles amplitudes (print threshold =  0.500E-01):

         I         J         SYM. A    SYM. B    A         B      T(IJ, AB)

        11        11         1         1        15        15     -0.07954097

 Adding energy correction from Wij-K(Fij), methodcc=6  factor= 1.0

  CCSD correlation energy              -0.693129869277
  MP2-F12 correction (uncoupled)       -0.050246546028
  C*T doubles correction               -0.001138861570
  f12b correction                       0.010367911948


 Total CPU time for triples:    224.74 sec


 RESULTS
 =======

  Reference energy                   -154.966127745968
  F12 singles correction               -0.001290880754

 F12 singles corrections added to reference energy

  New reference energy               -154.967418626722

  F12a singlet correction              -0.047103994663
  F12a triplet correction              -0.004281412935
  F12a total correction                -0.051385407598

 F12a corrections for ansatz F12/3C(FIX) added to CCSD energy

  CCSD-F12a singlet pair energy        -0.532943642919
  CCSD-F12a triplet pair energy        -0.211572161519
  CCSD-F12a correlation energy         -0.744515276875

  Triples (T) contribution             -0.033142961004
  Total correlation energy             -0.777658237879

  CCSD-F12a total energy             -155.711933903597
  CCSD[T]-F12a energy                -155.746015448115
  CCSD-T-F12a energy                 -155.744735796612
 !CCSD(T)-F12a total energy          -155.745076864601

 F12b corrections for ansatz F12/3C(FIX) added to CCSD(T)-F12a energy

  CCSD-F12b singlet pair energy        -0.523149402075
  CCSD-F12b triplet pair energy        -0.210998490415
  CCSD-F12b correlation energy         -0.734147364927

  Triples (T) contribution             -0.033142961004
  Total correlation energy             -0.767290325931

  CCSD-F12b total energy             -155.701565991649
  CCSD[T]-F12b energy                -155.735647536167
  CCSD-T-F12b energy                 -155.734367884664
 !CCSD(T)-F12b total energy          -155.734708952653

 Timing summary (sec):

 STEP                 CPU(USER)    SYS     CPU(TOT)    WALL
 Transformation         63.36      5.39     68.75    208.61
 CCSD iterations       120.58      8.04    128.62    148.46
 Triples               224.74      9.03    233.77    233.83
 MP2-F12                15.66      2.34     18.00     60.42
 F12b energy            10.14      0.22     10.36     10.40

 Program statistics:

 Available memory in ccsd:               447998371
 Min. memory needed in ccsd:              14837377
 Max. memory used in ccsd:                19853982
 Max. memory used in cckext:              14364092 ( 9 integral passes)



 **********************************************************************************************************************************
 DATASETS  * FILE   NREC   LENGTH (MB)   RECORD NAMES
              1      20     1306.03       500      710      610      711      900      950      970     1027      129      960   
                                          VAR     GEOM    BASINP    GEOM    SYMINP    ZMAT    AOBASIS   BASIS     P2S    ABASIS    
                                         1100     1400     1410     1200     1210     1080     1600     1650     1700     1380   
                                           S        T        V       H0       H01     AOSYM     SMH    MOLCAS    OPER     JKOP   

              2      80      104.55       500      610      700     1000      520     2100     7360     7350      701     1001   
                                          VAR    BASINP    GEOM     BASIS   MCVARS     RHF    F12ABS    EF12     GEOM     BASIS   
                                         2101      702     1002     2102      703     1003     2103     1004     2104     1005   
                                          RHF     GEOM     BASIS     RHF     GEOM     BASIS     RHF     BASIS     RHF     BASIS   
                                         2105      702(1)  1006     2106     1007     2107      704     1008     2108      705   
                                          RHF     GEOM     BASIS     RHF     BASIS     RHF     GEOM     BASIS     RHF     GEOM   
                                         1009     2109      706     1010     2110      707     1011     2111      708     1012   
                                         BASIS     RHF     GEOM     BASIS     RHF     GEOM     BASIS     RHF     GEOM     BASIS   
                                         2112      709     1013     2113      710     1014     2114      711     1015     2115   
                                          RHF     GEOM     BASIS     RHF     GEOM     BASIS     RHF     GEOM     BASIS     RHF  
                                          712     1016     2116      713     1017     2117      714     1018     2118     1019   
                                         GEOM     BASIS     RHF     GEOM     BASIS     RHF     GEOM     BASIS     RHF     BASIS   
                                         2119     1020     2120     1021     2121     1022     2122     1023     2123      714(1)
                                          RHF     BASIS     RHF     BASIS     RHF     BASIS     RHF     BASIS     RHF     GEOM   
                                         1024     2124      715     1025     2125     1026     2126      711(1)  1027     2127   
                                         BASIS     RHF     GEOM     BASIS     RHF     BASIS     RHF     GEOM     BASIS     RHF  

 PROGRAMS   *        TOTAL   CCSD(T)    HF-SCF       INT   RESTART
 CPU TIMES  *       666.87    434.52     34.05    188.94      8.74
 REAL TIME  *      1074.85 SEC
 DISK USED  *         1.93 GB (local),       31.93 GB (total)
 SF USED    *         3.42 GB
 GA USED    *         3.05 MB       (max)       0.00 MB       (current)
 **********************************************************************************************************************************

 CCSD(T)-F12/cc-pVTZ-F12 energy=   -155.734708952653

     CCSD(T)-F12          HF-SCF
   -155.73470895   -154.96612775
 **********************************************************************************************************************************
 Molpro calculation terminated
