 Entering Gaussian System, Link 0=g16
 Initial command:
 /gpfs/apps/medsci/stacks/noOS/software/gaussian/g16.a03.avx2/g16/l1.exe "/localscratch/ranasd01/g16/a20917-2379085/Gau-10097.inp" -scrdir="/localscratch/ranasd01/g16/a20917-2379085/"
 Default is to use a total of   8 processors:
                                8 via shared-memory
                                1 via Linda
 Entering Link 1 = /gpfs/apps/medsci/stacks/noOS/software/gaussian/g16.a03.avx2/g16/l1.exe PID=     10098.
  
 Copyright (c) 1988,1990,1992,1993,1995,1998,2003,2009,2016,
            Gaussian, Inc.  All Rights Reserved.
  
 This is part of the Gaussian(R) 16 program.  It is based on
 the Gaussian(R) 09 system (copyright 2009, Gaussian, Inc.),
 the Gaussian(R) 03 system (copyright 2003, Gaussian, Inc.),
 the Gaussian(R) 98 system (copyright 1998, Gaussian, Inc.),
 the Gaussian(R) 94 system (copyright 1995, Gaussian, Inc.),
 the Gaussian 92(TM) system (copyright 1992, Gaussian, Inc.),
 the Gaussian 90(TM) system (copyright 1990, Gaussian, Inc.),
 the Gaussian 88(TM) system (copyright 1988, Gaussian, Inc.),
 the Gaussian 86(TM) system (copyright 1986, Carnegie Mellon
 University), and the Gaussian 82(TM) system (copyright 1983,
 Carnegie Mellon University). Gaussian is a federally registered
 trademark of Gaussian, Inc.
  
 This software contains proprietary and confidential information,
 including trade secrets, belonging to Gaussian, Inc.
  
 This software is provided under written license and may be
 used, copied, transmitted, or stored only in accord with that
 written license.
  
 The following legend is applicable only to US Government
 contracts under FAR:
  
                    RESTRICTED RIGHTS LEGEND
  
 Use, reproduction and disclosure by the US Government is
 subject to restrictions as set forth in subparagraphs (a)
 and (c) of the Commercial Computer Software - Restricted
 Rights clause in FAR 52.227-19.
  
 Gaussian, Inc.
 340 Quinnipiac St., Bldg. 40, Wallingford CT 06492
  
  
 ---------------------------------------------------------------
 Warning -- This program may not be used in any manner that
 competes with the business of Gaussian, Inc. or will provide
 assistance to any competitor of Gaussian, Inc.  The licensee
 of this program is prohibited from giving any competitor of
 Gaussian, Inc. access to this program.  By using this program,
 the user acknowledges that Gaussian, Inc. is engaged in the
 business of creating and licensing software in the field of
 computational chemistry and represents and warrants to the
 licensee that it is not a competitor of Gaussian, Inc. and that
 it will not use this program in any manner prohibited above.
 ---------------------------------------------------------------
  

 Cite this work as:
 Gaussian 16, Revision A.03,
 M. J. Frisch, G. W. Trucks, H. B. Schlegel, G. E. Scuseria, 
 M. A. Robb, J. R. Cheeseman, G. Scalmani, V. Barone, 
 G. A. Petersson, H. Nakatsuji, X. Li, M. Caricato, A. V. Marenich, 
 J. Bloino, B. G. Janesko, R. Gomperts, B. Mennucci, H. P. Hratchian, 
 J. V. Ortiz, A. F. Izmaylov, J. L. Sonnenberg, D. Williams-Young, 
 F. Ding, F. Lipparini, F. Egidi, J. Goings, B. Peng, A. Petrone, 
 T. Henderson, D. Ranasinghe, V. G. Zakrzewski, J. Gao, N. Rega, 
 G. Zheng, W. Liang, M. Hada, M. Ehara, K. Toyota, R. Fukuda, 
 J. Hasegawa, M. Ishida, T. Nakajima, Y. Honda, O. Kitao, H. Nakai, 
 T. Vreven, K. Throssell, J. A. Montgomery, Jr., J. E. Peralta, 
 F. Ogliaro, M. J. Bearpark, J. J. Heyd, E. N. Brothers, K. N. Kudin, 
 V. N. Staroverov, T. A. Keith, R. Kobayashi, J. Normand, 
 K. Raghavachari, A. P. Rendell, J. C. Burant, S. S. Iyengar, 
 J. Tomasi, M. Cossi, J. M. Millam, M. Klene, C. Adamo, R. Cammi, 
 J. W. Ochterski, R. L. Martin, K. Morokuma, O. Farkas, 
 J. B. Foresman, and D. J. Fox, Gaussian, Inc., Wallingford CT, 2016.
 
 ******************************************
 Gaussian 16:  ES64L-G16RevA.03 25-Dec-2016
                15-Aug-2020 
 ******************************************
 %chk=check.chk
 %mem=36864mb
 %NProcShared=8
 Will use up to    8 processors via shared memory.
 ----------------------------------------------------------------------
 #P opt=(calcfc, noeigentest, tight, maxcycles=128) cbs-4m scf=(tight, 
 direct) integral=(grid=ultrafine, Acc2E=12) nosymm iop(2/9=2000) scf=x
 qc
 ----------------------------------------------------------------------
 1/6=128,7=10,10=4,11=1,18=20,19=15,38=1/1,3;
 2/9=2000,12=2,15=1,17=6,18=5,40=1/2;
 3/5=5,6=3,7=1,11=9,25=1,27=12,30=1,71=2,75=-5,140=1/1,2,3;
 4//1;
 5/5=2,8=3,13=1,32=2,38=5,87=12/2,8;
 8/6=4,10=90,11=11,87=12/1;
 11/6=1,8=1,9=11,15=111,16=1,31=1,87=12/1,2,10;
 10/6=1,13=1,31=1,87=12/2;
 6/7=2,8=2,9=2,10=2,28=1,87=12/1;
 7/10=1,18=20,25=1,30=1,87=12/1,2,3,16;
 1/6=128,7=10,10=4,11=1,18=20,19=15/3(2);
 2/9=2000,15=1/2;
 99//99;
 2/9=2000,15=1/2;
 3/5=5,6=3,7=1,11=9,25=1,27=12,30=1,71=1,75=-5/1,2,3;
 4/5=5,16=3,69=1/1;
 5/5=2,8=3,13=1,32=2,38=5,87=12/2,8;
 7/30=1,87=12/1,2,3,16;
 1/6=128,7=10,11=1,18=20,19=15/3(-5);
 2/9=2000,15=1/2;
 6/7=2,8=2,9=2,10=2,19=2,28=1,87=12/1;
 99/9=1/99;
 Leave Link    1 at Sat Aug 15 23:18:51 2020, MaxMem=  4831838208 cpu:               0.3 elap:               0.0
 (Enter /gpfs/apps/medsci/stacks/noOS/software/gaussian/g16.a03.avx2/g16/l101.exe)
 ----
 name
 ----
 Symbolic Z-matrix:
 Charge =  0 Multiplicity = 1
 C                     0.66459  -0.02038   0. 
 O                    -0.74684   0.12236   0. 
 H                     1.02419  -0.54397   0.89024 
 H                     1.08391   0.98349  -0.00021 
 H                     1.02415  -0.54432  -0.89005 
 H                    -1.14511  -0.75181   0. 
 
 ITRead=  0  0  0  0  0  0
 MicOpt= -1 -1 -1 -1 -1 -1
 NAtoms=      6 NQM=        6 NQMF=       0 NMMI=      0 NMMIF=      0
                NMic=       0 NMicF=      0.
                    Isotopes and Nuclear Properties:
 (Nuclear quadrupole moments (NQMom) in fm**2, nuclear magnetic moments (NMagM)
  in nuclear magnetons)

  Atom         1           2           3           4           5           6
 IAtWgt=          12          16           1           1           1           1
 AtmWgt=  12.0000000  15.9949146   1.0078250   1.0078250   1.0078250   1.0078250
 NucSpn=           0           0           1           1           1           1
 AtZEff=  -0.0000000  -0.0000000  -0.0000000  -0.0000000  -0.0000000  -0.0000000
 NQMom=    0.0000000   0.0000000   0.0000000   0.0000000   0.0000000   0.0000000
 NMagM=    0.0000000   0.0000000   2.7928460   2.7928460   2.7928460   2.7928460
 AtZNuc=   6.0000000   8.0000000   1.0000000   1.0000000   1.0000000   1.0000000
 Leave Link  101 at Sat Aug 15 23:18:51 2020, MaxMem=  4831838208 cpu:               2.6 elap:               0.3
 (Enter /gpfs/apps/medsci/stacks/noOS/software/gaussian/g16.a03.avx2/g16/l103.exe)

 GradGradGradGradGradGradGradGradGradGradGradGradGradGradGradGradGradGrad
 Berny optimization.
 Initialization pass.
                           ----------------------------
                           !    Initial Parameters    !
                           ! (Angstroms and Degrees)  !
 --------------------------                            --------------------------
 ! Name  Definition              Value          Derivative Info.                !
 --------------------------------------------------------------------------------
 ! R1    R(1,2)                  1.4186         calculate D2E/DX2 analytically  !
 ! R2    R(1,3)                  1.0936         calculate D2E/DX2 analytically  !
 ! R3    R(1,4)                  1.0879         calculate D2E/DX2 analytically  !
 ! R4    R(1,5)                  1.0936         calculate D2E/DX2 analytically  !
 ! R5    R(2,6)                  0.9606         calculate D2E/DX2 analytically  !
 ! A1    A(2,1,3)              112.0441         calculate D2E/DX2 analytically  !
 ! A2    A(2,1,4)              106.8957         calculate D2E/DX2 analytically  !
 ! A3    A(2,1,5)              112.0439         calculate D2E/DX2 analytically  !
 ! A4    A(3,1,4)              108.3731         calculate D2E/DX2 analytically  !
 ! A5    A(3,1,5)              108.9675         calculate D2E/DX2 analytically  !
 ! A6    A(4,1,5)              108.3728         calculate D2E/DX2 analytically  !
 ! A7    A(1,2,6)              108.7192         calculate D2E/DX2 analytically  !
 ! D1    D(3,1,2,6)            -61.4307         calculate D2E/DX2 analytically  !
 ! D2    D(4,1,2,6)            179.9886         calculate D2E/DX2 analytically  !
 ! D3    D(5,1,2,6)             61.4085         calculate D2E/DX2 analytically  !
 --------------------------------------------------------------------------------
 Trust Radius=3.00D-01 FncErr=1.00D-07 GrdErr=1.00D-07 EigMax=2.50D+02 EigMin=1.00D-04
 Number of steps in this run=    100 maximum allowed number of steps=    100.
 GradGradGradGradGradGradGradGradGradGradGradGradGradGradGradGradGradGrad

 Leave Link  103 at Sat Aug 15 23:18:51 2020, MaxMem=  4831838208 cpu:               0.1 elap:               0.0
 (Enter /gpfs/apps/medsci/stacks/noOS/software/gaussian/g16.a03.avx2/g16/l202.exe)
                          Input orientation:                          
 ---------------------------------------------------------------------
 Center     Atomic      Atomic             Coordinates (Angstroms)
 Number     Number       Type             X           Y           Z
 ---------------------------------------------------------------------
      1          6           0        0.664592   -0.020378    0.000001
      2          8           0       -0.746837    0.122361    0.000001
      3          1           0        1.024189   -0.543974    0.890242
      4          1           0        1.083911    0.983489   -0.000206
      5          1           0        1.024149   -0.544318   -0.890052
      6          1           0       -1.145110   -0.751814    0.000002
 ---------------------------------------------------------------------
                    Distance matrix (angstroms):
                    1          2          3          4          5
     1  C    0.000000
     2  O    1.418628   0.000000
     3  H    1.093614   2.091187   0.000000
     4  H    1.087924   2.023160   1.769070   0.000000
     5  H    1.093613   2.091183   1.780294   1.769065   0.000000
     6  H    1.951927   0.960627   2.354057   2.824856   2.353919
                    6
     6  H    0.000000
 Symmetry turned off by external request.
 Stoichiometry    CH4O
 Framework group  C1[X(CH4O)]
 Deg. of freedom    12
 Full point group                 C1      NOp   1
 Rotational constants (GHZ):         128.7348908          24.8315625          23.9700500
 Leave Link  202 at Sat Aug 15 23:18:51 2020, MaxMem=  4831838208 cpu:               0.1 elap:               0.0
 (Enter /gpfs/apps/medsci/stacks/noOS/software/gaussian/g16.a03.avx2/g16/l301.exe)
 Standard basis: 3-21G* (6D, 7F)
 Ernie: Thresh=  0.10000D-02 Tol=  0.10000D-05 Strict=F.
    26 basis functions,    42 primitive gaussians,    26 cartesian basis functions
     9 alpha electrons        9 beta electrons
       nuclear repulsion energy        40.3372866056 Hartrees.
 IExCor=    0 DFT=F Ex=HF Corr=None ExCW=0 ScaHFX=  1.000000
 ScaDFX=  1.000000  1.000000  1.000000  1.000000 ScalE2=  1.000000  1.000000
 IRadAn=      5 IRanWt=     -1 IRanGd=            0 ICorTp=0 IEmpDi=  4
 NAtoms=    6 NActive=    6 NUniq=    6 SFac= 1.00D+00 NAtFMM=   60 NAOKFM=F Big=F
 Integral buffers will be    131072 words long.
 Raffenetti 1 integral format.
 Two-electron integral symmetry is turned off.
 Leave Link  301 at Sat Aug 15 23:18:51 2020, MaxMem=  4831838208 cpu:               0.4 elap:               0.1
 (Enter /gpfs/apps/medsci/stacks/noOS/software/gaussian/g16.a03.avx2/g16/l302.exe)
 NPDir=0 NMtPBC=     1 NCelOv=     1 NCel=       1 NClECP=     1 NCelD=      1
         NCelK=      1 NCelE2=     1 NClLst=     1 CellRange=     0.0.
 One-electron integrals computed using PRISM.
 NBasis=    26 RedAO= T EigKep=  3.07D-02  NBF=    26
 NBsUse=    26 1.00D-06 EigRej= -1.00D+00 NBFU=    26
 Leave Link  302 at Sat Aug 15 23:18:51 2020, MaxMem=  4831838208 cpu:               0.5 elap:               0.1
 (Enter /gpfs/apps/medsci/stacks/noOS/software/gaussian/g16.a03.avx2/g16/l303.exe)
 DipDrv:  MaxL=1.
 Leave Link  303 at Sat Aug 15 23:18:51 2020, MaxMem=  4831838208 cpu:               0.2 elap:               0.0
 (Enter /gpfs/apps/medsci/stacks/noOS/software/gaussian/g16.a03.avx2/g16/l401.exe)
 ExpMin= 1.83D-01 ExpMax= 3.22D+02 ExpMxC= 3.22D+02 IAcc=3 IRadAn=         5 AccDes= 0.00D+00
 Harris functional with IExCor=  205 and IRadAn=       5 diagonalized for initial guess.
 HarFok:  IExCor=  205 AccDes= 0.00D+00 IRadAn=         5 IDoV= 1 UseB2=F ITyADJ=14
 ICtDFT=  3500011 ScaDFX=  1.000000  1.000000  1.000000  1.000000
 FoFCou: FMM=F IPFlag=           0 FMFlag=      100000 FMFlg1=           0
         NFxFlg=           0 DoJE=T BraDBF=F KetDBF=T FulRan=T
         wScrn=  0.000000 ICntrl=       500 IOpCl=  0 I1Cent=   200000004 NGrid=           0
         NMat0=    1 NMatS0=      1 NMatT0=    0 NMatD0=    1 NMtDS0=    0 NMtDT0=    0
 Symmetry not used in FoFCou.
 Harris En= -114.569340135364    
 JPrj=0 DoOrth=F DoCkMO=F.
 Leave Link  401 at Sat Aug 15 23:18:51 2020, MaxMem=  4831838208 cpu:               0.8 elap:               0.1
 (Enter /gpfs/apps/medsci/stacks/noOS/software/gaussian/g16.a03.avx2/g16/l502.exe)
 Keep R1 ints in memory in canonical form, NReq=1670263.
 FoFCou: FMM=F IPFlag=           0 FMFlag=           0 FMFlg1=           0
         NFxFlg=           0 DoJE=F BraDBF=F KetDBF=F FulRan=T
         wScrn=  0.000000 ICntrl=       600 IOpCl=  0 I1Cent=           0 NGrid=           0
         NMat0=    1 NMatS0=    351 NMatT0=    0 NMatD0=    1 NMtDS0=    0 NMtDT0=    0
 Symmetry not used in FoFCou.
 Two-electron integral symmetry not used.
 Closed shell SCF:
 Using DIIS extrapolation, IDIIS=  1040.
 NGot=  4831838208 LenX=  4831774384 LenY=  4831773267
 Requested convergence on RMS density matrix=1.00D-08 within  32 cycles.
 Requested convergence on MAX density matrix=1.00D-06.
 Requested convergence on             energy=1.00D-06.
 No special actions if energy rises.

 Cycle   1  Pass 1  IDiag  1:
 E= -114.309952752323    
 DIIS: error= 5.23D-02 at cycle   1 NSaved=   1.
 NSaved= 1 IEnMin= 1 EnMin= -114.309952752323     IErMin= 1 ErrMin= 5.23D-02
 ErrMax= 5.23D-02  0.00D+00 EMaxC= 1.00D-01 BMatC= 1.31D-01 BMatP= 1.31D-01
 IDIUse=3 WtCom= 4.77D-01 WtEn= 5.23D-01
 Coeff-Com:  0.100D+01
 Coeff-En:   0.100D+01
 Coeff:      0.100D+01
 Gap=     0.681 Goal=   None    Shift=    0.000
 GapD=    0.681 DampG=2.000 DampE=0.500 DampFc=1.0000 IDamp=-1.
 RMSDP=1.18D-02 MaxDP=6.78D-02              OVMax= 8.49D-02

 Cycle   2  Pass 1  IDiag  1:
 E= -114.384556661359     Delta-E=       -0.074603909036 Rises=F Damp=F
 DIIS: error= 2.47D-02 at cycle   2 NSaved=   2.
 NSaved= 2 IEnMin= 2 EnMin= -114.384556661359     IErMin= 2 ErrMin= 2.47D-02
 ErrMax= 2.47D-02  0.00D+00 EMaxC= 1.00D-01 BMatC= 1.96D-02 BMatP= 1.31D-01
 IDIUse=3 WtCom= 7.53D-01 WtEn= 2.47D-01
 Coeff-Com:  0.237D+00 0.763D+00
 Coeff-En:   0.000D+00 0.100D+01
 Coeff:      0.179D+00 0.821D+00
 Gap=     0.715 Goal=   None    Shift=    0.000
 RMSDP=4.02D-03 MaxDP=2.45D-02 DE=-7.46D-02 OVMax= 2.21D-02

 Cycle   3  Pass 1  IDiag  1:
 E= -114.396776529935     Delta-E=       -0.012219868576 Rises=F Damp=F
 DIIS: error= 5.82D-03 at cycle   3 NSaved=   3.
 NSaved= 3 IEnMin= 3 EnMin= -114.396776529935     IErMin= 3 ErrMin= 5.82D-03
 ErrMax= 5.82D-03  0.00D+00 EMaxC= 1.00D-01 BMatC= 8.08D-04 BMatP= 1.96D-02
 IDIUse=3 WtCom= 9.42D-01 WtEn= 5.82D-02
 Coeff-Com: -0.151D-01 0.133D+00 0.883D+00
 Coeff-En:   0.000D+00 0.000D+00 0.100D+01
 Coeff:     -0.143D-01 0.125D+00 0.889D+00
 Gap=     0.697 Goal=   None    Shift=    0.000
 RMSDP=7.40D-04 MaxDP=5.52D-03 DE=-1.22D-02 OVMax= 6.08D-03

 Cycle   4  Pass 1  IDiag  1:
 E= -114.397330479946     Delta-E=       -0.000553950011 Rises=F Damp=F
 DIIS: error= 1.40D-03 at cycle   4 NSaved=   4.
 NSaved= 4 IEnMin= 4 EnMin= -114.397330479946     IErMin= 4 ErrMin= 1.40D-03
 ErrMax= 1.40D-03  0.00D+00 EMaxC= 1.00D-01 BMatC= 3.69D-05 BMatP= 8.08D-04
 IDIUse=3 WtCom= 9.86D-01 WtEn= 1.40D-02
 Coeff-Com: -0.773D-02 0.923D-02 0.222D+00 0.776D+00
 Coeff-En:   0.000D+00 0.000D+00 0.000D+00 0.100D+01
 Coeff:     -0.762D-02 0.910D-02 0.219D+00 0.779D+00
 Gap=     0.698 Goal=   None    Shift=    0.000
 RMSDP=1.75D-04 MaxDP=1.05D-03 DE=-5.54D-04 OVMax= 1.29D-03

 Cycle   5  Pass 1  IDiag  1:
 E= -114.397359595330     Delta-E=       -0.000029115384 Rises=F Damp=F
 DIIS: error= 2.45D-04 at cycle   5 NSaved=   5.
 NSaved= 5 IEnMin= 5 EnMin= -114.397359595330     IErMin= 5 ErrMin= 2.45D-04
 ErrMax= 2.45D-04  0.00D+00 EMaxC= 1.00D-01 BMatC= 1.24D-06 BMatP= 3.69D-05
 IDIUse=3 WtCom= 9.98D-01 WtEn= 2.45D-03
 Coeff-Com:  0.259D-02-0.136D-01-0.105D+00-0.137D+00 0.125D+01
 Coeff-En:   0.000D+00 0.000D+00 0.000D+00 0.000D+00 0.100D+01
 Coeff:      0.258D-02-0.136D-01-0.105D+00-0.136D+00 0.125D+01
 Gap=     0.699 Goal=   None    Shift=    0.000
 RMSDP=7.63D-05 MaxDP=3.91D-04 DE=-2.91D-05 OVMax= 5.09D-04

 Cycle   6  Pass 1  IDiag  1:
 E= -114.397361741424     Delta-E=       -0.000002146094 Rises=F Damp=F
 DIIS: error= 4.13D-05 at cycle   6 NSaved=   6.
 NSaved= 6 IEnMin= 6 EnMin= -114.397361741424     IErMin= 6 ErrMin= 4.13D-05
 ErrMax= 4.13D-05  0.00D+00 EMaxC= 1.00D-01 BMatC= 1.50D-08 BMatP= 1.24D-06
 IDIUse=1 WtCom= 1.00D+00 WtEn= 0.00D+00
 Coeff-Com: -0.664D-03 0.398D-02 0.297D-01 0.237D-01-0.380D+00 0.132D+01
 Coeff:     -0.664D-03 0.398D-02 0.297D-01 0.237D-01-0.380D+00 0.132D+01
 Gap=     0.699 Goal=   None    Shift=    0.000
 RMSDP=1.15D-05 MaxDP=6.46D-05 DE=-2.15D-06 OVMax= 6.88D-05

 Cycle   7  Pass 1  IDiag  1:
 E= -114.397361772470     Delta-E=       -0.000000031046 Rises=F Damp=F
 DIIS: error= 2.72D-06 at cycle   7 NSaved=   7.
 NSaved= 7 IEnMin= 7 EnMin= -114.397361772470     IErMin= 7 ErrMin= 2.72D-06
 ErrMax= 2.72D-06  0.00D+00 EMaxC= 1.00D-01 BMatC= 2.48D-10 BMatP= 1.50D-08
 IDIUse=1 WtCom= 1.00D+00 WtEn= 0.00D+00
 Coeff-Com:  0.147D-03-0.905D-03-0.686D-02-0.478D-02 0.903D-01-0.391D+00
 Coeff-Com:  0.131D+01
 Coeff:      0.147D-03-0.905D-03-0.686D-02-0.478D-02 0.903D-01-0.391D+00
 Coeff:      0.131D+01
 Gap=     0.699 Goal=   None    Shift=    0.000
 RMSDP=1.72D-06 MaxDP=9.06D-06 DE=-3.10D-08 OVMax= 1.46D-05

 Cycle   8  Pass 1  IDiag  1:
 E= -114.397361773129     Delta-E=       -0.000000000660 Rises=F Damp=F
 DIIS: error= 5.21D-07 at cycle   8 NSaved=   8.
 NSaved= 8 IEnMin= 8 EnMin= -114.397361773129     IErMin= 8 ErrMin= 5.21D-07
 ErrMax= 5.21D-07  0.00D+00 EMaxC= 1.00D-01 BMatC= 9.94D-12 BMatP= 2.48D-10
 IDIUse=1 WtCom= 1.00D+00 WtEn= 0.00D+00
 Coeff-Com: -0.235D-04 0.147D-03 0.113D-02 0.384D-03-0.145D-01 0.764D-01
 Coeff-Com: -0.383D+00 0.132D+01
 Coeff:     -0.235D-04 0.147D-03 0.113D-02 0.384D-03-0.145D-01 0.764D-01
 Coeff:     -0.383D+00 0.132D+01
 Gap=     0.699 Goal=   None    Shift=    0.000
 RMSDP=2.97D-07 MaxDP=1.42D-06 DE=-6.60D-10 OVMax= 3.03D-06

 Cycle   9  Pass 1  IDiag  1:
 E= -114.397361773154     Delta-E=       -0.000000000024 Rises=F Damp=F
 DIIS: error= 1.51D-07 at cycle   9 NSaved=   9.
 NSaved= 9 IEnMin= 9 EnMin= -114.397361773154     IErMin= 9 ErrMin= 1.51D-07
 ErrMax= 1.51D-07  0.00D+00 EMaxC= 1.00D-01 BMatC= 3.56D-13 BMatP= 9.94D-12
 IDIUse=1 WtCom= 1.00D+00 WtEn= 0.00D+00
 Coeff-Com:  0.582D-05-0.370D-04-0.286D-03-0.144D-04 0.356D-02-0.210D-01
 Coeff-Com:  0.124D+00-0.589D+00 0.148D+01
 Coeff:      0.582D-05-0.370D-04-0.286D-03-0.144D-04 0.356D-02-0.210D-01
 Coeff:      0.124D+00-0.589D+00 0.148D+01
 Gap=     0.699 Goal=   None    Shift=    0.000
 RMSDP=7.25D-08 MaxDP=6.45D-07 DE=-2.44D-11 OVMax= 7.79D-07

 Cycle  10  Pass 1  IDiag  1:
 E= -114.397361773155     Delta-E=       -0.000000000001 Rises=F Damp=F
 DIIS: error= 1.52D-08 at cycle  10 NSaved=  10.
 NSaved=10 IEnMin=10 EnMin= -114.397361773155     IErMin=10 ErrMin= 1.52D-08
 ErrMax= 1.52D-08  0.00D+00 EMaxC= 1.00D-01 BMatC= 7.33D-15 BMatP= 3.56D-13
 IDIUse=1 WtCom= 1.00D+00 WtEn= 0.00D+00
 Coeff-Com: -0.106D-05 0.671D-05 0.535D-04-0.109D-04-0.657D-03 0.431D-02
 Coeff-Com: -0.280D-01 0.147D+00-0.459D+00 0.134D+01
 Coeff:     -0.106D-05 0.671D-05 0.535D-04-0.109D-04-0.657D-03 0.431D-02
 Coeff:     -0.280D-01 0.147D+00-0.459D+00 0.134D+01
 Gap=     0.699 Goal=   None    Shift=    0.000
 RMSDP=8.01D-09 MaxDP=5.84D-08 DE=-1.08D-12 OVMax= 7.24D-08

 SCF Done:  E(RHF) =  -114.397361773     A.U. after   10 cycles
            NFock= 10  Conv=0.80D-08     -V/T= 2.0025
 KE= 1.141108816703D+02 PE=-3.501676981908D+02 EE= 8.132216814172D+01
 Leave Link  502 at Sat Aug 15 23:18:51 2020, MaxMem=  4831838208 cpu:               0.5 elap:               0.1
 (Enter /gpfs/apps/medsci/stacks/noOS/software/gaussian/g16.a03.avx2/g16/l508.exe)
 QCSCF skips out because SCF is already converged.
 Leave Link  508 at Sat Aug 15 23:18:51 2020, MaxMem=  4831838208 cpu:               0.0 elap:               0.0
 (Enter /gpfs/apps/medsci/stacks/noOS/software/gaussian/g16.a03.avx2/g16/l801.exe)
 Range of M.O.s used for correlation:     1    26
 NBasis=    26 NAE=     9 NBE=     9 NFC=     0 NFV=     0
 NROrb=     26 NOA=     9 NOB=     9 NVA=    17 NVB=    17
 Leave Link  801 at Sat Aug 15 23:18:51 2020, MaxMem=  4831838208 cpu:               0.1 elap:               0.0
 (Enter /gpfs/apps/medsci/stacks/noOS/software/gaussian/g16.a03.avx2/g16/l1101.exe)
 Using compressed storage, NAtomX=     6.
 Will process      7 centers per pass.
 Leave Link 1101 at Sat Aug 15 23:18:52 2020, MaxMem=  4831838208 cpu:               0.9 elap:               0.1
 (Enter /gpfs/apps/medsci/stacks/noOS/software/gaussian/g16.a03.avx2/g16/l1102.exe)
 Symmetrizing basis deriv contribution to polar:
 IMax=3 JMax=2 DiffMx= 0.00D+00
 Leave Link 1102 at Sat Aug 15 23:18:52 2020, MaxMem=  4831838208 cpu:               0.2 elap:               0.0
 (Enter /gpfs/apps/medsci/stacks/noOS/software/gaussian/g16.a03.avx2/g16/l1110.exe)
 Forming Gx(P) for the SCF density, NAtomX=     6.
 Integral derivatives from FoFJK, PRISM(SPDF).
 Do as many integral derivatives as possible in FoFJK.
 G2DrvN: MDV=    4831837640.
 G2DrvN: will do     7 centers at a time, making    1 passes.
 Calling FoFCou, ICntrl=  3107 FMM=F I1Cent=   0 AccDes= 1.00D-12.
 FoFJK:  IHMeth= 1 ICntrl=    3107 DoSepK=F KAlg= 0 I1Cent=           0 FoldK=F
 IRaf=         0 NMat=       1 IRICut=       1 DoRegI=T DoRafI=F ISym2E= 0 IDoP0=0 IntGTp=1.
 FoFCou: FMM=F IPFlag=           0 FMFlag=      100000 FMFlg1=           0
         NFxFlg=           0 DoJE=F BraDBF=F KetDBF=F FulRan=T
         wScrn=  0.000000 ICntrl=      3107 IOpCl=  0 I1Cent=           0 NGrid=           0
         NMat0=    1 NMatS0=      1 NMatT0=    0 NMatD0=    1 NMtDS0=    0 NMtDT0=    0
 Symmetry not used in FoFCou.
 End of G2Drv F.D. properties file   721 does not exist.
 End of G2Drv F.D. properties file   722 does not exist.
 End of G2Drv F.D. properties file   788 does not exist.
 Leave Link 1110 at Sat Aug 15 23:18:52 2020, MaxMem=  4831838208 cpu:               0.5 elap:               0.1
 (Enter /gpfs/apps/medsci/stacks/noOS/software/gaussian/g16.a03.avx2/g16/l1002.exe)
 Minotr:  Closed shell wavefunction.
          IDoAtm=111111
          Direct CPHF calculation.
          Differentiating once with respect to nuclear coordinates.
          Requested convergence is 1.0D-08 RMS, and 1.0D-07 maximum.
          Secondary convergence is 1.0D-12 RMS, and 1.0D-12 maximum.
          NewPWx=T KeepS1=F KeepF1=F KeepIn=T MapXYZ=F SortEE=F KeepMc=T.
 Keep R1 ints in memory in canonical form, NReq=1671001.
 FoFCou: FMM=F IPFlag=           0 FMFlag=           0 FMFlg1=           0
         NFxFlg=           0 DoJE=F BraDBF=F KetDBF=F FulRan=T
         wScrn=  0.000000 ICntrl=       600 IOpCl=  0 I1Cent=           0 NGrid=           0
         NMat0=    1 NMatS0=    351 NMatT0=    0 NMatD0=    1 NMtDS0=    0 NMtDT0=    0
 Symmetry not used in FoFCou.
 Two-electron integral symmetry not used.
          MDV=    4831838208 using IRadAn=       1.
          Solving linear equations simultaneously, MaxMat=       0.
          There are    21 degrees of freedom in the 1st order CPHF.  IDoFFX=6 NUNeed=     0.
     15 vectors produced by pass  0 Test12= 7.29D-16 4.76D-09 XBig12= 5.35D-02 8.36D-02.
 AX will form    15 AO Fock derivatives at one time.
     15 vectors produced by pass  1 Test12= 7.29D-16 4.76D-09 XBig12= 2.36D-03 1.64D-02.
     15 vectors produced by pass  2 Test12= 7.29D-16 4.76D-09 XBig12= 6.90D-05 2.91D-03.
     15 vectors produced by pass  3 Test12= 7.29D-16 4.76D-09 XBig12= 3.84D-07 1.72D-04.
     15 vectors produced by pass  4 Test12= 7.29D-16 4.76D-09 XBig12= 2.37D-09 1.43D-05.
     15 vectors produced by pass  5 Test12= 7.29D-16 4.76D-09 XBig12= 8.63D-12 8.28D-07.
      4 vectors produced by pass  6 Test12= 7.29D-16 4.76D-09 XBig12= 2.02D-14 4.40D-08.
 InvSVY:  IOpt=1 It=  1 EMax= 1.11D-15
 Solved reduced A of dimension    94 with    15 vectors.
 End of Minotr F.D. properties file   721 does not exist.
 End of Minotr F.D. properties file   722 does not exist.
 End of Minotr F.D. properties file   788 does not exist.
 Leave Link 1002 at Sat Aug 15 23:18:52 2020, MaxMem=  4831838208 cpu:               0.5 elap:               0.1
 (Enter /gpfs/apps/medsci/stacks/noOS/software/gaussian/g16.a03.avx2/g16/l601.exe)
 Copying SCF densities to generalized density rwf, IOpCl= 0 IROHF=0.

 **********************************************************************

            Population analysis using the SCF density.

 **********************************************************************

 Alpha  occ. eigenvalues --  -20.43700 -11.21325  -1.34643  -0.92331  -0.67473
 Alpha  occ. eigenvalues --   -0.61669  -0.58031  -0.48118  -0.43335
 Alpha virt. eigenvalues --    0.26545   0.31708   0.34361   0.35379   0.43193
 Alpha virt. eigenvalues --    0.94942   0.96920   0.97422   1.24221   1.30462
 Alpha virt. eigenvalues --    1.31212   1.35768   1.88151   1.88600   1.97442
 Alpha virt. eigenvalues --    2.13856   3.34661
          Condensed to atoms (all electrons):
               1          2          3          4          5          6
     1  C    5.000902   0.229661   0.352724   0.372923   0.352725  -0.051825
     2  O    0.229661   8.279757  -0.034983  -0.029521  -0.034980   0.269249
     3  H    0.352724  -0.034983   0.590265  -0.033605  -0.043777  -0.003247
     4  H    0.372923  -0.029521  -0.033605   0.502165  -0.033602   0.004960
     5  H    0.352725  -0.034980  -0.043777  -0.033602   0.590265  -0.003251
     6  H   -0.051825   0.269249  -0.003247   0.004960  -0.003251   0.409746
 Mulliken charges:
               1
     1  C   -0.257110
     2  O   -0.679183
     3  H    0.172623
     4  H    0.216680
     5  H    0.172620
     6  H    0.374369
 Sum of Mulliken charges =   0.00000
 Mulliken charges with hydrogens summed into heavy atoms:
               1
     1  C    0.304813
     2  O   -0.304813
 APT charges:
               1
     1  C   -0.820984
     2  O   -0.855730
     3  H    0.358392
     4  H    0.409429
     5  H    0.358387
     6  H    0.550505
 Sum of APT charges =   0.00000
 APT charges with hydrogens summed into heavy atoms:
               1
     1  C    0.305224
     2  O   -0.305224
 Electronic spatial extent (au):  <R**2>=             83.8652
 Charge=              0.0000 electrons
 Dipole moment (field-independent basis, Debye):
    X=              1.0976    Y=             -1.7977    Z=             -0.0000  Tot=              2.1063
 Quadrupole moment (field-independent basis, Debye-Ang):
   XX=            -12.6264   YY=            -12.0674   ZZ=            -13.5243
   XY=              2.4704   XZ=             -0.0000   YZ=             -0.0000
 Traceless Quadrupole moment (field-independent basis, Debye-Ang):
   XX=              0.1129   YY=              0.6720   ZZ=             -0.7849
   XY=              2.4704   XZ=             -0.0000   YZ=             -0.0000
 Octapole moment (field-independent basis, Debye-Ang**2):
  XXX=             -4.5341  YYY=             -0.4493  ZZZ=              0.0002  XYY=             -1.9229
  XXY=             -2.3257  XXZ=             -0.0001  XZZ=             -0.8259  YZZ=             -0.5434
  YYZ=             -0.0003  XYZ=             -0.0001
 Hexadecapole moment (field-independent basis, Debye-Ang**3):
 XXXX=            -58.4589 YYYY=            -18.2554 ZZZZ=            -18.0152 XXXY=              3.7574
 XXXZ=             -0.0001 YYYX=              2.8098 YYYZ=             -0.0001 ZZZX=              0.0002
 ZZZY=             -0.0000 XXYY=            -11.5853 XXZZ=            -13.1560 YYZZ=             -6.1918
 XXYZ=             -0.0001 YYXZ=             -0.0004 ZZXY=             -0.1161
 N-N= 4.033728660558D+01 E-N=-3.501676982761D+02  KE= 1.141108816703D+02
  Exact polarizability:   0.000   0.000   0.000   0.000   0.000   0.000
 Approx polarizability:  11.189   0.655  11.381   0.000   0.000   9.036
 No NMR shielding tensors so no spin-rotation constants.
 Leave Link  601 at Sat Aug 15 23:18:52 2020, MaxMem=  4831838208 cpu:               0.4 elap:               0.1
 (Enter /gpfs/apps/medsci/stacks/noOS/software/gaussian/g16.a03.avx2/g16/l701.exe)
 ... and contract with generalized density number  0.
 Compute integral second derivatives.
 Leave Link  701 at Sat Aug 15 23:18:52 2020, MaxMem=  4831838208 cpu:               1.0 elap:               0.1
 (Enter /gpfs/apps/medsci/stacks/noOS/software/gaussian/g16.a03.avx2/g16/l702.exe)
 L702 exits ... SP integral derivatives will be done elsewhere.
 Leave Link  702 at Sat Aug 15 23:18:52 2020, MaxMem=  4831838208 cpu:               0.1 elap:               0.0
 (Enter /gpfs/apps/medsci/stacks/noOS/software/gaussian/g16.a03.avx2/g16/l703.exe)
 Integral derivatives from FoFJK, PRISM(SPDF).
 Compute integral second derivatives, UseDBF=F ICtDFT=           0.
 Calling FoFJK, ICntrl=    100147 FMM=F ISym2X=0 I1Cent= 0 IOpClX= 0 NMat=1 NMatS=1 NMatT=0.
 FoFJK:  IHMeth= 1 ICntrl=  100147 DoSepK=F KAlg= 0 I1Cent=           0 FoldK=F
 IRaf=         0 NMat=       1 IRICut=       1 DoRegI=T DoRafI=F ISym2E= 0 IDoP0=0 IntGTp=1.
 FoFCou: FMM=F IPFlag=           0 FMFlag=      100000 FMFlg1=         800
         NFxFlg=           0 DoJE=F BraDBF=F KetDBF=F FulRan=T
         wScrn=  0.000000 ICntrl=    100147 IOpCl=  0 I1Cent=           0 NGrid=           0
         NMat0=    1 NMatS0=      1 NMatT0=    0 NMatD0=    1 NMtDS0=    0 NMtDT0=    0
 Symmetry not used in FoFCou.
 Leave Link  703 at Sat Aug 15 23:18:52 2020, MaxMem=  4831838208 cpu:               0.6 elap:               0.1
 (Enter /gpfs/apps/medsci/stacks/noOS/software/gaussian/g16.a03.avx2/g16/l716.exe)
 Dipole        = 4.31844994D-01-7.07264152D-01-1.58098404D-05
 Polarizability= 0.00000000D+00 0.00000000D+00 0.00000000D+00
                 0.00000000D+00 0.00000000D+00 0.00000000D+00
 -------------------------------------------------------------------
 Center     Atomic                   Forces (Hartrees/Bohr)
 Number     Number              X              Y              Z
 -------------------------------------------------------------------
      1        6           0.019825320    0.002103819   -0.000000093
      2        8          -0.011067574    0.002473505   -0.000001145
      3        1          -0.000092000    0.002303834   -0.005040811
      4        1          -0.001878166   -0.005950124    0.000001841
      5        1          -0.000090559    0.002305710    0.005038874
      6        1          -0.006697021   -0.003236743    0.000001333
 -------------------------------------------------------------------
 Cartesian Forces:  Max     0.019825320 RMS     0.006154391
 Force constants in Cartesian coordinates: 
                1             2             3             4             5 
      1  0.575348D+00
      2  0.290350D-01  0.650245D+00
      3  0.000000D+00 -0.312062D-05  0.600386D+00
      4 -0.288143D+00  0.446899D-01  0.000000D+00  0.510171D+00
      5 -0.197350D-01 -0.102103D+00  0.000000D+00  0.160628D+00  0.554338D+00
      6 -0.254242D-05 -0.162235D-05 -0.658585D-01  0.279501D-05  0.213007D-05
      7 -0.821942D-01  0.291036D-01 -0.553017D-01 -0.340366D-01  0.242696D-01
      8  0.336101D-01 -0.125240D+00  0.956708D-01  0.488694D-02  0.276373D-02
      9 -0.589606D-01  0.969119D-01 -0.235638D+00 -0.227744D-02 -0.168993D-02
     10 -0.896783D-01 -0.787918D-01  0.167224D-04 -0.296046D-01 -0.431869D-01
     11 -0.943239D-01 -0.299409D+00  0.478390D-04  0.223007D-02  0.851964D-02
     12  0.193087D-04  0.483506D-04 -0.659640D-01  0.000000D+00 -0.130416D-05
     13 -0.821910D-01  0.291209D-01  0.552837D-01 -0.340355D-01  0.242831D-01
     14  0.336310D-01 -0.125313D+00 -0.957161D-01  0.488620D-02  0.276208D-02
     15  0.589423D-01 -0.969575D-01 -0.235571D+00  0.227628D-02  0.169144D-02
     16 -0.331417D-01 -0.531575D-01  0.000000D+00 -0.124352D+00 -0.146259D+00
     17  0.177829D-01  0.182000D-02  0.000000D+00 -0.217321D+00 -0.466281D+00
     18  0.149279D-05  0.205554D-05  0.264527D-02 -0.157525D-05 -0.246826D-05
                6             7             8             9            10 
      6  0.477548D-01
      7 -0.330920D-01  0.101063D+00
      8  0.142719D-02 -0.425044D-01  0.126893D+00
      9  0.979882D-02  0.691864D-01 -0.111388D+00  0.252861D+00
     10  0.542646D-05  0.636124D-02  0.101665D-01  0.968041D-03  0.114875D+00
     11 -0.184816D-05 -0.546186D-02 -0.166516D-01 -0.542581D-04  0.100065D+00
     12  0.206677D-02  0.120286D-01  0.322241D-01  0.933417D-03 -0.197244D-04
     13  0.330861D-01  0.660071D-02 -0.608739D-02 -0.819892D-02  0.636048D-02
     14 -0.142555D-02 -0.608351D-02  0.109914D-01  0.167286D-01  0.101654D-01
     15  0.979593D-02  0.819996D-02 -0.167434D-01 -0.272629D-01 -0.972391D-03
     16  0.000000D+00  0.220606D-02 -0.717196D-04 -0.717426D-03 -0.831410D-02
     17  0.000000D+00  0.676668D-03  0.124334D-02 -0.507867D-03  0.158160D-02
     18 -0.355775D-02 -0.102124D-02 -0.119034D-02 -0.691833D-03  0.192549D-05
               11            12            13            14            15 
     11  0.321237D+00
     12 -0.532734D-04  0.614085D-01
     13 -0.546666D-02 -0.120271D-01  0.101057D+00
     14 -0.166639D-01 -0.322174D-01 -0.425273D-01  0.126979D+00
     15  0.613843D-04  0.946575D-03 -0.691642D-01  0.111440D+00  0.252782D+00
     16  0.295712D-02  0.000000D+00  0.220785D-02 -0.717092D-04  0.717980D-03
     17  0.296783D-02  0.000000D+00  0.677374D-03  0.124500D-02  0.507691D-03
     18  0.000000D+00  0.608748D-03  0.102035D-02  0.119010D-02 -0.691355D-03
               16            17            18 
     16  0.161394D+00
     17  0.196603D+00  0.459005D+00
     18  0.000000D+00  0.000000D+00  0.168692D-02
 FormGI is forming the generalized inverse of G from B-inverse, IUseBI=4.
 Force constants in internal coordinates: 
                1             2             3             4             5 
      1  0.420670D+00
      2  0.155848D-01  0.344819D+00
      3  0.923176D-02  0.489435D-02  0.361757D+00
      4  0.155831D-01  0.577640D-02  0.489405D-02  0.344822D+00
      5 -0.491265D-02  0.642599D-03 -0.284952D-02  0.643200D-03  0.556199D+00
      6  0.300050D-01  0.705350D-03 -0.629802D-02 -0.701807D-02 -0.338695D-02
      7  0.340933D-01 -0.700468D-02  0.200390D-02 -0.700486D-02  0.673176D-02
      8  0.300034D-01 -0.701778D-02 -0.629818D-02  0.705738D-03 -0.338975D-02
      9 -0.318040D-01  0.949837D-02  0.860707D-02 -0.633480D-02 -0.183774D-03
     10 -0.334412D-01  0.100685D-01 -0.533498D-02  0.100684D-01  0.676793D-03
     11 -0.318033D-01 -0.633501D-02  0.860707D-02  0.949839D-02 -0.182882D-03
     12  0.674761D-01 -0.881990D-03  0.330600D-02 -0.882879D-03  0.256180D-01
     13 -0.394028D-03 -0.493327D-03  0.817644D-02 -0.800639D-02  0.207463D-02
     14  0.115685D-05 -0.807813D-02  0.000000D+00  0.807761D-02  0.000000D+00
     15  0.396858D-03  0.800568D-02 -0.817552D-02  0.492665D-03 -0.207566D-02
                6             7             8             9            10 
      6  0.161109D+00
      7 -0.335059D-01  0.160328D+00
      8 -0.372713D-01 -0.335055D-01  0.161110D+00
      9 -0.435375D-01 -0.455086D-01 -0.265362D-02  0.869232D-01
     10 -0.487916D-01 -0.170940D-02 -0.487923D-01  0.517370D-02  0.895674D-01
     11 -0.265374D-02 -0.455071D-01 -0.435382D-01  0.396393D-02  0.517399D-02
     12 -0.776407D-02  0.246979D-01 -0.776863D-02 -0.555841D-02  0.224358D-02
     13 -0.444826D-02  0.260254D-01 -0.236754D-01  0.271397D-01 -0.224063D-01
     14 -0.216666D-01  0.206908D-05  0.216656D-01 -0.256024D-01  0.000000D+00
     15  0.236741D-01 -0.260222D-01  0.444766D-02 -0.414956D-03  0.224059D-01
               11            12            13            14            15 
     11  0.869223D-01
     12 -0.555778D-02  0.221950D+00
     13  0.414586D-03  0.430457D-02  0.336693D-01
     14  0.256016D-01  0.000000D+00 -0.131890D-01  0.302813D-01
     15 -0.271404D-01 -0.430119D-02 -0.165894D-01 -0.131897D-01  0.336674D-01
 Leave Link  716 at Sat Aug 15 23:18:52 2020, MaxMem=  4831838208 cpu:               0.2 elap:               0.0
 (Enter /gpfs/apps/medsci/stacks/noOS/software/gaussian/g16.a03.avx2/g16/l103.exe)

 GradGradGradGradGradGradGradGradGradGradGradGradGradGradGradGradGradGrad
 Berny optimization.
 Red2BG is reusing G-inverse.
 Internal  Forces:  Max     0.017597646 RMS     0.005914706
 Search for a local minimum.
 Step number   1 out of a maximum of  100
 All quantities printed in internal units (Hartrees-Bohrs-Radians)
 RMS Force = .59147D-02 SwitMx=.10000D-02 MixMth= 1
 Mixed Optimization -- RFO/linear search
 Second derivative matrix not updated -- analytic derivatives used.
 The second derivative matrix:
                          R1        R2        R3        R4        R5
           R1           0.42067
           R2           0.01558   0.34482
           R3           0.00923   0.00489   0.36176
           R4           0.01558   0.00578   0.00489   0.34482
           R5          -0.00491   0.00064  -0.00285   0.00064   0.55620
           A1           0.03000   0.00071  -0.00630  -0.00702  -0.00339
           A2           0.03409  -0.00700   0.00200  -0.00700   0.00673
           A3           0.03000  -0.00702  -0.00630   0.00071  -0.00339
           A4          -0.03180   0.00950   0.00861  -0.00633  -0.00018
           A5          -0.03344   0.01007  -0.00533   0.01007   0.00068
           A6          -0.03180  -0.00634   0.00861   0.00950  -0.00018
           A7           0.06748  -0.00088   0.00331  -0.00088   0.02562
           D1          -0.00039  -0.00049   0.00818  -0.00801   0.00207
           D2           0.00000  -0.00808   0.00000   0.00808  -0.00000
           D3           0.00040   0.00801  -0.00818   0.00049  -0.00208
                          A1        A2        A3        A4        A5
           A1           0.16111
           A2          -0.03351   0.16033
           A3          -0.03727  -0.03351   0.16111
           A4          -0.04354  -0.04551  -0.00265   0.08692
           A5          -0.04879  -0.00171  -0.04879   0.00517   0.08957
           A6          -0.00265  -0.04551  -0.04354   0.00396   0.00517
           A7          -0.00776   0.02470  -0.00777  -0.00556   0.00224
           D1          -0.00445   0.02603  -0.02368   0.02714  -0.02241
           D2          -0.02167   0.00000   0.02167  -0.02560  -0.00000
           D3           0.02367  -0.02602   0.00445  -0.00041   0.02241
                          A6        A7        D1        D2        D3
           A6           0.08692
           A7          -0.00556   0.22195
           D1           0.00041   0.00430   0.03367
           D2           0.02560   0.00000  -0.01319   0.03028
           D3          -0.02714  -0.00430  -0.01659  -0.01319   0.03367
 ITU=  0
     Eigenvalues ---    0.00387   0.10851   0.10855   0.15771   0.18480
     Eigenvalues ---    0.21406   0.23548   0.34130   0.34929   0.36557
     Eigenvalues ---    0.46613   0.55853
 RFO step:  Lambda=-1.28340216D-03 EMin= 3.86922384D-03
 Linear search not attempted -- first point.
 Iteration  1 RMS(Cart)=  0.02143457 RMS(Int)=  0.00016183
 Iteration  2 RMS(Cart)=  0.00011661 RMS(Int)=  0.00000356
 Iteration  3 RMS(Cart)=  0.00000001 RMS(Int)=  0.00000356
 ITry= 1 IFail=0 DXMaxC= 5.98D-02 DCOld= 1.00D+10 DXMaxT= 3.00D-01 DXLimC= 3.00D+00 Rises=F
 Variable       Old X    -DE/DX   Delta X   Delta X   Delta X     New X
                                 (Linear)    (Quad)   (Total)
    R1        2.68082   0.01760   0.00000   0.03958   0.03958   2.72039
    R2        2.06663  -0.00524   0.00000  -0.01638  -0.01638   2.05025
    R3        2.05588  -0.00621   0.00000  -0.01792  -0.01792   2.03796
    R4        2.06663  -0.00524   0.00000  -0.01638  -0.01638   2.05025
    R5        1.81532   0.00572   0.00000   0.00947   0.00947   1.82480
    A1        1.95554   0.00197   0.00000   0.00350   0.00350   1.95904
    A2        1.86568   0.00011   0.00000  -0.01000  -0.01000   1.85568
    A3        1.95553   0.00197   0.00000   0.00351   0.00351   1.95904
    A4        1.89147  -0.00101   0.00000   0.00362   0.00362   1.89509
    A5        1.90184  -0.00216   0.00000  -0.00417  -0.00417   1.89767
    A6        1.89146  -0.00101   0.00000   0.00362   0.00363   1.89509
    A7        1.89751   0.00863   0.00000   0.02730   0.02730   1.92481
    D1       -1.07217  -0.00004   0.00000   0.00026   0.00025  -1.07192
    D2        3.14139   0.00000   0.00000   0.00014   0.00014   3.14153
    D3        1.07178   0.00005   0.00000   0.00001   0.00001   1.07179
         Item               Value     Threshold  Converged?
 Maximum Force            0.017598     0.000015     NO 
 RMS     Force            0.005915     0.000010     NO 
 Maximum Displacement     0.059761     0.000060     NO 
 RMS     Displacement     0.021427     0.000040     NO 
 Predicted change in Energy=-6.439003D-04
 Lowest energy point so far.  Saving SCF results.
 GradGradGradGradGradGradGradGradGradGradGradGradGradGradGradGradGradGrad

 Leave Link  103 at Sat Aug 15 23:18:52 2020, MaxMem=  4831838208 cpu:               0.1 elap:               0.0
 (Enter /gpfs/apps/medsci/stacks/noOS/software/gaussian/g16.a03.avx2/g16/l202.exe)
                          Input orientation:                          
 ---------------------------------------------------------------------
 Center     Atomic      Atomic             Coordinates (Angstroms)
 Number     Number       Type             X           Y           Z
 ---------------------------------------------------------------------
      1          6           0        0.677585   -0.021820   -0.000010
      2          8           0       -0.755101    0.118809   -0.000042
      3          1           0        1.039399   -0.539991    0.881861
      4          1           0        1.080336    0.978594   -0.000188
      5          1           0        1.039409   -0.540308   -0.881691
      6          1           0       -1.176734   -0.749918    0.000058
 ---------------------------------------------------------------------
                    Distance matrix (angstroms):
                    1          2          3          4          5
     1  C    0.000000
     2  O    1.439571   0.000000
     3  H    1.084946   2.105232   0.000000
     4  H    1.078442   2.026834   1.756641   0.000000
     5  H    1.084946   2.105233   1.763551   1.756641   0.000000
     6  H    1.992141   0.965640   2.394346   2.842907   2.394307
                    6
     6  H    0.000000
 Symmetry turned off by external request.
 Stoichiometry    CH4O
 Framework group  C1[X(CH4O)]
 Deg. of freedom    12
 Full point group                 C1      NOp   1
 Rotational constants (GHZ):         130.6807049          24.2273096          23.4050643
 Leave Link  202 at Sat Aug 15 23:18:52 2020, MaxMem=  4831838208 cpu:               0.1 elap:               0.0
 (Enter /gpfs/apps/medsci/stacks/noOS/software/gaussian/g16.a03.avx2/g16/l301.exe)
 Standard basis: 3-21G* (6D, 7F)
 Ernie: Thresh=  0.10000D-02 Tol=  0.10000D-05 Strict=F.
    26 basis functions,    42 primitive gaussians,    26 cartesian basis functions
     9 alpha electrons        9 beta electrons
       nuclear repulsion energy        40.0606131630 Hartrees.
 IExCor=    0 DFT=F Ex=HF Corr=None ExCW=0 ScaHFX=  1.000000
 ScaDFX=  1.000000  1.000000  1.000000  1.000000 ScalE2=  1.000000  1.000000
 IRadAn=      5 IRanWt=     -1 IRanGd=            0 ICorTp=0 IEmpDi=  4
 NAtoms=    6 NActive=    6 NUniq=    6 SFac= 1.00D+00 NAtFMM=   60 NAOKFM=F Big=F
 Integral buffers will be    131072 words long.
 Raffenetti 1 integral format.
 Two-electron integral symmetry is turned off.
 Leave Link  301 at Sat Aug 15 23:18:52 2020, MaxMem=  4831838208 cpu:               0.4 elap:               0.1
 (Enter /gpfs/apps/medsci/stacks/noOS/software/gaussian/g16.a03.avx2/g16/l302.exe)
 NPDir=0 NMtPBC=     1 NCelOv=     1 NCel=       1 NClECP=     1 NCelD=      1
         NCelK=      1 NCelE2=     1 NClLst=     1 CellRange=     0.0.
 One-electron integrals computed using PRISM.
 NBasis=    26 RedAO= T EigKep=  3.04D-02  NBF=    26
 NBsUse=    26 1.00D-06 EigRej= -1.00D+00 NBFU=    26
 Leave Link  302 at Sat Aug 15 23:18:52 2020, MaxMem=  4831838208 cpu:               0.5 elap:               0.1
 (Enter /gpfs/apps/medsci/stacks/noOS/software/gaussian/g16.a03.avx2/g16/l303.exe)
 DipDrv:  MaxL=1.
 Leave Link  303 at Sat Aug 15 23:18:52 2020, MaxMem=  4831838208 cpu:               0.2 elap:               0.0
 (Enter /gpfs/apps/medsci/stacks/noOS/software/gaussian/g16.a03.avx2/g16/l401.exe)
 Initial guess from the checkpoint file:  "check.chk"
 B after Tr=     0.000747   -0.003367   -0.000037
         Rot=    1.000000    0.000005    0.000007   -0.000787 Ang=   0.09 deg.
 Guess basis will be translated and rotated to current coordinates.
 JPrj=2 DoOrth=T DoCkMO=T.
 Generating alternative initial guess.
 ExpMin= 1.83D-01 ExpMax= 3.22D+02 ExpMxC= 3.22D+02 IAcc=2 IRadAn=         4 AccDes= 0.00D+00
 Harris functional with IExCor=  205 and IRadAn=       4 diagonalized for initial guess.
 HarFok:  IExCor=  205 AccDes= 0.00D+00 IRadAn=         4 IDoV= 1 UseB2=F ITyADJ=14
 ICtDFT=  3500011 ScaDFX=  1.000000  1.000000  1.000000  1.000000
 FoFCou: FMM=F IPFlag=           0 FMFlag=      100000 FMFlg1=           0
         NFxFlg=           0 DoJE=T BraDBF=F KetDBF=T FulRan=T
         wScrn=  0.000000 ICntrl=       500 IOpCl=  0 I1Cent=   200000004 NGrid=           0
         NMat0=    1 NMatS0=      1 NMatT0=    0 NMatD0=    1 NMtDS0=    0 NMtDT0=    0
 Symmetry not used in FoFCou.
 Harris En= -114.570371114104    
 Leave Link  401 at Sat Aug 15 23:18:53 2020, MaxMem=  4831838208 cpu:               1.1 elap:               0.2
 (Enter /gpfs/apps/medsci/stacks/noOS/software/gaussian/g16.a03.avx2/g16/l502.exe)
 Keep R1 ints in memory in canonical form, NReq=1670244.
 FoFCou: FMM=F IPFlag=           0 FMFlag=           0 FMFlg1=           0
         NFxFlg=           0 DoJE=F BraDBF=F KetDBF=F FulRan=T
         wScrn=  0.000000 ICntrl=       600 IOpCl=  0 I1Cent=           0 NGrid=           0
         NMat0=    1 NMatS0=    351 NMatT0=    0 NMatD0=    1 NMtDS0=    0 NMtDT0=    0
 Symmetry not used in FoFCou.
 Two-electron integral symmetry not used.
 Closed shell SCF:
 Using DIIS extrapolation, IDIIS=  1040.
 NGot=  4831838208 LenX=  4831774384 LenY=  4831773267
 Requested convergence on RMS density matrix=1.00D-08 within  32 cycles.
 Requested convergence on MAX density matrix=1.00D-06.
 Requested convergence on             energy=1.00D-06.
 No special actions if energy rises.

 Cycle   1  Pass 1  IDiag  1:
 E= -114.397733016235    
 DIIS: error= 2.96D-03 at cycle   1 NSaved=   1.
 NSaved= 1 IEnMin= 1 EnMin= -114.397733016235     IErMin= 1 ErrMin= 2.96D-03
 ErrMax= 2.96D-03  0.00D+00 EMaxC= 1.00D-01 BMatC= 2.74D-04 BMatP= 2.74D-04
 IDIUse=3 WtCom= 9.70D-01 WtEn= 2.96D-02
 Coeff-Com:  0.100D+01
 Coeff-En:   0.100D+01
 Coeff:      0.100D+01
 Gap=     0.829 Goal=   None    Shift=    0.000
 GapD=    0.829 DampG=2.000 DampE=1.000 DampFc=2.0000 IDamp=-1.
 RMSDP=6.24D-04 MaxDP=2.55D-03              OVMax= 4.27D-03

 Cycle   2  Pass 1  IDiag  1:
 E= -114.397993639753     Delta-E=       -0.000260623518 Rises=F Damp=F
 DIIS: error= 8.36D-04 at cycle   2 NSaved=   2.
 NSaved= 2 IEnMin= 2 EnMin= -114.397993639753     IErMin= 2 ErrMin= 8.36D-04
 ErrMax= 8.36D-04  0.00D+00 EMaxC= 1.00D-01 BMatC= 1.99D-05 BMatP= 2.74D-04
 IDIUse=3 WtCom= 9.92D-01 WtEn= 8.36D-03
 Coeff-Com: -0.225D-01 0.102D+01
 Coeff-En:   0.000D+00 0.100D+01
 Coeff:     -0.223D-01 0.102D+01
 Gap=     0.701 Goal=   None    Shift=    0.000
 RMSDP=1.82D-04 MaxDP=1.07D-03 DE=-2.61D-04 OVMax= 1.47D-03

 Cycle   3  Pass 1  IDiag  1:
 E= -114.398013922535     Delta-E=       -0.000020282781 Rises=F Damp=F
 DIIS: error= 3.83D-04 at cycle   3 NSaved=   3.
 NSaved= 3 IEnMin= 3 EnMin= -114.398013922535     IErMin= 3 ErrMin= 3.83D-04
 ErrMax= 3.83D-04  0.00D+00 EMaxC= 1.00D-01 BMatC= 4.14D-06 BMatP= 1.99D-05
 IDIUse=3 WtCom= 9.96D-01 WtEn= 3.83D-03
 Coeff-Com: -0.733D-01 0.279D+00 0.794D+00
 Coeff-En:   0.000D+00 0.000D+00 0.100D+01
 Coeff:     -0.731D-01 0.278D+00 0.795D+00
 Gap=     0.700 Goal=   None    Shift=    0.000
 RMSDP=6.61D-05 MaxDP=3.34D-04 DE=-2.03D-05 OVMax= 6.97D-04

 Cycle   4  Pass 1  IDiag  1:
 E= -114.398017665709     Delta-E=       -0.000003743174 Rises=F Damp=F
 DIIS: error= 7.34D-05 at cycle   4 NSaved=   4.
 NSaved= 4 IEnMin= 4 EnMin= -114.398017665709     IErMin= 4 ErrMin= 7.34D-05
 ErrMax= 7.34D-05  0.00D+00 EMaxC= 1.00D-01 BMatC= 1.10D-07 BMatP= 4.14D-06
 IDIUse=1 WtCom= 1.00D+00 WtEn= 0.00D+00
 Coeff-Com:  0.904D-02-0.855D-01-0.813D-01 0.116D+01
 Coeff:      0.904D-02-0.855D-01-0.813D-01 0.116D+01
 Gap=     0.701 Goal=   None    Shift=    0.000
 RMSDP=2.69D-05 MaxDP=1.21D-04 DE=-3.74D-06 OVMax= 2.91D-04

 Cycle   5  Pass 1  IDiag  1:
 E= -114.398017923608     Delta-E=       -0.000000257899 Rises=F Damp=F
 DIIS: error= 1.89D-05 at cycle   5 NSaved=   5.
 NSaved= 5 IEnMin= 5 EnMin= -114.398017923608     IErMin= 5 ErrMin= 1.89D-05
 ErrMax= 1.89D-05  0.00D+00 EMaxC= 1.00D-01 BMatC= 7.59D-09 BMatP= 1.10D-07
 IDIUse=1 WtCom= 1.00D+00 WtEn= 0.00D+00
 Coeff-Com:  0.221D-02-0.643D-02-0.212D-01-0.119D+00 0.114D+01
 Coeff:      0.221D-02-0.643D-02-0.212D-01-0.119D+00 0.114D+01
 Gap=     0.701 Goal=   None    Shift=    0.000
 RMSDP=7.68D-06 MaxDP=4.83D-05 DE=-2.58D-07 OVMax= 9.11D-05

 Cycle   6  Pass 1  IDiag  1:
 E= -114.398017943258     Delta-E=       -0.000000019650 Rises=F Damp=F
 DIIS: error= 5.69D-06 at cycle   6 NSaved=   6.
 NSaved= 6 IEnMin= 6 EnMin= -114.398017943258     IErMin= 6 ErrMin= 5.69D-06
 ErrMax= 5.69D-06  0.00D+00 EMaxC= 1.00D-01 BMatC= 7.98D-10 BMatP= 7.59D-09
 IDIUse=1 WtCom= 1.00D+00 WtEn= 0.00D+00
 Coeff-Com: -0.102D-02 0.103D-01 0.118D-01-0.151D+00 0.801D-01 0.105D+01
 Coeff:     -0.102D-02 0.103D-01 0.118D-01-0.151D+00 0.801D-01 0.105D+01
 Gap=     0.701 Goal=   None    Shift=    0.000
 RMSDP=2.35D-06 MaxDP=1.51D-05 DE=-1.96D-08 OVMax= 2.96D-05

 Cycle   7  Pass 1  IDiag  1:
 E= -114.398017944930     Delta-E=       -0.000000001672 Rises=F Damp=F
 DIIS: error= 1.06D-06 at cycle   7 NSaved=   7.
 NSaved= 7 IEnMin= 7 EnMin= -114.398017944930     IErMin= 7 ErrMin= 1.06D-06
 ErrMax= 1.06D-06  0.00D+00 EMaxC= 1.00D-01 BMatC= 2.44D-11 BMatP= 7.98D-10
 IDIUse=1 WtCom= 1.00D+00 WtEn= 0.00D+00
 Coeff-Com:  0.287D-03-0.349D-02-0.277D-02 0.551D-01-0.594D-01-0.380D+00
 Coeff-Com:  0.139D+01
 Coeff:      0.287D-03-0.349D-02-0.277D-02 0.551D-01-0.594D-01-0.380D+00
 Coeff:      0.139D+01
 Gap=     0.701 Goal=   None    Shift=    0.000
 RMSDP=4.36D-07 MaxDP=2.75D-06 DE=-1.67D-09 OVMax= 4.74D-06

 Cycle   8  Pass 1  IDiag  1:
 E= -114.398017944996     Delta-E=       -0.000000000066 Rises=F Damp=F
 DIIS: error= 1.93D-07 at cycle   8 NSaved=   8.
 NSaved= 8 IEnMin= 8 EnMin= -114.398017944996     IErMin= 8 ErrMin= 1.93D-07
 ErrMax= 1.93D-07  0.00D+00 EMaxC= 1.00D-01 BMatC= 6.96D-13 BMatP= 2.44D-11
 IDIUse=1 WtCom= 1.00D+00 WtEn= 0.00D+00
 Coeff-Com: -0.635D-04 0.868D-03 0.567D-03-0.142D-01 0.182D-01 0.968D-01
 Coeff-Com: -0.492D+00 0.139D+01
 Coeff:     -0.635D-04 0.868D-03 0.567D-03-0.142D-01 0.182D-01 0.968D-01
 Coeff:     -0.492D+00 0.139D+01
 Gap=     0.701 Goal=   None    Shift=    0.000
 RMSDP=9.47D-08 MaxDP=6.90D-07 DE=-6.58D-11 OVMax= 9.64D-07

 Cycle   9  Pass 1  IDiag  1:
 E= -114.398017944998     Delta-E=       -0.000000000002 Rises=F Damp=F
 DIIS: error= 1.97D-08 at cycle   9 NSaved=   9.
 NSaved= 9 IEnMin= 9 EnMin= -114.398017944998     IErMin= 9 ErrMin= 1.97D-08
 ErrMax= 1.97D-08  0.00D+00 EMaxC= 1.00D-01 BMatC= 1.04D-14 BMatP= 6.96D-13
 IDIUse=1 WtCom= 1.00D+00 WtEn= 0.00D+00
 Coeff-Com:  0.145D-04-0.208D-03-0.118D-03 0.339D-02-0.466D-02-0.224D-01
 Coeff-Com:  0.122D+00-0.422D+00 0.132D+01
 Coeff:      0.145D-04-0.208D-03-0.118D-03 0.339D-02-0.466D-02-0.224D-01
 Coeff:      0.122D+00-0.422D+00 0.132D+01
 Gap=     0.701 Goal=   None    Shift=    0.000
 RMSDP=1.15D-08 MaxDP=5.65D-08 DE=-2.27D-12 OVMax= 1.05D-07

 Cycle  10  Pass 1  IDiag  1:
 E= -114.398017944998     Delta-E=        0.000000000000 Rises=F Damp=F
 DIIS: error= 2.82D-09 at cycle  10 NSaved=  10.
 NSaved=10 IEnMin= 9 EnMin= -114.398017944998     IErMin=10 ErrMin= 2.82D-09
 ErrMax= 2.82D-09  0.00D+00 EMaxC= 1.00D-01 BMatC= 1.98D-16 BMatP= 1.04D-14
 IDIUse=1 WtCom= 1.00D+00 WtEn= 0.00D+00
 Coeff-Com: -0.318D-05 0.464D-04 0.260D-04-0.757D-03 0.104D-02 0.503D-02
 Coeff-Com: -0.279D-01 0.104D+00-0.405D+00 0.132D+01
 Coeff:     -0.318D-05 0.464D-04 0.260D-04-0.757D-03 0.104D-02 0.503D-02
 Coeff:     -0.279D-01 0.104D+00-0.405D+00 0.132D+01
 Gap=     0.701 Goal=   None    Shift=    0.000
 RMSDP=1.23D-09 MaxDP=6.75D-09 DE= 1.71D-13 OVMax= 1.13D-08

 SCF Done:  E(RHF) =  -114.398017945     A.U. after   10 cycles
            NFock= 10  Conv=0.12D-08     -V/T= 2.0027
 KE= 1.140905897959D+02 PE=-3.496367751321D+02 EE= 8.108755422826D+01
 Leave Link  502 at Sat Aug 15 23:18:53 2020, MaxMem=  4831838208 cpu:               0.5 elap:               0.1
 (Enter /gpfs/apps/medsci/stacks/noOS/software/gaussian/g16.a03.avx2/g16/l508.exe)
 QCSCF skips out because SCF is already converged.
 Leave Link  508 at Sat Aug 15 23:18:53 2020, MaxMem=  4831838208 cpu:               0.0 elap:               0.0
 (Enter /gpfs/apps/medsci/stacks/noOS/software/gaussian/g16.a03.avx2/g16/l701.exe)
 ... and contract with generalized density number  0.
 Compute integral first derivatives.
 Leave Link  701 at Sat Aug 15 23:18:53 2020, MaxMem=  4831838208 cpu:               0.9 elap:               0.1
 (Enter /gpfs/apps/medsci/stacks/noOS/software/gaussian/g16.a03.avx2/g16/l702.exe)
 L702 exits ... SP integral derivatives will be done elsewhere.
 Leave Link  702 at Sat Aug 15 23:18:53 2020, MaxMem=  4831838208 cpu:               0.1 elap:               0.0
 (Enter /gpfs/apps/medsci/stacks/noOS/software/gaussian/g16.a03.avx2/g16/l703.exe)
 Integral derivatives from FoFJK, PRISM(SPDF).
 Compute integral first derivatives, UseDBF=F ICtDFT=           0.
 Calling FoFJK, ICntrl=      2127 FMM=F ISym2X=0 I1Cent= 0 IOpClX= 0 NMat=1 NMatS=1 NMatT=0.
 FoFJK:  IHMeth= 1 ICntrl=    2127 DoSepK=F KAlg= 0 I1Cent=           0 FoldK=F
 IRaf=         0 NMat=       1 IRICut=       1 DoRegI=T DoRafI=F ISym2E= 0 IDoP0=0 IntGTp=1.
 FoFCou: FMM=F IPFlag=           0 FMFlag=      100000 FMFlg1=         800
         NFxFlg=           0 DoJE=F BraDBF=F KetDBF=F FulRan=T
         wScrn=  0.000000 ICntrl=      2127 IOpCl=  0 I1Cent=           0 NGrid=           0
         NMat0=    1 NMatS0=      1 NMatT0=    0 NMatD0=    1 NMtDS0=    0 NMtDT0=    0
 Symmetry not used in FoFCou.
 Leave Link  703 at Sat Aug 15 23:18:53 2020, MaxMem=  4831838208 cpu:               0.5 elap:               0.1
 (Enter /gpfs/apps/medsci/stacks/noOS/software/gaussian/g16.a03.avx2/g16/l716.exe)
 Dipole        = 4.44141134D-01-7.06190077D-01 8.43214532D-05
 -------------------------------------------------------------------
 Center     Atomic                   Forces (Hartrees/Bohr)
 Number     Number              X              Y              Z
 -------------------------------------------------------------------
      1        6           0.000756296   -0.000014267    0.000000076
      2        8          -0.000741202    0.000055960   -0.000000531
      3        1           0.000080393   -0.000078165    0.000126473
      4        1           0.000055797    0.000170923    0.000000083
      5        1           0.000080320   -0.000077968   -0.000126485
      6        1          -0.000231603   -0.000056484    0.000000384
 -------------------------------------------------------------------
 Cartesian Forces:  Max     0.000756296 RMS     0.000265723
 Leave Link  716 at Sat Aug 15 23:18:53 2020, MaxMem=  4831838208 cpu:               0.2 elap:               0.0
 (Enter /gpfs/apps/medsci/stacks/noOS/software/gaussian/g16.a03.avx2/g16/l103.exe)

 GradGradGradGradGradGradGradGradGradGradGradGradGradGradGradGradGradGrad
 Berny optimization.
 Using GEDIIS/GDIIS optimizer.
 FormGI is forming the generalized inverse of G from B-inverse, IUseBI=4.
 Internal  Forces:  Max     0.000968102 RMS     0.000278716
 Search for a local minimum.
 Step number   2 out of a maximum of  100
 All quantities printed in internal units (Hartrees-Bohrs-Radians)
 RMS Force = .27872D-03 SwitMx=.10000D-02 MixMth= 2
 Mixed Optimization -- En-DIIS/RFO-DIIS
 Update second derivatives using D2CorX and points    1    2
 DE= -6.56D-04 DEPred=-6.44D-04 R= 1.02D+00
 TightC=F SS=  1.41D+00  RLast= 5.85D-02 DXNew= 5.0454D-01 1.7563D-01
 Trust test= 1.02D+00 RLast= 5.85D-02 DXMaxT set to 3.00D-01
 The second derivative matrix:
                          R1        R2        R3        R4        R5
           R1           0.40250
           R2           0.01482   0.34705
           R3           0.00860   0.00745   0.36469
           R4           0.01482   0.00801   0.00745   0.34705
           R5          -0.00870  -0.00030  -0.00387  -0.00030   0.55568
           A1           0.02892   0.00031  -0.00673  -0.00741  -0.00349
           A2           0.03432  -0.00713   0.00186  -0.00713   0.00682
           A3           0.02892  -0.00741  -0.00673   0.00031  -0.00349
           A4          -0.03129   0.00972   0.00885  -0.00612  -0.00014
           A5          -0.03245   0.01057  -0.00478   0.01057   0.00072
           A6          -0.03129  -0.00612   0.00885   0.00972  -0.00014
           A7           0.06057  -0.00190   0.00223  -0.00190   0.02443
           D1          -0.00023  -0.00053   0.00813  -0.00804   0.00212
           D2           0.00000  -0.00808   0.00000   0.00808  -0.00000
           D3           0.00024   0.00804  -0.00813   0.00053  -0.00212
                          A1        A2        A3        A4        A5
           A1           0.16110
           A2          -0.03347   0.16033
           A3          -0.03728  -0.03347   0.16110
           A4          -0.04354  -0.04553  -0.00265   0.08693
           A5          -0.04880  -0.00175  -0.04880   0.00519   0.08961
           A6          -0.00265  -0.04553  -0.04354   0.00397   0.00519
           A7          -0.00806   0.02483  -0.00807  -0.00543   0.00247
           D1          -0.00443   0.02603  -0.02366   0.02713  -0.02242
           D2          -0.02167   0.00000   0.02167  -0.02560   0.00000
           D3           0.02366  -0.02602   0.00443  -0.00041   0.02242
                          A6        A7        D1        D2        D3
           A6           0.08692
           A7          -0.00543   0.21956
           D1           0.00041   0.00438   0.03367
           D2           0.02560   0.00000  -0.01319   0.03028
           D3          -0.02713  -0.00438  -0.01659  -0.01319   0.03367
 ITU=  1  0
 Use linear search instead of GDIIS.
     Eigenvalues ---    0.00387   0.10851   0.10857   0.15737   0.18418
     Eigenvalues ---    0.21406   0.23548   0.34130   0.35056   0.37181
     Eigenvalues ---    0.44641   0.55800
 RFO step:  Lambda=-1.50985049D-06 EMin= 3.86922375D-03
 Quartic linear search produced a step of  0.03388.
 Iteration  1 RMS(Cart)=  0.00098537 RMS(Int)=  0.00000028
 Iteration  2 RMS(Cart)=  0.00000023 RMS(Int)=  0.00000009
 ITry= 1 IFail=0 DXMaxC= 2.66D-03 DCOld= 1.00D+10 DXMaxT= 3.00D-01 DXLimC= 3.00D+00 Rises=F
 Variable       Old X    -DE/DX   Delta X   Delta X   Delta X     New X
                                 (Linear)    (Quad)   (Total)
    R1        2.72039   0.00097   0.00134   0.00109   0.00243   2.72282
    R2        2.05025   0.00017  -0.00055   0.00087   0.00032   2.05057
    R3        2.03796   0.00018  -0.00061   0.00100   0.00039   2.03835
    R4        2.05025   0.00017  -0.00055   0.00087   0.00032   2.05057
    R5        1.82480   0.00015   0.00032  -0.00003   0.00029   1.82508
    A1        1.95904   0.00004   0.00012  -0.00024  -0.00013   1.95892
    A2        1.85568  -0.00003  -0.00034  -0.00037  -0.00071   1.85498
    A3        1.95904   0.00004   0.00012  -0.00025  -0.00013   1.95892
    A4        1.89509  -0.00001   0.00012   0.00023   0.00035   1.89544
    A5        1.89767  -0.00002  -0.00014   0.00041   0.00027   1.89794
    A6        1.89509  -0.00001   0.00012   0.00023   0.00036   1.89544
    A7        1.92481   0.00034   0.00092   0.00004   0.00096   1.92577
    D1       -1.07192  -0.00001   0.00001  -0.00002  -0.00001  -1.07193
    D2        3.14153   0.00000   0.00000   0.00006   0.00007  -3.14159
    D3        1.07179   0.00001   0.00000   0.00015   0.00015   1.07194
         Item               Value     Threshold  Converged?
 Maximum Force            0.000968     0.000015     NO 
 RMS     Force            0.000279     0.000010     NO 
 Maximum Displacement     0.002657     0.000060     NO 
 RMS     Displacement     0.000985     0.000040     NO 
 Predicted change in Energy=-1.426109D-06
 Lowest energy point so far.  Saving SCF results.
 GradGradGradGradGradGradGradGradGradGradGradGradGradGradGradGradGradGrad

 Leave Link  103 at Sat Aug 15 23:18:53 2020, MaxMem=  4831838208 cpu:               0.1 elap:               0.0
 (Enter /gpfs/apps/medsci/stacks/noOS/software/gaussian/g16.a03.avx2/g16/l202.exe)
                          Input orientation:                          
 ---------------------------------------------------------------------
 Center     Atomic      Atomic             Coordinates (Angstroms)
 Number     Number       Type             X           Y           Z
 ---------------------------------------------------------------------
      1          6           0        0.678277   -0.021939   -0.000015
      2          8           0       -0.755702    0.118656   -0.000064
      3          1           0        1.040073   -0.540098    0.882078
      4          1           0        1.080285    0.978997   -0.000181
      5          1           0        1.040103   -0.540402   -0.881917
      6          1           0       -1.178139   -0.749849    0.000085
 ---------------------------------------------------------------------
                    Distance matrix (angstroms):
                    1          2          3          4          5
     1  C    0.000000
     2  O    1.440855   0.000000
     3  H    1.085115   2.106404   0.000000
     4  H    1.078648   2.027568   1.757170   0.000000
     5  H    1.085115   2.106405   1.763995   1.757170   0.000000
     6  H    1.994024   0.965792   2.396325   2.844185   2.396330
                    6
     6  H    0.000000
 Symmetry turned off by external request.
 Stoichiometry    CH4O
 Framework group  C1[X(CH4O)]
 Deg. of freedom    12
 Full point group                 C1      NOp   1
 Rotational constants (GHZ):         130.6336667          24.1896704          23.3701337
 Leave Link  202 at Sat Aug 15 23:18:53 2020, MaxMem=  4831838208 cpu:               0.1 elap:               0.0
 (Enter /gpfs/apps/medsci/stacks/noOS/software/gaussian/g16.a03.avx2/g16/l301.exe)
 Standard basis: 3-21G* (6D, 7F)
 Ernie: Thresh=  0.10000D-02 Tol=  0.10000D-05 Strict=F.
    26 basis functions,    42 primitive gaussians,    26 cartesian basis functions
     9 alpha electrons        9 beta electrons
       nuclear repulsion energy        40.0375227824 Hartrees.
 IExCor=    0 DFT=F Ex=HF Corr=None ExCW=0 ScaHFX=  1.000000
 ScaDFX=  1.000000  1.000000  1.000000  1.000000 ScalE2=  1.000000  1.000000
 IRadAn=      5 IRanWt=     -1 IRanGd=            0 ICorTp=0 IEmpDi=  4
 NAtoms=    6 NActive=    6 NUniq=    6 SFac= 1.00D+00 NAtFMM=   60 NAOKFM=F Big=F
 Integral buffers will be    131072 words long.
 Raffenetti 1 integral format.
 Two-electron integral symmetry is turned off.
 Leave Link  301 at Sat Aug 15 23:18:53 2020, MaxMem=  4831838208 cpu:               0.4 elap:               0.1
 (Enter /gpfs/apps/medsci/stacks/noOS/software/gaussian/g16.a03.avx2/g16/l302.exe)
 NPDir=0 NMtPBC=     1 NCelOv=     1 NCel=       1 NClECP=     1 NCelD=      1
         NCelK=      1 NCelE2=     1 NClLst=     1 CellRange=     0.0.
 One-electron integrals computed using PRISM.
 NBasis=    26 RedAO= T EigKep=  3.05D-02  NBF=    26
 NBsUse=    26 1.00D-06 EigRej= -1.00D+00 NBFU=    26
 Leave Link  302 at Sat Aug 15 23:18:53 2020, MaxMem=  4831838208 cpu:               0.5 elap:               0.1
 (Enter /gpfs/apps/medsci/stacks/noOS/software/gaussian/g16.a03.avx2/g16/l303.exe)
 DipDrv:  MaxL=1.
 Leave Link  303 at Sat Aug 15 23:18:53 2020, MaxMem=  4831838208 cpu:               0.1 elap:               0.0
 (Enter /gpfs/apps/medsci/stacks/noOS/software/gaussian/g16.a03.avx2/g16/l401.exe)
 Initial guess from the checkpoint file:  "check.chk"
 B after Tr=    -0.000079   -0.000175   -0.000019
         Rot=    1.000000    0.000002    0.000004   -0.000034 Ang=   0.00 deg.
 Guess basis will be translated and rotated to current coordinates.
 JPrj=2 DoOrth=T DoCkMO=T.
 Leave Link  401 at Sat Aug 15 23:18:53 2020, MaxMem=  4831838208 cpu:               0.6 elap:               0.1
 (Enter /gpfs/apps/medsci/stacks/noOS/software/gaussian/g16.a03.avx2/g16/l502.exe)
 Keep R1 ints in memory in canonical form, NReq=1670244.
 FoFCou: FMM=F IPFlag=           0 FMFlag=           0 FMFlg1=           0
         NFxFlg=           0 DoJE=F BraDBF=F KetDBF=F FulRan=T
         wScrn=  0.000000 ICntrl=       600 IOpCl=  0 I1Cent=           0 NGrid=           0
         NMat0=    1 NMatS0=    351 NMatT0=    0 NMatD0=    1 NMtDS0=    0 NMtDT0=    0
 Symmetry not used in FoFCou.
 Two-electron integral symmetry not used.
 Closed shell SCF:
 Using DIIS extrapolation, IDIIS=  1040.
 NGot=  4831838208 LenX=  4831774384 LenY=  4831773267
 Requested convergence on RMS density matrix=1.00D-08 within  32 cycles.
 Requested convergence on MAX density matrix=1.00D-06.
 Requested convergence on             energy=1.00D-06.
 No special actions if energy rises.

 Cycle   1  Pass 1  IDiag  1:
 E= -114.398018774048    
 DIIS: error= 1.75D-04 at cycle   1 NSaved=   1.
 NSaved= 1 IEnMin= 1 EnMin= -114.398018774048     IErMin= 1 ErrMin= 1.75D-04
 ErrMax= 1.75D-04  0.00D+00 EMaxC= 1.00D-01 BMatC= 7.06D-07 BMatP= 7.06D-07
 IDIUse=3 WtCom= 9.98D-01 WtEn= 1.75D-03
 Coeff-Com:  0.100D+01
 Coeff-En:   0.100D+01
 Coeff:      0.100D+01
 Gap=     0.830 Goal=   None    Shift=    0.000
 RMSDP=2.96D-05 MaxDP=1.49D-04              OVMax= 1.69D-04

 Cycle   2  Pass 1  IDiag  1:
 E= -114.398019389220     Delta-E=       -0.000000615172 Rises=F Damp=F
 DIIS: error= 2.87D-05 at cycle   2 NSaved=   2.
 NSaved= 2 IEnMin= 2 EnMin= -114.398019389220     IErMin= 2 ErrMin= 2.87D-05
 ErrMax= 2.87D-05  0.00D+00 EMaxC= 1.00D-01 BMatC= 3.82D-08 BMatP= 7.06D-07
 IDIUse=1 WtCom= 1.00D+00 WtEn= 0.00D+00
 Coeff-Com: -0.439D-01 0.104D+01
 Coeff:     -0.439D-01 0.104D+01
 Gap=     0.701 Goal=   None    Shift=    0.000
 RMSDP=9.79D-06 MaxDP=4.05D-05 DE=-6.15D-07 OVMax= 7.93D-05

 Cycle   3  Pass 1  IDiag  1:
 E= -114.398019437194     Delta-E=       -0.000000047974 Rises=F Damp=F
 DIIS: error= 1.34D-05 at cycle   3 NSaved=   3.
 NSaved= 3 IEnMin= 3 EnMin= -114.398019437194     IErMin= 3 ErrMin= 1.34D-05
 ErrMax= 1.34D-05  0.00D+00 EMaxC= 1.00D-01 BMatC= 6.23D-09 BMatP= 3.82D-08
 IDIUse=1 WtCom= 1.00D+00 WtEn= 0.00D+00
 Coeff-Com: -0.609D-01 0.221D+00 0.840D+00
 Coeff:     -0.609D-01 0.221D+00 0.840D+00
 Gap=     0.701 Goal=   None    Shift=    0.000
 RMSDP=3.27D-06 MaxDP=1.72D-05 DE=-4.80D-08 OVMax= 3.23D-05

 Cycle   4  Pass 1  IDiag  1:
 E= -114.398019443941     Delta-E=       -0.000000006747 Rises=F Damp=F
 DIIS: error= 4.16D-06 at cycle   4 NSaved=   4.
 NSaved= 4 IEnMin= 4 EnMin= -114.398019443941     IErMin= 4 ErrMin= 4.16D-06
 ErrMax= 4.16D-06  0.00D+00 EMaxC= 1.00D-01 BMatC= 4.14D-10 BMatP= 6.23D-09
 IDIUse=1 WtCom= 1.00D+00 WtEn= 0.00D+00
 Coeff-Com:  0.521D-02-0.871D-01-0.239D-01 0.111D+01
 Coeff:      0.521D-02-0.871D-01-0.239D-01 0.111D+01
 Gap=     0.701 Goal=   None    Shift=    0.000
 RMSDP=1.56D-06 MaxDP=6.89D-06 DE=-6.75D-09 OVMax= 1.58D-05

 Cycle   5  Pass 1  IDiag  1:
 E= -114.398019444761     Delta-E=       -0.000000000820 Rises=F Damp=F
 DIIS: error= 1.60D-06 at cycle   5 NSaved=   5.
 NSaved= 5 IEnMin= 5 EnMin= -114.398019444761     IErMin= 5 ErrMin= 1.60D-06
 ErrMax= 1.60D-06  0.00D+00 EMaxC= 1.00D-01 BMatC= 3.56D-11 BMatP= 4.14D-10
 IDIUse=1 WtCom= 1.00D+00 WtEn= 0.00D+00
 Coeff-Com:  0.486D-02-0.223D-01-0.563D-01 0.783D-01 0.995D+00
 Coeff:      0.486D-02-0.223D-01-0.563D-01 0.783D-01 0.995D+00
 Gap=     0.701 Goal=   None    Shift=    0.000
 RMSDP=4.63D-07 MaxDP=3.18D-06 DE=-8.20D-10 OVMax= 5.73D-06

 Cycle   6  Pass 1  IDiag  1:
 E= -114.398019444844     Delta-E=       -0.000000000082 Rises=F Damp=F
 DIIS: error= 3.69D-07 at cycle   6 NSaved=   6.
 NSaved= 6 IEnMin= 6 EnMin= -114.398019444844     IErMin= 6 ErrMin= 3.69D-07
 ErrMax= 3.69D-07  0.00D+00 EMaxC= 1.00D-01 BMatC= 4.22D-12 BMatP= 3.56D-11
 IDIUse=1 WtCom= 1.00D+00 WtEn= 0.00D+00
 Coeff-Com: -0.112D-02 0.125D-01 0.122D-01-0.165D+00-0.852D-01 0.123D+01
 Coeff:     -0.112D-02 0.125D-01 0.122D-01-0.165D+00-0.852D-01 0.123D+01
 Gap=     0.701 Goal=   None    Shift=    0.000
 RMSDP=2.00D-07 MaxDP=1.26D-06 DE=-8.25D-11 OVMax= 2.35D-06

 Cycle   7  Pass 1  IDiag  1:
 E= -114.398019444854     Delta-E=       -0.000000000010 Rises=F Damp=F
 DIIS: error= 4.78D-08 at cycle   7 NSaved=   7.
 NSaved= 7 IEnMin= 7 EnMin= -114.398019444854     IErMin= 7 ErrMin= 4.78D-08
 ErrMax= 4.78D-08  0.00D+00 EMaxC= 1.00D-01 BMatC= 5.33D-14 BMatP= 4.22D-12
 IDIUse=1 WtCom= 1.00D+00 WtEn= 0.00D+00
 Coeff-Com:  0.253D-03-0.351D-02-0.199D-02 0.503D-01 0.245D-02-0.372D+00
 Coeff-Com:  0.132D+01
 Coeff:      0.253D-03-0.351D-02-0.199D-02 0.503D-01 0.245D-02-0.372D+00
 Coeff:      0.132D+01
 Gap=     0.701 Goal=   None    Shift=    0.000
 RMSDP=1.84D-08 MaxDP=9.34D-08 DE=-1.00D-11 OVMax= 1.68D-07

 Cycle   8  Pass 1  IDiag  1:
 E= -114.398019444854     Delta-E=       -0.000000000000 Rises=F Damp=F
 DIIS: error= 8.94D-09 at cycle   8 NSaved=   8.
 NSaved= 8 IEnMin= 8 EnMin= -114.398019444854     IErMin= 8 ErrMin= 8.94D-09
 ErrMax= 8.94D-09  0.00D+00 EMaxC= 1.00D-01 BMatC= 1.65D-15 BMatP= 5.33D-14
 IDIUse=1 WtCom= 1.00D+00 WtEn= 0.00D+00
 Coeff-Com: -0.608D-04 0.936D-03 0.390D-03-0.139D-01 0.140D-02 0.103D+00
 Coeff-Com: -0.492D+00 0.140D+01
 Coeff:     -0.608D-04 0.936D-03 0.390D-03-0.139D-01 0.140D-02 0.103D+00
 Coeff:     -0.492D+00 0.140D+01
 Gap=     0.701 Goal=   None    Shift=    0.000
 RMSDP=4.30D-09 MaxDP=2.63D-08 DE=-1.14D-13 OVMax= 4.33D-08

 SCF Done:  E(RHF) =  -114.398019445     A.U. after    8 cycles
            NFock=  8  Conv=0.43D-08     -V/T= 2.0027
 KE= 1.140867588684D+02 PE=-3.495894551710D+02 EE= 8.106715407539D+01
 Leave Link  502 at Sat Aug 15 23:18:53 2020, MaxMem=  4831838208 cpu:               0.5 elap:               0.1
 (Enter /gpfs/apps/medsci/stacks/noOS/software/gaussian/g16.a03.avx2/g16/l508.exe)
 QCSCF skips out because SCF is already converged.
 Leave Link  508 at Sat Aug 15 23:18:53 2020, MaxMem=  4831838208 cpu:               0.0 elap:               0.0
 (Enter /gpfs/apps/medsci/stacks/noOS/software/gaussian/g16.a03.avx2/g16/l701.exe)
 ... and contract with generalized density number  0.
 Compute integral first derivatives.
 Leave Link  701 at Sat Aug 15 23:18:54 2020, MaxMem=  4831838208 cpu:               0.9 elap:               0.1
 (Enter /gpfs/apps/medsci/stacks/noOS/software/gaussian/g16.a03.avx2/g16/l702.exe)
 L702 exits ... SP integral derivatives will be done elsewhere.
 Leave Link  702 at Sat Aug 15 23:18:54 2020, MaxMem=  4831838208 cpu:               0.1 elap:               0.0
 (Enter /gpfs/apps/medsci/stacks/noOS/software/gaussian/g16.a03.avx2/g16/l703.exe)
 Integral derivatives from FoFJK, PRISM(SPDF).
 Compute integral first derivatives, UseDBF=F ICtDFT=           0.
 Calling FoFJK, ICntrl=      2127 FMM=F ISym2X=0 I1Cent= 0 IOpClX= 0 NMat=1 NMatS=1 NMatT=0.
 FoFJK:  IHMeth= 1 ICntrl=    2127 DoSepK=F KAlg= 0 I1Cent=           0 FoldK=F
 IRaf=         0 NMat=       1 IRICut=       1 DoRegI=T DoRafI=F ISym2E= 0 IDoP0=0 IntGTp=1.
 FoFCou: FMM=F IPFlag=           0 FMFlag=      100000 FMFlg1=         800
         NFxFlg=           0 DoJE=F BraDBF=F KetDBF=F FulRan=T
         wScrn=  0.000000 ICntrl=      2127 IOpCl=  0 I1Cent=           0 NGrid=           0
         NMat0=    1 NMatS0=      1 NMatT0=    0 NMatD0=    1 NMtDS0=    0 NMtDT0=    0
 Symmetry not used in FoFCou.
 Leave Link  703 at Sat Aug 15 23:18:54 2020, MaxMem=  4831838208 cpu:               0.5 elap:               0.1
 (Enter /gpfs/apps/medsci/stacks/noOS/software/gaussian/g16.a03.avx2/g16/l716.exe)
 Dipole        = 4.44918598D-01-7.06100209D-01 1.34954564D-04
 -------------------------------------------------------------------
 Center     Atomic                   Forces (Hartrees/Bohr)
 Number     Number              X              Y              Z
 -------------------------------------------------------------------
      1        6           0.000042775   -0.000003325    0.000000035
      2        8          -0.000048661    0.000001038    0.000000019
      3        1           0.000000649   -0.000000313    0.000003497
      4        1           0.000001687   -0.000000351   -0.000000017
      5        1           0.000000586   -0.000000330   -0.000003486
      6        1           0.000002964    0.000003280   -0.000000048
 -------------------------------------------------------------------
 Cartesian Forces:  Max     0.000048661 RMS     0.000015380
 Leave Link  716 at Sat Aug 15 23:18:54 2020, MaxMem=  4831838208 cpu:               0.2 elap:               0.0
 (Enter /gpfs/apps/medsci/stacks/noOS/software/gaussian/g16.a03.avx2/g16/l103.exe)

 GradGradGradGradGradGradGradGradGradGradGradGradGradGradGradGradGradGrad
 Berny optimization.
 Using GEDIIS/GDIIS optimizer.
 FormGI is forming the generalized inverse of G from B-inverse, IUseBI=4.
 Internal  Forces:  Max     0.000045900 RMS     0.000012008
 Search for a local minimum.
 Step number   3 out of a maximum of  100
 All quantities printed in internal units (Hartrees-Bohrs-Radians)
 RMS Force = .12008D-04 SwitMx=.10000D-02 MixMth= 2
 Mixed Optimization -- En-DIIS/RFO-DIIS
 Swapping is turned off.
 Update second derivatives using D2CorX and points    1    2    3
 DE= -1.50D-06 DEPred=-1.43D-06 R= 1.05D+00
 TightC=F SS=  1.41D+00  RLast= 2.85D-03 DXNew= 5.0454D-01 8.5542D-03
 Trust test= 1.05D+00 RLast= 2.85D-03 DXMaxT set to 3.00D-01
 The second derivative matrix:
                          R1        R2        R3        R4        R5
           R1           0.37900
           R2           0.01520   0.34782
           R3           0.01009   0.00845   0.36595
           R4           0.01520   0.00877   0.00845   0.34782
           R5          -0.00899   0.00030  -0.00305   0.00030   0.55627
           A1           0.02862   0.00041  -0.00658  -0.00731  -0.00338
           A2           0.03494  -0.00719   0.00176  -0.00719   0.00680
           A3           0.02866  -0.00730  -0.00657   0.00042  -0.00338
           A4          -0.03128   0.00969   0.00882  -0.00614  -0.00018
           A5          -0.03244   0.01047  -0.00492   0.01047   0.00060
           A6          -0.03128  -0.00614   0.00881   0.00969  -0.00018
           A7           0.05681  -0.00107   0.00352  -0.00107   0.02515
           D1          -0.00011  -0.00055   0.00810  -0.00806   0.00211
           D2          -0.00000  -0.00808   0.00000   0.00808  -0.00000
           D3           0.00009   0.00806  -0.00810   0.00055  -0.00211
                          A1        A2        A3        A4        A5
           A1           0.16112
           A2          -0.03347   0.16032
           A3          -0.03726  -0.03347   0.16112
           A4          -0.04354  -0.04553  -0.00266   0.08693
           A5          -0.04883  -0.00174  -0.04883   0.00519   0.08963
           A6          -0.00266  -0.04552  -0.04355   0.00397   0.00519
           A7          -0.00797   0.02488  -0.00796  -0.00547   0.00232
           D1          -0.00443   0.02602  -0.02366   0.02713  -0.02242
           D2          -0.02167   0.00000   0.02167  -0.02560  -0.00000
           D3           0.02366  -0.02602   0.00443  -0.00041   0.02242
                          A6        A7        D1        D2        D3
           A6           0.08693
           A7          -0.00547   0.21994
           D1           0.00041   0.00438   0.03367
           D2           0.02560   0.00000  -0.01319   0.03028
           D3          -0.02713  -0.00438  -0.01659  -0.01319   0.03367
 ITU=  1  1  0
     Eigenvalues ---    0.00387   0.10851   0.10856   0.15530   0.18454
     Eigenvalues ---    0.21406   0.23543   0.34130   0.35063   0.37281
     Eigenvalues ---    0.42678   0.55866
 En-DIIS/RFO-DIIS/Sim-DIIS IScMMF=       -3 using points:     3    2
 RFO step:  Lambda=-5.58810178D-09.
 NNeg= 0 NGDIIS= 2 SimSw=  2.50D-03 Rises=F DC= -1.50D-06 SmlDif=  1.00D-05
 NRisDI= 0 DoIntr=F SqrtH=F CThrHd= 10.0 CDAdj=  3.0
 RMS Error=  0.4044970042D-04 NUsed= 2 OKEnD=F EnDIS=F
 InvSVX:  RCond= 2.03D-06 Info=           0 Equed=N FErr=  9.67D-16 BErr=  4.19D-17
 DidBck=F Rises=F RFO-DIIS coefs:    1.03959   -0.03959
 Iteration  1 RMS(Cart)=  0.00002922 RMS(Int)=  0.00000000
 Iteration  2 RMS(Cart)=  0.00000000 RMS(Int)=  0.00000000
 ITry= 1 IFail=0 DXMaxC= 8.46D-05 DCOld= 1.00D+10 DXMaxT= 3.00D-01 DXLimC= 3.00D+00 Rises=F
 Variable       Old X    -DE/DX   Delta X   Delta X   Delta X     New X
                                 (Linear)    (Quad)   (Total)
    R1        2.72282   0.00005   0.00010   0.00004   0.00014   2.72296
    R2        2.05057   0.00000   0.00001  -0.00001   0.00000   2.05057
    R3        2.03835   0.00000   0.00002  -0.00002  -0.00000   2.03835
    R4        2.05057   0.00000   0.00001  -0.00001   0.00000   2.05057
    R5        1.82508  -0.00000   0.00001  -0.00001  -0.00000   1.82508
    A1        1.95892  -0.00000  -0.00000  -0.00002  -0.00003   1.95889
    A2        1.85498   0.00000  -0.00003   0.00002  -0.00001   1.85497
    A3        1.95892  -0.00000  -0.00001  -0.00002  -0.00003   1.95889
    A4        1.89544  -0.00000   0.00001  -0.00000   0.00001   1.89546
    A5        1.89794   0.00000   0.00001   0.00003   0.00004   1.89797
    A6        1.89544  -0.00000   0.00001  -0.00000   0.00001   1.89546
    A7        1.92577  -0.00000   0.00004  -0.00008  -0.00005   1.92572
    D1       -1.07193  -0.00000  -0.00000  -0.00001  -0.00001  -1.07194
    D2       -3.14159  -0.00000   0.00000  -0.00001  -0.00001  -3.14159
    D3        1.07194   0.00000   0.00001  -0.00001  -0.00000   1.07194
         Item               Value     Threshold  Converged?
 Maximum Force            0.000046     0.000015     NO 
 RMS     Force            0.000012     0.000010     NO 
 Maximum Displacement     0.000085     0.000060     NO 
 RMS     Displacement     0.000029     0.000040     YES
 Predicted change in Energy=-3.259359D-09
 Lowest energy point so far.  Saving SCF results.
 GradGradGradGradGradGradGradGradGradGradGradGradGradGradGradGradGradGrad

 Leave Link  103 at Sat Aug 15 23:18:54 2020, MaxMem=  4831838208 cpu:               0.1 elap:               0.0
[...]
     4  H    1.078646   2.027623   1.757177   0.000000
     5  H    1.085115   2.106451   1.764019   1.757177   0.000000
     6  H    1.994058   0.965790   2.396338   2.844209   2.396339
                    6
     6  H    0.000000
 Symmetry turned off by external request.
 Stoichiometry    CH4O
 Framework group  C1[X(CH4O)]
 Deg. of freedom    12
 Full point group                 C1      NOp   1
 Rotational constants (GHZ):         130.6311619          24.1878176          23.3684173
 Leave Link  202 at Sat Aug 15 23:18:59 2020, MaxMem=  4831838208 cpu:               0.1 elap:               0.0
 (Enter /gpfs/apps/medsci/stacks/noOS/software/gaussian/g16.a03.avx2/g16/l301.exe)
 Standard basis: CBSB1 (5D, 7F)
 Ernie: Thresh=  0.10000D-02 Tol=  0.10000D-05 Strict=F.
    92 basis functions,   136 primitive gaussians,   102 cartesian basis functions
     9 alpha electrons        9 beta electrons
       nuclear repulsion energy        40.0364571832 Hartrees.
 IExCor=    0 DFT=F Ex=HF Corr=None ExCW=0 ScaHFX=  1.000000
 ScaDFX=  1.000000  1.000000  1.000000  1.000000 ScalE2=  1.000000  1.000000
 IRadAn=      5 IRanWt=     -1 IRanGd=            0 ICorTp=0 IEmpDi=  4
 NAtoms=    6 NActive=    6 NUniq=    6 SFac= 1.00D+00 NAtFMM=   60 NAOKFM=F Big=F
 Integral buffers will be    131072 words long.
 Raffenetti 1 integral format.
 Two-electron integral symmetry is turned off.
 Leave Link  301 at Sat Aug 15 23:18:59 2020, MaxMem=  4831838208 cpu:               0.4 elap:               0.1
 (Enter /gpfs/apps/medsci/stacks/noOS/software/gaussian/g16.a03.avx2/g16/l302.exe)
 NPDir=0 NMtPBC=     1 NCelOv=     1 NCel=       1 NClECP=     1 NCelD=      1
         NCelK=      1 NCelE2=     1 NClLst=     1 CellRange=     0.0.
 One-electron integrals computed using PRISM.
 NBasis=    92 RedAO= T EigKep=  1.43D-03  NBF=    92
 NBsUse=    92 1.00D-06 EigRej= -1.00D+00 NBFU=    92
 Leave Link  302 at Sat Aug 15 23:19:00 2020, MaxMem=  4831838208 cpu:               0.7 elap:               0.1
 (Enter /gpfs/apps/medsci/stacks/noOS/software/gaussian/g16.a03.avx2/g16/l303.exe)
 DipDrv:  MaxL=1.
 Leave Link  303 at Sat Aug 15 23:19:00 2020, MaxMem=  4831838208 cpu:               0.2 elap:               0.0
 (Enter /gpfs/apps/medsci/stacks/noOS/software/gaussian/g16.a03.avx2/g16/l401.exe)
 Initial guess from the checkpoint file:  "check.chk"
 B after Tr=     0.000000    0.000000    0.000000
         Rot=    1.000000    0.000000    0.000000    0.000000 Ang=   0.00 deg.
 Guess basis will be translated and rotated to current coordinates.
 JPrj=2 DoOrth=T DoCkMO=T.
 Leave Link  401 at Sat Aug 15 23:19:00 2020, MaxMem=  4831838208 cpu:               0.6 elap:               0.1
 (Enter /gpfs/apps/medsci/stacks/noOS/software/gaussian/g16.a03.avx2/g16/l502.exe)
 Keep R1 ints in memory in canonical form, NReq=13075352.
 FoFCou: FMM=F IPFlag=           0 FMFlag=           0 FMFlg1=           0
         NFxFlg=           0 DoJE=F BraDBF=F KetDBF=F FulRan=T
         wScrn=  0.000000 ICntrl=       600 IOpCl=  0 I1Cent=           0 NGrid=           0
         NMat0=    1 NMatS0=   4278 NMatT0=    0 NMatD0=    1 NMtDS0=    0 NMtDT0=    0
 Symmetry not used in FoFCou.
 Two-electron integral symmetry not used.
 Closed shell SCF:
 Using DIIS extrapolation, IDIIS=  1040.
 NGot=  4831838208 LenX=  4822662935 LenY=  4822652090
 Requested convergence on RMS density matrix=1.00D-08 within  32 cycles.
 Requested convergence on MAX density matrix=1.00D-06.
 Requested convergence on             energy=1.00D-06.
 No special actions if energy rises.

 Cycle   1  Pass 1  IDiag  1:
 E= -115.074993008631    
 DIIS: error= 1.37D-02 at cycle   1 NSaved=   1.
 NSaved= 1 IEnMin= 1 EnMin= -115.074993008631     IErMin= 1 ErrMin= 1.37D-02
 ErrMax= 1.37D-02  0.00D+00 EMaxC= 1.00D-01 BMatC= 2.06D-02 BMatP= 2.06D-02
 IDIUse=3 WtCom= 8.63D-01 WtEn= 1.37D-01
 Coeff-Com:  0.100D+01
 Coeff-En:   0.100D+01
 Coeff:      0.100D+01
 Gap=     0.676 Goal=   None    Shift=    0.000
 GapD=    0.676 DampG=2.000 DampE=0.500 DampFc=1.0000 IDamp=-1.
 RMSDP=1.44D-03 MaxDP=3.04D-02              OVMax= 1.39D-02

 Cycle   2  Pass 1  IDiag  1:
 E= -115.081911772768     Delta-E=       -0.006918764137 Rises=F Damp=F
 DIIS: error= 9.79D-04 at cycle   2 NSaved=   2.
 NSaved= 2 IEnMin= 2 EnMin= -115.081911772768     IErMin= 2 ErrMin= 9.79D-04
 ErrMax= 9.79D-04  0.00D+00 EMaxC= 1.00D-01 BMatC= 1.37D-04 BMatP= 2.06D-02
 IDIUse=3 WtCom= 9.90D-01 WtEn= 9.79D-03
 Coeff-Com: -0.614D-01 0.106D+01
 Coeff-En:   0.000D+00 0.100D+01
 Coeff:     -0.608D-01 0.106D+01
 Gap=     0.493 Goal=   None    Shift=    0.000
 RMSDP=1.83D-04 MaxDP=3.01D-03 DE=-6.92D-03 OVMax= 2.48D-03

 Cycle   3  Pass 1  IDiag  1:
 E= -115.082004452783     Delta-E=       -0.000092680014 Rises=F Damp=F
 DIIS: error= 3.27D-04 at cycle   3 NSaved=   3.
 NSaved= 3 IEnMin= 3 EnMin= -115.082004452783     IErMin= 3 ErrMin= 3.27D-04
 ErrMax= 3.27D-04  0.00D+00 EMaxC= 1.00D-01 BMatC= 6.82D-06 BMatP= 1.37D-04
 IDIUse=3 WtCom= 9.97D-01 WtEn= 3.27D-03
 Coeff-Com: -0.115D-01 0.139D+00 0.872D+00
 Coeff-En:   0.000D+00 0.000D+00 0.100D+01
 Coeff:     -0.114D-01 0.139D+00 0.873D+00
 Gap=     0.495 Goal=   None    Shift=    0.000
 RMSDP=2.47D-05 MaxDP=4.68D-04 DE=-9.27D-05 OVMax= 6.73D-04

 Cycle   4  Pass 1  IDiag  1:
 E= -115.082010291677     Delta-E=       -0.000005838895 Rises=F Damp=F
 DIIS: error= 9.67D-05 at cycle   4 NSaved=   4.
 NSaved= 4 IEnMin= 4 EnMin= -115.082010291677     IErMin= 4 ErrMin= 9.67D-05
 ErrMax= 9.67D-05  0.00D+00 EMaxC= 1.00D-01 BMatC= 5.99D-07 BMatP= 6.82D-06
 IDIUse=1 WtCom= 1.00D+00 WtEn= 0.00D+00
 Coeff-Com:  0.294D-02-0.577D-01 0.897D-01 0.965D+00
 Coeff:      0.294D-02-0.577D-01 0.897D-01 0.965D+00
 Gap=     0.495 Goal=   None    Shift=    0.000
 RMSDP=9.54D-06 MaxDP=2.57D-04 DE=-5.84D-06 OVMax= 2.58D-04

 Cycle   5  Pass 1  IDiag  1:
 E= -115.082010984329     Delta-E=       -0.000000692651 Rises=F Damp=F
 DIIS: error= 2.33D-05 at cycle   5 NSaved=   5.
 NSaved= 5 IEnMin= 5 EnMin= -115.082010984329     IErMin= 5 ErrMin= 2.33D-05
 ErrMax= 2.33D-05  0.00D+00 EMaxC= 1.00D-01 BMatC= 4.24D-08 BMatP= 5.99D-07
 IDIUse=1 WtCom= 1.00D+00 WtEn= 0.00D+00
 Coeff-Com:  0.708D-03-0.124D-01-0.242D-01 0.140D+00 0.896D+00
 Coeff:      0.708D-03-0.124D-01-0.242D-01 0.140D+00 0.896D+00
 Gap=     0.495 Goal=   None    Shift=    0.000
 RMSDP=2.60D-06 MaxDP=5.30D-05 DE=-6.93D-07 OVMax= 1.10D-04

 Cycle   6  Pass 1  IDiag  1:
 E= -115.082011040135     Delta-E=       -0.000000055806 Rises=F Damp=F
 DIIS: error= 1.03D-05 at cycle   6 NSaved=   6.
 NSaved= 6 IEnMin= 6 EnMin= -115.082011040135     IErMin= 6 ErrMin= 1.03D-05
 ErrMax= 1.03D-05  0.00D+00 EMaxC= 1.00D-01 BMatC= 7.56D-09 BMatP= 4.24D-08
 IDIUse=1 WtCom= 1.00D+00 WtEn= 0.00D+00
 Coeff-Com: -0.122D-03 0.323D-02-0.172D-01-0.923D-01 0.164D+00 0.942D+00
 Coeff:     -0.122D-03 0.323D-02-0.172D-01-0.923D-01 0.164D+00 0.942D+00
 Gap=     0.495 Goal=   None    Shift=    0.000
 RMSDP=1.17D-06 MaxDP=3.11D-05 DE=-5.58D-08 OVMax= 3.36D-05

 Cycle   7  Pass 1  IDiag  1:
 E= -115.082011050397     Delta-E=       -0.000000010262 Rises=F Damp=F
 DIIS: error= 3.37D-06 at cycle   7 NSaved=   7.
 NSaved= 7 IEnMin= 7 EnMin= -115.082011050397     IErMin= 7 ErrMin= 3.37D-06
 ErrMax= 3.37D-06  0.00D+00 EMaxC= 1.00D-01 BMatC= 4.15D-10 BMatP= 7.56D-09
 IDIUse=1 WtCom= 1.00D+00 WtEn= 0.00D+00
 Coeff-Com: -0.617D-04 0.965D-03 0.429D-02-0.697D-02-0.880D-01-0.386D-01
 Coeff-Com:  0.113D+01
 Coeff:     -0.617D-04 0.965D-03 0.429D-02-0.697D-02-0.880D-01-0.386D-01
 Coeff:      0.113D+01
 Gap=     0.495 Goal=   None    Shift=    0.000
 RMSDP=4.20D-07 MaxDP=4.43D-06 DE=-1.03D-08 OVMax= 1.55D-05

 Cycle   8  Pass 1  IDiag  1:
 E= -115.082011051379     Delta-E=       -0.000000000981 Rises=F Damp=F
 DIIS: error= 6.58D-07 at cycle   8 NSaved=   8.
 NSaved= 8 IEnMin= 8 EnMin= -115.082011051379     IErMin= 8 ErrMin= 6.58D-07
 ErrMax= 6.58D-07  0.00D+00 EMaxC= 1.00D-01 BMatC= 3.13D-11 BMatP= 4.15D-10
 IDIUse=1 WtCom= 1.00D+00 WtEn= 0.00D+00
 Coeff-Com:  0.224D-04-0.497D-03 0.105D-02 0.100D-01-0.414D-02-0.835D-01
 Coeff-Com: -0.171D+00 0.125D+01
 Coeff:      0.224D-04-0.497D-03 0.105D-02 0.100D-01-0.414D-02-0.835D-01
 Coeff:     -0.171D+00 0.125D+01
 Gap=     0.495 Goal=   None    Shift=    0.000
 RMSDP=1.24D-07 MaxDP=1.37D-06 DE=-9.81D-10 OVMax= 4.42D-06

 Cycle   9  Pass 1  IDiag  1:
 E= -115.082011051460     Delta-E=       -0.000000000082 Rises=F Damp=F
 DIIS: error= 9.02D-08 at cycle   9 NSaved=   9.
 NSaved= 9 IEnMin= 9 EnMin= -115.082011051460     IErMin= 9 ErrMin= 9.02D-08
 ErrMax= 9.02D-08  0.00D+00 EMaxC= 1.00D-01 BMatC= 7.45D-13 BMatP= 3.13D-11
 IDIUse=1 WtCom= 1.00D+00 WtEn= 0.00D+00
 Coeff-Com: -0.355D-05 0.913D-04-0.396D-03-0.214D-02 0.314D-02 0.235D-01
 Coeff-Com:  0.754D-02-0.320D+00 0.129D+01
 Coeff:     -0.355D-05 0.913D-04-0.396D-03-0.214D-02 0.314D-02 0.235D-01
 Coeff:      0.754D-02-0.320D+00 0.129D+01
 Gap=     0.495 Goal=   None    Shift=    0.000
 RMSDP=2.37D-08 MaxDP=3.40D-07 DE=-8.16D-11 OVMax= 8.00D-07

 Cycle  10  Pass 1  IDiag  1:
 E= -115.082011051462     Delta-E=       -0.000000000002 Rises=F Damp=F
 DIIS: error= 1.85D-08 at cycle  10 NSaved=  10.
 NSaved=10 IEnMin=10 EnMin= -115.082011051462     IErMin=10 ErrMin= 1.85D-08
 ErrMax= 1.85D-08  0.00D+00 EMaxC= 1.00D-01 BMatC= 2.40D-14 BMatP= 7.45D-13
 IDIUse=1 WtCom= 1.00D+00 WtEn= 0.00D+00
 Coeff-Com: -0.120D-06 0.101D-05 0.314D-04 0.339D-04-0.429D-03-0.123D-02
 Coeff-Com:  0.402D-02 0.155D-01-0.230D+00 0.121D+01
 Coeff:     -0.120D-06 0.101D-05 0.314D-04 0.339D-04-0.429D-03-0.123D-02
 Coeff:      0.402D-02 0.155D-01-0.230D+00 0.121D+01
 Gap=     0.495 Goal=   None    Shift=    0.000
 RMSDP=3.85D-09 MaxDP=4.83D-08 DE=-2.10D-12 OVMax= 1.42D-07

 SCF Done:  E(RHF) =  -115.082011051     A.U. after   10 cycles
            NFock= 10  Conv=0.39D-08     -V/T= 2.0012
 KE= 1.149406409642D+02 PE=-3.512489000910D+02 EE= 8.118979089207D+01
 Leave Link  502 at Sat Aug 15 23:19:00 2020, MaxMem=  4831838208 cpu:               2.1 elap:               0.4
 (Enter /gpfs/apps/medsci/stacks/noOS/software/gaussian/g16.a03.avx2/g16/l508.exe)
 QCSCF skips out because SCF is already converged.
 Leave Link  508 at Sat Aug 15 23:19:00 2020, MaxMem=  4831838208 cpu:               0.0 elap:               0.0
 (Enter /gpfs/apps/medsci/stacks/noOS/software/gaussian/g16.a03.avx2/g16/l601.exe)
 Copying SCF densities to generalized density rwf, IOpCl= 0 IROHF=0.

 **********************************************************************

            Population analysis using the SCF density.

 **********************************************************************

 Alpha  occ. eigenvalues --  -20.55772 -11.27030  -1.34825  -0.93093  -0.68750
 Alpha  occ. eigenvalues --   -0.61870  -0.59103  -0.50558  -0.45432
 Alpha virt. eigenvalues --    0.04046   0.06317   0.07453   0.08256   0.12753
 Alpha virt. eigenvalues --    0.16097   0.17339   0.19939   0.28154   0.29032
 Alpha virt. eigenvalues --    0.30337   0.34148   0.35868   0.38164   0.39691
 Alpha virt. eigenvalues --    0.44856   0.49452   0.70857   0.71449   0.77167
 Alpha virt. eigenvalues --    0.85835   0.86904   0.89690   0.90847   1.03138
 Alpha virt. eigenvalues --    1.10784   1.15356   1.30454   1.30557   1.37610
 Alpha virt. eigenvalues --    1.44838   1.58541   1.67210   1.71746   1.73026
 Alpha virt. eigenvalues --    1.79796   1.82417   1.84411   2.06349   2.11562
 Alpha virt. eigenvalues --    2.13187   2.27390   2.37316   2.43771   2.49830
 Alpha virt. eigenvalues --    2.57074   2.59374   2.69604   2.72141   2.83461
 Alpha virt. eigenvalues --    3.19450   3.35469   3.47131   3.58950   3.59605
 Alpha virt. eigenvalues --    3.66149   3.74261   3.77064   3.79127   3.93506
 Alpha virt. eigenvalues --    3.95309   3.97801   4.02806   4.50816   4.87364
 Alpha virt. eigenvalues --    4.90053   5.58271   5.59105   5.59233   5.72493
 Alpha virt. eigenvalues --    5.79383   5.79397   6.12019   6.19361   6.74534
 Alpha virt. eigenvalues --    6.87681   7.44695   7.57584   7.67525   7.90426
 Alpha virt. eigenvalues --    8.06668  25.35395  51.64744
          Condensed to atoms (all electrons):
               1          2          3          4          5          6
     1  C    4.751150   0.185428   0.423223   0.435776   0.423223  -0.035408
     2  O    0.185428   8.069248  -0.036100  -0.062352  -0.036101   0.297078
     3  H    0.423223  -0.036100   0.592537  -0.032862  -0.038610  -0.005418
     4  H    0.435776  -0.062352  -0.032862   0.564300  -0.032862   0.007605
     5  H    0.423223  -0.036101  -0.038610  -0.032862   0.592537  -0.005418
     6  H   -0.035408   0.297078  -0.005418   0.007605  -0.005418   0.455824
 Mulliken charges:
               1
     1  C   -0.183392
     2  O   -0.417200
     3  H    0.097230
     4  H    0.120394
     5  H    0.097230
     6  H    0.285738
 Sum of Mulliken charges =  -0.00000
 Mulliken charges with hydrogens summed into heavy atoms:
               1
     1  C    0.131462
     2  O   -0.131462
 Electronic spatial extent (au):  <R**2>=             85.3152
 Charge=             -0.0000 electrons
 Dipole moment (field-independent basis, Debye):
    X=              1.0102    Y=             -1.6343    Z=              0.0003  Tot=              1.9213
 Quadrupole moment (field-independent basis, Debye-Ang):
   XX=            -12.7869   YY=            -12.1680   ZZ=            -13.7894
   XY=              2.4116   XZ=             -0.0004   YZ=             -0.0002
 Traceless Quadrupole moment (field-independent basis, Debye-Ang):
   XX=              0.1279   YY=              0.7468   ZZ=             -0.8747
   XY=              2.4116   XZ=             -0.0004   YZ=             -0.0002
 Octapole moment (field-independent basis, Debye-Ang**2):
  XXX=             -4.3028  YYY=             -0.6639  ZZZ=              0.0016  XYY=             -1.7379
  XXY=             -2.7007  XXZ=              0.0008  XZZ=             -0.1529  YZZ=             -0.7499
  YYZ=              0.0002  XYZ=              0.0002
 Hexadecapole moment (field-independent basis, Debye-Ang**3):
 XXXX=            -62.8342 YYYY=            -19.7732 ZZZZ=            -19.7091 XXXY=              4.4615
 XXXZ=             -0.0010 YYYX=              3.2781 YYYZ=              0.0000 ZZZX=             -0.0003
 ZZZY=              0.0001 XXYY=            -12.6360 XXZZ=            -14.6110 YYZZ=             -6.7239
 XXYZ=             -0.0002 YYXZ=             -0.0007 ZZXY=             -0.1497
 N-N= 4.003645718322D+01 E-N=-3.512489000763D+02  KE= 1.149406409642D+02
 No NMR shielding tensors so no spin-rotation constants.
 Leave Link  601 at Sat Aug 15 23:19:00 2020, MaxMem=  4831838208 cpu:               0.7 elap:               0.1
 (Enter /gpfs/apps/medsci/stacks/noOS/software/gaussian/g16.a03.avx2/g16/l9999.exe)

 Test job not archived.
 1\1\GINC-C060\SP\RHF\CBSB1\C1H4O1\RANASD01\15-Aug-2020\0\\#P Geom=AllC
 heck Guess=TCheck SCRF=Check Test HF/CBSB1 SCF=Tight\\name\\0,1\C,0,0.
 6783045234,-0.0219389067,-0.0000143704\O,0,-0.7557471774,0.1186630022,
 -0.0000620142\H,0,1.0400757039,-0.5400960252,0.8820909198\H,0,1.080301
 6848,0.9789988241,-0.000181396\H,0,1.0401042504,-0.540401861,-0.881928
 2205\H,0,-1.1781437151,-0.7498594734,0.0000823114\\Version=ES64L-G16Re
 vA.03\HF=-115.0820111\RMSD=3.851e-09\Dipole=0.3974483,-0.642972,0.0001
 183\Quadrupole=0.0950724,0.5552161,-0.6502885,1.7929402,-0.0003218,-0.
 0001454\PG=C01 [X(C1H4O1)]\\@


 BRING ME INTO THE COMPANY OF THOSE WHO SEEK TRUTH,
 AND DELIVER ME FROM THOSE WHO HAVE FOUND IT.
 Diagonal vibrational polarizability:
        0.0000000       0.0000000       0.0000000

 Complete Basis Set (CBS) Extrapolation:
 M. R. Nyden and G. A. Petersson, JCP 75, 1843 (1981)
 G. A. Petersson and M. A. Al-Laham, JCP 94, 6081 (1991)
 G. A. Petersson, T. Tensfeldt, and J. A. Montgomery, JCP 94, 6091 (1991)
 J. A. Montgomery, J. W. Ochterski, and G. A. Petersson, JCP 101, 5900 (1994)

 Temperature=               298.150000 Pressure=                       1.000000
 E(ZPE)=                      0.049949 E(Thermal)=                     0.053275
 E(SCF)=                   -115.082011 DE(MP2)=                       -0.351256
 DE(CBS)=                    -0.096132 DE(MP34)=                      -0.018059
 DE(Int)=                     0.024489 DE(Empirical)=                 -0.090212
 CBS-4 (0 K)=              -115.563231 CBS-4 Energy=                -115.559906
 CBS-4 Enthalpy=           -115.558962 CBS-4 Free Energy=           -115.585983

 Test job not archived.
 1\1\GINC-C060\Mixed\CBS-4M\CBS-4M\C1H4O1\RANASD01\15-Aug-2020\0\\#P op
 t=(calcfc, noeigentest, tight, maxcycles=128) cbs-4m scf=(tight, direc
 t) integral=(grid=ultrafine, Acc2E=12) nosymm iop(2/9=2000) scf=xqc\\n
 ame\\0,1\C,0,0.6783045234,-0.0219389067,-0.0000143704\O,0,-0.755747177
 4,0.1186630022,-0.0000620142\H,0,1.0400757039,-0.5400960252,0.88209091
 98\H,0,1.0803016848,0.9789988241,-0.000181396\H,0,1.0401042504,-0.5404
 01861,-0.8819282205\H,0,-1.1781437151,-0.7498594734,0.0000823114\\Vers
 ion=ES64L-G16RevA.03\HF/CbsB1=-115.0820111\HF/CbsB2=-115.0497795\MP2/C
 bsB2=-115.4010356\E2(CBS)/CbsB2=-0.4473882\CBS-Int/CbsB2=0.0244893\OIi
 i/CbsB2=4.4334608\MP2/6-31G=-115.2029654\MP4(SDQ)/6-31G=-115.221024\CB
 S4M=-115.5632314\FreqCoord=1.2818097783,-0.0414585252,-0.0000271561,-1
 .4281551846,0.2242405754,-0.0001171899,1.9654582292,-1.0206335686,1.66
 69102554,2.0414743161,1.8500396538,-0.0003427888,1.9655121742,-1.02121
 15146,-1.6666027983,-2.226368957,-1.4170290366,0.0001555459\PG=C01 [X(
 C1H4O1)]\NImag=0\\0.53504744,0.02764560,0.67725249,-0.00000627,-0.0000
 0863,0.62498822,-0.25239232,0.04056511,-0.00001007,0.47856833,-0.02159
 289,-0.10349467,0.00000618,0.16508955,0.53375922,0.00000076,0.00000719
 ,-0.06596793,-0.00002179,-0.00008184,0.04823544,-0.08351645,0.03356647
 ,-0.06319579,-0.03241349,0.02330332,-0.03127424,0.10031592,0.03738675,
 -0.12829724,0.10366320,0.00389370,0.00278174,0.00060944,-0.04573373,0.
 12976573,-0.06534936,0.10492102,-0.24775734,-0.00124069,-0.00219061,0.
 00965008,0.07508325,-0.11911074,0.26548716,-0.08792551,-0.08561215,0.0
 0001446,-0.02909446,-0.04238475,0.00000686,0.00651303,0.01068941,0.000
 95719,0.11218267,-0.09957502,-0.32004328,0.00004275,0.00253339,0.00818
 842,-0.00000106,-0.00535593,-0.01663863,-0.00029750,0.10485949,0.34239
 723,0.00001688,0.00004298,-0.06414552,-0.00000094,-0.00000179,0.001823
 73,0.01199739,0.03305745,0.00112042,-0.00001733,-0.00004734,0.05954507
 ,-0.08352060,0.03359178,0.06318947,-0.03241455,0.02331409,0.03126479,0
 .00702219,-0.00621716,-0.00864328,0.00651345,-0.00536010,-0.01199536,0
 .10032079,0.03741277,-0.12836959,-0.10370339,0.00389415,0.00278229,-0.
 00060693,-0.00621472,0.01123051,0.01712069,0.01069015,-0.01664998,-0.0
 3305094,-0.04576362,0.12984836,0.06534171,-0.10496134,-0.24768084,0.00
 123798,0.00219375,0.00965058,0.00864656,-0.01713443,-0.02782057,-0.000
 96072,0.00030348,0.00113136,-0.07507274,0.11915629,0.26539969,-0.02769
 257,-0.04975680,0.00000820,-0.13225350,-0.14772931,0.00002363,0.002078
 80,-0.00001897,-0.00080710,-0.00818918,0.00289817,-0.00000064,0.002078
 73,-0.00001873,0.00080720,0.16397772,0.01872280,0.00295228,-0.00000012
 ,-0.21597589,-0.44401700,0.00007319,0.00043459,0.00115788,-0.00044287,
 0.00175785,0.00274623,-0.00000036,0.00043502,0.00115841,0.00044224,0.1
 9462563,0.43600221,-0.00000372,-0.00000123,0.00056341,0.00003551,0.000
 07430,-0.00339190,-0.00125718,-0.00108492,-0.00067976,-0.00000045,-0.0
 0000034,0.00052494,0.00125712,0.00108428,-0.00068023,-0.00003128,-0.00
 007210,0.00366354\\-0.00000030,0.00000046,0.,0.00000119,-0.00000022,0.
 ,-0.00000002,0.00000010,-0.00000013,-0.00000015,-0.00000029,0.,-0.0000
 0003,0.00000010,0.00000013,-0.00000068,-0.00000015,0.\\\@
 Job cpu time:       0 days  0 hours  0 minutes  7.8 seconds.
 Elapsed time:       0 days  0 hours  0 minutes  1.2 seconds.
 File lengths (MBytes):  RWF=     26 Int=      0 D2E=      0 Chk=      2 Scr=      1
 Normal termination of Gaussian 16 at Sat Aug 15 23:19:00 2020.
