 Entering Gaussian System, Link 0=g16
 Initial command:
 /opt/g16/l1.exe "/scratch/alongd/g16/a19817-9707/Gau-4596.inp" -scrdir="/scratch/alongd/g16/a19817-9707/"
 Entering Link 1 = /opt/g16/l1.exe PID=      4600.
  
 Copyright (c) 1988-2017, Gaussian, Inc.  All Rights Reserved.
  
 This is part of the Gaussian(R) 16 program.  It is based on
 the Gaussian(R) 09 system (copyright 2009, Gaussian, Inc.),
 the Gaussian(R) 03 system (copyright 2003, Gaussian, Inc.),
 the Gaussian(R) 98 system (copyright 1998, Gaussian, Inc.),
 the Gaussian(R) 94 system (copyright 1995, Gaussian, Inc.),
 the Gaussian 92(TM) system (copyright 1992, Gaussian, Inc.),
 the Gaussian 90(TM) system (copyright 1990, Gaussian, Inc.),
 the Gaussian 88(TM) system (copyright 1988, Gaussian, Inc.),
 the Gaussian 86(TM) system (copyright 1986, Carnegie Mellon
 University), and the Gaussian 82(TM) system (copyright 1983,
 Carnegie Mellon University). Gaussian is a federally registered
 trademark of Gaussian, Inc.
  
 This software contains proprietary and confidential information,
 including trade secrets, belonging to Gaussian, Inc.
  
 This software is provided under written license and may be
 used, copied, transmitted, or stored only in accord with that
 written license.
  
 The following legend is applicable only to US Government
 contracts under FAR:
  
                    RESTRICTED RIGHTS LEGEND
  
 Use, reproduction and disclosure by the US Government is
 subject to restrictions as set forth in subparagraphs (a)
 and (c) of the Commercial Computer Software - Restricted
 Rights clause in FAR 52.227-19.
  
 Gaussian, Inc.
 340 Quinnipiac St., Bldg. 40, Wallingford CT 06492
  
  
 ---------------------------------------------------------------
 Warning -- This program may not be used in any manner that
 competes with the business of Gaussian, Inc. or will provide
 assistance to any competitor of Gaussian, Inc.  The licensee
 of this program is prohibited from giving any competitor of
 Gaussian, Inc. access to this program.  By using this program,
 the user acknowledges that Gaussian, Inc. is engaged in the
 business of creating and licensing software in the field of
 computational chemistry and represents and warrants to the
 licensee that it is not a competitor of Gaussian, Inc. and that
 it will not use this program in any manner prohibited above.
 ---------------------------------------------------------------
  

 Cite this work as:
 Gaussian 16, Revision B.01,
 M. J. Frisch, G. W. Trucks, H. B. Schlegel, G. E. Scuseria, 
 M. A. Robb, J. R. Cheeseman, G. Scalmani, V. Barone, 
 G. A. Petersson, H. Nakatsuji, X. Li, M. Caricato, A. V. Marenich, 
 J. Bloino, B. G. Janesko, R. Gomperts, B. Mennucci, H. P. Hratchian, 
 J. V. Ortiz, A. F. Izmaylov, J. L. Sonnenberg, D. Williams-Young, 
 F. Ding, F. Lipparini, F. Egidi, J. Goings, B. Peng, A. Petrone, 
 T. Henderson, D. Ranasinghe, V. G. Zakrzewski, J. Gao, N. Rega, 
 G. Zheng, W. Liang, M. Hada, M. Ehara, K. Toyota, R. Fukuda, 
 J. Hasegawa, M. Ishida, T. Nakajima, Y. Honda, O. Kitao, H. Nakai, 
 T. Vreven, K. Throssell, J. A. Montgomery, Jr., J. E. Peralta, 
 F. Ogliaro, M. J. Bearpark, J. J. Heyd, E. N. Brothers, K. N. Kudin, 
 V. N. Staroverov, T. A. Keith, R. Kobayashi, J. Normand, 
 K. Raghavachari, A. P. Rendell, J. C. Burant, S. S. Iyengar, 
 J. Tomasi, M. Cossi, J. M. Millam, M. Klene, C. Adamo, R. Cammi, 
 J. W. Ochterski, R. L. Martin, K. Morokuma, O. Farkas, 
 J. B. Foresman, and D. J. Fox, Gaussian, Inc., Wallingford CT, 2016.
 
 ******************************************
 Gaussian 16:  ES64L-G16RevB.01 20-Dec-2017
                 7-Sep-2019 
 ******************************************
 %chk=check.chk
 %mem=14000mb
 %NProcShared=8
 Will use up to    8 processors via shared memory.
 ----------------------------------------------------------------------
 #P opt=(tight) ub3lyp/def2tzvp scf=(tight, direct) integral=(grid=ultr
 afine, Acc2E=12) scf=xqc iop(2/9=2000)
 ----------------------------------------------------------------------
 1/7=10,18=20,19=15,26=4,38=1/1,3;
 2/9=2000,12=2,17=6,18=5,40=1/2;
 3/5=44,7=101,11=2,25=1,27=12,30=1,71=1,74=-5,75=-5,116=2/1,2,3;
 4//1;
 5/5=2,8=3,13=1,32=2,38=5,87=12/2,8;
 6/7=2,8=2,9=2,10=2,28=1,87=12/1;
 7/87=12/1,2,3,16;
 1/7=10,18=20,19=15,26=4/3(2);
 2/9=2000/2;
 99//99;
 2/9=2000/2;
 3/5=44,7=101,11=2,25=1,27=12,30=1,71=1,74=-5,75=-5,116=2/1,2,3;
 4/5=5,16=3,69=1/1;
 5/5=2,8=3,13=1,32=2,38=5,87=12/2,8;
 7/87=12/1,2,3,16;
 1/7=10,18=20,19=15,26=4/3(-5);
 2/9=2000/2;
 6/7=2,8=2,9=2,10=2,19=2,28=1,87=12/1;
 99/9=1/99;
 Leave Link    1 at Sat Sep  7 00:40:53 2019, MaxMem=  1835008000 cpu:               1.7 elap:               0.2
 (Enter /opt/g16/l101.exe)
 ----
 name
 ----
 Symbolic Z-matrix:
 Charge =  0 Multiplicity = 2
 Zr                    0.9122    0.81104  -0.25827 
 Zr                    1.25414   1.07818   2.90045 
 O                     2.13171   0.4691    1.04598 
 O                    -0.26084   1.48996   1.28265 
 O                     1.922     2.63835   3.94526 
 O                     0.72504  -0.17158   3.99615 
 H                    -1.20404   1.65687   1.3272 
 
 Add atom      1 valence  3 ND=      1 dihedral       2      1      3      4
 ITRead=  0  0  0  0  0  0  0
 MicOpt= -1 -1 -1 -1 -1 -1 -1
 NAtoms=      7 NQM=        7 NQMF=       0 NMMI=      0 NMMIF=      0
                NMic=       0 NMicF=      0.
                    Isotopes and Nuclear Properties:
 (Nuclear quadrupole moments (NQMom) in fm**2, nuclear magnetic moments (NMagM)
  in nuclear magnetons)

  Atom         1           2           3           4           5           6           7
 IAtWgt=          90          90          16          16          16          16           1
 AtmWgt=  89.9043000  89.9043000  15.9949146  15.9949146  15.9949146  15.9949146   1.0078250
 NucSpn=           0           0           0           0           0           0           1
 AtZEff=  -0.0000000  -0.0000000  -0.0000000  -0.0000000  -0.0000000  -0.0000000  -0.0000000
 NQMom=    0.0000000   0.0000000   0.0000000   0.0000000   0.0000000   0.0000000   0.0000000
 NMagM=    0.0000000   0.0000000   0.0000000   0.0000000   0.0000000   0.0000000   2.7928460
 AtZNuc=  40.0000000  40.0000000   8.0000000   8.0000000   8.0000000   8.0000000   1.0000000
 Leave Link  101 at Sat Sep  7 00:40:55 2019, MaxMem=  1835008000 cpu:              14.5 elap:               1.9
 (Enter /opt/g16/l103.exe)

 GradGradGradGradGradGradGradGradGradGradGradGradGradGradGradGradGradGrad
 Berny optimization.
 Initialization pass.
                           ----------------------------
                           !    Initial Parameters    !
                           ! (Angstroms and Degrees)  !
 --------------------------                            --------------------------
 ! Name  Definition              Value          Derivative Info.                !
 --------------------------------------------------------------------------------
 ! R1    R(1,2)                  3.1884         estimate D2E/DX2                !
 ! R2    R(1,3)                  1.818          estimate D2E/DX2                !
 ! R3    R(1,4)                  2.0522         estimate D2E/DX2                !
 ! R4    R(2,3)                  2.1401         estimate D2E/DX2                !
 ! R5    R(2,4)                  2.2543         estimate D2E/DX2                !
 ! R6    R(2,5)                  1.9929         estimate D2E/DX2                !
 ! R7    R(2,6)                  1.7443         estimate D2E/DX2                !
 ! R8    R(4,7)                  0.9589         estimate D2E/DX2                !
 ! A1    A(3,1,4)               84.6623         estimate D2E/DX2                !
 ! A2    A(1,2,5)              128.3825         estimate D2E/DX2                !
 ! A3    A(1,2,6)              121.99           estimate D2E/DX2                !
 ! A4    A(3,2,4)               72.8846         estimate D2E/DX2                !
 ! A5    A(3,2,5)              122.6606         estimate D2E/DX2                !
 ! A6    A(3,2,6)              117.6971         estimate D2E/DX2                !
 ! A7    A(4,2,5)              117.2866         estimate D2E/DX2                !
 ! A8    A(4,2,6)              112.1995         estimate D2E/DX2                !
 ! A9    A(5,2,6)              109.4656         estimate D2E/DX2                !
 ! A10   A(1,4,7)              130.8992         estimate D2E/DX2                !
 ! A11   A(2,4,7)              131.2609         estimate D2E/DX2                !
 ! D1    D(2,1,3,4)              0.3425         estimate D2E/DX2                !
 ! D2    D(3,1,4,7)           -163.1117         estimate D2E/DX2                !
 ! D3    D(3,2,4,7)            163.0535         estimate D2E/DX2                !
 ! D4    D(5,2,4,7)            -78.4879         estimate D2E/DX2                !
 ! D5    D(6,2,4,7)             49.4998         estimate D2E/DX2                !
 --------------------------------------------------------------------------------
 Trust Radius=3.00D-01 FncErr=1.00D-07 GrdErr=1.00D-06 EigMax=2.50D+02 EigMin=1.00D-04
 Number of steps in this run=     34 maximum allowed number of steps=    100.
 GradGradGradGradGradGradGradGradGradGradGradGradGradGradGradGradGradGrad

 Leave Link  103 at Sat Sep  7 00:40:57 2019, MaxMem=  1835008000 cpu:               0.1 elap:               1.7
 (Enter /opt/g16/l202.exe)
                          Input orientation:                          
 ---------------------------------------------------------------------
 Center     Atomic      Atomic             Coordinates (Angstroms)
 Number     Number       Type             X           Y           Z
 ---------------------------------------------------------------------
      1         40           0        0.912201    0.811042   -0.258272
      2         40           0        1.254136    1.078179    2.900450
      3          8           0        2.131706    0.469097    1.045982
      4          8           0       -0.260842    1.489955    1.282650
      5          8           0        1.922004    2.638349    3.945260
      6          8           0        0.725041   -0.171584    3.996151
      7          1           0       -1.204038    1.656867    1.327199
 ---------------------------------------------------------------------
                    Distance matrix (angstroms):
                    1          2          3          4          5
     1  Zr   0.000000
     2  Zr   3.188386   0.000000
     3  O    1.818020   2.140131   0.000000
     4  O    2.052168   2.254328   2.611982   0.000000
     5  O    4.693446   1.992939   3.627043   3.629479   0.000000
     6  O    4.370435   1.744250   3.330567   3.331031   3.054674
     7  H    2.776258   2.975335   3.552051   0.958886   4.194006
                    6          7
     6  O    0.000000
     7  H    3.766681   0.000000
 Stoichiometry    HO4Zr2(2)
 Framework group  C1[X(HO4Zr2)]
 Deg. of freedom    15
 Full point group                 C1      NOp   1
 Largest Abelian subgroup         C1      NOp   1
 Largest concise Abelian subgroup C1      NOp   1
                         Standard orientation:                         
 ---------------------------------------------------------------------
 Center     Atomic      Atomic             Coordinates (Angstroms)
 Number     Number       Type             X           Y           Z
 ---------------------------------------------------------------------
      1         40           0        1.947317   -0.043619   -0.038639
      2         40           0       -1.240381    0.019871   -0.057563
      3          8           0        0.556611   -0.196370   -1.199588
      4          8           0        0.486196    0.220956    1.377878
      5          8           0       -2.509877   -1.486223    0.245533
      6          8           0       -2.133988    1.508303   -0.226222
      7          1           0        0.531042    0.576583    2.267249
 ---------------------------------------------------------------------
 Rotational constants (GHZ):           3.7606102           0.6996795           0.6871437
 Leave Link  202 at Sat Sep  7 00:40:57 2019, MaxMem=  1835008000 cpu:               0.3 elap:               0.0
 (Enter /opt/g16/l301.exe)
 Standard basis: def2TZVP (5D, 7F)
 Ernie: Thresh=  0.10000D-02 Tol=  0.10000D-05 Strict=F.
 There are   242 symmetry adapted cartesian basis functions of A   symmetry.
 There are   210 symmetry adapted basis functions of A   symmetry.
   210 basis functions,   348 primitive gaussians,   242 cartesian basis functions
    29 alpha electrons       28 beta electrons
       nuclear repulsion energy       275.1520475902 Hartrees.
 IExCor=  402 DFT=T Ex+Corr=B3LYP ExCW=0 ScaHFX=  0.200000
 ScaDFX=  0.800000  0.720000  1.000000  0.810000 ScalE2=  1.000000  1.000000
 IRadAn=      5 IRanWt=     -1 IRanGd=            0 ICorTp=0 IEmpDi=  4
 NAtoms=    7 NActive=    7 NUniq=    7 SFac= 1.00D+00 NAtFMM=   60 NAOKFM=F Big=F
 Integral buffers will be    131072 words long.
 Raffenetti 2 integral format.
 Two-electron integral symmetry is turned on.
 Leave Link  301 at Sat Sep  7 00:40:57 2019, MaxMem=  1835008000 cpu:               0.8 elap:               0.1
 (Enter /opt/g16/l302.exe)
 NPDir=0 NMtPBC=     1 NCelOv=     1 NCel=       1 NClECP=     1 NCelD=      1
         NCelK=      1 NCelE2=     1 NClLst=     1 CellRange=     0.0.
 One-electron integrals computed using PRISM.
 One-electron integral symmetry used in STVInt
   1 Symmetry operations used in ECPInt.
 ECPInt:  NShTT=    2926 NPrTT=    8112 LenC2=    2839 LenP2D=    6520.
 LDataN:  DoStor=T MaxTD1= 7 Len=  274
 NBasis=   210 RedAO= T EigKep=  1.32D-03  NBF=   210
 NBsUse=   210 1.00D-06 EigRej= -1.00D+00 NBFU=   210
 Precomputing XC quadrature grid using
 IXCGrd= 4 IRadAn=           5 IRanWt=          -1 IRanGd=           0 AccXCQ= 1.00D-12.
 Defaulting to unpruned grid for atomic number  40.
 Defaulting to unpruned grid for atomic number  40.
 Generated NRdTot=       0 NPtTot=           0 NUsed=           0 NTot=          32
 NSgBfM=   240   240   240   240   240 MxSgAt=     7 MxSgA2=     7.
 Leave Link  302 at Sat Sep  7 00:41:00 2019, MaxMem=  1835008000 cpu:               4.6 elap:               2.2
 (Enter /opt/g16/l303.exe)
 DipDrv:  MaxL=1.
 Leave Link  303 at Sat Sep  7 00:41:03 2019, MaxMem=  1835008000 cpu:               0.5 elap:               3.6
 (Enter /opt/g16/l401.exe)
 ExpMin= 2.90D-02 ExpMax= 2.70D+04 ExpMxC= 9.22D+02 IAcc=3 IRadAn=         5 AccDes= 0.00D+00
 Harris functional with IExCor=  402 and IRadAn=       5 diagonalized for initial guess.
 HarFok:  IExCor=  402 AccDes= 0.00D+00 IRadAn=         5 IDoV= 1 UseB2=F ITyADJ=14
 ICtDFT=  3500011 ScaDFX=  1.000000  1.000000  1.000000  1.000000
 Defaulting to unpruned grid for atomic number  40.
 FoFCou: FMM=F IPFlag=           0 FMFlag=      100000 FMFlg1=           0
         NFxFlg=           0 DoJE=T BraDBF=F KetDBF=T FulRan=T
         wScrn=  0.000000 ICntrl=       500 IOpCl=  0 I1Cent=   200000004 NGrid=           0
         NMat0=    1 NMatS0=      1 NMatT0=    0 NMatD0=    1 NMtDS0=    0 NMtDT0=    0
 Petite list used in FoFCou.
 Harris En= -396.149508658048    
 JPrj=0 DoOrth=F DoCkMO=F.
 Initial guess <Sx>= 0.0000 <Sy>= 0.0000 <Sz>= 0.5000 <S**2>= 0.7500 S= 0.5000
 Leave Link  401 at Sat Sep  7 00:41:08 2019, MaxMem=  1835008000 cpu:              37.6 elap:               5.2
 (Enter /opt/g16/l502.exe)
 Keep R1 and R2 ints in memory in canonical form, NReq=499441315.
 FoFCou: FMM=F IPFlag=           0 FMFlag=           0 FMFlg1=           0
         NFxFlg=           0 DoJE=F BraDBF=F KetDBF=F FulRan=T
         wScrn=  0.000000 ICntrl=       600 IOpCl=  0 I1Cent=           0 NGrid=           0
         NMat0=    1 NMatS0=  22155 NMatT0=    0 NMatD0=    1 NMtDS0=    0 NMtDT0=    0
 Symmetry not used in FoFCou.
 Two-electron integral symmetry not used.
 UHF open shell SCF:
 Using DIIS extrapolation, IDIIS=  1040.
 NGot=  1835008000 LenX=  1344020621 LenY=  1343961616
 Requested convergence on RMS density matrix=1.00D-08 within  32 cycles.
 Requested convergence on MAX density matrix=1.00D-06.
 Requested convergence on             energy=1.00D-06.
 No special actions if energy rises.

 Cycle   1  Pass 1  IDiag  1:
 Defaulting to unpruned grid for atomic number  40.
 Defaulting to unpruned grid for atomic number  40.
 Defaulting to unpruned grid for atomic number  40.
 Defaulting to unpruned grid for atomic number  40.
 Defaulting to unpruned grid for atomic number  40.
 Defaulting to unpruned grid for atomic number  40.
 Defaulting to unpruned grid for atomic number  40.
 Defaulting to unpruned grid for atomic number  40.
 E= -394.662500341736    
 DIIS: error= 7.12D-02 at cycle   1 NSaved=   1.
 NSaved= 1 IEnMin= 1 EnMin= -394.662500341736     IErMin= 1 ErrMin= 7.12D-02
 ErrMax= 7.12D-02  0.00D+00 EMaxC= 1.00D-01 BMatC= 5.79D+00 BMatP= 5.79D+00
 IDIUse=3 WtCom= 2.88D-01 WtEn= 7.12D-01
 Coeff-Com:  0.100D+01
 Coeff-En:   0.100D+01
 Coeff:      0.100D+01
 Gap=     0.334 Goal=   None    Shift=    0.000
 Gap=    -0.642 Goal=   None    Shift=    0.000
 GapD=   -0.642 DampG=0.250 DampE=0.250 DampFc=0.1250 IDamp=-1.
 Damping current iteration by 1.25D-01
 RMSDP=1.99D-02 MaxDP=1.34D+00              OVMax= 9.08D-01

 Cycle   2  Pass 1  IDiag  1:
 E= -395.026911887205     Delta-E=       -0.364411545469 Rises=F Damp=T
 DIIS: error= 3.69D-02 at cycle   2 NSaved=   2.
 NSaved= 2 IEnMin= 2 EnMin= -395.026911887205     IErMin= 2 ErrMin= 3.69D-02
 ErrMax= 3.69D-02  0.00D+00 EMaxC= 1.00D-01 BMatC= 1.53D+00 BMatP= 5.79D+00
 IDIUse=3 WtCom= 6.31D-01 WtEn= 3.69D-01
 Coeff-Com: -0.621D+00 0.162D+01
 Coeff-En:   0.251D+00 0.749D+00
 Coeff:     -0.299D+00 0.130D+01
 Gap=    -0.072 Goal=   None    Shift=    0.000
 Gap=     0.119 Goal=   None    Shift=    0.000
 RMSDP=7.87D-03 MaxDP=5.94D-01 DE=-3.64D-01 OVMax= 9.76D-01

 Cycle   3  Pass 1  IDiag  1:
 E= -391.481041100720     Delta-E=        3.545870786485 Rises=F Damp=F
 DIIS: error= 1.80D-01 at cycle   3 NSaved=   3.
 NSaved= 3 IEnMin= 2 EnMin= -395.026911887205     IErMin= 2 ErrMin= 3.69D-02
 ErrMax= 1.80D-01  0.00D+00 EMaxC= 1.00D-01 BMatC= 1.83D+01 BMatP= 1.53D+00
 IDIUse=2 WtCom= 0.00D+00 WtEn= 1.00D+00
 EnCoef did     2 forward-backward iterations
 Coeff-En:   0.122D+00 0.746D+00 0.132D+00
 Coeff:      0.122D+00 0.746D+00 0.132D+00
 Gap=     0.150 Goal=   None    Shift=    0.000
 Gap=     0.078 Goal=   None    Shift=    0.000
 RMSDP=1.06D-02 MaxDP=6.45D-01 DE= 3.55D+00 OVMax= 9.88D-01

 Cycle   4  Pass 1  IDiag  1:
 E= -385.006475989353     Delta-E=        6.474565111366 Rises=F Damp=F
 DIIS: error= 1.15D-01 at cycle   4 NSaved=   4.
 NSaved= 4 IEnMin= 2 EnMin= -395.026911887205     IErMin= 2 ErrMin= 3.69D-02
 ErrMax= 1.15D-01  0.00D+00 EMaxC= 1.00D-01 BMatC= 2.20D+01 BMatP= 1.53D+00
 IDIUse=2 WtCom= 0.00D+00 WtEn= 1.00D+00
 EnCoef did   100 forward-backward iterations
 Coeff-En:   0.681D+00 0.366D-01 0.960D-01 0.187D+00
 Coeff:      0.681D+00 0.366D-01 0.960D-01 0.187D+00
 Gap=    -0.014 Goal=   None    Shift=    0.000
 Gap=    -0.005 Goal=   None    Shift=    0.000
 RMSDP=6.97D-03 MaxDP=2.53D-01 DE= 6.47D+00 OVMax= 9.00D-01

 Cycle   5  Pass 1  IDiag  1:
 E= -393.540796126534     Delta-E=       -8.534320137181 Rises=F Damp=F
 DIIS: error= 1.23D-01 at cycle   5 NSaved=   5.
 NSaved= 5 IEnMin= 2 EnMin= -395.026911887205     IErMin= 2 ErrMin= 3.69D-02
 ErrMax= 1.23D-01  0.00D+00 EMaxC= 1.00D-01 BMatC= 1.05D+01 BMatP= 1.53D+00
 IDIUse=2 WtCom= 0.00D+00 WtEn= 1.00D+00
 EnCoef did   100 forward-backward iterations
 Coeff-En:   0.628D+00 0.118D-01 0.130D-01 0.119D+00 0.229D+00
 Coeff:      0.628D+00 0.118D-01 0.130D-01 0.119D+00 0.229D+00
 Gap=     0.169 Goal=   None    Shift=    0.000
 Gap=     0.039 Goal=   None    Shift=    0.000
 RMSDP=5.31D-03 MaxDP=3.95D-01 DE=-8.53D+00 OVMax= 5.40D-01

 Cycle   6  Pass 1  IDiag  1:
 E= -395.289777839134     Delta-E=       -1.748981712600 Rises=F Damp=F
 DIIS: error= 4.84D-02 at cycle   6 NSaved=   6.
 NSaved= 6 IEnMin= 6 EnMin= -395.289777839134     IErMin= 2 ErrMin= 3.69D-02
 ErrMax= 4.84D-02  0.00D+00 EMaxC= 1.00D-01 BMatC= 3.04D+00 BMatP= 1.53D+00
 IDIUse=2 WtCom= 0.00D+00 WtEn= 1.00D+00
 EnCoef did   100 forward-backward iterations
 Coeff-En:   0.355D+00 0.977D-02 0.000D+00 0.223D-01 0.169D+00 0.444D+00
 Coeff:      0.355D+00 0.977D-02 0.000D+00 0.223D-01 0.169D+00 0.444D+00
 Gap=     0.044 Goal=   None    Shift=    0.000
 Gap=    -0.029 Goal=   None    Shift=    0.000
 RMSDP=5.86D-03 MaxDP=4.93D-01 DE=-1.75D+00 OVMax= 9.46D-01

 Cycle   7  Pass 1  IDiag  1:
 E= -394.824595226426     Delta-E=        0.465182612708 Rises=F Damp=F
 DIIS: error= 4.27D-02 at cycle   7 NSaved=   7.
 NSaved= 7 IEnMin= 6 EnMin= -395.289777839134     IErMin= 2 ErrMin= 3.69D-02
 ErrMax= 4.27D-02  0.00D+00 EMaxC= 1.00D-01 BMatC= 2.85D+00 BMatP= 1.53D+00
 IDIUse=2 WtCom= 0.00D+00 WtEn= 1.00D+00
 EnCoef did   100 forward-backward iterations
 Coeff-En:   0.276D+00 0.401D-02 0.000D+00 0.000D+00 0.148D-03 0.407D+00
 Coeff-En:   0.313D+00
 Coeff:      0.276D+00 0.401D-02 0.000D+00 0.000D+00 0.148D-03 0.407D+00
 Coeff:      0.313D+00
 Gap=     0.135 Goal=   None    Shift=    0.000
 Gap=     0.179 Goal=   None    Shift=    0.000
 RMSDP=5.25D-03 MaxDP=5.05D-01 DE= 4.65D-01 OVMax= 9.55D-01

 Cycle   8  Pass 1  IDiag  1:
 E= -395.651507311939     Delta-E=       -0.826912085512 Rises=F Damp=F
 DIIS: error= 2.25D-02 at cycle   8 NSaved=   8.
 NSaved= 8 IEnMin= 8 EnMin= -395.651507311939     IErMin= 8 ErrMin= 2.25D-02
 ErrMax= 2.25D-02  0.00D+00 EMaxC= 1.00D-01 BMatC= 1.07D+00 BMatP= 1.53D+00
 IDIUse=3 WtCom= 7.75D-01 WtEn= 2.25D-01
 EnCoef did     2 forward-backward iterations
 Coeff-Com: -0.193D+00 0.537D+00-0.974D-03-0.181D-01-0.196D-01 0.256D+00
 Coeff-Com:  0.905D-01 0.348D+00
 Coeff-En:   0.000D+00 0.000D+00 0.000D+00 0.000D+00 0.000D+00 0.252D+00
 Coeff-En:   0.179D+00 0.568D+00
 Coeff:     -0.149D+00 0.416D+00-0.754D-03-0.140D-01-0.151D-01 0.255D+00
 Coeff:      0.111D+00 0.398D+00
 Gap=     0.086 Goal=   None    Shift=    0.000
 Gap=     0.149 Goal=   None    Shift=    0.000
 RMSDP=1.70D-03 MaxDP=6.08D-02 DE=-8.27D-01 OVMax= 1.84D-01

 Cycle   9  Pass 1  IDiag  1:
 E= -395.755273318015     Delta-E=       -0.103766006076 Rises=F Damp=F
 DIIS: error= 1.84D-02 at cycle   9 NSaved=   9.
 NSaved= 9 IEnMin= 9 EnMin= -395.755273318015     IErMin= 9 ErrMin= 1.84D-02
 ErrMax= 1.84D-02  0.00D+00 EMaxC= 1.00D-01 BMatC= 5.06D-01 BMatP= 1.07D+00
 IDIUse=3 WtCom= 8.16D-01 WtEn= 1.84D-01
 EnCoef did     3 forward-backward iterations
 Coeff-Com: -0.288D+00 0.473D+00-0.774D-02-0.208D-02-0.331D-02 0.909D-01
 Coeff-Com:  0.266D-01 0.303D+00 0.408D+00
 Coeff-En:   0.000D+00 0.000D+00 0.000D+00 0.000D+00 0.000D+00 0.572D-03
 Coeff-En:   0.191D+00 0.210D+00 0.599D+00
 Coeff:     -0.235D+00 0.386D+00-0.631D-02-0.170D-02-0.270D-02 0.743D-01
 Coeff:      0.567D-01 0.286D+00 0.443D+00
 Gap=     0.084 Goal=   None    Shift=    0.000
 Gap=     0.067 Goal=   None    Shift=    0.000
 RMSDP=8.94D-04 MaxDP=4.54D-02 DE=-1.04D-01 OVMax= 8.39D-02

 Cycle  10  Pass 1  IDiag  1:
 E= -395.837546387216     Delta-E=       -0.082273069202 Rises=F Damp=F
 DIIS: error= 1.19D-02 at cycle  10 NSaved=  10.
 NSaved=10 IEnMin=10 EnMin= -395.837546387216     IErMin=10 ErrMin= 1.19D-02
 ErrMax= 1.19D-02  0.00D+00 EMaxC= 1.00D-01 BMatC= 1.99D-01 BMatP= 5.06D-01
 IDIUse=3 WtCom= 8.81D-01 WtEn= 1.19D-01
 Coeff-Com: -0.272D+00 0.390D+00-0.765D-02-0.377D-03 0.781D-02 0.111D-01
 Coeff-Com:  0.338D-01 0.162D+00 0.348D+00 0.328D+00
 Coeff-En:   0.000D+00 0.000D+00 0.000D+00 0.000D+00 0.000D+00 0.000D+00
 Coeff-En:   0.161D+00 0.000D+00 0.000D+00 0.839D+00
 Coeff:     -0.239D+00 0.343D+00-0.673D-02-0.332D-03 0.688D-02 0.976D-02
 Coeff:      0.489D-01 0.143D+00 0.306D+00 0.389D+00
 Gap=     0.074 Goal=   None    Shift=    0.000
 Gap=     0.061 Goal=   None    Shift=    0.000
 RMSDP=2.93D-04 MaxDP=1.03D-02 DE=-8.23D-02 OVMax= 2.54D-02

 Cycle  11  Pass 1  IDiag  1:
 E= -395.848205023001     Delta-E=       -0.010658635784 Rises=F Damp=F
 DIIS: error= 1.06D-02 at cycle  11 NSaved=  11.
 NSaved=11 IEnMin=11 EnMin= -395.848205023001     IErMin=11 ErrMin= 1.06D-02
 ErrMax= 1.06D-02  0.00D+00 EMaxC= 1.00D-01 BMatC= 1.42D-01 BMatP= 1.99D-01
 IDIUse=3 WtCom= 8.94D-01 WtEn= 1.06D-01
 EnCoef did    21 forward-backward iterations
 Coeff-Com: -0.220D+00 0.337D+00-0.927D-02-0.257D-03 0.774D-02 0.287D-01
 Coeff-Com:  0.347D-01 0.429D-01-0.780D-02 0.733D-02 0.779D+00
 Coeff-En:   0.000D+00 0.000D+00 0.000D+00 0.000D+00 0.000D+00 0.000D+00
 Coeff-En:   0.149D+00 0.000D+00 0.000D+00 0.226D+00 0.625D+00
 Coeff:     -0.197D+00 0.301D+00-0.828D-02-0.229D-03 0.691D-02 0.256D-01
 Coeff:      0.469D-01 0.383D-01-0.697D-02 0.306D-01 0.763D+00
 Gap=     0.065 Goal=   None    Shift=    0.000
 Gap=     0.052 Goal=   None    Shift=    0.000
 RMSDP=1.84D-04 MaxDP=1.28D-02 DE=-1.07D-02 OVMax= 1.28D-02

 Cycle  12  Pass 1  IDiag  1:
 E= -395.858242918361     Delta-E=       -0.010037895360 Rises=F Damp=F
 DIIS: error= 9.56D-03 at cycle  12 NSaved=  12.
 NSaved=12 IEnMin=12 EnMin= -395.858242918361     IErMin=12 ErrMin= 9.56D-03
 ErrMax= 9.56D-03  0.00D+00 EMaxC= 1.00D-01 BMatC= 1.17D-01 BMatP= 1.42D-01
 IDIUse=3 WtCom= 9.04D-01 WtEn= 9.56D-02
 Coeff-Com: -0.582D-01 0.141D+00-0.207D-02 0.312D-02 0.108D-01 0.718D-01
 Coeff-Com:  0.233D-01-0.149D+00-0.414D+00-0.122D+01-0.908D+00 0.350D+01
 Coeff-En:   0.000D+00 0.000D+00 0.000D+00 0.000D+00 0.000D+00 0.000D+00
 Coeff-En:   0.133D+00 0.000D+00 0.000D+00 0.000D+00 0.000D+00 0.867D+00
 Coeff:     -0.526D-01 0.127D+00-0.187D-02 0.282D-02 0.981D-02 0.650D-01
 Coeff:      0.338D-01-0.135D+00-0.374D+00-0.110D+01-0.821D+00 0.325D+01
 Gap=     0.023 Goal=   None    Shift=    0.000
 Gap=     0.014 Goal=   None    Shift=    0.000
 RMSDP=7.21D-04 MaxDP=4.99D-02 DE=-1.00D-02 OVMax= 8.54D-02

 Cycle  13  Pass 1  IDiag  1:
 E= -395.891347627341     Delta-E=       -0.033104708981 Rises=F Damp=F
 DIIS: error= 4.98D-03 at cycle  13 NSaved=  13.
 NSaved=13 IEnMin=13 EnMin= -395.891347627341     IErMin=13 ErrMin= 4.98D-03
 ErrMax= 4.98D-03  0.00D+00 EMaxC= 1.00D-01 BMatC= 3.04D-02 BMatP= 1.17D-01
 IDIUse=3 WtCom= 9.50D-01 WtEn= 4.98D-02
 Coeff-Com:  0.107D-02 0.149D-01 0.138D-02 0.231D-02 0.490D-02 0.413D-01
 Coeff-Com:  0.139D-01-0.580D-01-0.563D-01-0.660D+00-0.132D+01 0.190D+01
 Coeff-Com:  0.112D+01
 Coeff-En:   0.000D+00 0.000D+00 0.000D+00 0.000D+00 0.000D+00 0.000D+00
 Coeff-En:   0.586D-01 0.000D+00 0.000D+00 0.000D+00 0.000D+00 0.000D+00
 Coeff-En:   0.941D+00
 Coeff:      0.102D-02 0.142D-01 0.131D-02 0.219D-02 0.466D-02 0.392D-01
 Coeff:      0.162D-01-0.551D-01-0.535D-01-0.627D+00-0.126D+01 0.180D+01
 Coeff:      0.111D+01
 Gap=    -0.007 Goal=   None    Shift=    0.000
 Gap=    -0.016 Goal=   None    Shift=    0.000
 RMSDP=4.67D-03 MaxDP=4.90D-01 DE=-3.31D-02 OVMax= 9.50D-01

 Cycle  14  Pass 1  IDiag  1:
 E= -395.018629740985     Delta-E=        0.872717886357 Rises=F Damp=F
 DIIS: error= 4.57D-02 at cycle  14 NSaved=  14.
 NSaved=14 IEnMin=13 EnMin= -395.891347627341     IErMin=13 ErrMin= 4.98D-03
 ErrMax= 4.57D-02  0.00D+00 EMaxC= 1.00D-01 BMatC= 2.23D+00 BMatP= 3.04D-02
 IDIUse=2 WtCom= 0.00D+00 WtEn= 1.00D+00
 Coeff-En:   0.000D+00 0.000D+00 0.000D+00 0.000D+00 0.000D+00 0.000D+00
 Coeff-En:   0.000D+00 0.000D+00 0.000D+00 0.000D+00 0.000D+00 0.000D+00
 Coeff-En:   0.906D+00 0.936D-01
 Coeff:      0.000D+00 0.000D+00 0.000D+00 0.000D+00 0.000D+00 0.000D+00
 Coeff:      0.000D+00 0.000D+00 0.000D+00 0.000D+00 0.000D+00 0.000D+00
 Coeff:      0.906D+00 0.936D-01
 Gap=     0.008 Goal=   None    Shift=    0.000
 Gap=     0.007 Goal=   None    Shift=    0.000
 RMSDP=1.97D-03 MaxDP=1.08D-01 DE= 8.73D-01 OVMax= 5.84D-01

 Cycle  15  Pass 1  IDiag  1:
 E= -395.622942300757     Delta-E=       -0.604312559772 Rises=F Damp=F
 DIIS: error= 4.17D-02 at cycle  15 NSaved=  15.
 NSaved=15 IEnMin=13 EnMin= -395.891347627341     IErMin=13 ErrMin= 4.98D-03
 ErrMax= 4.17D-02  0.00D+00 EMaxC= 1.00D-01 BMatC= 8.79D-01 BMatP= 3.04D-02
 IDIUse=2 WtCom= 0.00D+00 WtEn= 1.00D+00
 Coeff-En:   0.000D+00 0.000D+00 0.000D+00 0.000D+00 0.000D+00 0.000D+00
 Coeff-En:   0.000D+00 0.000D+00 0.000D+00 0.000D+00 0.000D+00 0.000D+00
 Coeff-En:   0.835D+00 0.000D+00 0.165D+00
 Coeff:      0.000D+00 0.000D+00 0.000D+00 0.000D+00 0.000D+00 0.000D+00
 Coeff:      0.000D+00 0.000D+00 0.000D+00 0.000D+00 0.000D+00 0.000D+00
 Coeff:      0.835D+00 0.000D+00 0.165D+00
 Gap=     0.010 Goal=   None    Shift=    0.000
 Gap=     0.010 Goal=   None    Shift=    0.000
 RMSDP=1.44D-03 MaxDP=7.47D-02 DE=-6.04D-01 OVMax= 4.31D-01

 Cycle  16  Pass 1  IDiag  1:
 E= -395.801779985636     Delta-E=       -0.178837684879 Rises=F Damp=F
 DIIS: error= 1.86D-02 at cycle  16 NSaved=  16.
 NSaved=16 IEnMin=13 EnMin= -395.891347627341     IErMin=13 ErrMin= 4.98D-03
 ErrMax= 1.86D-02  0.00D+00 EMaxC= 1.00D-01 BMatC= 3.84D-01 BMatP= 3.04D-02
 IDIUse=2 WtCom= 0.00D+00 WtEn= 1.00D+00
 Coeff-En:   0.000D+00 0.000D+00 0.000D+00 0.000D+00 0.000D+00 0.000D+00
 Coeff-En:   0.000D+00 0.000D+00 0.000D+00 0.000D+00 0.000D+00 0.000D+00
 Coeff-En:   0.736D+00 0.000D+00 0.000D+00 0.264D+00
 Coeff:      0.000D+00 0.000D+00 0.000D+00 0.000D+00 0.000D+00 0.000D+00
 Coeff:      0.000D+00 0.000D+00 0.000D+00 0.000D+00 0.000D+00 0.000D+00
 Coeff:      0.736D+00 0.000D+00 0.000D+00 0.264D+00
 Gap=     0.058 Goal=   None    Shift=    0.000
 Gap=     0.002 Goal=   None    Shift=    0.000
 RMSDP=1.62D-03 MaxDP=1.43D-01 DE=-1.79D-01 OVMax= 3.47D-01

 Cycle  17  Pass 1  IDiag  1:
 E= -395.887566391974     Delta-E=       -0.085786406338 Rises=F Damp=F
 DIIS: error= 1.23D-02 at cycle  17 NSaved=  17.
 NSaved=17 IEnMin=13 EnMin= -395.891347627341     IErMin=13 ErrMin= 4.98D-03
 ErrMax= 1.23D-02  0.00D+00 EMaxC= 1.00D-01 BMatC= 1.31D-01 BMatP= 3.04D-02
 IDIUse=2 WtCom= 0.00D+00 WtEn= 1.00D+00
 EnCoef did     3 forward-backward iterations
 Coeff-En:   0.000D+00 0.000D+00 0.000D+00 0.000D+00 0.000D+00 0.000D+00
 Coeff-En:   0.000D+00 0.000D+00 0.000D+00 0.000D+00 0.000D+00 0.000D+00
 Coeff-En:   0.584D+00 0.000D+00 0.000D+00 0.170D+00 0.246D+00
 Coeff:      0.000D+00 0.000D+00 0.000D+00 0.000D+00 0.000D+00 0.000D+00
 Coeff:      0.000D+00 0.000D+00 0.000D+00 0.000D+00 0.000D+00 0.000D+00
 Coeff:      0.584D+00 0.000D+00 0.000D+00 0.170D+00 0.246D+00
 Gap=     0.085 Goal=   None    Shift=    0.000
 Gap=     0.011 Goal=   None    Shift=    0.000
 RMSDP=6.93D-04 MaxDP=4.40D-02 DE=-8.58D-02 OVMax= 1.24D-01

 Cycle  18  Pass 1  IDiag  1:
 E= -395.914742207858     Delta-E=       -0.027175815884 Rises=F Damp=F
 DIIS: error= 3.74D-03 at cycle  18 NSaved=  18.
 NSaved=18 IEnMin=18 EnMin= -395.914742207858     IErMin=18 ErrMin= 3.74D-03
 ErrMax= 3.74D-03  0.00D+00 EMaxC= 1.00D-01 BMatC= 2.12D-02 BMatP= 3.04D-02
 IDIUse=3 WtCom= 9.63D-01 WtEn= 3.74D-02
 EnCoef did   100 forward-backward iterations
 Coeff-Com: -0.176D-01 0.200D-01 0.131D-02-0.196D-03 0.215D-02 0.101D-01
 Coeff-Com: -0.441D-03 0.481D-05 0.402D-01-0.166D+00-0.515D+00 0.524D+00
 Coeff-Com:  0.724D+00 0.156D-01 0.156D-01-0.563D-01 0.941D-01 0.309D+00
 Coeff-En:   0.000D+00 0.000D+00 0.000D+00 0.000D+00 0.000D+00 0.000D+00
 Coeff-En:   0.000D+00 0.100D-01 0.000D+00 0.000D+00 0.000D+00 0.104D-02
 Coeff-En:   0.000D+00 0.000D+00 0.000D+00 0.000D+00 0.568D-01 0.932D+00
 Coeff:     -0.170D-01 0.192D-01 0.126D-02-0.188D-03 0.207D-02 0.972D-02
 Coeff:     -0.425D-03 0.380D-03 0.387D-01-0.160D+00-0.496D+00 0.504D+00
 Coeff:      0.697D+00 0.150D-01 0.150D-01-0.542D-01 0.927D-01 0.333D+00
 Gap=     0.051 Goal=   None    Shift=    0.000
 Gap=     0.014 Goal=   None    Shift=    0.000
 RMSDP=9.06D-04 MaxDP=1.02D-01 DE=-2.72D-02 OVMax= 2.30D-01

 Cycle  19  Pass 1  IDiag  1:
 E= -395.882904943467     Delta-E=        0.031837264390 Rises=F Damp=F
 DIIS: error= 8.35D-03 at cycle  19 NSaved=  19.
 NSaved=19 IEnMin=18 EnMin= -395.914742207858     IErMin=18 ErrMin= 3.74D-03
 ErrMax= 8.35D-03  0.00D+00 EMaxC= 1.00D-01 BMatC= 1.35D-01 BMatP= 2.12D-02
 IDIUse=3 WtCom= 9.63D-01 WtEn= 3.74D-02
 EnCoef did   100 forward-backward iterations
 Rare condition: small coef for last iteration: -0.395D-15
 Coeff-Com: -0.170D-01 0.192D-01 0.132D-02-0.168D-03 0.207D-02 0.993D-02
 Coeff-Com: -0.318D-03 0.240D-03 0.406D-01-0.167D+00-0.527D+00 0.531D+00
 Coeff-Com:  0.735D+00 0.154D-01 0.169D-01-0.612D-01 0.901D-01 0.297D+00
 Coeff-Com:  0.138D-01
 Coeff-En:   0.000D+00 0.000D+00 0.000D+00 0.000D+00 0.000D+00 0.000D+00
 Coeff-En:   0.000D+00 0.000D+00 0.000D+00 0.000D+00 0.000D+00 0.000D+00
 Coeff-En:   0.461D+00 0.000D+00 0.000D+00 0.000D+00 0.299D+00 0.000D+00
 Coeff-En:   0.239D+00
 Coeff:     -0.170D-01 0.192D-01 0.132D-02-0.168D-03 0.207D-02 0.993D-02
 Coeff:     -0.318D-03 0.240D-03 0.406D-01-0.167D+00-0.527D+00 0.531D+00
 Coeff:      0.735D+00 0.154D-01 0.169D-01-0.612D-01 0.901D-01 0.297D+00
 Coeff:      0.138D-01
 Gap=     0.045 Goal=   None    Shift=    0.000
 Gap=     0.016 Goal=   None    Shift=    0.000
 RMSDP=1.99D-04 MaxDP=2.06D-02 DE= 3.18D-02 OVMax= 5.03D-02

 Cycle  20  Pass 1  IDiag  1:
 E= -395.871076999553     Delta-E=        0.011827943915 Rises=F Damp=F
 DIIS: error= 9.58D-03 at cycle  20 NSaved=  20.
 NSaved=20 IEnMin=18 EnMin= -395.914742207858     IErMin=18 ErrMin= 3.74D-03
 ErrMax= 9.58D-03  0.00D+00 EMaxC= 1.00D-01 BMatC= 1.74D-01 BMatP= 2.12D-02
 IDIUse=3 WtCom= 9.63D-01 WtEn= 3.74D-02
 EnCoef did     2 forward-backward iterations
 Rare condition: small coef for last iteration:  0.000D+00
 Coeff-Com: -0.110D-01 0.112D-01 0.130D-02 0.290D-03 0.274D-02 0.908D-02
 Coeff-Com:  0.419D-02 0.481D-03 0.475D-01-0.146D+00-0.558D+00 0.500D+00
 Coeff-Com:  0.730D+00 0.178D-01-0.199D-01 0.842D-01 0.612D-01 0.162D+00
 Coeff-Com:  0.190D+01-0.179D+01
 Coeff-En:   0.000D+00 0.000D+00 0.000D+00 0.000D+00 0.000D+00 0.000D+00
 Coeff-En:   0.000D+00 0.000D+00 0.000D+00 0.000D+00 0.000D+00 0.000D+00
 Coeff-En:   0.483D+00 0.000D+00 0.000D+00 0.000D+00 0.342D+00 0.000D+00
 Coeff-En:   0.000D+00 0.175D+00
 Coeff:     -0.110D-01 0.112D-01 0.130D-02 0.290D-03 0.274D-02 0.908D-02
 Coeff:      0.419D-02 0.481D-03 0.475D-01-0.146D+00-0.558D+00 0.500D+00
 Coeff:      0.730D+00 0.178D-01-0.199D-01 0.842D-01 0.612D-01 0.162D+00
 Coeff:      0.190D+01-0.179D+01
 Gap=     0.047 Goal=   None    Shift=    0.000
 Gap=     0.019 Goal=   None    Shift=    0.000
 RMSDP=5.62D-05 MaxDP=3.49D-03 DE= 1.18D-02 OVMax= 1.36D-02

 Cycle  21  Pass 1  IDiag  1:
 E= -395.870854553837     Delta-E=        0.000222445716 Rises=F Damp=F
 DIIS: error= 9.69D-03 at cycle  21 NSaved=  20.
 NSaved=20 IEnMin=17 EnMin= -395.914742207858     IErMin=17 ErrMin= 3.74D-03
 ErrMax= 9.69D-03  0.00D+00 EMaxC= 1.00D-01 BMatC= 1.73D-01 BMatP= 2.12D-02
 IDIUse=3 WtCom= 9.63D-01 WtEn= 3.74D-02
 EnCoef did   100 forward-backward iterations
 Coeff-Com: -0.134D-01 0.126D-01 0.133D-02 0.301D-02 0.860D-02 0.404D-02
 Coeff-Com:  0.197D-02 0.474D-01-0.147D+00-0.534D+00 0.476D+00 0.717D+00
 Coeff-Com:  0.183D-01-0.175D-01 0.729D-01 0.691D-01 0.216D+00 0.164D+01
 Coeff-Com: -0.114D+01-0.442D+00
 Coeff-En:   0.000D+00 0.000D+00 0.000D+00 0.000D+00 0.000D+00 0.000D+00
 Coeff-En:   0.000D+00 0.000D+00 0.000D+00 0.000D+00 0.000D+00 0.487D+00
 Coeff-En:   0.000D+00 0.000D+00 0.289D-02 0.163D+00 0.000D+00 0.339D+00
 Coeff-En:   0.594D-02 0.195D-02
 Coeff:     -0.129D-01 0.122D-01 0.128D-02 0.290D-02 0.828D-02 0.389D-02
 Coeff:      0.190D-02 0.456D-01-0.141D+00-0.514D+00 0.458D+00 0.709D+00
 Coeff:      0.177D-01-0.168D-01 0.703D-01 0.726D-01 0.208D+00 0.159D+01
 Coeff:     -0.110D+01-0.425D+00
 Gap=     0.049 Goal=   None    Shift=    0.000
 Gap=     0.018 Goal=   None    Shift=    0.000
 RMSDP=9.90D-05 MaxDP=9.66D-03 DE= 2.22D-04 OVMax= 2.58D-02

 Cycle  22  Pass 1  IDiag  1:
 E= -395.876471436284     Delta-E=       -0.005616882448 Rises=F Damp=F
 DIIS: error= 9.10D-03 at cycle  22 NSaved=  20.
 NSaved=20 IEnMin=16 EnMin= -395.914742207858     IErMin=16 ErrMin= 3.74D-03
 ErrMax= 9.10D-03  0.00D+00 EMaxC= 1.00D-01 BMatC= 1.54D-01 BMatP= 2.12D-02
 IDIUse=3 WtCom= 9.63D-01 WtEn= 3.74D-02
 EnCoef did   100 forward-backward iterations
 Rare condition: small coef for last iteration:  0.613D-15
 Coeff-Com: -0.173D-01 0.159D-01 0.256D-02 0.800D-02 0.354D-02 0.142D-01
 Coeff-Com:  0.473D-01-0.759D-01-0.329D+00 0.240D+00 0.576D+00 0.182D-01
 Coeff-Com: -0.148D-01 0.560D-01 0.229D-01 0.376D+00 0.289D+01-0.340D+01
 Coeff-Com:  0.316D+01-0.259D+01
 Coeff-En:   0.000D+00 0.000D+00 0.000D+00 0.000D+00 0.000D+00 0.000D+00
 Coeff-En:   0.000D+00 0.000D+00 0.000D+00 0.000D+00 0.475D+00 0.000D+00
 Coeff-En:   0.000D+00 0.000D+00 0.325D+00 0.000D+00 0.000D+00 0.000D+00
 Coeff-En:   0.000D+00 0.200D+00
 Coeff:     -0.173D-01 0.159D-01 0.256D-02 0.800D-02 0.354D-02 0.142D-01
 Coeff:      0.473D-01-0.759D-01-0.329D+00 0.240D+00 0.576D+00 0.182D-01
 Coeff:     -0.148D-01 0.560D-01 0.229D-01 0.376D+00 0.289D+01-0.340D+01
 Coeff:      0.316D+01-0.259D+01
 Gap=     0.063 Goal=   None    Shift=    0.000
 Gap=     0.019 Goal=   None    Shift=    0.000
 RMSDP=2.11D-04 MaxDP=1.99D-02 DE=-5.62D-03 OVMax= 3.88D-02

 Cycle  23  Pass 1  IDiag  1:
 E= -395.889702263267     Delta-E=       -0.013230826983 Rises=F Damp=F
 DIIS: error= 7.59D-03 at cycle  23 NSaved=  20.
 NSaved=20 IEnMin=15 EnMin= -395.914742207858     IErMin=15 ErrMin= 3.74D-03
 ErrMax= 7.59D-03  0.00D+00 EMaxC= 1.00D-01 BMatC= 1.12D-01 BMatP= 2.12D-02
 IDIUse=3 WtCom= 9.63D-01 WtEn= 3.74D-02
 EnCoef did   100 forward-backward iterations
 Coeff-Com: -0.198D-01 0.165D-01 0.828D-02 0.354D-02 0.188D-01 0.667D-01
 Coeff-Com: -0.390D-01-0.389D+00 0.207D+00 0.678D+00 0.161D-01-0.749D-02
 Coeff-Com:  0.197D-01-0.494D-01 0.386D+00 0.482D+01-0.667D+01 0.597D+01
 Coeff-Com: -0.265D+01-0.138D+01
 Coeff-En:   0.000D+00 0.000D+00 0.000D+00 0.000D+00 0.000D+00 0.000D+00
 Coeff-En:   0.000D+00 0.000D+00 0.135D-02 0.453D+00 0.000D+00 0.000D+00
 Coeff-En:   0.000D+00 0.153D+00 0.000D+00 0.136D-01 0.000D+00 0.000D+00
 Coeff-En:   0.000D+00 0.379D+00
 Coeff:     -0.191D-01 0.159D-01 0.797D-02 0.341D-02 0.181D-01 0.642D-01
 Coeff:     -0.375D-01-0.375D+00 0.199D+00 0.670D+00 0.155D-01-0.721D-02
 Coeff:      0.190D-01-0.419D-01 0.372D+00 0.464D+01-0.642D+01 0.575D+01
 Coeff:     -0.255D+01-0.132D+01
 Gap=     0.054 Goal=   None    Shift=    0.000
 Gap=     0.017 Goal=   None    Shift=    0.000
 RMSDP=1.23D-04 MaxDP=6.21D-03 DE=-1.32D-02 OVMax= 2.64D-02

 Cycle  24  Pass 1  IDiag  1:
 E= -395.883862327253     Delta-E=        0.005839936014 Rises=F Damp=F
 DIIS: error= 8.30D-03 at cycle  24 NSaved=  20.
 NSaved=20 IEnMin=14 EnMin= -395.914742207858     IErMin=14 ErrMin= 3.74D-03
 ErrMax= 8.30D-03  0.00D+00 EMaxC= 1.00D-01 BMatC= 1.31D-01 BMatP= 2.12D-02
 IDIUse=3 WtCom= 9.63D-01 WtEn= 3.74D-02
 EnCoef did   100 forward-backward iterations
 Rare condition: small coef for last iteration: -0.346D-15
 Coeff-Com: -0.612D-02 0.132D-01 0.448D-02-0.213D-02 0.175D-01-0.129D+00
 Coeff-Com: -0.468D+00 0.419D+00 0.722D+00 0.159D-01-0.970D-02 0.339D-01
 Coeff-Com: -0.525D-01 0.324D+00 0.492D+01-0.688D+01 0.626D+01-0.311D+01
 Coeff-Com: -0.140D+01 0.314D+00
 Coeff-En:   0.000D+00 0.000D+00 0.000D+00 0.000D+00 0.000D+00 0.000D+00
 Coeff-En:   0.000D+00 0.000D+00 0.457D+00 0.000D+00 0.000D+00 0.000D+00
 Coeff-En:   0.296D+00 0.000D+00 0.000D+00 0.000D+00 0.000D+00 0.000D+00
 Coeff-En:   0.000D+00 0.248D+00
 Coeff:     -0.612D-02 0.132D-01 0.448D-02-0.213D-02 0.175D-01-0.129D+00
 Coeff:     -0.468D+00 0.419D+00 0.722D+00 0.159D-01-0.970D-02 0.339D-01
 Coeff:     -0.525D-01 0.324D+00 0.492D+01-0.688D+01 0.626D+01-0.311D+01
 Coeff:     -0.140D+01 0.314D+00
 Gap=     0.044 Goal=   None    Shift=    0.000
 Gap=     0.021 Goal=   None    Shift=    0.000
 RMSDP=5.04D-04 MaxDP=4.96D-02 DE= 5.84D-03 OVMax= 1.30D-01

 Cycle  25  Pass 1  IDiag  1:
 E= -395.857700955772     Delta-E=        0.026161371481 Rises=F Damp=F
 DIIS: error= 1.12D-02 at cycle  25 NSaved=  20.
 NSaved=20 IEnMin=13 EnMin= -395.914742207858     IErMin=13 ErrMin= 3.74D-03
 ErrMax= 1.12D-02  0.00D+00 EMaxC= 1.00D-01 BMatC= 2.11D-01 BMatP= 2.12D-02
 IDIUse=2 WtCom= 0.00D+00 WtEn= 1.00D+00
 EnCoef did   100 forward-backward iterations
 Rare condition: small coef for last iteration:  0.000D+00
 Coeff-En:   0.000D+00 0.000D+00 0.000D+00 0.000D+00 0.000D+00 0.000D+00
 Coeff-En:   0.000D+00 0.503D+00 0.000D+00 0.000D+00 0.000D+00 0.377D+00
 Coeff-En:   0.000D+00 0.000D+00 0.000D+00 0.000D+00 0.000D+00 0.000D+00
 Coeff-En:   0.000D+00 0.120D+00
 Coeff:      0.000D+00 0.000D+00 0.000D+00 0.000D+00 0.000D+00 0.000D+00
 Coeff:      0.000D+00 0.503D+00 0.000D+00 0.000D+00 0.000D+00 0.377D+00
 Coeff:      0.000D+00 0.000D+00 0.000D+00 0.000D+00 0.000D+00 0.000D+00
 Coeff:      0.000D+00 0.120D+00
 Gap=     0.077 Goal=   None    Shift=    0.000
 Gap=     0.018 Goal=   None    Shift=    0.000
 RMSDP=5.27D-04 MaxDP=2.94D-02 DE= 2.62D-02 OVMax= 6.93D-02

 Cycle  26  Pass 1  IDiag  1:
 E= -395.857404788176     Delta-E=        0.000296167596 Rises=F Damp=F
 DIIS: error= 1.37D-02 at cycle  26 NSaved=  20.
 NSaved=20 IEnMin=13 EnMin= -395.914742207858     IErMin=13 ErrMin= 3.74D-03
 ErrMax= 1.37D-02  0.00D+00 EMaxC= 1.00D-01 BMatC= 2.58D-01 BMatP= 2.12D-02
 IDIUse=2 WtCom= 0.00D+00 WtEn= 1.00D+00
 EnCoef did   100 forward-backward iterations
 Coeff-En:   0.000D+00 0.000D+00 0.000D+00 0.000D+00 0.000D+00 0.000D+00
 Coeff-En:   0.000D+00 0.454D+00 0.000D+00 0.000D+00 0.000D+00 0.157D+00
 Coeff-En:   0.000D+00 0.582D-02 0.000D+00 0.000D+00 0.000D+00 0.375D+00
 Coeff-En:   0.676D-03 0.684D-02
 Coeff:      0.000D+00 0.000D+00 0.000D+00 0.000D+00 0.000D+00 0.000D+00
 Coeff:      0.000D+00 0.454D+00 0.000D+00 0.000D+00 0.000D+00 0.157D+00
 Coeff:      0.000D+00 0.582D-02 0.000D+00 0.000D+00 0.000D+00 0.375D+00
 Coeff:      0.676D-03 0.684D-02
 Gap=     0.120 Goal=   None    Shift=    0.000
 Gap=    -0.001 Goal=   None    Shift=    0.000
 RMSDP=2.82D-03 MaxDP=3.47D-01 DE= 2.96D-04 OVMax= 7.17D-01

 Cycle  27  Pass 1  IDiag  1:
 E= -395.864972806148     Delta-E=       -0.007568017972 Rises=F Damp=F
 DIIS: error= 9.69D-03 at cycle  27 NSaved=  20.
 NSaved=20 IEnMin=13 EnMin= -395.914742207858     IErMin=13 ErrMin= 3.74D-03
 ErrMax= 9.69D-03  0.00D+00 EMaxC= 1.00D-01 BMatC= 1.77D-01 BMatP= 2.12D-02
 IDIUse=3 WtCom= 9.63D-01 WtEn= 3.74D-02
 EnCoef did   100 forward-backward iterations
 Coeff-Com: -0.285D-02 0.167D-01-0.603D-01 0.543D-01 0.599D-01-0.534D+00
 Coeff-Com:  0.271D+00 0.326D+00 0.152D-01 0.408D-03 0.220D-01-0.172D+00
 Coeff-Com: -0.166D+00 0.241D+01-0.187D+01-0.241D+01 0.255D+01 0.364D+00
 Coeff-Com: -0.304D+00 0.429D+00
 Coeff-En:   0.000D+00 0.000D+00 0.332D-03 0.000D+00 0.000D+00 0.000D+00
 Coeff-En:   0.000D+00 0.000D+00 0.000D+00 0.000D+00 0.000D+00 0.303D-01
 Coeff-En:   0.815D+00 0.000D+00 0.000D+00 0.000D+00 0.000D+00 0.716D-03
 Coeff-En:   0.858D-03 0.153D+00
 Coeff:     -0.274D-02 0.161D-01-0.581D-01 0.523D-01 0.577D-01-0.514D+00
 Coeff:      0.261D+00 0.314D+00 0.146D-01 0.393D-03 0.211D-01-0.165D+00
 Coeff:     -0.129D+00 0.232D+01-0.180D+01-0.232D+01 0.246D+01 0.350D+00
 Coeff:     -0.292D+00 0.418D+00
 Gap=     0.094 Goal=   None    Shift=    0.000
 Gap=    -0.000 Goal=   None    Shift=    0.000
 RMSDP=2.74D-03 MaxDP=3.37D-01 DE=-7.57D-03 OVMax= 7.10D-01

 Cycle  28  Pass 1  IDiag  1:
 E= -395.888408914604     Delta-E=       -0.023436108456 Rises=F Damp=F
 DIIS: error= 7.87D-03 at cycle  28 NSaved=  20.
 NSaved=20 IEnMin=12 EnMin= -395.914742207858     IErMin=12 ErrMin= 3.74D-03
 ErrMax= 7.87D-03  0.00D+00 EMaxC= 1.00D-01 BMatC= 1.14D-01 BMatP= 2.12D-02
 IDIUse=3 WtCom= 9.63D-01 WtEn= 3.74D-02
 EnCoef did   100 forward-backward iterations
 Rare condition: small coef for last iteration:  0.000D+00
 Coeff-Com:  0.694D-03 0.192D-01-0.715D-01 0.474D-01 0.765D-01-0.468D+00
 Coeff-Com:  0.253D+00 0.168D+00 0.111D-01 0.528D-01-0.215D+00-0.201D+00
 Coeff-Com:  0.159D+01-0.160D+00-0.497D+01 0.398D+01 0.182D+00-0.368D+00
 Coeff-Com:  0.504D+00 0.569D+00
 Coeff-En:   0.000D+00 0.000D+00 0.000D+00 0.000D+00 0.000D+00 0.000D+00
 Coeff-En:   0.000D+00 0.000D+00 0.000D+00 0.000D+00 0.000D+00 0.244D+00
 Coeff-En:   0.000D+00 0.000D+00 0.000D+00 0.000D+00 0.000D+00 0.000D+00
 Coeff-En:   0.320D+00 0.435D+00
 Coeff:      0.694D-03 0.192D-01-0.715D-01 0.474D-01 0.765D-01-0.468D+00
 Coeff:      0.253D+00 0.168D+00 0.111D-01 0.528D-01-0.215D+00-0.201D+00
 Coeff:      0.159D+01-0.160D+00-0.497D+01 0.398D+01 0.182D+00-0.368D+00
 Coeff:      0.504D+00 0.569D+00
 Gap=     0.086 Goal=   None    Shift=    0.000
 Gap=     0.029 Goal=   None    Shift=    0.000
 RMSDP=1.63D-04 MaxDP=7.94D-03 DE=-2.34D-02 OVMax= 2.98D-02

 Cycle  29  Pass 1  IDiag  1:
 E= -395.890886908825     Delta-E=       -0.002477994221 Rises=F Damp=F
 DIIS: error= 7.40D-03 at cycle  29 NSaved=  20.
 NSaved=20 IEnMin=11 EnMin= -395.914742207858     IErMin=11 ErrMin= 3.74D-03
 ErrMax= 7.40D-03  0.00D+00 EMaxC= 1.00D-01 BMatC= 1.06D-01 BMatP= 2.12D-02
 IDIUse=3 WtCom= 9.63D-01 WtEn= 3.74D-02
 EnCoef did   100 forward-backward iterations
 Coeff-Com:  0.191D-01-0.765D-01 0.500D-01 0.713D-01-0.518D+00 0.300D+00
 Coeff-Com:  0.181D+00 0.120D-01 0.516D-01-0.224D+00-0.254D+00 0.157D+01
 Coeff-Com: -0.128D+00-0.516D+01 0.411D+01 0.219D+00-0.352D+00 0.527D+00
 Coeff-Com:  0.983D+00-0.372D+00
 Coeff-En:   0.000D+00 0.000D+00 0.000D+00 0.000D+00 0.000D+00 0.000D+00
 Coeff-En:   0.000D+00 0.000D+00 0.000D+00 0.000D+00 0.375D+00 0.000D+00
 Coeff-En:   0.000D+00 0.000D+00 0.000D+00 0.000D+00 0.000D+00 0.299D+00
 Coeff-En:   0.000D+00 0.326D+00
 Coeff:      0.184D-01-0.737D-01 0.481D-01 0.687D-01-0.498D+00 0.289D+00
 Coeff:      0.174D+00 0.116D-01 0.497D-01-0.216D+00-0.230D+00 0.151D+01
 Coeff:     -0.124D+00-0.497D+01 0.395D+01 0.210D+00-0.339D+00 0.519D+00
 Coeff:      0.946D+00-0.346D+00
 Gap=     0.083 Goal=   None    Shift=    0.000
 Gap=     0.029 Goal=   None    Shift=    0.000
 RMSDP=3.17D-05 MaxDP=1.53D-03 DE=-2.48D-03 OVMax= 5.62D-03

 Cycle  30  Pass 1  IDiag  1:
 E= -395.889881409413     Delta-E=        0.001005499412 Rises=F Damp=F
 DIIS: error= 7.55D-03 at cycle  30 NSaved=  20.
 NSaved=20 IEnMin=10 EnMin= -395.914742207858     IErMin=10 ErrMin= 3.74D-03
 ErrMax= 7.55D-03  0.00D+00 EMaxC= 1.00D-01 BMatC= 1.10D-01 BMatP= 2.12D-02
 IDIUse=3 WtCom= 9.63D-01 WtEn= 3.74D-02
 EnCoef did   100 forward-backward iterations
 Rare condition: small coef for last iteration: -0.180D-14
 Coeff-Com: -0.491D-01 0.801D-01 0.197D+00-0.397D+00 0.110D-01 0.337D+00
 Coeff-Com:  0.704D-02 0.659D-01-0.227D+00 0.886D-01-0.501D-01 0.135D+01
 Coeff-Com: -0.521D+01 0.375D+01 0.390D+00-0.505D+00 0.337D+00 0.881D+00
 Coeff-Com: -0.214D+01 0.209D+01
 Coeff-En:   0.000D+00 0.000D+00 0.000D+00 0.000D+00 0.000D+00 0.000D+00
 Coeff-En:   0.000D+00 0.000D+00 0.000D+00 0.725D-01 0.000D+00 0.000D+00
 Coeff-En:   0.000D+00 0.000D+00 0.000D+00 0.000D+00 0.388D+00 0.000D+00
 Coeff-En:   0.000D+00 0.540D+00
 Coeff:     -0.491D-01 0.801D-01 0.197D+00-0.397D+00 0.110D-01 0.337D+00
 Coeff:      0.704D-02 0.659D-01-0.227D+00 0.886D-01-0.501D-01 0.135D+01
 Coeff:     -0.521D+01 0.375D+01 0.390D+00-0.505D+00 0.337D+00 0.881D+00
 Coeff:     -0.214D+01 0.209D+01
 Gap=     0.077 Goal=   None    Shift=    0.000
 Gap=     0.028 Goal=   None    Shift=    0.000
 RMSDP=1.58D-04 MaxDP=1.48D-02 DE= 1.01D-03 OVMax= 3.59D-02

 Cycle  31  Pass 1  IDiag  1:
 E= -395.881609029711     Delta-E=        0.008272379702 Rises=F Damp=F
 DIIS: error= 8.43D-03 at cycle  31 NSaved=  20.
 NSaved=20 IEnMin= 9 EnMin= -395.914742207858     IErMin= 9 ErrMin= 3.74D-03
 ErrMax= 8.43D-03  0.00D+00 EMaxC= 1.00D-01 BMatC= 1.36D-01 BMatP= 2.12D-02
 IDIUse=3 WtCom= 9.63D-01 WtEn= 3.74D-02
 EnCoef did   100 forward-backward iterations
 Rare condition: small coef for last iteration:  0.000D+00
 Coeff-Com: -0.508D-01 0.919D-01 0.203D+00-0.448D+00 0.993D-02 0.377D+00
 Coeff-Com:  0.992D-01-0.218D+00 0.565D-03 0.886D+00 0.119D+01-0.751D+01
 Coeff-Com:  0.592D+01-0.311D+00-0.498D+00 0.359D+00 0.403D+00-0.204D+01
 Coeff-Com:  0.160D+01 0.933D+00
 Coeff-En:   0.000D+00 0.000D+00 0.000D+00 0.000D+00 0.000D+00 0.000D+00
 Coeff-En:   0.000D+00 0.000D+00 0.258D+00 0.000D+00 0.000D+00 0.000D+00
 Coeff-En:   0.000D+00 0.000D+00 0.000D+00 0.334D+00 0.000D+00 0.000D+00
 Coeff-En:   0.000D+00 0.408D+00
 Coeff:     -0.508D-01 0.919D-01 0.203D+00-0.448D+00 0.993D-02 0.377D+00
 Coeff:      0.992D-01-0.218D+00 0.565D-03 0.886D+00 0.119D+01-0.751D+01
 Coeff:      0.592D+01-0.311D+00-0.498D+00 0.359D+00 0.403D+00-0.204D+01
 Coeff:      0.160D+01 0.933D+00
 Gap=     0.073 Goal=   None    Shift=    0.000
 Gap=     0.028 Goal=   None    Shift=    0.000
 RMSDP=5.75D-05 MaxDP=2.82D-03 DE= 8.27D-03 OVMax= 1.05D-02

 Cycle  32  Pass 1  IDiag  1:
 E= -395.878980047910     Delta-E=        0.002628981801 Rises=F Damp=F
 DIIS: error= 8.79D-03 at cycle  32 NSaved=  20.
 NSaved=20 IEnMin= 8 EnMin= -395.914742207858     IErMin= 8 ErrMin= 3.74D-03
 ErrMax= 8.79D-03  0.00D+00 EMaxC= 1.00D-01 BMatC= 1.44D-01 BMatP= 2.12D-02
 IDIUse=3 WtCom= 9.63D-01 WtEn= 3.74D-02
 EnCoef did   100 forward-backward iterations
 Rare condition: small coef for last iteration:  0.000D+00
 Coeff-Com:  0.118D+00 0.169D+00-0.454D+00-0.201D-01 0.504D+00 0.657D-01
 Coeff-Com: -0.157D+00 0.493D+00-0.104D+01 0.170D+01-0.308D+01 0.268D+01
 Coeff-Com: -0.235D+00-0.505D+00 0.132D+00 0.640D-01-0.326D+01 0.444D+01
 Coeff-Com:  0.287D+01-0.347D+01
 Coeff-En:   0.000D+00 0.000D+00 0.000D+00 0.000D+00 0.000D+00 0.000D+00
 Coeff-En:   0.000D+00 0.334D+00 0.000D+00 0.000D+00 0.000D+00 0.000D+00
 Coeff-En:   0.000D+00 0.000D+00 0.306D+00 0.000D+00 0.000D+00 0.000D+00
 Coeff-En:   0.000D+00 0.360D+00
 Coeff:      0.118D+00 0.169D+00-0.454D+00-0.201D-01 0.504D+00 0.657D-01
 Coeff:     -0.157D+00 0.493D+00-0.104D+01 0.170D+01-0.308D+01 0.268D+01
 Coeff:     -0.235D+00-0.505D+00 0.132D+00 0.640D-01-0.326D+01 0.444D+01
 Coeff:      0.287D+01-0.347D+01
 Gap=     0.078 Goal=   None    Shift=    0.000
 Gap=     0.027 Goal=   None    Shift=    0.000
 RMSDP=1.89D-04 MaxDP=1.31D-02 DE= 2.63D-03 OVMax= 4.23D-02

 >>>>>>>>>> Convergence criterion not met.
 SCF Done:  E(UB3LYP) =  -395.878980048     A.U. after   33 cycles
            NFock= 32  Conv=0.19D-03     -V/T= 2.1985
 <Sx>= 0.0000 <Sy>= 0.0000 <Sz>= 0.5000 <S**2>= 0.9528 S= 0.5967
 <L.S>= 0.000000000000E+00
 KE= 3.303107860085D+02 PE=-1.450292590003D+03 EE= 4.489507763563D+02
 Annihilation of the first spin contaminant:
 S**2 before annihilation     0.9528,   after     0.7512
 Leave Link  502 at Sat Sep  7 00:43:28 2019, MaxMem=  1835008000 cpu:             832.4 elap:             139.6
 (Enter /opt/g16/l508.exe)
 Keep R1 and R2 ints in memory in canonical form, NReq=499441715.
 FoFCou: FMM=F IPFlag=           0 FMFlag=           0 FMFlg1=           0
         NFxFlg=           0 DoJE=F BraDBF=F KetDBF=F FulRan=T
         wScrn=  0.000000 ICntrl=       600 IOpCl=  0 I1Cent=           0 NGrid=           0
         NMat0=    1 NMatS0=  22155 NMatT0=    0 NMatD0=    1 NMtDS0=    0 NMtDT0=    0
 Symmetry not used in FoFCou.
 Two-electron integral symmetry not used.
 Tight linear equation convergence will be used.
 UB3LYP wavefunction.
 Quadratic Convergence SCF Method.
 Line search only if initial step raises energy.
 Defaulting to unpruned grid for atomic number  40.
 Defaulting to unpruned grid for atomic number  40.
 Defaulting to unpruned grid for atomic number  40.
 Defaulting to unpruned grid for atomic number  40.
 Defaulting to unpruned grid for atomic number  40.
 Defaulting to unpruned grid for atomic number  40.
 Defaulting to unpruned grid for atomic number  40.
 Defaulting to unpruned grid for atomic number  40.
 Iteration   1 EE= -395.881298560319                                    Grad=2.615D-01 Max rot=    3.0339 deg.
 Gradient too large for Newton-Raphson -- use scaled steepest descent instead.
 Alpha Gap=     0.367 HL deriv= 1.91D-02
  Beta Gap=    -0.111 HL deriv= 5.30D-02
     ILin= 1 X=0.000D+00 Y=-3.958812985603D+02 DE= 0.00D+00 F= -2.11D-01
     ILin= 2 X=3.000D-01 Y=-3.959162410965D+02 DE=-3.49D-02 F= -2.29D-02 OKLS=F
     ILin= 3 X=4.000D-01 Y=-3.959154570792D+02 DE=-3.42D-02 F=  3.84D-02
     An  expanding polynomial of degree  3 produced  0.3374
 Iteration   2 EE= -395.916665630443     Delta-E=       -0.035367070124 Grad=8.410D-02 Max rot=    0.7234 deg.
 Gradient too large for Newton-Raphson -- use scaled steepest descent instead.
 Alpha Gap=     0.228 HL deriv= 1.00D-02
  Beta Gap=    -0.002 HL deriv= 1.12D-02
     ILin= 1 X=0.000D+00 Y=-3.959166656304D+02 DE= 0.00D+00 F= -1.93D-02
     ILin= 2 X=3.000D-01 Y=-3.959203157808D+02 DE=-3.65D-03 F= -5.16D-03 OKLS=F
     ILin= 3 X=5.000D-01 Y=-3.959204309168D+02 DE=-3.77D-03 F=  3.97D-03
     Accept linear search using points  2 and  3.
     An  expanding polynomial of degree  3 produced  0.3973
 Iteration   3 EE= -395.920599893268     Delta-E=       -0.003934262825 Grad=4.752D-02 Max rot=    0.5716 deg.
 Gradient too large for Newton-Raphson -- use scaled steepest descent instead.
 Alpha Gap=     0.226 HL deriv= 6.59D-03
  Beta Gap=     0.001 HL deriv= 9.98D-02
     ILin= 1 X=0.000D+00 Y=-3.959205998933D+02 DE= 0.00D+00 F= -8.20D-03
     ILin= 2 X=4.000D-01 Y=-3.959220526126D+02 DE=-1.45D-03 F=  9.73D-04 OKLS=T
     Accept linear search using points  1 and  2.
     An  expanding polynomial of degree  2 produced  0.2229
 Iteration   4 EE= -395.921862149326     Delta-E=       -0.001262256058 Grad=2.812D-02 Max rot=    0.3287 deg.
 Gradient too large for Newton-Raphson -- use scaled steepest descent instead.
 Alpha Gap=     0.212 HL deriv= 4.93D-03
  Beta Gap=     0.012 HL deriv= 5.74D-02
     ILin= 1 X=0.000D+00 Y=-3.959218621493D+02 DE= 0.00D+00 F= -2.44D-03
     ILin= 2 X=4.000D-01 Y=-3.959226583454D+02 DE=-7.96D-04 F= -1.54D-03 OKLS=F
     ILin= 3 X=7.000D-01 Y=-3.959230147961D+02 DE=-1.15D-03 F= -8.38D-04
     ILin= 4 X=1.200D+00 Y=-3.959231365517D+02 DE=-1.27D-03 F=  3.58D-04
     Accept linear search using points  3 and  4.
     An  expanding polynomial of degree  4 produced  0.9779
 Iteration   5 EE= -395.923156324441     Delta-E=       -0.001294175115 Grad=1.376D-02 Max rot=    0.1006 deg.
 Gradient too large for Newton-Raphson -- use scaled steepest descent instead.
 Alpha Gap=     0.194 HL deriv= 3.00D-04
  Beta Gap=     0.024 HL deriv= 2.91D-03
     ILin= 1 X=0.000D+00 Y=-3.959231563244D+02 DE= 0.00D+00 F= -6.52D-04
     ILin= 2 X=5.000D-01 Y=-3.959233201178D+02 DE=-1.64D-04 F= -2.81D-06 OKLS=T
     Reject lnstep IMin12=  1  2 Big=T Turn=F Min= 5.764D-01 FVal=-3.959233204332D+02 Lims=  0.00D+00  5.00D-01
     ILin= 3 X=9.000D-01 Y=-3.959232173391D+02 DE=-6.10D-05 F=  5.17D-04
     An  expanding polynomial of degree  3 produced  0.5022
     Minimum is close to point  2 DX=  2.19D-03 DF= -3.12D-09 DXR=  4.36D-03 DFR=  1.90D-05 which will be used.
 Iteration   6 EE= -395.923320117777     Delta-E=       -0.000163793336 Grad=8.963D-03 Max rot=    0.1726 deg.
 QCNR:  CnvC1=1.02D-08 CnvC2=1.02D-07
 LinEq1:  Iter=  0 NonCon=     1 RMS=1.62D-03 Max=1.64D-01 NDo=     1
 AX will form     1 AO Fock derivatives at one time.
 LinEq1:  Iter=  1 NonCon=     1 RMS=1.51D-03 Max=7.65D-02 NDo=     1
 LinEq1:  Iter=  2 NonCon=     1 RMS=6.94D-04 Max=2.60D-02 NDo=     1
 LinEq1:  Iter=  3 NonCon=     1 RMS=1.07D-03 Max=5.31D-02 NDo=     1
 LinEq1:  Iter=  4 NonCon=     1 RMS=7.32D-04 Max=1.69D-02 NDo=     1
 LinEq1:  Iter=  5 NonCon=     1 RMS=1.07D-03 Max=3.92D-02 NDo=     1
 LinEq1:  Iter=  6 NonCon=     1 RMS=1.20D-03 Max=3.06D-02 NDo=     1
 LinEq1:  Iter=  7 NonCon=     1 RMS=8.24D-04 Max=3.77D-02 NDo=     1
 LinEq1:  Iter=  8 NonCon=     1 RMS=6.70D-04 Max=2.95D-02 NDo=     1
 LinEq1:  Iter=  9 NonCon=     1 RMS=5.35D-04 Max=1.39D-02 NDo=     1
 LinEq1:  Iter= 10 NonCon=     1 RMS=4.91D-04 Max=2.25D-02 NDo=     1
 LinEq1:  Iter= 11 NonCon=     1 RMS=3.46D-04 Max=1.31D-02 NDo=     1
 LinEq1:  Iter= 12 NonCon=     1 RMS=1.72D-04 Max=5.12D-03 NDo=     1
 LinEq1:  Iter= 13 NonCon=     1 RMS=7.59D-05 Max=2.12D-03 NDo=     1
 LinEq1:  Iter= 14 NonCon=     1 RMS=4.15D-05 Max=1.59D-03 NDo=     1
 LinEq1:  Iter= 15 NonCon=     1 RMS=3.08D-05 Max=1.21D-03 NDo=     1
 LinEq1:  Iter= 16 NonCon=     1 RMS=1.18D-05 Max=4.06D-04 NDo=     1
 LinEq1:  Iter= 17 NonCon=     1 RMS=5.97D-06 Max=1.90D-04 NDo=     1
 LinEq1:  Iter= 18 NonCon=     1 RMS=3.27D-06 Max=1.03D-04 NDo=     1
 LinEq1:  Iter= 19 NonCon=     1 RMS=1.10D-06 Max=3.30D-05 NDo=     1
 LinEq1:  Iter= 20 NonCon=     1 RMS=4.85D-07 Max=1.60D-05 NDo=     1
 LinEq1:  Iter= 21 NonCon=     1 RMS=2.29D-07 Max=9.24D-06 NDo=     1
 LinEq1:  Iter= 22 NonCon=     1 RMS=1.16D-07 Max=2.97D-06 NDo=     1
 LinEq1:  Iter= 23 NonCon=     1 RMS=5.03D-08 Max=1.36D-06 NDo=     1
 LinEq1:  Iter= 24 NonCon=     1 RMS=1.42D-08 Max=3.23D-07 NDo=     1
 LinEq1:  Iter= 25 NonCon=     1 RMS=4.75D-09 Max=1.32D-07 NDo=     1
 LinEq1:  Iter= 26 NonCon=     0 RMS=1.77D-09 Max=4.03D-08 NDo=     1
 Linear equations converged to 1.017D-08 1.017D-07 after    26 iterations.
 Angle between quadratic step and gradient=  71.58 degrees.
     ILin= 1 X=0.000D+00 Y=-3.959233201178D+02 DE= 0.00D+00 F= -6.13D-04
     ILin= 2 X=1.000D+00 Y=-3.959235744132D+02 DE=-2.54D-04 F=  1.57D-04 OKLS=T
     Accept linear search using points  1 and  2.
     An  expanding polynomial of degree  2 produced  0.8263
 Iteration   7 EE= -395.923587943808     Delta-E=       -0.000267826032 Grad=1.460D-03 Max rot=    0.0210 deg.
 QCNR:  CnvC1=1.02D-08 CnvC2=1.02D-07
 LinEq1:  Iter=  0 NonCon=     1 RMS=1.59D-04 Max=1.56D-02 NDo=     1
 LinEq1:  Iter=  1 NonCon=     1 RMS=1.82D-04 Max=7.12D-03 NDo=     1
 LinEq1:  Iter=  2 NonCon=     1 RMS=2.15D-04 Max=5.90D-03 NDo=     1
 LinEq1:  Iter=  3 NonCon=     1 RMS=2.72D-04 Max=8.90D-03 NDo=     1
 LinEq1:  Iter=  4 NonCon=     1 RMS=3.07D-04 Max=1.30D-02 NDo=     1
 LinEq1:  Iter=  5 NonCon=     1 RMS=3.28D-04 Max=9.73D-03 NDo=     1
 LinEq1:  Iter=  6 NonCon=     1 RMS=4.30D-04 Max=1.48D-02 NDo=     1
 LinEq1:  Iter=  7 NonCon=     1 RMS=4.31D-04 Max=1.48D-02 NDo=     1
 LinEq1:  Iter=  8 NonCon=     1 RMS=3.12D-04 Max=9.10D-03 NDo=     1
 LinEq1:  Iter=  9 NonCon=     1 RMS=2.54D-04 Max=5.87D-03 NDo=     1
 LinEq1:  Iter= 10 NonCon=     1 RMS=2.24D-04 Max=4.65D-03 NDo=     1
 LinEq1:  Iter= 11 NonCon=     1 RMS=9.13D-05 Max=2.70D-03 NDo=     1
 LinEq1:  Iter= 12 NonCon=     1 RMS=5.54D-05 Max=1.32D-03 NDo=     1
 LinEq1:  Iter= 13 NonCon=     1 RMS=1.74D-05 Max=4.02D-04 NDo=     1
 LinEq1:  Iter= 14 NonCon=     1 RMS=7.90D-06 Max=3.94D-04 NDo=     1
 LinEq1:  Iter= 15 NonCon=     1 RMS=4.42D-06 Max=1.59D-04 NDo=     1
 LinEq1:  Iter= 16 NonCon=     1 RMS=3.39D-06 Max=1.27D-04 NDo=     1
 LinEq1:  Iter= 17 NonCon=     1 RMS=1.20D-06 Max=2.98D-05 NDo=     1
 LinEq1:  Iter= 18 NonCon=     1 RMS=7.37D-07 Max=2.50D-05 NDo=     1
 LinEq1:  Iter= 19 NonCon=     1 RMS=2.56D-07 Max=5.37D-06 NDo=     1
 LinEq1:  Iter= 20 NonCon=     1 RMS=8.71D-08 Max=3.12D-06 NDo=     1
 LinEq1:  Iter= 21 NonCon=     1 RMS=4.21D-08 Max=2.31D-06 NDo=     1
 LinEq1:  Iter= 22 NonCon=     1 RMS=2.01D-08 Max=8.03D-07 NDo=     1
 LinEq1:  Iter= 23 NonCon=     1 RMS=7.45D-09 Max=1.35D-07 NDo=     1
 LinEq1:  Iter= 24 NonCon=     0 RMS=2.70D-09 Max=5.63D-08 NDo=     1
 Linear equations converged to 1.017D-08 1.017D-07 after    24 iterations.
 Angle between quadratic step and gradient=  76.90 degrees.
     ILin= 1 X=0.000D+00 Y=-3.959235879438D+02 DE= 0.00D+00 F= -6.91D-06
     ILin= 2 X=1.000D+00 Y=-3.959235913884D+02 DE=-3.44D-06 F=  2.61D-08 OKLS=T
     Accept linear search using points  1 and  2.
     An  expanding polynomial of degree  2 produced  0.9963
     Minimum is close to point  2 DX= -3.74D-03 DF= -4.88D-11 DXR=  3.76D-03 DFR=  1.42D-05 which will be used.
 Iteration   8 EE= -395.923591388371     Delta-E=       -0.000003444563 Grad=9.370D-06 Max rot=    0.0001 deg.
 QCNR:  CnvC1=9.37D-11 CnvC2=9.37D-10
 LinEq1:  Iter=  0 NonCon=     1 RMS=3.45D-07 Max=2.07D-05 NDo=     1
 LinEq1:  Iter=  1 NonCon=     1 RMS=6.18D-07 Max=5.21D-05 NDo=     1
 LinEq1:  Iter=  2 NonCon=     1 RMS=1.43D-06 Max=6.66D-05 NDo=     1
 LinEq1:  Iter=  3 NonCon=     1 RMS=2.05D-06 Max=9.08D-05 NDo=     1
 LinEq1:  Iter=  4 NonCon=     1 RMS=2.75D-06 Max=1.16D-04 NDo=     1
 LinEq1:  Iter=  5 NonCon=     1 RMS=2.12D-06 Max=7.67D-05 NDo=     1
 LinEq1:  Iter=  6 NonCon=     1 RMS=3.34D-06 Max=1.31D-04 NDo=     1
 LinEq1:  Iter=  7 NonCon=     1 RMS=3.75D-06 Max=1.04D-04 NDo=     1
 LinEq1:  Iter=  8 NonCon=     1 RMS=2.96D-06 Max=1.20D-04 NDo=     1
 LinEq1:  Iter=  9 NonCon=     1 RMS=2.06D-06 Max=5.80D-05 NDo=     1
 LinEq1:  Iter= 10 NonCon=     1 RMS=1.90D-06 Max=5.80D-05 NDo=     1
 LinEq1:  Iter= 11 NonCon=     1 RMS=7.92D-07 Max=1.77D-05 NDo=     1
 LinEq1:  Iter= 12 NonCon=     1 RMS=5.10D-07 Max=1.77D-05 NDo=     1
 LinEq1:  Iter= 13 NonCon=     1 RMS=1.81D-07 Max=5.53D-06 NDo=     1
 LinEq1:  Iter= 14 NonCon=     1 RMS=1.19D-07 Max=3.79D-06 NDo=     1
 LinEq1:  Iter= 15 NonCon=     1 RMS=7.56D-08 Max=2.72D-06 NDo=     1
 LinEq1:  Iter= 16 NonCon=     1 RMS=3.45D-08 Max=1.36D-06 NDo=     1
 LinEq1:  Iter= 17 NonCon=     1 RMS=1.90D-08 Max=7.09D-07 NDo=     1
 LinEq1:  Iter= 18 NonCon=     1 RMS=7.67D-09 Max=2.68D-07 NDo=     1
 LinEq1:  Iter= 19 NonCon=     1 RMS=3.26D-09 Max=1.07D-07 NDo=     1
 LinEq1:  Iter= 20 NonCon=     1 RMS=1.16D-09 Max=5.03D-08 NDo=     1
 LinEq1:  Iter= 21 NonCon=     1 RMS=5.60D-10 Max=2.49D-08 NDo=     1
 LinEq1:  Iter= 22 NonCon=     1 RMS=2.26D-10 Max=8.57D-09 NDo=     1
 LinEq1:  Iter= 23 NonCon=     1 RMS=9.26D-11 Max=4.32D-09 NDo=     1
 LinEq1:  Iter= 24 NonCon=     1 RMS=3.37D-11 Max=1.04D-09 NDo=     1
 LinEq1:  Iter= 25 NonCon=     0 RMS=9.05D-12 Max=2.24D-10 NDo=     1
 Linear equations converged to 9.370D-11 9.370D-10 after    25 iterations.
 Angle between quadratic step and gradient=  86.14 degrees.
     ILin= 1 X=0.000D+00 Y=-3.959235913884D+02 DE= 0.00D+00 F= -2.65D-10
     ILin= 2 X=1.000D+00 Y=-3.959235913885D+02 DE=-1.30D-10
 Iteration   9 EE= -395.923591388502     Delta-E=       -0.000000000130 Grad=4.719D-09 Max rot=    0.0000 deg.
 Rotation gradient small -- convergence achieved.
 SCF Done:  E(UB3LYP) =  -395.923591389     a.u. after    9 cycles
            Convg  =    0.4719D-08                    94 Fock formations.
              S**2 =  0.9613                  -V/T =  2.1957
 <Sx>= 0.0000 <Sy>= 0.0000 <Sz>= 0.5000 <S**2>= 0.9613 S= 0.6006
 <L.S>= 0.000000000000E+00
 Annihilation of the first spin contaminant:
 S**2 before annihilation     0.9613,   after     0.7534
 Leave Link  508 at Sat Sep  7 00:50:21 2019, MaxMem=  1835008000 cpu:            2636.5 elap:             412.8
 (Enter /opt/g16/l601.exe)
 Copying SCF densities to generalized density rwf, IOpCl= 1 IROHF=0.

 **********************************************************************

            Population analysis using the SCF Density.

 **********************************************************************

 Orbital symmetries:
 Alpha Orbitals:
       Occupied  (A) (A) (A) (A) (A) (A) (A) (A) (A) (A) (A) (A)
                 (A) (A) (A) (A) (A) (A) (A) (A) (A) (A) (A) (A)
                 (A) (A) (A) (A) (A)
       Virtual   (A) (A) (A) (A) (A) (A) (A) (A) (A) (A) (A) (A)
                 (A) (A) (A) (A) (A) (A) (A) (A) (A) (A) (A) (A)
                 (A) (A) (A) (A) (A) (A) (A) (A) (A) (A) (A) (A)
                 (A) (A) (A) (A) (A) (A) (A) (A) (A) (A) (A) (A)
                 (A) (A) (A) (A) (A) (A) (A) (A) (A) (A) (A) (A)
                 (A) (A) (A) (A) (A) (A) (A) (A) (A) (A) (A) (A)
                 (A) (A) (A) (A) (A) (A) (A) (A) (A) (A) (A) (A)
                 (A) (A) (A) (A) (A) (A) (A) (A) (A) (A) (A) (A)
                 (A) (A) (A) (A) (A) (A) (A) (A) (A) (A) (A) (A)
                 (A) (A) (A) (A) (A) (A) (A) (A) (A) (A) (A) (A)
                 (A) (A) (A) (A) (A) (A) (A) (A) (A) (A) (A) (A)
                 (A) (A) (A) (A) (A) (A) (A) (A) (A) (A) (A) (A)
                 (A) (A) (A) (A) (A) (A) (A) (A) (A) (A) (A) (A)
                 (A) (A) (A) (A) (A) (A) (A) (A) (A) (A) (A) (A)
                 (A) (A) (A) (A) (A) (A) (A) (A) (A) (A) (A) (A)
                 (A)
 Beta  Orbitals:
       Occupied  (A) (A) (A) (A) (A) (A) (A) (A) (A) (A) (A) (A)
                 (A) (A) (A) (A) (A) (A) (A) (A) (A) (A) (A) (A)
                 (A) (A) (A) (A)
       Virtual   (A) (A) (A) (A) (A) (A) (A) (A) (A) (A) (A) (A)
                 (A) (A) (A) (A) (A) (A) (A) (A) (A) (A) (A) (A)
                 (A) (A) (A) (A) (A) (A) (A) (A) (A) (A) (A) (A)
                 (A) (A) (A) (A) (A) (A) (A) (A) (A) (A) (A) (A)
                 (A) (A) (A) (A) (A) (A) (A) (A) (A) (A) (A) (A)
                 (A) (A) (A) (A) (A) (A) (A) (A) (A) (A) (A) (A)
                 (A) (A) (A) (A) (A) (A) (A) (A) (A) (A) (A) (A)
                 (A) (A) (A) (A) (A) (A) (A) (A) (A) (A) (A) (A)
                 (A) (A) (A) (A) (A) (A) (A) (A) (A) (A) (A) (A)
                 (A) (A) (A) (A) (A) (A) (A) (A) (A) (A) (A) (A)
                 (A) (A) (A) (A) (A) (A) (A) (A) (A) (A) (A) (A)
                 (A) (A) (A) (A) (A) (A) (A) (A) (A) (A) (A) (A)
                 (A) (A) (A) (A) (A) (A) (A) (A) (A) (A) (A) (A)
                 (A) (A) (A) (A) (A) (A) (A) (A) (A) (A) (A) (A)
                 (A) (A) (A) (A) (A) (A) (A) (A) (A) (A) (A) (A)
                 (A) (A)
 The electronic state is 2-A.
 Alpha  occ. eigenvalues --  -19.16243 -19.11696 -19.11664 -19.07999  -2.15648
 Alpha  occ. eigenvalues --   -2.14495  -1.32613  -1.30405  -1.29765  -1.28398
 Alpha  occ. eigenvalues --   -1.28136  -1.27822  -1.00554  -0.89203  -0.88763
 Alpha  occ. eigenvalues --   -0.83056  -0.53743  -0.39885  -0.39279  -0.38438
 Alpha  occ. eigenvalues --   -0.36450  -0.35223  -0.35038  -0.34700  -0.30674
 Alpha  occ. eigenvalues --   -0.30110  -0.29363  -0.28719  -0.16075
 Alpha virt. eigenvalues --   -0.09895  -0.06707  -0.06220  -0.05978  -0.05133
 Alpha virt. eigenvalues --   -0.03697  -0.03079  -0.02227  -0.00274   0.02085
 Alpha virt. eigenvalues --    0.02695   0.04156   0.05026   0.05365   0.05830
 Alpha virt. eigenvalues --    0.06282   0.06956   0.09939   0.11653   0.13983
 Alpha virt. eigenvalues --    0.14812   0.15574   0.16475   0.17280   0.17744
 Alpha virt. eigenvalues --    0.18171   0.19098   0.19640   0.20540   0.22487
 Alpha virt. eigenvalues --    0.23707   0.24992   0.26283   0.26459   0.29913
 Alpha virt. eigenvalues --    0.43038   0.43971   0.47886   0.49607   0.52334
 Alpha virt. eigenvalues --    0.54253   0.55622   0.58298   0.61323   0.63570
 Alpha virt. eigenvalues --    0.66040   0.66875   0.67848   0.69452   0.72851
 Alpha virt. eigenvalues --    0.74934   0.76679   0.77972   0.79136   0.80948
 Alpha virt. eigenvalues --    0.81189   0.81707   0.81835   0.82941   0.83172
 Alpha virt. eigenvalues --    0.83666   0.84423   0.86533   0.86899   0.88112
 Alpha virt. eigenvalues --    0.90669   0.90890   0.91918   0.93332   0.94256
 Alpha virt. eigenvalues --    0.95283   0.98834   1.01869   1.04420   1.06857
 Alpha virt. eigenvalues --    1.12208   1.13101   1.16913   1.17690   1.23005
 Alpha virt. eigenvalues --    1.30309   1.31299   1.44033   1.46026   1.46901
 Alpha virt. eigenvalues --    1.52321   1.56319   1.57520   1.59590   1.65758
 Alpha virt. eigenvalues --    1.67232   1.73974   1.75300   1.77729   1.81690
 Alpha virt. eigenvalues --    1.87536   1.91548   1.95860   1.97629   2.01837
 Alpha virt. eigenvalues --    2.06522   2.08397   2.13523   2.22886   2.26676
 Alpha virt. eigenvalues --    2.28434   2.31002   2.40773   2.59497   2.69298
 Alpha virt. eigenvalues --    2.72423   2.75477   2.77218   2.77796   2.79687
 Alpha virt. eigenvalues --    2.90236   2.97444   3.06787   3.06912   3.12339
 Alpha virt. eigenvalues --    3.15169   3.27927   3.32446   3.53237   3.74741
 Alpha virt. eigenvalues --    5.07356   5.08994   5.09173   5.10767   5.11348
 Alpha virt. eigenvalues --    5.11481   5.13028   5.13598   5.14263   5.14691
 Alpha virt. eigenvalues --    5.15265   5.15889   5.16494   5.16771   5.16859
 Alpha virt. eigenvalues --    5.18077   5.18546   5.20140   5.20614   5.20882
 Alpha virt. eigenvalues --    5.21437   5.24417   5.28024   5.29618   5.30769
 Alpha virt. eigenvalues --    5.40097   5.44830   6.16978   6.22764   6.27294
 Alpha virt. eigenvalues --    6.27700   6.28806   6.32296   6.35154   6.36544
 Alpha virt. eigenvalues --    6.40859   6.44240   6.50304   6.50545   6.53486
 Alpha virt. eigenvalues --    6.54371   6.56818   6.61288   6.62867   6.75246
 Alpha virt. eigenvalues --    6.76355   6.77869   6.98992  20.15000  20.24260
 Alpha virt. eigenvalues --   43.42859  43.45139  43.48467  43.50212  71.42026
 Alpha virt. eigenvalues --   71.45238
  Beta  occ. eigenvalues --  -19.16207 -19.11699 -19.11657 -19.07965  -2.14772
  Beta  occ. eigenvalues --   -2.14237  -1.31813  -1.29714  -1.29200  -1.28063
  Beta  occ. eigenvalues --   -1.27985  -1.26619  -1.00457  -0.89121  -0.88675
  Beta  occ. eigenvalues --   -0.82965  -0.53539  -0.39786  -0.39203  -0.38222
  Beta  occ. eigenvalues --   -0.36385  -0.35086  -0.34872  -0.34575  -0.30686
  Beta  occ. eigenvalues --   -0.30046  -0.29314  -0.28511
  Beta virt. eigenvalues --   -0.09287  -0.07050  -0.06298  -0.06076  -0.05276
  Beta virt. eigenvalues --   -0.04351  -0.02977  -0.02513  -0.01562   0.00022
  Beta virt. eigenvalues --    0.02117   0.02812   0.04438   0.05457   0.05898
  Beta virt. eigenvalues --    0.06169   0.06738   0.07089   0.10025   0.11862
  Beta virt. eigenvalues --    0.14186   0.15438   0.16115   0.16956   0.17417
  Beta virt. eigenvalues --    0.17789   0.18856   0.19732   0.20219   0.20958
  Beta virt. eigenvalues --    0.23117   0.23899   0.25870   0.26604   0.26704
  Beta virt. eigenvalues --    0.30056   0.43390   0.44220   0.47932   0.49736
  Beta virt. eigenvalues --    0.52402   0.54349   0.55721   0.58370   0.61441
  Beta virt. eigenvalues --    0.63730   0.66097   0.67020   0.68019   0.69628
  Beta virt. eigenvalues --    0.73719   0.75754   0.76997   0.78208   0.79385
  Beta virt. eigenvalues --    0.81333   0.81627   0.82008   0.82947   0.83182
  Beta virt. eigenvalues --    0.83583   0.84126   0.85920   0.87058   0.87146
  Beta virt. eigenvalues --    0.88814   0.91015   0.91644   0.92100   0.93568
  Beta virt. eigenvalues --    0.94463   0.95476   0.99235   1.02056   1.04781
  Beta virt. eigenvalues --    1.07242   1.12475   1.13215   1.17381   1.17909
  Beta virt. eigenvalues --    1.23165   1.30736   1.31640   1.44335   1.46433
  Beta virt. eigenvalues --    1.47087   1.52400   1.56353   1.57564   1.59691
  Beta virt. eigenvalues --    1.65856   1.67765   1.74078   1.75370   1.77939
  Beta virt. eigenvalues --    1.81830   1.87763   1.91794   1.95941   1.97703
  Beta virt. eigenvalues --    2.01935   2.06664   2.08489   2.13679   2.23033
  Beta virt. eigenvalues --    2.26772   2.28554   2.31319   2.41004   2.59529
  Beta virt. eigenvalues --    2.69316   2.72500   2.75547   2.77248   2.77851
  Beta virt. eigenvalues --    2.79732   2.90301   2.97523   3.06875   3.06973
  Beta virt. eigenvalues --    3.12432   3.15247   3.28110   3.32644   3.53371
  Beta virt. eigenvalues --    3.74848   5.07381   5.09043   5.09227   5.10800
  Beta virt. eigenvalues --    5.11365   5.11485   5.13016   5.13584   5.14278
  Beta virt. eigenvalues --    5.14714   5.15288   5.15885   5.16506   5.16775
  Beta virt. eigenvalues --    5.16861   5.18111   5.18574   5.20181   5.20640
  Beta virt. eigenvalues --    5.20925   5.21463   5.24481   5.28077   5.29681
  Beta virt. eigenvalues --    5.30841   5.40131   5.44874   6.17040   6.22826
  Beta virt. eigenvalues --    6.27316   6.27723   6.28864   6.32298   6.35111
  Beta virt. eigenvalues --    6.36520   6.40900   6.44255   6.50369   6.50593
  Beta virt. eigenvalues --    6.53597   6.54414   6.56874   6.61370   6.62933
  Beta virt. eigenvalues --    6.75292   6.76474   6.77949   6.99083  20.15046
  Beta virt. eigenvalues --   20.24280  43.42865  43.45172  43.48483  43.50239
  Beta virt. eigenvalues --   71.39507  71.44196
          Condensed to atoms (all electrons):
               1          2          3          4          5          6
     1  Zr  10.476425  -0.120844   0.236846   0.060088   0.213925  -0.008470
     2  Zr  -0.120844   9.780384   0.167600   0.105399   0.194912   0.417510
     3  O    0.236846   0.167600   8.337072  -0.008682  -0.004819  -0.000115
     4  O    0.060088   0.105399  -0.008682   8.411330  -0.015521   0.000859
     5  O    0.213925   0.194912  -0.004819  -0.015521   8.337202   0.003433
     6  O   -0.008470   0.417510  -0.000115   0.000859   0.003433   8.220394
     7  H    0.005232  -0.010764  -0.000081   0.288603  -0.001061   0.000097
               7
     1  Zr   0.005232
     2  Zr  -0.010764
     3  O   -0.000081
     4  O    0.288603
     5  O   -0.001061
     6  O    0.000097
     7  H    0.388899
          Atomic-Atomic Spin Densities.
               1          2          3          4          5          6
     1  Zr   1.113750  -0.064670  -0.019059  -0.043161  -0.019124  -0.004032
     2  Zr  -0.064670   0.048242   0.008080   0.014768   0.007001   0.002508
     3  O   -0.019059   0.008080   0.001347   0.002687   0.002518   0.000284
     4  O   -0.043161   0.014768   0.002687   0.032481   0.003140   0.000154
     5  O   -0.019124   0.007001   0.002518   0.003140   0.005054   0.000320
     6  O   -0.004032   0.002508   0.000284   0.000154   0.000320   0.013561
     7  H    0.012169  -0.007953  -0.000674  -0.012352  -0.000780  -0.000126
               7
     1  Zr   0.012169
     2  Zr  -0.007953
     3  O   -0.000674
     4  O   -0.012352
     5  O   -0.000780
     6  O   -0.000126
     7  H    0.022169
 Mulliken charges and spin densities:
               1          2
     1  Zr   1.136797   0.975874
     2  Zr   1.465804   0.007976
     3  O   -0.727821  -0.004818
     4  O   -0.842077  -0.002283
     5  O   -0.728071  -0.001872
     6  O   -0.633708   0.012669
     7  H    0.329075   0.012454
 Sum of Mulliken charges =  -0.00000   1.00000
 Mulliken charges and spin densities with hydrogens summed into heavy atoms:
               1          2
     1  Zr   1.136797   0.975874
     2  Zr   1.465804   0.007976
     3  O   -0.727821  -0.004818
     4  O   -0.513002   0.010171
     5  O   -0.728071  -0.001872
     6  O   -0.633708   0.012669
 Electronic spatial extent (au):  <R**2>=            812.6454
 Charge=             -0.0000 electrons
 Dipole moment (field-independent basis, Debye):
    X=              3.7071    Y=             -4.6192    Z=              0.2332  Tot=              5.9274
 Quadrupole moment (field-independent basis, Debye-Ang):
   XX=            -80.3866   YY=            -59.4527   ZZ=            -71.2040
   XY=             -1.4304   XZ=             -2.4558   YZ=              1.0945
 Traceless Quadrupole moment (field-independent basis, Debye-Ang):
   XX=            -10.0388   YY=             10.8950   ZZ=             -0.8562
   XY=             -1.4304   XZ=             -2.4558   YZ=              1.0945
 Octapole moment (field-independent basis, Debye-Ang**2):
  XXX=             46.3638  YYY=            -21.8371  ZZZ=              1.4778  XYY=             -1.1411
  XXY=            -17.4719  XXZ=              4.9818  XZZ=             -4.7785  YZZ=             -9.9068
  YYZ=             -3.3822  XYZ=             -0.7066
 Hexadecapole moment (field-independent basis, Debye-Ang**3):
 XXXX=          -1265.0363 YYYY=           -180.1121 ZZZZ=           -239.5987 XXXY=            -11.9974
 XXXZ=             -4.2262 YYYX=             -6.6819 YYYZ=              8.0618 ZZZX=             -7.0091
 ZZZY=              0.0522 XXYY=           -192.0794 XXZZ=           -184.9525 YYZZ=            -83.5603
 XXYZ=              0.7240 YYXZ=             -2.9287 ZZXY=             -5.0820
 N-N= 2.919385809724D+02 E-N=-1.486937443688D+03  KE= 3.312049130853D+02
                          Isotropic Fermi Contact Couplings
        Atom                 a.u.       MegaHertz       Gauss      10(-4) cm-1
     1  Zr(91)             0.00000      -0.00132      -0.00047      -0.00044
     2  Zr(91)             0.00000      -0.00005      -0.00002      -0.00002
     3  O(17)             -0.00073       0.44078       0.15728       0.14703
     4  O(17)              0.05318     -32.23758     -11.50317     -10.75330
     5  O(17)             -0.00069       0.41786       0.14910       0.13938
     6  O(17)              0.00131      -0.79139      -0.28239      -0.26398
     7  H(1)               0.00404      18.06904       6.44748       6.02718
 --------------------------------------------------------
       Center         ----  Spin Dipole Couplings  ----
                      3XX-RR        3YY-RR        3ZZ-RR
 --------------------------------------------------------
     1   Atom        0.048874     -0.021499     -0.027375
     2   Atom        0.011900     -0.006650     -0.005250
     3   Atom       -0.030780      0.007947      0.022833
     4   Atom        0.005801      0.002269     -0.008070
     5   Atom       -0.032730     -0.010330      0.043060
     6   Atom        0.056890     -0.027538     -0.029353
     7   Atom       -0.000694      0.003688     -0.002994
 --------------------------------------------------------
                        XY            XZ            YZ
 --------------------------------------------------------
     1   Atom        0.024769     -0.004291     -0.003067
     2   Atom       -0.001183     -0.000392      0.000135
     3   Atom       -0.001167      0.009314      0.050617
     4   Atom        0.020406     -0.008568     -0.010144
     5   Atom       -0.012753      0.005811     -0.044610
     6   Atom       -0.006685      0.012397     -0.000982
     7   Atom        0.003357     -0.000173      0.000324
 --------------------------------------------------------


 ---------------------------------------------------------------------------------
              Anisotropic Spin Dipole Couplings in Principal Axis System
 ---------------------------------------------------------------------------------

       Atom             a.u.   MegaHertz   Gauss  10(-4) cm-1        Axes

              Baa    -0.0303     1.511     0.539     0.504 -0.2291  0.8227  0.5203
     1 Zr(91) Bbb    -0.0267     1.329     0.474     0.443  0.2062 -0.4814  0.8519
              Bcc     0.0570    -2.840    -1.013    -0.947  0.9513  0.3024 -0.0594
 
              Baa    -0.0067     0.335     0.120     0.112  0.0617  0.9953 -0.0741
     2 Zr(91) Bbb    -0.0053     0.262     0.093     0.087  0.0278  0.0725  0.9970
              Bcc     0.0120    -0.597    -0.213    -0.199  0.9977 -0.0635 -0.0232
 
              Baa    -0.0408     2.953     1.054     0.985  0.5850  0.5908 -0.5556
     3 O(17)  Bbb    -0.0262     1.892     0.675     0.631  0.8084 -0.4793  0.3416
              Bcc     0.0670    -4.845    -1.729    -1.616  0.0645  0.6490  0.7581
 
              Baa    -0.0170     1.233     0.440     0.411 -0.5573  0.7621  0.3296
     4 O(17)  Bbb    -0.0121     0.879     0.314     0.293  0.4674 -0.0402  0.8831
              Bcc     0.0292    -2.112    -0.753    -0.704  0.6863  0.6462 -0.3338
 
              Baa    -0.0430     3.113     1.111     1.039  0.6674  0.6786  0.3066
     5 O(17)  Bbb    -0.0266     1.924     0.687     0.642  0.7364 -0.5402 -0.4074
              Bcc     0.0696    -5.038    -1.798    -1.680  0.1109 -0.4977  0.8602
 
              Baa    -0.0311     2.250     0.803     0.751 -0.1385  0.0131  0.9903
     6 O(17)  Bbb    -0.0281     2.031     0.725     0.677  0.0788  0.9969 -0.0022
              Bcc     0.0592    -4.281    -1.528    -1.428  0.9872 -0.0777  0.1391
 
              Baa    -0.0031    -1.679    -0.599    -0.560  0.3721 -0.2254  0.9004
     7 H(1)   Bbb    -0.0024    -1.261    -0.450    -0.421  0.7973 -0.4190 -0.4344
              Bcc     0.0055     2.940     1.049     0.981  0.4752  0.8796  0.0238
 

 ---------------------------------------------------------------------------------

 No NMR shielding tensors so no spin-rotation constants.
 Leave Link  601 at Sat Sep  7 01:58:23 2019, MaxMem=  1835008000 cpu:               2.9 elap:               0.4
 (Enter /opt/g16/l9999.exe)


 ERROR IS A HARDY PLANT... IT FLOURISHETH IN EVERY SOIL.
            MARTIN FARQUHAR TUPPER
 Error termination request processed by link 9999.
 Error termination via Lnk1e in /opt/g16/l9999.exe at Sat Sep  7 01:58:23 2019.
 Job cpu time:       0 days  8 hours 15 minutes 38.7 seconds.
 Elapsed time:       0 days  1 hours 16 minutes 49.6 seconds.
 File lengths (MBytes):  RWF=     33 Int=      0 D2E=      0 Chk=      5 Scr=      1