 Entering Gaussian System, Link 0=g16
 Initial command:
 /gpfs/apps/medsci/stacks/noOS/software/gaussian/g16.a03.avx2/g16/l1.exe "/localscratch/ranasd01/g16/a23102-2381478/Gau-24223.inp" -scrdir="/localscratch/ranasd01/g16/a23102-2381478/"
 Default is to use a total of   8 processors:
                                8 via shared-memory
                                1 via Linda
 Entering Link 1 = /gpfs/apps/medsci/stacks/noOS/software/gaussian/g16.a03.avx2/g16/l1.exe PID=     24225.
  
 Copyright (c) 1988,1990,1992,1993,1995,1998,2003,2009,2016,
            Gaussian, Inc.  All Rights Reserved.
  
 This is part of the Gaussian(R) 16 program.  It is based on
 the Gaussian(R) 09 system (copyright 2009, Gaussian, Inc.),
 the Gaussian(R) 03 system (copyright 2003, Gaussian, Inc.),
 the Gaussian(R) 98 system (copyright 1998, Gaussian, Inc.),
 the Gaussian(R) 94 system (copyright 1995, Gaussian, Inc.),
 the Gaussian 92(TM) system (copyright 1992, Gaussian, Inc.),
 the Gaussian 90(TM) system (copyright 1990, Gaussian, Inc.),
 the Gaussian 88(TM) system (copyright 1988, Gaussian, Inc.),
 the Gaussian 86(TM) system (copyright 1986, Carnegie Mellon
 University), and the Gaussian 82(TM) system (copyright 1983,
 Carnegie Mellon University). Gaussian is a federally registered
 trademark of Gaussian, Inc.
  
 This software contains proprietary and confidential information,
 including trade secrets, belonging to Gaussian, Inc.
  
 This software is provided under written license and may be
 used, copied, transmitted, or stored only in accord with that
 written license.
  
 The following legend is applicable only to US Government
 contracts under FAR:
  
                    RESTRICTED RIGHTS LEGEND
  
 Use, reproduction and disclosure by the US Government is
 subject to restrictions as set forth in subparagraphs (a)
 and (c) of the Commercial Computer Software - Restricted
 Rights clause in FAR 52.227-19.
  
 Gaussian, Inc.
 340 Quinnipiac St., Bldg. 40, Wallingford CT 06492
  
  
 ---------------------------------------------------------------
 Warning -- This program may not be used in any manner that
 competes with the business of Gaussian, Inc. or will provide
 assistance to any competitor of Gaussian, Inc.  The licensee
 of this program is prohibited from giving any competitor of
 Gaussian, Inc. access to this program.  By using this program,
 the user acknowledges that Gaussian, Inc. is engaged in the
 business of creating and licensing software in the field of
 computational chemistry and represents and warrants to the
 licensee that it is not a competitor of Gaussian, Inc. and that
 it will not use this program in any manner prohibited above.
 ---------------------------------------------------------------
  

 Cite this work as:
 Gaussian 16, Revision A.03,
 M. J. Frisch, G. W. Trucks, H. B. Schlegel, G. E. Scuseria, 
 M. A. Robb, J. R. Cheeseman, G. Scalmani, V. Barone, 
 G. A. Petersson, H. Nakatsuji, X. Li, M. Caricato, A. V. Marenich, 
 J. Bloino, B. G. Janesko, R. Gomperts, B. Mennucci, H. P. Hratchian, 
 J. V. Ortiz, A. F. Izmaylov, J. L. Sonnenberg, D. Williams-Young, 
 F. Ding, F. Lipparini, F. Egidi, J. Goings, B. Peng, A. Petrone, 
 T. Henderson, D. Ranasinghe, V. G. Zakrzewski, J. Gao, N. Rega, 
 G. Zheng, W. Liang, M. Hada, M. Ehara, K. Toyota, R. Fukuda, 
 J. Hasegawa, M. Ishida, T. Nakajima, Y. Honda, O. Kitao, H. Nakai, 
 T. Vreven, K. Throssell, J. A. Montgomery, Jr., J. E. Peralta, 
 F. Ogliaro, M. J. Bearpark, J. J. Heyd, E. N. Brothers, K. N. Kudin, 
 V. N. Staroverov, T. A. Keith, R. Kobayashi, J. Normand, 
 K. Raghavachari, A. P. Rendell, J. C. Burant, S. S. Iyengar, 
 J. Tomasi, M. Cossi, J. M. Millam, M. Klene, C. Adamo, R. Cammi, 
 J. W. Ochterski, R. L. Martin, K. Morokuma, O. Farkas, 
 J. B. Foresman, and D. J. Fox, Gaussian, Inc., Wallingford CT, 2016.
 
 ******************************************
 Gaussian 16:  ES64L-G16RevA.03 25-Dec-2016
                16-Aug-2020 
 ******************************************
 %chk=check.chk
 %mem=36864mb
 %NProcShared=8
 Will use up to    8 processors via shared memory.
 ----------------------------------------------------------------------
 #P opt=(calcfc, noeigentest, tight, maxcycles=128) g4 scf=(tight, dire
 ct) integral=(grid=ultrafine, Acc2E=12) nosymm iop(2/9=2000) scf=xqc
 ----------------------------------------------------------------------
 1/6=128,7=10,10=4,11=1,18=20,19=15,26=4,38=1/1,3;
 2/9=2000,12=2,15=1,17=6,18=5,40=1/2;
 3/5=35,7=104,11=2,25=1,27=12,30=1,71=2,74=-5,75=-5,140=1/1,2,3;
 4//1;
 5/5=2,8=3,13=1,32=2,38=5,87=12/2,8;
 8/6=4,10=90,11=11,87=12/1;
 11/6=1,8=1,9=11,15=111,16=1,31=1,87=12/1,2,10;
 10/6=1,13=1,31=1,87=12/2;
 6/7=2,8=2,9=2,10=2,28=1,87=12/1;
 7/10=1,18=20,25=1,30=1,87=12/1,2,3,16;
 1/6=128,7=10,10=4,11=1,18=20,19=15,26=4/3(2);
 2/9=2000,15=1/2;
 99//99;
 2/9=2000,15=1/2;
 3/5=35,7=104,11=2,25=1,27=12,30=1,71=1,74=-5,75=-5/1,2,3;
 4/5=5,16=3,69=1/1;
 5/5=2,8=3,13=1,32=2,38=5,87=12/2,8;
 7/30=1,87=12/1,2,3,16;
 1/6=128,7=10,11=1,18=20,19=15,26=4/3(-5);
 2/9=2000,15=1/2;
 6/7=2,8=2,9=2,10=2,19=2,28=1,87=12/1;
 99/9=1/99;
 Leave Link    1 at Sun Aug 16 01:38:35 2020, MaxMem=  4831838208 cpu:               0.4 elap:               0.1
 (Enter /gpfs/apps/medsci/stacks/noOS/software/gaussian/g16.a03.avx2/g16/l101.exe)
 ----
 name
 ----
 Symbolic Z-matrix:
 Charge =  0 Multiplicity = 1
 C                     0.66459  -0.02038   0. 
 O                    -0.74684   0.12236   0. 
 H                     1.02419  -0.54397   0.89024 
 H                     1.08391   0.98349  -0.00021 
 H                     1.02415  -0.54432  -0.89005 
 H                    -1.14511  -0.75181   0. 
 
 ITRead=  0  0  0  0  0  0
 MicOpt= -1 -1 -1 -1 -1 -1
 NAtoms=      6 NQM=        6 NQMF=       0 NMMI=      0 NMMIF=      0
                NMic=       0 NMicF=      0.
                    Isotopes and Nuclear Properties:
 (Nuclear quadrupole moments (NQMom) in fm**2, nuclear magnetic moments (NMagM)
  in nuclear magnetons)

  Atom         1           2           3           4           5           6
 IAtWgt=          12          16           1           1           1           1
 AtmWgt=  12.0000000  15.9949146   1.0078250   1.0078250   1.0078250   1.0078250
 NucSpn=           0           0           1           1           1           1
 AtZEff=  -0.0000000  -0.0000000  -0.0000000  -0.0000000  -0.0000000  -0.0000000
 NQMom=    0.0000000   0.0000000   0.0000000   0.0000000   0.0000000   0.0000000
 NMagM=    0.0000000   0.0000000   2.7928460   2.7928460   2.7928460   2.7928460
 AtZNuc=   6.0000000   8.0000000   1.0000000   1.0000000   1.0000000   1.0000000
 Leave Link  101 at Sun Aug 16 01:38:36 2020, MaxMem=  4831838208 cpu:               2.1 elap:               0.4
 (Enter /gpfs/apps/medsci/stacks/noOS/software/gaussian/g16.a03.avx2/g16/l103.exe)

 GradGradGradGradGradGradGradGradGradGradGradGradGradGradGradGradGradGrad
 Berny optimization.
 Initialization pass.
                           ----------------------------
                           !    Initial Parameters    !
                           ! (Angstroms and Degrees)  !
 --------------------------                            --------------------------
 ! Name  Definition              Value          Derivative Info.                !
 --------------------------------------------------------------------------------
 ! R1    R(1,2)                  1.4186         calculate D2E/DX2 analytically  !
 ! R2    R(1,3)                  1.0936         calculate D2E/DX2 analytically  !
 ! R3    R(1,4)                  1.0879         calculate D2E/DX2 analytically  !
 ! R4    R(1,5)                  1.0936         calculate D2E/DX2 analytically  !
 ! R5    R(2,6)                  0.9606         calculate D2E/DX2 analytically  !
 ! A1    A(2,1,3)              112.0441         calculate D2E/DX2 analytically  !
 ! A2    A(2,1,4)              106.8957         calculate D2E/DX2 analytically  !
 ! A3    A(2,1,5)              112.0439         calculate D2E/DX2 analytically  !
 ! A4    A(3,1,4)              108.3731         calculate D2E/DX2 analytically  !
 ! A5    A(3,1,5)              108.9675         calculate D2E/DX2 analytically  !
 ! A6    A(4,1,5)              108.3728         calculate D2E/DX2 analytically  !
 ! A7    A(1,2,6)              108.7192         calculate D2E/DX2 analytically  !
 ! D1    D(3,1,2,6)            -61.4307         calculate D2E/DX2 analytically  !
 ! D2    D(4,1,2,6)            179.9886         calculate D2E/DX2 analytically  !
 ! D3    D(5,1,2,6)             61.4085         calculate D2E/DX2 analytically  !
 --------------------------------------------------------------------------------
 Trust Radius=3.00D-01 FncErr=1.00D-07 GrdErr=1.00D-06 EigMax=2.50D+02 EigMin=1.00D-04
 Number of steps in this run=    100 maximum allowed number of steps=    100.
 GradGradGradGradGradGradGradGradGradGradGradGradGradGradGradGradGradGrad

 Leave Link  103 at Sun Aug 16 01:38:36 2020, MaxMem=  4831838208 cpu:               0.2 elap:               0.0
 (Enter /gpfs/apps/medsci/stacks/noOS/software/gaussian/g16.a03.avx2/g16/l202.exe)
                          Input orientation:                          
 ---------------------------------------------------------------------
 Center     Atomic      Atomic             Coordinates (Angstroms)
 Number     Number       Type             X           Y           Z
 ---------------------------------------------------------------------
      1          6           0        0.664592   -0.020378    0.000001
      2          8           0       -0.746837    0.122361    0.000001
      3          1           0        1.024189   -0.543974    0.890242
      4          1           0        1.083911    0.983489   -0.000206
      5          1           0        1.024149   -0.544318   -0.890052
      6          1           0       -1.145110   -0.751814    0.000002
 ---------------------------------------------------------------------
                    Distance matrix (angstroms):
                    1          2          3          4          5
     1  C    0.000000
     2  O    1.418628   0.000000
     3  H    1.093614   2.091187   0.000000
     4  H    1.087924   2.023160   1.769070   0.000000
     5  H    1.093613   2.091183   1.780294   1.769065   0.000000
     6  H    1.951927   0.960627   2.354057   2.824856   2.353919
                    6
     6  H    0.000000
 Symmetry turned off by external request.
 Stoichiometry    CH4O
 Framework group  C1[X(CH4O)]
 Deg. of freedom    12
 Full point group                 C1      NOp   1
 Rotational constants (GHZ):         128.7348908          24.8315625          23.9700500
 Leave Link  202 at Sun Aug 16 01:38:36 2020, MaxMem=  4831838208 cpu:               0.3 elap:               0.1
 (Enter /gpfs/apps/medsci/stacks/noOS/software/gaussian/g16.a03.avx2/g16/l301.exe)
 Standard basis: GTBas3 (6D, 7F)
 Ernie: Thresh=  0.10000D-02 Tol=  0.10000D-05 Strict=F.
    76 basis functions,   116 primitive gaussians,    82 cartesian basis functions
     9 alpha electrons        9 beta electrons
       nuclear repulsion energy        40.3372866056 Hartrees.
 IExCor=  402 DFT=T Ex+Corr=B3LYP ExCW=0 ScaHFX=  0.200000
 ScaDFX=  0.800000  0.720000  1.000000  0.810000 ScalE2=  1.000000  1.000000
 IRadAn=      5 IRanWt=     -1 IRanGd=            0 ICorTp=0 IEmpDi=  4
 NAtoms=    6 NActive=    6 NUniq=    6 SFac= 1.00D+00 NAtFMM=   60 NAOKFM=F Big=F
 Integral buffers will be    131072 words long.
 Raffenetti 2 integral format.
 Two-electron integral symmetry is turned off.
 Leave Link  301 at Sun Aug 16 01:38:36 2020, MaxMem=  4831838208 cpu:               0.3 elap:               0.1
 (Enter /gpfs/apps/medsci/stacks/noOS/software/gaussian/g16.a03.avx2/g16/l302.exe)
 NPDir=0 NMtPBC=     1 NCelOv=     1 NCel=       1 NClECP=     1 NCelD=      1
         NCelK=      1 NCelE2=     1 NClLst=     1 CellRange=     0.0.
 One-electron integrals computed using PRISM.
 NBasis=    76 RedAO= T EigKep=  1.51D-03  NBF=    76
 NBsUse=    76 1.00D-06 EigRej= -1.00D+00 NBFU=    76
 Precomputing XC quadrature grid using
 IXCGrd= 4 IRadAn=           5 IRanWt=          -1 IRanGd=           0 AccXCQ= 1.00D-12.
 Generated NRdTot=       0 NPtTot=           0 NUsed=           0 NTot=          32
 NSgBfM=    82    82    82    82    82 MxSgAt=     6 MxSgA2=     6.
 Leave Link  302 at Sun Aug 16 01:38:36 2020, MaxMem=  4831838208 cpu:               1.5 elap:               0.3
 (Enter /gpfs/apps/medsci/stacks/noOS/software/gaussian/g16.a03.avx2/g16/l303.exe)
 DipDrv:  MaxL=1.
 Leave Link  303 at Sun Aug 16 01:38:37 2020, MaxMem=  4831838208 cpu:               1.0 elap:               0.2
 (Enter /gpfs/apps/medsci/stacks/noOS/software/gaussian/g16.a03.avx2/g16/l401.exe)
 ExpMin= 1.61D-01 ExpMax= 5.48D+03 ExpMxC= 8.25D+02 IAcc=3 IRadAn=         5 AccDes= 0.00D+00
 Harris functional with IExCor=  402 and IRadAn=       5 diagonalized for initial guess.
 HarFok:  IExCor=  402 AccDes= 0.00D+00 IRadAn=         5 IDoV= 1 UseB2=F ITyADJ=14
 ICtDFT=  3500011 ScaDFX=  1.000000  1.000000  1.000000  1.000000
 FoFCou: FMM=F IPFlag=           0 FMFlag=      100000 FMFlg1=           0
         NFxFlg=           0 DoJE=T BraDBF=F KetDBF=T FulRan=T
         wScrn=  0.000000 ICntrl=       500 IOpCl=  0 I1Cent=   200000004 NGrid=           0
         NMat0=    1 NMatS0=      1 NMatT0=    0 NMatD0=    1 NMtDS0=    0 NMtDT0=    0
 Symmetry not used in FoFCou.
 Harris En= -115.762576719386    
 JPrj=0 DoOrth=F DoCkMO=F.
 Leave Link  401 at Sun Aug 16 01:38:37 2020, MaxMem=  4831838208 cpu:               2.0 elap:               0.3
 (Enter /gpfs/apps/medsci/stacks/noOS/software/gaussian/g16.a03.avx2/g16/l502.exe)
 Keep R1 ints in memory in canonical form, NReq=11518793.
 FoFCou: FMM=F IPFlag=           0 FMFlag=           0 FMFlg1=           0
         NFxFlg=           0 DoJE=F BraDBF=F KetDBF=F FulRan=T
         wScrn=  0.000000 ICntrl=       600 IOpCl=  0 I1Cent=           0 NGrid=           0
         NMat0=    1 NMatS0=   2926 NMatT0=    0 NMatD0=    1 NMtDS0=    0 NMtDT0=    0
 Symmetry not used in FoFCou.
 Two-electron integral symmetry not used.
 Closed shell SCF:
 Using DIIS extrapolation, IDIIS=  1040.
 NGot=  4831838208 LenX=  4827541135 LenY=  4827533970
 Requested convergence on RMS density matrix=1.00D-08 within  32 cycles.
 Requested convergence on MAX density matrix=1.00D-06.
 Requested convergence on             energy=1.00D-06.
 No special actions if energy rises.
 Integral accuracy reduced to 1.0D-05 until final iterations.

 Cycle   1  Pass 0  IDiag  1:
 E= -115.647979238616    
 DIIS: error= 3.01D-02 at cycle   1 NSaved=   1.
 NSaved= 1 IEnMin= 1 EnMin= -115.647979238616     IErMin= 1 ErrMin= 3.01D-02
 ErrMax= 3.01D-02  0.00D+00 EMaxC= 1.00D-01 BMatC= 9.31D-02 BMatP= 9.31D-02
 IDIUse=3 WtCom= 6.99D-01 WtEn= 3.01D-01
 Coeff-Com:  0.100D+01
 Coeff-En:   0.100D+01
 Coeff:      0.100D+01
 Gap=     0.285 Goal=   None    Shift=    0.000
 GapD=    0.285 DampG=1.000 DampE=0.500 DampFc=0.5000 IDamp=-1.
 Damping current iteration by 5.00D-01
 RMSDP=7.87D-03 MaxDP=1.41D-01              OVMax= 1.48D-01

 Cycle   2  Pass 0  IDiag  1:
 E= -115.680966795063     Delta-E=       -0.032987556447 Rises=F Damp=T
 DIIS: error= 9.47D-03 at cycle   2 NSaved=   2.
 NSaved= 2 IEnMin= 2 EnMin= -115.680966795063     IErMin= 2 ErrMin= 9.47D-03
 ErrMax= 9.47D-03  0.00D+00 EMaxC= 1.00D-01 BMatC= 6.48D-03 BMatP= 9.31D-02
 IDIUse=3 WtCom= 9.05D-01 WtEn= 9.47D-02
 Coeff-Com:  0.138D+00 0.862D+00
 Coeff-En:   0.202D+00 0.798D+00
 Coeff:      0.144D+00 0.856D+00
 Gap=     0.347 Goal=   None    Shift=    0.000
 RMSDP=1.25D-03 MaxDP=2.17D-02 DE=-3.30D-02 OVMax= 9.01D-02

 Cycle   3  Pass 0  IDiag  1:
 E= -115.728933859048     Delta-E=       -0.047967063985 Rises=F Damp=F
 DIIS: error= 4.22D-03 at cycle   3 NSaved=   3.
 NSaved= 3 IEnMin= 3 EnMin= -115.728933859048     IErMin= 3 ErrMin= 4.22D-03
 ErrMax= 4.22D-03  0.00D+00 EMaxC= 1.00D-01 BMatC= 1.53D-03 BMatP= 6.48D-03
 IDIUse=3 WtCom= 9.58D-01 WtEn= 4.22D-02
 Coeff-Com:  0.265D-01 0.305D+00 0.668D+00
 Coeff-En:   0.000D+00 0.000D+00 0.100D+01
 Coeff:      0.253D-01 0.292D+00 0.682D+00
 Gap=     0.342 Goal=   None    Shift=    0.000
 RMSDP=5.28D-04 MaxDP=1.20D-02 DE=-4.80D-02 OVMax= 1.45D-02

 Cycle   4  Pass 0  IDiag  1:
 E= -115.729829846401     Delta-E=       -0.000895987353 Rises=F Damp=F
 DIIS: error= 2.33D-03 at cycle   4 NSaved=   4.
 NSaved= 4 IEnMin= 4 EnMin= -115.729829846401     IErMin= 4 ErrMin= 2.33D-03
 ErrMax= 2.33D-03  0.00D+00 EMaxC= 1.00D-01 BMatC= 4.62D-04 BMatP= 1.53D-03
 IDIUse=3 WtCom= 9.77D-01 WtEn= 2.33D-02
 Coeff-Com:  0.391D-02 0.568D-01 0.362D+00 0.577D+00
 Coeff-En:   0.000D+00 0.000D+00 0.226D+00 0.774D+00
 Coeff:      0.382D-02 0.555D-01 0.359D+00 0.582D+00
 Gap=     0.343 Goal=   None    Shift=    0.000
 RMSDP=2.02D-04 MaxDP=4.33D-03 DE=-8.96D-04 OVMax= 5.58D-03

 Cycle   5  Pass 0  IDiag  1:
 E= -115.730205380314     Delta-E=       -0.000375533913 Rises=F Damp=F
 DIIS: error= 2.44D-04 at cycle   5 NSaved=   5.
 NSaved= 5 IEnMin= 5 EnMin= -115.730205380314     IErMin= 5 ErrMin= 2.44D-04
 ErrMax= 2.44D-04  0.00D+00 EMaxC= 1.00D-01 BMatC= 7.13D-06 BMatP= 4.62D-04
 IDIUse=3 WtCom= 9.98D-01 WtEn= 2.44D-03
 Coeff-Com:  0.563D-03-0.131D-02 0.784D-01 0.186D+00 0.736D+00
 Coeff-En:   0.000D+00 0.000D+00 0.000D+00 0.000D+00 0.100D+01
 Coeff:      0.562D-03-0.130D-02 0.782D-01 0.185D+00 0.737D+00
 Gap=     0.343 Goal=   None    Shift=    0.000
 RMSDP=2.18D-05 MaxDP=3.60D-04 DE=-3.76D-04 OVMax= 5.98D-04

 Cycle   6  Pass 0  IDiag  1:
 E= -115.730210981751     Delta-E=       -0.000005601437 Rises=F Damp=F
 DIIS: error= 1.11D-05 at cycle   6 NSaved=   6.
 NSaved= 6 IEnMin= 6 EnMin= -115.730210981751     IErMin= 6 ErrMin= 1.11D-05
 ErrMax= 1.11D-05  0.00D+00 EMaxC= 1.00D-01 BMatC= 1.04D-08 BMatP= 7.13D-06
 IDIUse=1 WtCom= 1.00D+00 WtEn= 0.00D+00
 Coeff-Com:  0.156D-03-0.748D-03 0.111D-02 0.409D-02 0.383D-01 0.957D+00
 Coeff:      0.156D-03-0.748D-03 0.111D-02 0.409D-02 0.383D-01 0.957D+00
 Gap=     0.343 Goal=   None    Shift=    0.000
 RMSDP=1.75D-06 MaxDP=3.02D-05 DE=-5.60D-06 OVMax= 4.62D-05

 Initial convergence to 1.0D-05 achieved.  Increase integral accuracy.
 Cycle   7  Pass 1  IDiag  1:
 E= -115.730210975632     Delta-E=        0.000000006118 Rises=F Damp=F
 DIIS: error= 2.41D-06 at cycle   1 NSaved=   1.
 NSaved= 1 IEnMin= 1 EnMin= -115.730210975632     IErMin= 1 ErrMin= 2.41D-06
 ErrMax= 2.41D-06  0.00D+00 EMaxC= 1.00D-01 BMatC= 3.77D-10 BMatP= 3.77D-10
 IDIUse=1 WtCom= 1.00D+00 WtEn= 0.00D+00
 Coeff-Com:  0.100D+01
 Coeff:      0.100D+01
 Gap=     0.343 Goal=   None    Shift=    0.000
 RMSDP=1.75D-06 MaxDP=3.02D-05 DE= 6.12D-09 OVMax= 1.17D-05

 Cycle   8  Pass 1  IDiag  1:
 E= -115.730210975699     Delta-E=       -0.000000000066 Rises=F Damp=F
 DIIS: error= 2.21D-06 at cycle   2 NSaved=   2.
 NSaved= 2 IEnMin= 2 EnMin= -115.730210975699     IErMin= 2 ErrMin= 2.21D-06
 ErrMax= 2.21D-06  0.00D+00 EMaxC= 1.00D-01 BMatC= 4.17D-10 BMatP= 3.77D-10
 IDIUse=1 WtCom= 1.00D+00 WtEn= 0.00D+00
 Coeff-Com:  0.514D+00 0.486D+00
 Coeff:      0.514D+00 0.486D+00
 Gap=     0.343 Goal=   None    Shift=    0.000
 RMSDP=2.05D-07 MaxDP=4.88D-06 DE=-6.61D-11 OVMax= 5.51D-06

 Cycle   9  Pass 1  IDiag  1:
 E= -115.730210976006     Delta-E=       -0.000000000307 Rises=F Damp=F
 DIIS: error= 4.88D-07 at cycle   3 NSaved=   3.
 NSaved= 3 IEnMin= 3 EnMin= -115.730210976006     IErMin= 3 ErrMin= 4.88D-07
 ErrMax= 4.88D-07  0.00D+00 EMaxC= 1.00D-01 BMatC= 2.61D-11 BMatP= 3.77D-10
 IDIUse=1 WtCom= 1.00D+00 WtEn= 0.00D+00
 Coeff-Com:  0.133D+00 0.227D+00 0.640D+00
 Coeff:      0.133D+00 0.227D+00 0.640D+00
 Gap=     0.343 Goal=   None    Shift=    0.000
 RMSDP=4.30D-08 MaxDP=1.14D-06 DE=-3.07D-10 OVMax= 1.15D-06

 Cycle  10  Pass 1  IDiag  1:
 E= -115.730210976023     Delta-E=       -0.000000000017 Rises=F Damp=F
 DIIS: error= 7.71D-08 at cycle   4 NSaved=   4.
 NSaved= 4 IEnMin= 4 EnMin= -115.730210976023     IErMin= 4 ErrMin= 7.71D-08
 ErrMax= 7.71D-08  0.00D+00 EMaxC= 1.00D-01 BMatC= 5.63D-13 BMatP= 2.61D-11
 IDIUse=1 WtCom= 1.00D+00 WtEn= 0.00D+00
 Coeff-Com:  0.141D-01 0.431D-01 0.180D+00 0.763D+00
 Coeff:      0.141D-01 0.431D-01 0.180D+00 0.763D+00
 Gap=     0.343 Goal=   None    Shift=    0.000
 RMSDP=1.15D-08 MaxDP=1.99D-07 DE=-1.70D-11 OVMax= 2.55D-07

 Cycle  11  Pass 1  IDiag  1:
 E= -115.730210976023     Delta-E=       -0.000000000001 Rises=F Damp=F
 DIIS: error= 4.84D-08 at cycle   5 NSaved=   5.
 NSaved= 5 IEnMin= 5 EnMin= -115.730210976023     IErMin= 5 ErrMin= 4.84D-08
 ErrMax= 4.84D-08  0.00D+00 EMaxC= 1.00D-01 BMatC= 1.43D-13 BMatP= 5.63D-13
 IDIUse=1 WtCom= 1.00D+00 WtEn= 0.00D+00
 Coeff-Com: -0.477D-02 0.102D-02 0.276D-01 0.375D+00 0.601D+00
 Coeff:     -0.477D-02 0.102D-02 0.276D-01 0.375D+00 0.601D+00
 Gap=     0.343 Goal=   None    Shift=    0.000
 RMSDP=4.51D-09 MaxDP=1.04D-07 DE=-5.97D-13 OVMax= 1.13D-07

 SCF Done:  E(RB3LYP) =  -115.730210976     A.U. after   11 cycles
            NFock= 11  Conv=0.45D-08     -V/T= 2.0065
 KE= 1.149860945134D+02 PE=-3.521313849066D+02 EE= 8.107779281163D+01
 Leave Link  502 at Sun Aug 16 01:38:38 2020, MaxMem=  4831838208 cpu:               8.7 elap:               1.3
 (Enter /gpfs/apps/medsci/stacks/noOS/software/gaussian/g16.a03.avx2/g16/l508.exe)
 QCSCF skips out because SCF is already converged.
 Leave Link  508 at Sun Aug 16 01:38:38 2020, MaxMem=  4831838208 cpu:               0.3 elap:               0.1
 (Enter /gpfs/apps/medsci/stacks/noOS/software/gaussian/g16.a03.avx2/g16/l801.exe)
 DoSCS=F DFT=T ScalE2(SS,OS)=  1.000000  1.000000
 Range of M.O.s used for correlation:     1    76
 NBasis=    76 NAE=     9 NBE=     9 NFC=     0 NFV=     0
 NROrb=     76 NOA=     9 NOB=     9 NVA=    67 NVB=    67

 **** Warning!!: The largest alpha MO coefficient is  0.18417412D+02

 Leave Link  801 at Sun Aug 16 01:38:38 2020, MaxMem=  4831838208 cpu:               0.2 elap:               0.1
 (Enter /gpfs/apps/medsci/stacks/noOS/software/gaussian/g16.a03.avx2/g16/l1101.exe)
 Using compressed storage, NAtomX=     6.
 Will process      7 centers per pass.
 Leave Link 1101 at Sun Aug 16 01:38:39 2020, MaxMem=  4831838208 cpu:               6.0 elap:               0.9
 (Enter /gpfs/apps/medsci/stacks/noOS/software/gaussian/g16.a03.avx2/g16/l1102.exe)
 Symmetrizing basis deriv contribution to polar:
 IMax=3 JMax=2 DiffMx= 0.00D+00
 Leave Link 1102 at Sun Aug 16 01:38:39 2020, MaxMem=  4831838208 cpu:               0.5 elap:               0.1
 (Enter /gpfs/apps/medsci/stacks/noOS/software/gaussian/g16.a03.avx2/g16/l1110.exe)
 Forming Gx(P) for the SCF density, NAtomX=     6.
 Integral derivatives from FoFJK, PRISM(SPDF).
 Do as many integral derivatives as possible in FoFJK.
 G2DrvN: MDV=    4831837640.
 G2DrvN: will do     7 centers at a time, making    1 passes.
 Calling FoFCou, ICntrl=  3107 FMM=F I1Cent=   0 AccDes= 1.00D-12.
 FoFJK:  IHMeth= 1 ICntrl=    3107 DoSepK=F KAlg= 0 I1Cent=           0 FoldK=F
 IRaf=         0 NMat=       1 IRICut=       1 DoRegI=T DoRafI=F ISym2E= 0 IDoP0=0 IntGTp=1.
 FoFCou: FMM=F IPFlag=           0 FMFlag=      100000 FMFlg1=           0
         NFxFlg=           0 DoJE=F BraDBF=F KetDBF=F FulRan=T
         wScrn=  0.000000 ICntrl=      3107 IOpCl=  0 I1Cent=           0 NGrid=           0
         NMat0=    1 NMatS0=      1 NMatT0=    0 NMatD0=    1 NMtDS0=    0 NMtDT0=    0
 Symmetry not used in FoFCou.
 End of G2Drv F.D. properties file   721 does not exist.
 End of G2Drv F.D. properties file   722 does not exist.
 End of G2Drv F.D. properties file   788 does not exist.
 Leave Link 1110 at Sun Aug 16 01:38:41 2020, MaxMem=  4831838208 cpu:              13.2 elap:               2.1
 (Enter /gpfs/apps/medsci/stacks/noOS/software/gaussian/g16.a03.avx2/g16/l1002.exe)
 Minotr:  Closed shell wavefunction.
          IDoAtm=111111
          Direct CPHF calculation.
          Differentiating once with respect to nuclear coordinates.
          Requested convergence is 1.0D-08 RMS, and 1.0D-07 maximum.
          Secondary convergence is 1.0D-12 RMS, and 1.0D-12 maximum.
          NewPWx=T KeepS1=F KeepF1=F KeepIn=T MapXYZ=F SortEE=F KeepMc=T.
         1761 words used for storage of precomputed grid.
 Keep R1 ints in memory in canonical form, NReq=11496328.
 FoFCou: FMM=F IPFlag=           0 FMFlag=           0 FMFlg1=           0
         NFxFlg=           0 DoJE=F BraDBF=F KetDBF=F FulRan=T
         wScrn=  0.000000 ICntrl=       600 IOpCl=  0 I1Cent=           0 NGrid=           0
         NMat0=    1 NMatS0=   2926 NMatT0=    0 NMatD0=    1 NMtDS0=    0 NMtDT0=    0
 Symmetry not used in FoFCou.
 Two-electron integral symmetry not used.
          MDV=    4831838208 using IRadAn=       1.
          Solving linear equations simultaneously, MaxMat=       0.
          There are    21 degrees of freedom in the 1st order CPHF.  IDoFFX=6 NUNeed=     0.
     15 vectors produced by pass  0 Test12= 2.87D-15 4.76D-09 XBig12= 9.43D-02 1.36D-01.
 AX will form    15 AO Fock derivatives at one time.
     15 vectors produced by pass  1 Test12= 2.87D-15 4.76D-09 XBig12= 4.34D-03 1.73D-02.
     15 vectors produced by pass  2 Test12= 2.87D-15 4.76D-09 XBig12= 1.07D-04 3.04D-03.
     15 vectors produced by pass  3 Test12= 2.87D-15 4.76D-09 XBig12= 3.33D-07 1.38D-04.
     15 vectors produced by pass  4 Test12= 2.87D-15 4.76D-09 XBig12= 4.66D-10 4.05D-06.
      6 vectors produced by pass  5 Test12= 2.87D-15 4.76D-09 XBig12= 3.83D-13 1.40D-07.
 InvSVY:  IOpt=1 It=  1 EMax= 9.99D-16
 Solved reduced A of dimension    81 with    15 vectors.
 End of Minotr F.D. properties file   721 does not exist.
 End of Minotr F.D. properties file   722 does not exist.
 End of Minotr F.D. properties file   788 does not exist.
 Leave Link 1002 at Sun Aug 16 01:38:43 2020, MaxMem=  4831838208 cpu:              10.9 elap:               1.5
 (Enter /gpfs/apps/medsci/stacks/noOS/software/gaussian/g16.a03.avx2/g16/l601.exe)
 Copying SCF densities to generalized density rwf, IOpCl= 0 IROHF=0.

 **********************************************************************

            Population analysis using the SCF density.

 **********************************************************************

 Alpha  occ. eigenvalues --  -19.12954 -10.21990  -1.00849  -0.67816  -0.49988
 Alpha  occ. eigenvalues --   -0.43406  -0.41876  -0.32784  -0.26453
 Alpha virt. eigenvalues --    0.07868   0.13307   0.16907   0.17675   0.20184
 Alpha virt. eigenvalues --    0.44688   0.52743   0.53275   0.62610   0.71265
 Alpha virt. eigenvalues --    0.73784   0.78600   0.80790   0.81853   0.89708
 Alpha virt. eigenvalues --    0.90477   0.93075   0.98763   0.99086   1.22297
 Alpha virt. eigenvalues --    1.38014   1.41835   1.46065   1.65765   1.74600
 Alpha virt. eigenvalues --    1.80839   1.94511   2.12093   2.31683   2.34876
 Alpha virt. eigenvalues --    2.43342   2.53596   2.58500   2.69371   2.80228
 Alpha virt. eigenvalues --    2.85601   2.93501   2.94248   3.04197   3.12119
 Alpha virt. eigenvalues --    3.40238   3.41758   3.50785   3.66450   3.84243
 Alpha virt. eigenvalues --    3.88321   4.16788   4.28964   4.35178   4.36305
 Alpha virt. eigenvalues --    4.41846   4.43514   4.52795   4.69831   4.73363
 Alpha virt. eigenvalues --    4.87487   5.15829   5.21496   5.35231   5.47661
 Alpha virt. eigenvalues --    5.69178   5.91372   5.96688   6.01078   6.98512
 Alpha virt. eigenvalues --   11.05961  13.03983
          Condensed to atoms (all electrons):
               1          2          3          4          5          6
     1  C    4.774766   0.357925   0.377181   0.386210   0.377184  -0.056094
     2  O    0.357925   7.829372  -0.031854  -0.022130  -0.031850   0.306970
     3  H    0.377181  -0.031854   0.642345  -0.037100  -0.049951  -0.004408
     4  H    0.386210  -0.022130  -0.037100   0.571395  -0.037094   0.006517
     5  H    0.377184  -0.031850  -0.049951  -0.037094   0.642337  -0.004413
     6  H   -0.056094   0.306970  -0.004408   0.006517  -0.004413   0.465601
 Mulliken charges:
               1
     1  C   -0.217173
     2  O   -0.408433
     3  H    0.103787
     4  H    0.132204
     5  H    0.103787
     6  H    0.285828
 Sum of Mulliken charges =  -0.00000
 Mulliken charges with hydrogens summed into heavy atoms:
               1
     1  C    0.122605
     2  O   -0.122605
 APT charges:
               1
     1  C   -0.847050
     2  O   -0.647970
     3  H    0.319949
     4  H    0.356739
     5  H    0.319948
     6  H    0.498385
 Sum of APT charges =  -0.00000
 APT charges with hydrogens summed into heavy atoms:
               1
     1  C    0.149585
     2  O   -0.149585
 Electronic spatial extent (au):  <R**2>=             83.6478
 Charge=             -0.0000 electrons
 Dipole moment (field-independent basis, Debye):
    X=              0.6551    Y=             -1.3786    Z=             -0.0000  Tot=              1.5263
 Quadrupole moment (field-independent basis, Debye-Ang):
   XX=            -12.5538   YY=            -11.9418   ZZ=            -13.4300
   XY=              2.0896   XZ=             -0.0000   YZ=             -0.0000
 Traceless Quadrupole moment (field-independent basis, Debye-Ang):
   XX=              0.0881   YY=              0.7001   ZZ=             -0.7881
   XY=              2.0896   XZ=             -0.0000   YZ=             -0.0000
 Octapole moment (field-independent basis, Debye-Ang**2):
  XXX=             -5.0262  YYY=             -0.3263  ZZZ=              0.0002  XYY=             -1.9373
  XXY=             -2.0257  XXZ=             -0.0001  XZZ=             -0.6719  YZZ=             -0.4634
  YYZ=             -0.0003  XYZ=             -0.0000
 Hexadecapole moment (field-independent basis, Debye-Ang**3):
 XXXX=            -59.8067 YYYY=            -19.0920 ZZZZ=            -18.7471 XXXY=              3.4295
 XXXZ=             -0.0001 YYYX=              2.5624 YYYZ=             -0.0001 ZZZX=              0.0002
 ZZZY=             -0.0000 XXYY=            -12.0185 XXZZ=            -13.6303 YYZZ=             -6.4460
 XXYZ=             -0.0001 YYXZ=             -0.0003 ZZXY=             -0.1513
 N-N= 4.033728660558D+01 E-N=-3.521313815459D+02  KE= 1.149860945134D+02
  Exact polarizability:   0.000   0.000   0.000   0.000   0.000   0.000
 Approx polarizability:  23.136   0.835  22.395   0.000   0.000  19.528
 No NMR shielding tensors so no spin-rotation constants.
 Leave Link  601 at Sun Aug 16 01:38:44 2020, MaxMem=  4831838208 cpu:               2.8 elap:               0.6
 (Enter /gpfs/apps/medsci/stacks/noOS/software/gaussian/g16.a03.avx2/g16/l701.exe)
 ... and contract with generalized density number  0.
 Compute integral second derivatives.
 Leave Link  701 at Sun Aug 16 01:38:44 2020, MaxMem=  4831838208 cpu:               4.2 elap:               0.9
 (Enter /gpfs/apps/medsci/stacks/noOS/software/gaussian/g16.a03.avx2/g16/l702.exe)
 L702 exits ... SP integral derivatives will be done elsewhere.
 Leave Link  702 at Sun Aug 16 01:38:45 2020, MaxMem=  4831838208 cpu:               0.2 elap:               0.1
 (Enter /gpfs/apps/medsci/stacks/noOS/software/gaussian/g16.a03.avx2/g16/l703.exe)
 Integral derivatives from FoFJK, PRISM(SPDF).
 Compute integral second derivatives, UseDBF=F ICtDFT=           0.
 Calling FoFJK, ICntrl=    100147 FMM=F ISym2X=0 I1Cent= 0 IOpClX= 0 NMat=1 NMatS=1 NMatT=0.
 FoFJK:  IHMeth= 1 ICntrl=  100147 DoSepK=F KAlg= 0 I1Cent=           0 FoldK=F
 IRaf=         0 NMat=       1 IRICut=       1 DoRegI=T DoRafI=F ISym2E= 0 IDoP0=0 IntGTp=1.
 FoFCou: FMM=F IPFlag=           0 FMFlag=      100000 FMFlg1=         800
         NFxFlg=           0 DoJE=F BraDBF=F KetDBF=F FulRan=T
         wScrn=  0.000000 ICntrl=    100147 IOpCl=  0 I1Cent=           0 NGrid=           0
         NMat0=    1 NMatS0=      1 NMatT0=    0 NMatD0=    1 NMtDS0=    0 NMtDT0=    0
 Symmetry not used in FoFCou.
 Leave Link  703 at Sun Aug 16 01:38:49 2020, MaxMem=  4831838208 cpu:              31.2 elap:               4.0
 (Enter /gpfs/apps/medsci/stacks/noOS/software/gaussian/g16.a03.avx2/g16/l716.exe)
 Dipole        = 2.57725985D-01-5.42367357D-01-1.29587572D-05
 Polarizability= 0.00000000D+00 0.00000000D+00 0.00000000D+00
                 0.00000000D+00 0.00000000D+00 0.00000000D+00
 -------------------------------------------------------------------
 Center     Atomic                   Forces (Hartrees/Bohr)
 Number     Number              X              Y              Z
 -------------------------------------------------------------------
      1        6          -0.008011164   -0.001472983   -0.000000221
      2        8          -0.000232528    0.003069563   -0.000000930
      3        1           0.002711017   -0.001872091    0.002672703
      4        1           0.001363588    0.003139711   -0.000000159
      5        1           0.002711544   -0.001872929   -0.002672346
      6        1           0.001457543   -0.000991270    0.000000953
 -------------------------------------------------------------------
 Cartesian Forces:  Max     0.008011164 RMS     0.002652550
 Force constants in Cartesian coordinates: 
                1             2             3             4             5 
      1  0.468868D+00
      2  0.239794D-01  0.610277D+00
      3  0.000000D+00 -0.226648D-05  0.568015D+00
      4 -0.233489D+00  0.402324D-01  0.000000D+00  0.438548D+00
      5 -0.878603D-02 -0.962775D-01  0.000000D+00  0.149133D+00  0.530579D+00
      6 -0.230897D-05  0.000000D+00 -0.606001D-01  0.295024D-05  0.226862D-05
      7 -0.665521D-01  0.306795D-01 -0.561407D-01 -0.318976D-01  0.197331D-01
      8  0.340452D-01 -0.111879D+00  0.101402D+00  0.570768D-02  0.318205D-02
      9 -0.585122D-01  0.102663D+00 -0.227843D+00 -0.555878D-02 -0.225880D-02
     10 -0.773346D-01 -0.821334D-01  0.173226D-04 -0.273213D-01 -0.366788D-01
     11 -0.948572D-01 -0.293106D+00  0.497459D-04 -0.154281D-02  0.795138D-02
     12  0.195240D-04  0.501622D-04 -0.498582D-01  0.000000D+00 -0.135546D-05
     13 -0.665490D-01  0.306972D-01  0.561221D-01 -0.318962D-01  0.197448D-01
     14  0.340656D-01 -0.111958D+00 -0.101449D+00  0.570797D-02  0.318100D-02
     15  0.584939D-01 -0.102711D+00 -0.227771D+00  0.555681D-02  0.226003D-02
     16 -0.249427D-01 -0.434550D-01  0.000000D+00 -0.113943D+00 -0.143146D+00
     17  0.115530D-01  0.294321D-02  0.000000D+00 -0.199238D+00 -0.448616D+00
     18  0.113305D-05  0.117212D-05 -0.194213D-02 -0.163499D-05 -0.231687D-05
                6             7             8             9            10 
      6  0.437729D-01
      7 -0.290652D-01  0.856856D-01
      8  0.143284D-02 -0.430574D-01  0.112951D+00
      9  0.831284D-02  0.699974D-01 -0.113441D+00  0.240182D+00
     10  0.458279D-05  0.528556D-02  0.800438D-02  0.885683D-03  0.101643D+00
     11 -0.172293D-05 -0.426952D-02 -0.132782D-01 -0.109143D-02  0.102426D+00
     12  0.204821D-02  0.945016D-02  0.262775D-01  0.789604D-03 -0.203518D-04
     13  0.290603D-01  0.560781D-02 -0.455000D-02 -0.597486D-02  0.528499D-02
     14 -0.143173D-02 -0.454708D-02  0.840227D-02  0.142074D-01  0.800365D-02
     15  0.830963D-02  0.597572D-02 -0.142191D-01 -0.219285D-01 -0.889129D-03
     16  0.000000D+00  0.187074D-02 -0.149902D-03 -0.837260D-03 -0.755744D-02
     17  0.000000D+00  0.146143D-02  0.621573D-03 -0.793141D-04  0.378461D-03
     18 -0.184348D-02 -0.217347D-03 -0.145218D-02  0.487994D-03  0.189153D-05
               11            12            13            14            15 
     11  0.309287D+00
     12 -0.541553D-04  0.457882D-01
     13 -0.427318D-02 -0.944906D-02  0.856800D-01
     14 -0.132876D-01 -0.262720D-01 -0.430806D-01  0.113039D+00
     15  0.109728D-02  0.800101D-03 -0.699749D-01  0.113493D+00  0.240102D+00
     16  0.251699D-02  0.000000D+00  0.187237D-02 -0.149532D-03  0.837640D-03
     17  0.243275D-02  0.000000D+00  0.146177D-02  0.622956D-03  0.795602D-04
     18  0.000000D+00  0.432032D-03  0.216379D-03  0.145246D-02  0.488548D-03
               16            17            18 
     16  0.142700D+00
     17  0.184383D+00  0.441996D+00
     18  0.000000D+00  0.000000D+00  0.237704D-02
 FormGI is forming the generalized inverse of G from B-inverse, IUseBI=4.
 Force constants in internal coordinates: 
                1             2             3             4             5 
      1  0.352323D+00
      2  0.179775D-01  0.333767D+00
      3  0.120369D-01  0.322309D-02  0.351296D+00
      4  0.179753D-01  0.421425D-02  0.322257D-02  0.333771D+00
      5 -0.270269D-02 -0.110690D-03 -0.193008D-02 -0.109864D-03  0.529684D+00
      6  0.272333D-01 -0.152310D-02 -0.479509D-02 -0.469276D-02 -0.390441D-02
      7  0.293452D-01 -0.462520D-02  0.282266D-02 -0.462529D-02  0.750864D-02
      8  0.272318D-01 -0.469233D-02 -0.479501D-02 -0.152271D-02 -0.390665D-02
      9 -0.286836D-01  0.824073D-02  0.650142D-02 -0.590477D-02 -0.347354D-03
     10 -0.291625D-01  0.846538D-02 -0.520626D-02  0.846536D-02  0.127229D-02
     11 -0.286828D-01 -0.590512D-02  0.650121D-02  0.824062D-02 -0.346708D-03
     12  0.510298D-01  0.801990D-04  0.277534D-02  0.791724D-04  0.163978D-01
     13 -0.113703D-02  0.521773D-03  0.697505D-02 -0.699339D-02  0.206891D-02
     14  0.000000D+00 -0.575909D-02  0.000000D+00  0.575837D-02  0.000000D+00
     15  0.113927D-02  0.699266D-02 -0.697392D-02 -0.522538D-03 -0.207003D-02
                6             7             8             9            10 
      6  0.138409D+00
      7 -0.300123D-01  0.139546D+00
      8 -0.333554D-01 -0.300116D-01  0.138409D+00
      9 -0.360482D-01 -0.387770D-01 -0.234590D-02  0.716888D-01
     10 -0.406069D-01 -0.133925D-02 -0.406071D-01  0.481191D-02  0.735210D-01
     11 -0.234607D-02 -0.387757D-01 -0.360483D-01  0.428382D-02  0.481210D-02
     12 -0.605240D-02  0.208129D-01 -0.605658D-02 -0.510165D-02  0.168695D-02
     13 -0.353256D-02  0.231861D-01 -0.213525D-01  0.218770D-01 -0.179787D-01
     14 -0.192073D-01  0.197484D-05  0.192062D-01 -0.207617D-01  0.000000D+00
     15  0.213513D-01 -0.231830D-01  0.353177D-02 -0.356252D-03  0.179783D-01
               11            12            13            14            15 
     11  0.716877D-01
     12 -0.510075D-02  0.181822D+00
     13  0.355830D-03  0.339617D-02  0.280331D-01
     14  0.207610D-01  0.000000D+00 -0.111519D-01  0.250266D-01
     15 -0.218775D-01 -0.339407D-02 -0.140176D-01 -0.111526D-01  0.280312D-01
 Leave Link  716 at Sun Aug 16 01:38:49 2020, MaxMem=  4831838208 cpu:               0.3 elap:               0.1
 (Enter /gpfs/apps/medsci/stacks/noOS/software/gaussian/g16.a03.avx2/g16/l103.exe)

 GradGradGradGradGradGradGradGradGradGradGradGradGradGradGradGradGradGrad
 Berny optimization.
 Red2BG is reusing G-inverse.
 Internal  Forces:  Max     0.003963787 RMS     0.002090153
 Search for a local minimum.
 Step number   1 out of a maximum of  100
 All quantities printed in internal units (Hartrees-Bohrs-Radians)
 RMS Force = .20902D-02 SwitMx=.10000D-02 MixMth= 1
 Mixed Optimization -- RFO/linear search
 Second derivative matrix not updated -- analytic derivatives used.
 The second derivative matrix:
                          R1        R2        R3        R4        R5
           R1           0.35232
           R2           0.01798   0.33377
           R3           0.01204   0.00322   0.35130
           R4           0.01798   0.00421   0.00322   0.33377
           R5          -0.00270  -0.00011  -0.00193  -0.00011   0.52968
           A1           0.02723  -0.00152  -0.00480  -0.00469  -0.00390
           A2           0.02935  -0.00463   0.00282  -0.00463   0.00751
           A3           0.02723  -0.00469  -0.00480  -0.00152  -0.00391
           A4          -0.02868   0.00824   0.00650  -0.00590  -0.00035
           A5          -0.02916   0.00847  -0.00521   0.00847   0.00127
           A6          -0.02868  -0.00591   0.00650   0.00824  -0.00035
           A7           0.05103   0.00008   0.00278   0.00008   0.01640
           D1          -0.00114   0.00052   0.00698  -0.00699   0.00207
           D2           0.00000  -0.00576   0.00000   0.00576  -0.00000
           D3           0.00114   0.00699  -0.00697  -0.00052  -0.00207
                          A1        A2        A3        A4        A5
           A1           0.13841
           A2          -0.03001   0.13955
           A3          -0.03336  -0.03001   0.13841
           A4          -0.03605  -0.03878  -0.00235   0.07169
           A5          -0.04061  -0.00134  -0.04061   0.00481   0.07352
           A6          -0.00235  -0.03878  -0.03605   0.00428   0.00481
           A7          -0.00605   0.02081  -0.00606  -0.00510   0.00169
           D1          -0.00353   0.02319  -0.02135   0.02188  -0.01798
           D2          -0.01921   0.00000   0.01921  -0.02076   0.00000
           D3           0.02135  -0.02318   0.00353  -0.00036   0.01798
                          A6        A7        D1        D2        D3
           A6           0.07169
           A7          -0.00510   0.18182
           D1           0.00036   0.00340   0.02803
           D2           0.02076   0.00000  -0.01115   0.02503
           D3          -0.02188  -0.00339  -0.01402  -0.01115   0.02803
 ITU=  0
     Eigenvalues ---    0.00280   0.08907   0.08911   0.13082   0.15649
     Eigenvalues ---    0.18495   0.20153   0.33094   0.33313   0.34984
     Eigenvalues ---    0.39751   0.53082
 RFO step:  Lambda=-2.66023138D-04 EMin= 2.79954650D-03
 Linear search not attempted -- first point.
 Iteration  1 RMS(Cart)=  0.00701831 RMS(Int)=  0.00005596
 Iteration  2 RMS(Cart)=  0.00004954 RMS(Int)=  0.00002846
 Iteration  3 RMS(Cart)=  0.00000000 RMS(Int)=  0.00002846
 ITry= 1 IFail=0 DXMaxC= 1.57D-02 DCOld= 1.00D+10 DXMaxT= 3.00D-01 DXLimC= 3.00D+00 Rises=F
 Variable       Old X    -DE/DX   Delta X   Delta X   Delta X     New X
                                 (Linear)    (Quad)   (Total)
    R1        2.68082  -0.00101   0.00000  -0.00640  -0.00640   2.67442
    R2        2.06663   0.00396   0.00000   0.01252   0.01252   2.07915
    R3        2.05588   0.00342   0.00000   0.01033   0.01033   2.06620
    R4        2.06663   0.00396   0.00000   0.01253   0.01253   2.07915
    R5        1.81532   0.00030   0.00000   0.00125   0.00125   1.81657
    A1        1.95554   0.00186   0.00000   0.01232   0.01227   1.96781
    A2        1.86568  -0.00070   0.00000   0.00076   0.00074   1.86642
    A3        1.95553   0.00186   0.00000   0.01232   0.01227   1.96781
    A4        1.89147  -0.00078   0.00000  -0.00721  -0.00723   1.88424
    A5        1.90184  -0.00158   0.00000  -0.01195  -0.01202   1.88983
    A6        1.89146  -0.00078   0.00000  -0.00720  -0.00722   1.88424
    A7        1.89751  -0.00315   0.00000  -0.01531  -0.01531   1.88219
    D1       -1.07217  -0.00034   0.00000  -0.00114  -0.00118  -1.07335
    D2        3.14139   0.00000   0.00000   0.00019   0.00019   3.14158
    D3        1.07178   0.00034   0.00000   0.00151   0.00155   1.07333
         Item               Value     Threshold  Converged?
 Maximum Force            0.003964     0.000015     NO 
 RMS     Force            0.002090     0.000010     NO 
 Maximum Displacement     0.015695     0.000060     NO 
 RMS     Displacement     0.007022     0.000040     NO 
 Predicted change in Energy=-1.331783D-04
 Lowest energy point so far.  Saving SCF results.
 GradGradGradGradGradGradGradGradGradGradGradGradGradGradGradGradGradGrad

 Leave Link  103 at Sun Aug 16 01:38:49 2020, MaxMem=  4831838208 cpu:               0.1 elap:               0.0
 (Enter /gpfs/apps/medsci/stacks/noOS/software/gaussian/g16.a03.avx2/g16/l202.exe)
                          Input orientation:                          
 ---------------------------------------------------------------------
 Center     Atomic      Atomic             Coordinates (Angstroms)
 Number     Number       Type             X           Y           Z
 ---------------------------------------------------------------------
      1          6           0        0.656286   -0.021233   -0.000014
      2          8           0       -0.751110    0.127559   -0.000060
      3          1           0        1.028434   -0.547313    0.891768
      4          1           0        1.083036    0.985435   -0.000184
      5          1           0        1.028459   -0.547623   -0.891603
      6          1           0       -1.140210   -0.751459    0.000081
 ---------------------------------------------------------------------
                    Distance matrix (angstroms):
                    1          2          3          4          5
     1  C    0.000000
     2  O    1.415240   0.000000
     3  H    1.100241   2.101806   0.000000
     4  H    1.093388   2.024856   1.774226   0.000000
     5  H    1.100241   2.101805   1.783371   1.774225   0.000000
     6  H    1.939234   0.961286   2.353678   2.821280   2.353672
                    6
     6  H    0.000000
 Symmetry turned off by external request.
 Stoichiometry    CH4O
 Framework group  C1[X(CH4O)]
 Deg. of freedom    12
 Full point group                 C1      NOp   1
 Rotational constants (GHZ):         127.9027385          24.8694777          23.9888665
 Leave Link  202 at Sun Aug 16 01:38:49 2020, MaxMem=  4831838208 cpu:               0.2 elap:               0.0
 (Enter /gpfs/apps/medsci/stacks/noOS/software/gaussian/g16.a03.avx2/g16/l301.exe)
 Standard basis: GTBas3 (6D, 7F)
 Ernie: Thresh=  0.10000D-02 Tol=  0.10000D-05 Strict=F.
    76 basis functions,   116 primitive gaussians,    82 cartesian basis functions
     9 alpha electrons        9 beta electrons
       nuclear repulsion energy        40.3140461309 Hartrees.
 IExCor=  402 DFT=T Ex+Corr=B3LYP ExCW=0 ScaHFX=  0.200000
 ScaDFX=  0.800000  0.720000  1.000000  0.810000 ScalE2=  1.000000  1.000000
 IRadAn=      5 IRanWt=     -1 IRanGd=            0 ICorTp=0 IEmpDi=  4
 NAtoms=    6 NActive=    6 NUniq=    6 SFac= 1.00D+00 NAtFMM=   60 NAOKFM=F Big=F
 Integral buffers will be    131072 words long.
 Raffenetti 2 integral format.
 Two-electron integral symmetry is turned off.
 Leave Link  301 at Sun Aug 16 01:38:49 2020, MaxMem=  4831838208 cpu:               0.4 elap:               0.1
 (Enter /gpfs/apps/medsci/stacks/noOS/software/gaussian/g16.a03.avx2/g16/l302.exe)
 NPDir=0 NMtPBC=     1 NCelOv=     1 NCel=       1 NClECP=     1 NCelD=      1
         NCelK=      1 NCelE2=     1 NClLst=     1 CellRange=     0.0.
 One-electron integrals computed using PRISM.
 NBasis=    76 RedAO= T EigKep=  1.52D-03  NBF=    76
 NBsUse=    76 1.00D-06 EigRej= -1.00D+00 NBFU=    76
 Precomputing XC quadrature grid using
 IXCGrd= 4 IRadAn=           5 IRanWt=          -1 IRanGd=           0 AccXCQ= 1.00D-12.
 Generated NRdTot=       0 NPtTot=           0 NUsed=           0 NTot=          32
 NSgBfM=    82    82    82    82    82 MxSgAt=     6 MxSgA2=     6.
 Leave Link  302 at Sun Aug 16 01:38:49 2020, MaxMem=  4831838208 cpu:               2.6 elap:               0.4
 (Enter /gpfs/apps/medsci/stacks/noOS/software/gaussian/g16.a03.avx2/g16/l303.exe)
 DipDrv:  MaxL=1.
 Leave Link  303 at Sun Aug 16 01:38:49 2020, MaxMem=  4831838208 cpu:               0.7 elap:               0.1
 (Enter /gpfs/apps/medsci/stacks/noOS/software/gaussian/g16.a03.avx2/g16/l401.exe)
 Initial guess from the checkpoint file:  "check.chk"
 B after Tr=    -0.007501    0.003371   -0.000053
         Rot=    1.000000    0.000007    0.000010    0.000975 Ang=   0.11 deg.
 Guess basis will be translated and rotated to current coordinates.
 JPrj=2 DoOrth=T DoCkMO=T.
 Leave Link  401 at Sun Aug 16 01:38:50 2020, MaxMem=  4831838208 cpu:               1.1 elap:               0.2
 (Enter /gpfs/apps/medsci/stacks/noOS/software/gaussian/g16.a03.avx2/g16/l502.exe)
 Keep R1 ints in memory in canonical form, NReq=11518793.
 FoFCou: FMM=F IPFlag=           0 FMFlag=           0 FMFlg1=           0
         NFxFlg=           0 DoJE=F BraDBF=F KetDBF=F FulRan=T
         wScrn=  0.000000 ICntrl=       600 IOpCl=  0 I1Cent=           0 NGrid=           0
         NMat0=    1 NMatS0=   2926 NMatT0=    0 NMatD0=    1 NMtDS0=    0 NMtDT0=    0
 Symmetry not used in FoFCou.
 Two-electron integral symmetry not used.
 Closed shell SCF:
 Using DIIS extrapolation, IDIIS=  1040.
 NGot=  4831838208 LenX=  4827541135 LenY=  4827533970
 Requested convergence on RMS density matrix=1.00D-08 within  32 cycles.
 Requested convergence on MAX density matrix=1.00D-06.
 Requested convergence on             energy=1.00D-06.
 No special actions if energy rises.

 Cycle   1  Pass 1  IDiag  1:
 E= -115.730292686708    
 DIIS: error= 7.29D-04 at cycle   1 NSaved=   1.
 NSaved= 1 IEnMin= 1 EnMin= -115.730292686708     IErMin= 1 ErrMin= 7.29D-04
 ErrMax= 7.29D-04  0.00D+00 EMaxC= 1.00D-01 BMatC= 4.30D-05 BMatP= 4.30D-05
 IDIUse=3 WtCom= 9.93D-01 WtEn= 7.29D-03
 Coeff-Com:  0.100D+01
 Coeff-En:   0.100D+01
 Coeff:      0.100D+01
 Gap=     1.123 Goal=   None    Shift=    0.000
 RMSDP=1.23D-04 MaxDP=2.14D-03              OVMax= 2.89D-03

 Cycle   2  Pass 1  IDiag  1:
 E= -115.730337956608     Delta-E=       -0.000045269900 Rises=F Damp=F
 DIIS: error= 3.94D-04 at cycle   2 NSaved=   2.
 NSaved= 2 IEnMin= 2 EnMin= -115.730337956608     IErMin= 2 ErrMin= 3.94D-04
 ErrMax= 3.94D-04  0.00D+00 EMaxC= 1.00D-01 BMatC= 7.53D-06 BMatP= 4.30D-05
 IDIUse=3 WtCom= 9.96D-01 WtEn= 3.94D-03
 Coeff-Com:  0.192D+00 0.808D+00
 Coeff-En:   0.000D+00 0.100D+01
 Coeff:      0.191D+00 0.809D+00
 Gap=     0.344 Goal=   None    Shift=    0.000
 RMSDP=4.83D-05 MaxDP=1.07D-03 DE=-4.53D-05 OVMax= 1.30D-03

 Cycle   3  Pass 1  IDiag  1:
 E= -115.730340274115     Delta-E=       -0.000002317507 Rises=F Damp=F
 DIIS: error= 2.78D-04 at cycle   3 NSaved=   3.
 NSaved= 3 IEnMin= 3 EnMin= -115.730340274115     IErMin= 3 ErrMin= 2.78D-04
 ErrMax= 2.78D-04  0.00D+00 EMaxC= 1.00D-01 BMatC= 5.44D-06 BMatP= 7.53D-06
 IDIUse=3 WtCom= 9.97D-01 WtEn= 2.78D-03
 Coeff-Com: -0.114D-01 0.460D+00 0.551D+00
 Coeff-En:   0.000D+00 0.407D+00 0.593D+00
 Coeff:     -0.113D-01 0.460D+00 0.551D+00
 Gap=     0.344 Goal=   None    Shift=    0.000
 RMSDP=2.15D-05 MaxDP=4.50D-04 DE=-2.32D-06 OVMax= 5.96D-04

 Cycle   4  Pass 1  IDiag  1:
 E= -115.730344872851     Delta-E=       -0.000004598737 Rises=F Damp=F
 DIIS: error= 3.03D-05 at cycle   4 NSaved=   4.
 NSaved= 4 IEnMin= 4 EnMin= -115.730344872851     IErMin= 4 ErrMin= 3.03D-05
 ErrMax= 3.03D-05  0.00D+00 EMaxC= 1.00D-01 BMatC= 1.21D-07 BMatP= 5.44D-06
 IDIUse=1 WtCom= 1.00D+00 WtEn= 0.00D+00
 Coeff-Com: -0.734D-02 0.207D+00 0.267D+00 0.533D+00
 Coeff:     -0.734D-02 0.207D+00 0.267D+00 0.533D+00
 Gap=     0.344 Goal=   None    Shift=    0.000
 RMSDP=4.21D-06 MaxDP=8.78D-05 DE=-4.60D-06 OVMax= 9.72D-05

 Cycle   5  Pass 1  IDiag  1:
 E= -115.730344957855     Delta-E=       -0.000000085004 Rises=F Damp=F
 DIIS: error= 1.00D-05 at cycle   5 NSaved=   5.
 NSaved= 5 IEnMin= 5 EnMin= -115.730344957855     IErMin= 5 ErrMin= 1.00D-05
 ErrMax= 1.00D-05  0.00D+00 EMaxC= 1.00D-01 BMatC= 8.90D-09 BMatP= 1.21D-07
 IDIUse=1 WtCom= 1.00D+00 WtEn= 0.00D+00
 Coeff-Com: -0.312D-02 0.364D-01 0.525D-01 0.231D+00 0.683D+00
 Coeff:     -0.312D-02 0.364D-01 0.525D-01 0.231D+00 0.683D+00
 Gap=     0.344 Goal=   None    Shift=    0.000
 RMSDP=8.84D-07 MaxDP=1.94D-05 DE=-8.50D-08 OVMax= 2.16D-05

 Cycle   6  Pass 1  IDiag  1:
 E= -115.730344964193     Delta-E=       -0.000000006338 Rises=F Damp=F
 DIIS: error= 9.51D-07 at cycle   6 NSaved=   6.
 NSaved= 6 IEnMin= 6 EnMin= -115.730344964193     IErMin= 6 ErrMin= 9.51D-07
 ErrMax= 9.51D-07  0.00D+00 EMaxC= 1.00D-01 BMatC= 1.06D-10 BMatP= 8.90D-09
 IDIUse=1 WtCom= 1.00D+00 WtEn= 0.00D+00
 Coeff-Com: -0.301D-03 0.205D-03 0.137D-02 0.266D-01 0.150D+00 0.822D+00
 Coeff:     -0.301D-03 0.205D-03 0.137D-02 0.266D-01 0.150D+00 0.822D+00
 Gap=     0.344 Goal=   None    Shift=    0.000
 RMSDP=1.17D-07 MaxDP=1.81D-06 DE=-6.34D-09 OVMax= 3.42D-06

 Cycle   7  Pass 1  IDiag  1:
 E= -115.730344964276     Delta-E=       -0.000000000083 Rises=F Damp=F
 DIIS: error= 1.30D-07 at cycle   7 NSaved=   7.
 NSaved= 7 IEnMin= 7 EnMin= -115.730344964276     IErMin= 7 ErrMin= 1.30D-07
 ErrMax= 1.30D-07  0.00D+00 EMaxC= 1.00D-01 BMatC= 1.72D-12 BMatP= 1.06D-10
 IDIUse=1 WtCom= 1.00D+00 WtEn= 0.00D+00
 Coeff-Com: -0.412D-05-0.506D-03-0.514D-03 0.121D-02 0.118D-01 0.154D+00
 Coeff-Com:  0.834D+00
 Coeff:     -0.412D-05-0.506D-03-0.514D-03 0.121D-02 0.118D-01 0.154D+00
 Coeff:      0.834D+00
 Gap=     0.344 Goal=   None    Shift=    0.000
 RMSDP=1.21D-08 MaxDP=1.37D-07 DE=-8.30D-11 OVMax= 3.57D-07

 Cycle   8  Pass 1  IDiag  1:
 E= -115.730344964277     Delta-E=       -0.000000000001 Rises=F Damp=F
 DIIS: error= 2.45D-08 at cycle   8 NSaved=   8.
 NSaved= 8 IEnMin= 8 EnMin= -115.730344964277     IErMin= 8 ErrMin= 2.45D-08
 ErrMax= 2.45D-08  0.00D+00 EMaxC= 1.00D-01 BMatC= 5.12D-14 BMatP= 1.72D-12
 IDIUse=1 WtCom= 1.00D+00 WtEn= 0.00D+00
 Coeff-Com:  0.959D-05-0.129D-03-0.158D-03-0.734D-03-0.340D-02 0.531D-02
 Coeff-Com:  0.170D+00 0.829D+00
 Coeff:      0.959D-05-0.129D-03-0.158D-03-0.734D-03-0.340D-02 0.531D-02
 Coeff:      0.170D+00 0.829D+00
 Gap=     0.344 Goal=   None    Shift=    0.000
 RMSDP=2.64D-09 MaxDP=2.98D-08 DE=-1.34D-12 OVMax= 7.19D-08

 SCF Done:  E(RB3LYP) =  -115.730344964     A.U. after    8 cycles
            NFock=  8  Conv=0.26D-08     -V/T= 2.0066
 KE= 1.149667472186D+02 PE=-3.520577723376D+02 EE= 8.104663402388D+01
 Leave Link  502 at Sun Aug 16 01:38:51 2020, MaxMem=  4831838208 cpu:               7.0 elap:               1.0
 (Enter /gpfs/apps/medsci/stacks/noOS/software/gaussian/g16.a03.avx2/g16/l508.exe)
 QCSCF skips out because SCF is already converged.
 Leave Link  508 at Sun Aug 16 01:38:51 2020, MaxMem=  4831838208 cpu:               0.0 elap:               0.0
 (Enter /gpfs/apps/medsci/stacks/noOS/software/gaussian/g16.a03.avx2/g16/l701.exe)
 ... and contract with generalized density number  0.
 Compute integral first derivatives.
 Leave Link  701 at Sun Aug 16 01:38:51 2020, MaxMem=  4831838208 cpu:               1.8 elap:               0.2
 (Enter /gpfs/apps/medsci/stacks/noOS/software/gaussian/g16.a03.avx2/g16/l702.exe)
 L702 exits ... SP integral derivatives will be done elsewhere.
 Leave Link  702 at Sun Aug 16 01:38:51 2020, MaxMem=  4831838208 cpu:               0.3 elap:               0.1
 (Enter /gpfs/apps/medsci/stacks/noOS/software/gaussian/g16.a03.avx2/g16/l703.exe)
 Integral derivatives from FoFJK, PRISM(SPDF).
 Compute integral first derivatives, UseDBF=F ICtDFT=           0.
 Calling FoFJK, ICntrl=      2127 FMM=F ISym2X=0 I1Cent= 0 IOpClX= 0 NMat=1 NMatS=1 NMatT=0.
 FoFJK:  IHMeth= 1 ICntrl=    2127 DoSepK=F KAlg= 0 I1Cent=           0 FoldK=F
 IRaf=         0 NMat=       1 IRICut=       1 DoRegI=T DoRafI=F ISym2E= 0 IDoP0=0 IntGTp=1.
 FoFCou: FMM=F IPFlag=           0 FMFlag=      100000 FMFlg1=         800
         NFxFlg=           0 DoJE=F BraDBF=F KetDBF=F FulRan=T
         wScrn=  0.000000 ICntrl=      2127 IOpCl=  0 I1Cent=           0 NGrid=           0
         NMat0=    1 NMatS0=      1 NMatT0=    0 NMatD0=    1 NMtDS0=    0 NMtDT0=    0
 Symmetry not used in FoFCou.
 Leave Link  703 at Sun Aug 16 01:38:52 2020, MaxMem=  4831838208 cpu:               5.0 elap:               0.6
 (Enter /gpfs/apps/medsci/stacks/noOS/software/gaussian/g16.a03.avx2/g16/l716.exe)
 Dipole        = 2.52050797D-01-5.44303955D-01 9.37958259D-05
 -------------------------------------------------------------------
 Center     Atomic                   Forces (Hartrees/Bohr)
 Number     Number              X              Y              Z
 -------------------------------------------------------------------
      1        6          -0.000068467    0.000017627    0.000000017
      2        8          -0.000032545   -0.000000524   -0.000000012
      3        1           0.000042494   -0.000034660    0.000063384
      4        1           0.000032872    0.000052246   -0.000000003
      5        1           0.000042561   -0.000034682   -0.000063419
      6        1          -0.000016914   -0.000000007    0.000000033
 -------------------------------------------------------------------
 Cartesian Forces:  Max     0.000068467 RMS     0.000036678
 Leave Link  716 at Sun Aug 16 01:38:52 2020, MaxMem=  4831838208 cpu:               0.2 elap:               0.1
 (Enter /gpfs/apps/medsci/stacks/noOS/software/gaussian/g16.a03.avx2/g16/l103.exe)

 GradGradGradGradGradGradGradGradGradGradGradGradGradGradGradGradGradGrad
 Berny optimization.
 Using GEDIIS/GDIIS optimizer.
 FormGI is forming the generalized inverse of G from B-inverse, IUseBI=4.
 Internal  Forces:  Max     0.000082421 RMS     0.000038155
 Search for a local minimum.
 Step number   2 out of a maximum of  100
 All quantities printed in internal units (Hartrees-Bohrs-Radians)
 RMS Force = .38155D-04 SwitMx=.10000D-02 MixMth= 2
 Mixed Optimization -- En-DIIS/RFO-DIIS
 Update second derivatives using D2CorX and points    1    2
 DE= -1.34D-04 DEPred=-1.33D-04 R= 1.01D+00
 TightC=F SS=  1.41D+00  RLast= 3.54D-02 DXNew= 5.0454D-01 1.0614D-01
 Trust test= 1.01D+00 RLast= 3.54D-02 DXMaxT set to 3.00D-01
 The second derivative matrix:
                          R1        R2        R3        R4        R5
           R1           0.35276
           R2           0.01739   0.33196
           R3           0.01149   0.00181   0.35020
           R4           0.01739   0.00240   0.00181   0.33196
           R5          -0.00275  -0.00025  -0.00204  -0.00025   0.52967
           A1           0.02687  -0.00203  -0.00516  -0.00520  -0.00395
           A2           0.02953  -0.00459   0.00283  -0.00459   0.00751
           A3           0.02686  -0.00520  -0.00516  -0.00203  -0.00395
           A4          -0.02856   0.00856   0.00674  -0.00559  -0.00032
           A5          -0.02884   0.00886  -0.00492   0.00887   0.00130
           A6          -0.02856  -0.00559   0.00674   0.00856  -0.00032
           A7           0.05188   0.00011   0.00268   0.00011   0.01640
           D1          -0.00108   0.00064   0.00707  -0.00687   0.00208
           D2           0.00000  -0.00576   0.00000   0.00576  -0.00000
           D3           0.00108   0.00687  -0.00706  -0.00064  -0.00208
                          A1        A2        A3        A4        A5
           A1           0.13833
           A2          -0.03006   0.13959
           A3          -0.03343  -0.03006   0.13833
           A4          -0.03597  -0.03878  -0.00227   0.07163
           A5          -0.04056  -0.00129  -0.04056   0.00475   0.07349
           A6          -0.00227  -0.03878  -0.03597   0.00423   0.00475
           A7          -0.00632   0.02104  -0.00632  -0.00508   0.00194
           D1          -0.00351   0.02319  -0.02133   0.02186  -0.01800
           D2          -0.01921   0.00000   0.01921  -0.02076  -0.00000
           D3           0.02133  -0.02319   0.00351  -0.00034   0.01800
                          A6        A7        D1        D2        D3
           A6           0.07163
           A7          -0.00507   0.18295
           D1           0.00034   0.00342   0.02803
           D2           0.02076  -0.00000  -0.01115   0.02503
           D3          -0.02186  -0.00342  -0.01401  -0.01115   0.02802
 ITU=  1  0
 Use linear search instead of GDIIS.
     Eigenvalues ---    0.00280   0.08907   0.08911   0.13046   0.15683
     Eigenvalues ---    0.18495   0.20202   0.33078   0.33094   0.34936
     Eigenvalues ---    0.39642   0.53082
 RFO step:  Lambda=-3.77212255D-08 EMin= 2.79954690D-03
 Quartic linear search produced a step of  0.01057.
 Iteration  1 RMS(Cart)=  0.00015181 RMS(Int)=  0.00000030
 Iteration  2 RMS(Cart)=  0.00000001 RMS(Int)=  0.00000030
 ITry= 1 IFail=0 DXMaxC= 3.46D-04 DCOld= 1.00D+10 DXMaxT= 3.00D-01 DXLimC= 3.00D+00 Rises=F
 Variable       Old X    -DE/DX   Delta X   Delta X   Delta X     New X
                                 (Linear)    (Quad)   (Total)
    R1        2.67442   0.00005  -0.00007   0.00011   0.00004   2.67446
    R2        2.07915   0.00008   0.00013   0.00012   0.00025   2.07940
    R3        2.06620   0.00006   0.00011   0.00007   0.00018   2.06638
    R4        2.07915   0.00008   0.00013   0.00012   0.00025   2.07940
    R5        1.81657   0.00001   0.00001  -0.00000   0.00001   1.81658
    A1        1.96781   0.00002   0.00013  -0.00001   0.00012   1.96793
    A2        1.86642   0.00001   0.00001   0.00002   0.00003   1.86645
    A3        1.96781   0.00002   0.00013  -0.00001   0.00012   1.96793
    A4        1.88424  -0.00001  -0.00008  -0.00003  -0.00010   1.88414
    A5        1.88983  -0.00001  -0.00013   0.00005  -0.00008   1.88974
    A6        1.88424  -0.00001  -0.00008  -0.00003  -0.00010   1.88414
    A7        1.88219   0.00003  -0.00016   0.00030   0.00014   1.88233
    D1       -1.07335  -0.00000  -0.00001  -0.00002  -0.00003  -1.07338
    D2        3.14158   0.00000   0.00000   0.00001   0.00001  -3.14159
    D3        1.07333   0.00000   0.00002   0.00003   0.00005   1.07338
         Item               Value     Threshold  Converged?
 Maximum Force            0.000082     0.000015     NO 
 RMS     Force            0.000038     0.000010     NO 
 Maximum Displacement     0.000346     0.000060     NO 
 RMS     Displacement     0.000152     0.000040     NO 
 Predicted change in Energy=-3.332899D-08
 Lowest energy point so far.  Saving SCF results.
 GradGradGradGradGradGradGradGradGradGradGradGradGradGradGradGradGradGrad

 Leave Link  103 at Sun Aug 16 01:38:52 2020, MaxMem=  4831838208 cpu:               0.4 elap:               0.1
 (Enter /gpfs/apps/medsci/stacks/noOS/software/gaussian/g16.a03.avx2/g16/l202.exe)
                          Input orientation:                          
 ---------------------------------------------------------------------
 Center     Atomic      Atomic             Coordinates (Angstroms)
 Number     Number       Type             X           Y           Z
 ---------------------------------------------------------------------
      1          6           0        0.656246   -0.021246   -0.000015
      2          8           0       -0.751175    0.127537   -0.000063
      3          1           0        1.028569   -0.547340    0.891848
      4          1           0        1.083052    0.985500   -0.000183
      5          1           0        1.028597   -0.547649   -0.891684
      6          1           0       -1.140393   -0.751435    0.000084
 ---------------------------------------------------------------------
                    Distance matrix (angstroms):
                    1          2          3          4          5
     1  C    0.000000
     2  O    1.415263   0.000000
     3  H    1.100373   2.102012   0.000000
     4  H    1.093481   2.024967   1.774341   0.000000
     5  H    1.100373   2.102012   1.783532   1.774341   0.000000
     6  H    1.939352   0.961292   2.353995   2.821462   2.353996
                    6
     6  H    0.000000
 Symmetry turned off by external request.
 Stoichiometry    CH4O
 Framework group  C1[X(CH4O)]
 Deg. of freedom    12
 Full point group                 C1      NOp   1
 Rotational constants (GHZ):         127.8899922          24.8669840          23.9867581
 Leave Link  202 at Sun Aug 16 01:38:52 2020, MaxMem=  4831838208 cpu:               0.3 elap:               0.1
 (Enter /gpfs/apps/medsci/stacks/noOS/software/gaussian/g16.a03.avx2/g16/l301.exe)
 Standard basis: GTBas3 (6D, 7F)
 Ernie: Thresh=  0.10000D-02 Tol=  0.10000D-05 Strict=F.
    76 basis functions,   116 primitive gaussians,    82 cartesian basis functions
     9 alpha electrons        9 beta electrons
       nuclear repulsion energy        40.3120344519 Hartrees.
 IExCor=  402 DFT=T Ex+Corr=B3LYP ExCW=0 ScaHFX=  0.200000
 ScaDFX=  0.800000  0.720000  1.000000  0.810000 ScalE2=  1.000000  1.000000
 IRadAn=      5 IRanWt=     -1 IRanGd=            0 ICorTp=0 IEmpDi=  4
 NAtoms=    6 NActive=    6 NUniq=    6 SFac= 1.00D+00 NAtFMM=   60 NAOKFM=F Big=F
 Integral buffers will be    131072 words long.
 Raffenetti 2 integral format.
 Two-electron integral symmetry is turned off.
 Leave Link  301 at Sun Aug 16 01:38:52 2020, MaxMem=  4831838208 cpu:               0.5 elap:               0.1
 (Enter /gpfs/apps/medsci/stacks/noOS/software/gaussian/g16.a03.avx2/g16/l302.exe)
 NPDir=0 NMtPBC=     1 NCelOv=     1 NCel=       1 NClECP=     1 NCelD=      1
         NCelK=      1 NCelE2=     1 NClLst=     1 CellRange=     0.0.
 One-electron integrals computed using PRISM.
 NBasis=    76 RedAO= T EigKep=  1.52D-03  NBF=    76
 NBsUse=    76 1.00D-06 EigRej= -1.00D+00 NBFU=    76
 Precomputing XC quadrature grid using
 IXCGrd= 4 IRadAn=           5 IRanWt=          -1 IRanGd=           0 AccXCQ= 1.00D-12.
 Generated NRdTot=       0 NPtTot=           0 NUsed=           0 NTot=          32
 NSgBfM=    82    82    82    82    82 MxSgAt=     6 MxSgA2=     6.
 Leave Link  302 at Sun Aug 16 01:38:53 2020, MaxMem=  4831838208 cpu:               3.4 elap:               0.7
 (Enter /gpfs/apps/medsci/stacks/noOS/software/gaussian/g16.a03.avx2/g16/l303.exe)
 DipDrv:  MaxL=1.
 Leave Link  303 at Sun Aug 16 01:38:53 2020, MaxMem=  4831838208 cpu:               0.3 elap:               0.1
 (Enter /gpfs/apps/medsci/stacks/noOS/software/gaussian/g16.a03.avx2/g16/l401.exe)
 Initial guess from the checkpoint file:  "check.chk"
 B after Tr=    -0.000069   -0.000023   -0.000002
         Rot=    1.000000    0.000000    0.000000   -0.000004 Ang=   0.00 deg.
 Guess basis will be translated and rotated to current coordinates.
 JPrj=2 DoOrth=T DoCkMO=T.
 Leave Link  401 at Sun Aug 16 01:38:53 2020, MaxMem=  4831838208 cpu:               2.5 elap:               0.5
 (Enter /gpfs/apps/medsci/stacks/noOS/software/gaussian/g16.a03.avx2/g16/l502.exe)
 Keep R1 ints in memory in canonical form, NReq=11518793.
 FoFCou: FMM=F IPFlag=           0 FMFlag=           0 FMFlg1=           0
         NFxFlg=           0 DoJE=F BraDBF=F KetDBF=F FulRan=T
         wScrn=  0.000000 ICntrl=       600 IOpCl=  0 I1Cent=           0 NGrid=           0
         NMat0=    1 NMatS0=   2926 NMatT0=    0 NMatD0=    1 NMtDS0=    0 NMtDT0=    0
 Symmetry not used in FoFCou.
 Two-electron integral symmetry not used.
 Closed shell SCF:
 Using DIIS extrapolation, IDIIS=  1040.
 NGot=  4831838208 LenX=  4827541135 LenY=  4827533970
 Requested convergence on RMS density matrix=1.00D-08 within  32 cycles.
 Requested convergence on MAX density matrix=1.00D-06.
 Requested convergence on             energy=1.00D-06.
 No special actions if energy rises.

 Cycle   1  Pass 1  IDiag  1:
 E= -115.730344988880    
 DIIS: error= 1.13D-05 at cycle   1 NSaved=   1.
 NSaved= 1 IEnMin= 1 EnMin= -115.730344988880     IErMin= 1 ErrMin= 1.13D-05
 ErrMax= 1.13D-05  0.00D+00 EMaxC= 1.00D-01 BMatC= 8.18D-09 BMatP= 8.18D-09
 IDIUse=1 WtCom= 1.00D+00 WtEn= 0.00D+00
 Coeff-Com:  0.100D+01
 Coeff:      0.100D+01
 Gap=     1.121 Goal=   None    Shift=    0.000
 RMSDP=1.59D-06 MaxDP=3.47D-05              OVMax= 3.82D-05

 Cycle   2  Pass 1  IDiag  1:
 E= -115.730344994825     Delta-E=       -0.000000005945 Rises=F Damp=F
 DIIS: error= 8.24D-06 at cycle   2 NSaved=   2.
 NSaved= 2 IEnMin= 2 EnMin= -115.730344994825     IErMin= 2 ErrMin= 8.24D-06
 ErrMax= 8.24D-06  0.00D+00 EMaxC= 1.00D-01 BMatC= 3.47D-09 BMatP= 8.18D-09
 IDIUse=1 WtCom= 1.00D+00 WtEn= 0.00D+00
 Coeff-Com:  0.356D+00 0.644D+00
 Coeff:      0.356D+00 0.644D+00
 Gap=     0.344 Goal=   None    Shift=    0.000
 RMSDP=8.35D-07 MaxDP=1.87D-05 DE=-5.95D-09 OVMax= 2.33D-05

 Cycle   3  Pass 1  IDiag  1:
 E= -115.730344997345     Delta-E=       -0.000000002519 Rises=F Damp=F
 DIIS: error= 3.15D-06 at cycle   3 NSaved=   3.
 NSaved= 3 IEnMin= 3 EnMin= -115.730344997345     IErMin= 3 ErrMin= 3.15D-06
 ErrMax= 3.15D-06  0.00D+00 EMaxC= 1.00D-01 BMatC= 8.71D-10 BMatP= 3.47D-09
 IDIUse=1 WtCom= 1.00D+00 WtEn= 0.00D+00
 Coeff-Com:  0.666D-02 0.330D+00 0.663D+00
 Coeff:      0.666D-02 0.330D+00 0.663D+00
 Gap=     0.344 Goal=   None    Shift=    0.000
 RMSDP=2.65D-07 MaxDP=5.88D-06 DE=-2.52D-09 OVMax= 7.30D-06

 Cycle   4  Pass 1  IDiag  1:
 E= -115.730344998028     Delta-E=       -0.000000000684 Rises=F Damp=F
 DIIS: error= 6.95D-07 at cycle   4 NSaved=   4.
 NSaved= 4 IEnMin= 4 EnMin= -115.730344998028     IErMin= 4 ErrMin= 6.95D-07
 ErrMax= 6.95D-07  0.00D+00 EMaxC= 1.00D-01 BMatC= 5.02D-11 BMatP= 8.71D-10
 IDIUse=1 WtCom= 1.00D+00 WtEn= 0.00D+00
 Coeff-Com: -0.434D-02 0.160D+00 0.349D+00 0.495D+00
 Coeff:     -0.434D-02 0.160D+00 0.349D+00 0.495D+00
 Gap=     0.344 Goal=   None    Shift=    0.000
 RMSDP=7.66D-08 MaxDP=1.66D-06 DE=-6.84D-10 OVMax= 1.70D-06

 Cycle   5  Pass 1  IDiag  1:
 E= -115.730344998065     Delta-E=       -0.000000000037 Rises=F Damp=F
 DIIS: error= 1.13D-07 at cycle   5 NSaved=   5.
 NSaved= 5 IEnMin= 5 EnMin= -115.730344998065     IErMin= 5 ErrMin= 1.13D-07
 ErrMax= 1.13D-07  0.00D+00 EMaxC= 1.00D-01 BMatC= 1.27D-12 BMatP= 5.02D-11
 IDIUse=1 WtCom= 1.00D+00 WtEn= 0.00D+00
 Coeff-Com: -0.199D-02 0.267D-01 0.586D-01 0.170D+00 0.747D+00
 Coeff:     -0.199D-02 0.267D-01 0.586D-01 0.170D+00 0.747D+00
 Gap=     0.344 Goal=   None    Shift=    0.000
 RMSDP=1.23D-08 MaxDP=2.65D-07 DE=-3.68D-11 OVMax= 3.31D-07

 Cycle   6  Pass 1  IDiag  1:
 E= -115.730344998066     Delta-E=       -0.000000000001 Rises=F Damp=F
 DIIS: error= 2.37D-08 at cycle   6 NSaved=   6.
 NSaved= 6 IEnMin= 6 EnMin= -115.730344998066     IErMin= 6 ErrMin= 2.37D-08
 ErrMax= 2.37D-08  0.00D+00 EMaxC= 1.00D-01 BMatC= 3.84D-14 BMatP= 1.27D-12
 IDIUse=1 WtCom= 1.00D+00 WtEn= 0.00D+00
 Coeff-Com: -0.444D-03-0.135D-02-0.233D-02 0.195D-01 0.208D+00 0.776D+00
 Coeff:     -0.444D-03-0.135D-02-0.233D-02 0.195D-01 0.208D+00 0.776D+00
 Gap=     0.344 Goal=   None    Shift=    0.000
 RMSDP=1.61D-09 MaxDP=1.79D-08 DE=-8.53D-13 OVMax= 5.08D-08

 SCF Done:  E(RB3LYP) =  -115.730344998     A.U. after    6 cycles
            NFock=  6  Conv=0.16D-08     -V/T= 2.0066
 KE= 1.149661743202D+02 PE=-3.520532936652D+02 EE= 8.104473989514D+01
 Leave Link  502 at Sun Aug 16 01:38:54 2020, MaxMem=  4831838208 cpu:               6.3 elap:               1.1
 (Enter /gpfs/apps/medsci/stacks/noOS/software/gaussian/g16.a03.avx2/g16/l508.exe)
 QCSCF skips out because SCF is already converged.
 Leave Link  508 at Sun Aug 16 01:38:54 2020, MaxMem=  4831838208 cpu:               0.2 elap:               0.0
 (Enter /gpfs/apps/medsci/stacks/noOS/software/gaussian/g16.a03.avx2/g16/l701.exe)
 ... and contract with generalized density number  0.
 Compute integral first derivatives.
 Leave Link  701 at Sun Aug 16 01:38:55 2020, MaxMem=  4831838208 cpu:               2.9 elap:               0.5
 (Enter /gpfs/apps/medsci/stacks/noOS/software/gaussian/g16.a03.avx2/g16/l702.exe)
 L702 exits ... SP integral derivatives will be done elsewhere.
 Leave Link  702 at Sun Aug 16 01:38:55 2020, MaxMem=  4831838208 cpu:               0.2 elap:               0.1
 (Enter /gpfs/apps/medsci/stacks/noOS/software/gaussian/g16.a03.avx2/g16/l703.exe)
 Integral derivatives from FoFJK, PRISM(SPDF).
 Compute integral first derivatives, UseDBF=F ICtDFT=           0.
 Calling FoFJK, ICntrl=      2127 FMM=F ISym2X=0 I1Cent= 0 IOpClX= 0 NMat=1 NMatS=1 NMatT=0.
 FoFJK:  IHMeth= 1 ICntrl=    2127 DoSepK=F KAlg= 0 I1Cent=           0 FoldK=F
 IRaf=         0 NMat=       1 IRICut=       1 DoRegI=T DoRafI=F ISym2E= 0 IDoP0=0 IntGTp=1.
 FoFCou: FMM=F IPFlag=           0 FMFlag=      100000 FMFlg1=         800
         NFxFlg=           0 DoJE=F BraDBF=F KetDBF=F FulRan=T
         wScrn=  0.000000 ICntrl=      2127 IOpCl=  0 I1Cent=           0 NGrid=           0
         NMat0=    1 NMatS0=      1 NMatT0=    0 NMatD0=    1 NMtDS0=    0 NMtDT0=    0
 Symmetry not used in FoFCou.
 Leave Link  703 at Sun Aug 16 01:38:56 2020, MaxMem=  4831838208 cpu:               5.5 elap:               1.1
 (Enter /gpfs/apps/medsci/stacks/noOS/software/gaussian/g16.a03.avx2/g16/l716.exe)
 Dipole        = 2.51929292D-01-5.44265417D-01 9.84232729D-05
 -------------------------------------------------------------------
 Center     Atomic                   Forces (Hartrees/Bohr)
 Number     Number              X              Y              Z
 -------------------------------------------------------------------
      1        6          -0.000001190    0.000000906    0.000000001
      2        8           0.000000101   -0.000000303    0.000000012
      3        1           0.000000413   -0.000000513    0.000001269
      4        1          -0.000000019    0.000000665   -0.000000001
      5        1           0.000000415   -0.000000517   -0.000001271
      6        1           0.000000281   -0.000000239   -0.000000009
 -------------------------------------------------------------------
 Cartesian Forces:  Max     0.000001271 RMS     0.000000624
 Leave Link  716 at Sun Aug 16 01:38:56 2020, MaxMem=  4831838208 cpu:               0.2 elap:               0.0
 (Enter /gpfs/apps/medsci/stacks/noOS/software/gaussian/g16.a03.avx2/g16/l103.exe)

 GradGradGradGradGradGradGradGradGradGradGradGradGradGradGradGradGradGrad
 Berny optimization.
 Using GEDIIS/GDIIS optimizer.
 FormGI is forming the generalized inverse of G from B-inverse, IUseBI=4.
 Internal  Forces:  Max     0.000001457 RMS     0.000000568
 Search for a local minimum.
 Step number   3 out of a maximum of  100
 All quantities printed in internal units (Hartrees-Bohrs-Radians)
 RMS Force = .56839D-06 SwitMx=.10000D-02 MixMth= 2
 Mixed Optimization -- En-DIIS/RFO-DIIS
 Swapping is turned off.
 Update second derivatives using D2CorX and points    1    2    3
 DE= -3.38D-08 DEPred=-3.33D-08 R= 1.01D+00
 Trust test= 1.01D+00 RLast= 4.89D-04 DXMaxT set to 3.00D-01
 The second derivative matrix:
                          R1        R2        R3        R4        R5
           R1           0.35390
           R2           0.01752   0.32915
           R3           0.01195   0.00035   0.34958
           R4           0.01751  -0.00041   0.00034   0.32914
           R5          -0.00257  -0.00021  -0.00196  -0.00021   0.52970
           A1           0.02701  -0.00243  -0.00532  -0.00560  -0.00392
           A2           0.02952  -0.00479   0.00272  -0.00479   0.00751
           A3           0.02701  -0.00560  -0.00532  -0.00243  -0.00392
           A4          -0.02880   0.00870   0.00674  -0.00544  -0.00036
           A5          -0.02921   0.00872  -0.00513   0.00872   0.00125
           A6          -0.02880  -0.00545   0.00674   0.00870  -0.00036
           A7           0.05274   0.00053   0.00320   0.00053   0.01653
           D1          -0.00122   0.00058   0.00699  -0.00693   0.00206
           D2           0.00000  -0.00576   0.00000   0.00576  -0.00000
           D3           0.00122   0.00693  -0.00698  -0.00058  -0.00206
                          A1        A2        A3        A4        A5
           A1           0.13829
           A2          -0.03009   0.13958
           A3          -0.03347  -0.03009   0.13829
           A4          -0.03597  -0.03876  -0.00227   0.07168
           A5          -0.04062  -0.00130  -0.04062   0.00484   0.07361
           A6          -0.00227  -0.03876  -0.03597   0.00427   0.00484
           A7          -0.00616   0.02106  -0.00616  -0.00527   0.00168
           D1          -0.00353   0.02319  -0.02135   0.02189  -0.01795
           D2          -0.01921   0.00000   0.01921  -0.02076  -0.00000
           D3           0.02135  -0.02318   0.00353  -0.00037   0.01795
                          A6        A7        D1        D2        D3
           A6           0.07167
           A7          -0.00527   0.18356
           D1           0.00037   0.00332   0.02804
           D2           0.02076   0.00000  -0.01115   0.02503
           D3          -0.02189  -0.00332  -0.01403  -0.01115   0.02804
 ITU=  0  1  0
     Eigenvalues ---    0.00280   0.08907   0.08911   0.13030   0.15698
     Eigenvalues ---    0.18495   0.20200   0.32574   0.33094   0.34906
     Eigenvalues ---    0.39745   0.53085
 En-DIIS/RFO-DIIS/Sim-DIIS IScMMF=       -3 using points:     3    2
 RFO step:  Lambda=-1.30633176D-11.
 NNeg= 0 NGDIIS= 2 SimSw=  2.50D-03 Rises=F DC= -3.38D-08 SmlDif=  1.00D-05
 NRisDI= 0 DoIntr=F SqrtH=F CThrHd= 10.0 CDAdj=  3.0
 RMS Error=  0.1932660793D-05 NUsed= 2 OKEnD=F EnDIS=F
 InvSVX:  RCond= 5.97D-08 Info=           0 Equed=N FErr=  9.05D-16 BErr=  8.43D-17
 DIIS inversion failure, remove point   2.
 Use linear search instead of GDIIS.
 RFO step:  Lambda= 0.00000000D+00 EMin= 2.79954927D-03
 Quartic linear search produced a step of  0.01050.
 Iteration  1 RMS(Cart)=  0.00000190 RMS(Int)=  0.00000000
 Iteration  2 RMS(Cart)=  0.00000000 RMS(Int)=  0.00000000
 ITry= 1 IFail=0 DXMaxC= 4.40D-06 DCOld= 1.00D+10 DXMaxT= 3.00D-01 DXLimC= 3.00D+00 Rises=F
 Variable       Old X    -DE/DX   Delta X   Delta X   Delta X     New X
                                 (Linear)    (Quad)   (Total)
    R1        2.67446  -0.00000   0.00000  -0.00000  -0.00000   2.67446
    R2        2.07940   0.00000   0.00000   0.00000   0.00000   2.07941
    R3        2.06638   0.00000   0.00000  -0.00000   0.00000   2.06638
    R4        2.07940   0.00000   0.00000   0.00000   0.00000   2.07941
    R5        1.81658  -0.00000   0.00000  -0.00000  -0.00000   1.81658
    A1        1.96793  -0.00000   0.00000  -0.00000  -0.00000   1.96793
    A2        1.86645   0.00000   0.00000   0.00000   0.00000   1.86645
    A3        1.96793  -0.00000   0.00000  -0.00000  -0.00000   1.96793
    A4        1.88414   0.00000  -0.00000   0.00000   0.00000   1.88414
    A5        1.88974   0.00000  -0.00000   0.00000   0.00000   1.88975
    A6        1.88414   0.00000  -0.00000   0.00000  -0.00000   1.88414
    A7        1.88233  -0.00000   0.00000  -0.00000  -0.00000   1.88233
    D1       -1.07338  -0.00000  -0.00000  -0.00000  -0.00000  -1.07338
    D2       -3.14159  -0.00000   0.00000  -0.00000  -0.00000   3.14159
    D3        1.07338  -0.00000   0.00000  -0.00000  -0.00000   1.07338
         Item               Value     Threshold  Converged?
 Maximum Force            0.000001     0.000015     YES
 RMS     Force            0.000001     0.000010     YES
 Maximum Displacement     0.000004     0.000060     YES
 RMS     Displacement     0.000002     0.000040     YES
 Predicted change in Energy=-7.507940D-12
 Optimization completed.
    -- Stationary point found.
                           ----------------------------
                           !   Optimized Parameters   !
                           ! (Angstroms and Degrees)  !
 --------------------------                            --------------------------
 ! Name  Definition              Value          Derivative Info.                !
 --------------------------------------------------------------------------------
 ! R1    R(1,2)                  1.4153         -DE/DX =    0.0                 !
 ! R2    R(1,3)                  1.1004         -DE/DX =    0.0                 !
 ! R3    R(1,4)                  1.0935         -DE/DX =    0.0                 !
 ! R4    R(1,5)                  1.1004         -DE/DX =    0.0                 !
 ! R5    R(2,6)                  0.9613         -DE/DX =    0.0                 !
 ! A1    A(2,1,3)              112.754          -DE/DX =    0.0                 !
 ! A2    A(2,1,4)              106.9398         -DE/DX =    0.0                 !
 ! A3    A(2,1,5)              112.754          -DE/DX =    0.0                 !
 ! A4    A(3,1,4)              107.9531         -DE/DX =    0.0                 !
 ! A5    A(3,1,5)              108.2744         -DE/DX =    0.0                 !
 ! A6    A(4,1,5)              107.9531         -DE/DX =    0.0                 !
 ! A7    A(1,2,6)              107.8497         -DE/DX =    0.0                 !
 ! D1    D(3,1,2,6)            -61.5            -DE/DX =    0.0                 !
 ! D2    D(4,1,2,6)            180.0            -DE/DX =    0.0                 !
 ! D3    D(5,1,2,6)             61.5            -DE/DX =    0.0                 !
 --------------------------------------------------------------------------------
 Lowest energy point so far.  Saving SCF results.
[...]
 (Enter /gpfs/apps/medsci/stacks/noOS/software/gaussian/g16.a03.avx2/g16/l302.exe)
 NPDir=0 NMtPBC=     1 NCelOv=     1 NCel=       1 NClECP=     1 NCelD=      1
         NCelK=      1 NCelE2=     1 NClLst=     1 CellRange=     0.0.
 One-electron integrals computed using PRISM.
 NBasis=   286 RedAO= T EigKep=  4.67D-05  NBF=   286
 NBsUse=   286 1.00D-06 EigRej= -1.00D+00 NBFU=   286
 Leave Link  302 at Sun Aug 16 01:39:46 2020, MaxMem=  4831838208 cpu:               1.9 elap:               0.3
 (Enter /gpfs/apps/medsci/stacks/noOS/software/gaussian/g16.a03.avx2/g16/l303.exe)
 DipDrv:  MaxL=1.
 Leave Link  303 at Sun Aug 16 01:39:46 2020, MaxMem=  4831838208 cpu:               0.5 elap:               0.1
 (Enter /gpfs/apps/medsci/stacks/noOS/software/gaussian/g16.a03.avx2/g16/l401.exe)
 Initial guess from the checkpoint file:  "check.chk"
 B after Tr=     0.000000    0.000000    0.000000
         Rot=    1.000000    0.000000    0.000000    0.000000 Ang=   0.00 deg.
 Guess basis will be translated and rotated to current coordinates.
 JPrj=2 DoOrth=T DoCkMO=T.
 Leave Link  401 at Sun Aug 16 01:39:46 2020, MaxMem=  4831838208 cpu:               1.0 elap:               0.2
 (Enter /gpfs/apps/medsci/stacks/noOS/software/gaussian/g16.a03.avx2/g16/l502.exe)
 Keep R1 ints in memory in canonical form, NReq=875324639.
 FoFCou: FMM=F IPFlag=           0 FMFlag=           0 FMFlg1=           0
         NFxFlg=           0 DoJE=F BraDBF=F KetDBF=F FulRan=T
         wScrn=  0.000000 ICntrl=       600 IOpCl=  0 I1Cent=           0 NGrid=           0
         NMat0=    1 NMatS0=  41041 NMatT0=    0 NMatD0=    1 NMtDS0=    0 NMtDT0=    0
 Symmetry not used in FoFCou.
 Two-electron integral symmetry not used.
 Closed shell SCF:
 Using DIIS extrapolation, IDIIS=  1040.
 NGot=  4831838208 LenX=  3989365765 LenY=  3989232828
 Requested convergence on RMS density matrix=1.00D-08 within  32 cycles.
 Requested convergence on MAX density matrix=1.00D-06.
 Requested convergence on             energy=1.00D-06.
 No special actions if energy rises.

 Cycle   1  Pass 1  IDiag  1:
 E= -115.100588582434    
 DIIS: error= 3.26D-03 at cycle   1 NSaved=   1.
 NSaved= 1 IEnMin= 1 EnMin= -115.100588582434     IErMin= 1 ErrMin= 3.26D-03
 ErrMax= 3.26D-03  0.00D+00 EMaxC= 1.00D-01 BMatC= 1.93D-03 BMatP= 1.93D-03
 IDIUse=3 WtCom= 9.67D-01 WtEn= 3.26D-02
 Coeff-Com:  0.100D+01
 Coeff-En:   0.100D+01
 Coeff:      0.100D+01
 Gap=     0.508 Goal=   None    Shift=    0.000
 GapD=    0.508 DampG=2.000 DampE=1.000 DampFc=2.0000 IDamp=-1.
 RMSDP=5.14D-04 MaxDP=2.00D-02              OVMax= 2.47D-03

 Cycle   2  Pass 1  IDiag  1:
 E= -115.100974288802     Delta-E=       -0.000385706368 Rises=F Damp=F
 DIIS: error= 1.33D-04 at cycle   2 NSaved=   2.
 NSaved= 2 IEnMin= 2 EnMin= -115.100974288802     IErMin= 2 ErrMin= 1.33D-04
 ErrMax= 1.33D-04  0.00D+00 EMaxC= 1.00D-01 BMatC= 4.60D-06 BMatP= 1.93D-03
 IDIUse=3 WtCom= 9.99D-01 WtEn= 1.33D-03
 Coeff-Com: -0.421D-01 0.104D+01
 Coeff-En:   0.000D+00 0.100D+01
 Coeff:     -0.420D-01 0.104D+01
 Gap=     0.499 Goal=   None    Shift=    0.000
 RMSDP=4.12D-05 MaxDP=1.35D-03 DE=-3.86D-04 OVMax= 3.89D-04

 Cycle   3  Pass 1  IDiag  1:
 E= -115.100976581301     Delta-E=       -0.000002292499 Rises=F Damp=F
 DIIS: error= 1.86D-05 at cycle   3 NSaved=   3.
 NSaved= 3 IEnMin= 3 EnMin= -115.100976581301     IErMin= 3 ErrMin= 1.86D-05
 ErrMax= 1.86D-05  0.00D+00 EMaxC= 1.00D-01 BMatC= 4.93D-08 BMatP= 4.60D-06
 IDIUse=1 WtCom= 1.00D+00 WtEn= 0.00D+00
 Coeff-Com:  0.551D-03-0.316D-01 0.103D+01
 Coeff:      0.551D-03-0.316D-01 0.103D+01
 Gap=     0.499 Goal=   None    Shift=    0.000
 RMSDP=3.81D-06 MaxDP=1.46D-04 DE=-2.29D-06 OVMax= 8.93D-05

 Cycle   4  Pass 1  IDiag  1:
 E= -115.100976630994     Delta-E=       -0.000000049693 Rises=F Damp=F
 DIIS: error= 1.32D-05 at cycle   4 NSaved=   4.
 NSaved= 4 IEnMin= 4 EnMin= -115.100976630994     IErMin= 4 ErrMin= 1.32D-05
 ErrMax= 1.32D-05  0.00D+00 EMaxC= 1.00D-01 BMatC= 1.40D-08 BMatP= 4.93D-08
 IDIUse=1 WtCom= 1.00D+00 WtEn= 0.00D+00
 Coeff-Com:  0.162D-02-0.453D-01 0.334D+00 0.710D+00
 Coeff:      0.162D-02-0.453D-01 0.334D+00 0.710D+00
 Gap=     0.499 Goal=   None    Shift=    0.000
 RMSDP=6.54D-07 MaxDP=2.72D-05 DE=-4.97D-08 OVMax= 3.41D-05

 Cycle   5  Pass 1  IDiag  1:
 E= -115.100976641126     Delta-E=       -0.000000010132 Rises=F Damp=F
 DIIS: error= 2.35D-06 at cycle   5 NSaved=   5.
 NSaved= 5 IEnMin= 5 EnMin= -115.100976641126     IErMin= 5 ErrMin= 2.35D-06
 ErrMax= 2.35D-06  0.00D+00 EMaxC= 1.00D-01 BMatC= 4.64D-10 BMatP= 1.40D-08
 IDIUse=1 WtCom= 1.00D+00 WtEn= 0.00D+00
 Coeff-Com: -0.105D-03 0.406D-02-0.815D-01-0.356D-01 0.111D+01
 Coeff:     -0.105D-03 0.406D-02-0.815D-01-0.356D-01 0.111D+01
 Gap=     0.499 Goal=   None    Shift=    0.000
 RMSDP=2.90D-07 MaxDP=1.20D-05 DE=-1.01D-08 OVMax= 1.32D-05

 Cycle   6  Pass 1  IDiag  1:
 E= -115.100976642026     Delta-E=       -0.000000000899 Rises=F Damp=F
 DIIS: error= 8.52D-07 at cycle   6 NSaved=   6.
 NSaved= 6 IEnMin= 6 EnMin= -115.100976642026     IErMin= 6 ErrMin= 8.52D-07
 ErrMax= 8.52D-07  0.00D+00 EMaxC= 1.00D-01 BMatC= 5.12D-11 BMatP= 4.64D-10
 IDIUse=1 WtCom= 1.00D+00 WtEn= 0.00D+00
 Coeff-Com: -0.146D-03 0.417D-02-0.346D-01-0.674D-01 0.118D+00 0.980D+00
 Coeff:     -0.146D-03 0.417D-02-0.346D-01-0.674D-01 0.118D+00 0.980D+00
 Gap=     0.499 Goal=   None    Shift=    0.000
 RMSDP=5.25D-08 MaxDP=2.14D-06 DE=-8.99D-10 OVMax= 4.62D-06

 Cycle   7  Pass 1  IDiag  1:
 E= -115.100976642115     Delta-E=       -0.000000000089 Rises=F Damp=F
 DIIS: error= 1.78D-07 at cycle   7 NSaved=   7.
 NSaved= 7 IEnMin= 7 EnMin= -115.100976642115     IErMin= 7 ErrMin= 1.78D-07
 ErrMax= 1.78D-07  0.00D+00 EMaxC= 1.00D-01 BMatC= 3.78D-12 BMatP= 5.12D-11
 IDIUse=1 WtCom= 1.00D+00 WtEn= 0.00D+00
 Coeff-Com:  0.215D-04-0.721D-03 0.108D-01 0.650D-02-0.115D+00-0.226D-01
 Coeff-Com:  0.112D+01
 Coeff:      0.215D-04-0.721D-03 0.108D-01 0.650D-02-0.115D+00-0.226D-01
 Coeff:      0.112D+01
 Gap=     0.499 Goal=   None    Shift=    0.000
 RMSDP=1.40D-08 MaxDP=5.72D-07 DE=-8.91D-11 OVMax= 1.33D-06

 Cycle   8  Pass 1  IDiag  1:
 E= -115.100976642123     Delta-E=       -0.000000000009 Rises=F Damp=F
 DIIS: error= 3.83D-08 at cycle   8 NSaved=   8.
 NSaved= 8 IEnMin= 8 EnMin= -115.100976642123     IErMin= 8 ErrMin= 3.83D-08
 ErrMax= 3.83D-08  0.00D+00 EMaxC= 1.00D-01 BMatC= 1.73D-13 BMatP= 3.78D-12
 IDIUse=1 WtCom= 1.00D+00 WtEn= 0.00D+00
 Coeff-Com:  0.607D-05-0.163D-03 0.958D-03 0.318D-02 0.615D-03-0.489D-01
 Coeff-Com: -0.870D-01 0.113D+01
 Coeff:      0.607D-05-0.163D-03 0.958D-03 0.318D-02 0.615D-03-0.489D-01
 Coeff:     -0.870D-01 0.113D+01
 Gap=     0.499 Goal=   None    Shift=    0.000
 RMSDP=3.61D-09 MaxDP=1.23D-07 DE=-8.70D-12 OVMax= 3.28D-07

 SCF Done:  E(RHF) =  -115.100976642     A.U. after    8 cycles
            NFock=  8  Conv=0.36D-08     -V/T= 2.0013
 KE= 1.149538349136D+02 PE=-3.518333109961D+02 EE= 8.146646498854D+01
 Leave Link  502 at Sun Aug 16 01:40:08 2020, MaxMem=  4831838208 cpu:              89.0 elap:              21.3
 (Enter /gpfs/apps/medsci/stacks/noOS/software/gaussian/g16.a03.avx2/g16/l508.exe)
 QCSCF skips out because SCF is already converged.
 Leave Link  508 at Sun Aug 16 01:40:08 2020, MaxMem=  4831838208 cpu:               0.1 elap:               0.0
 (Enter /gpfs/apps/medsci/stacks/noOS/software/gaussian/g16.a03.avx2/g16/l601.exe)
 Copying SCF densities to generalized density rwf, IOpCl= 0 IROHF=0.

 **********************************************************************

            Population analysis using the SCF density.

 **********************************************************************

 Alpha  occ. eigenvalues --  -20.55740 -11.27215  -1.35931  -0.92351  -0.69252
 Alpha  occ. eigenvalues --   -0.61912  -0.59437  -0.50349  -0.45141
 Alpha virt. eigenvalues --    0.04739   0.05414   0.05992   0.06290   0.12702
 Alpha virt. eigenvalues --    0.13350   0.14819   0.18355   0.18786   0.20468
 Alpha virt. eigenvalues --    0.22479   0.24570   0.26352   0.27815   0.29205
 Alpha virt. eigenvalues --    0.44847   0.45666   0.45702   0.47121   0.48060
 Alpha virt. eigenvalues --    0.52407   0.53264   0.54767   0.56616   0.57686
 Alpha virt. eigenvalues --    0.59029   0.61653   0.67332   0.75952   0.78095
 Alpha virt. eigenvalues --    0.80130   0.85506   0.87437   0.91366   0.93644
 Alpha virt. eigenvalues --    0.96389   1.00665   1.01000   1.03604   1.05831
 Alpha virt. eigenvalues --    1.07004   1.16962   1.19082   1.22817   1.25155
 Alpha virt. eigenvalues --    1.26659   1.31046   1.32136   1.33690   1.35432
 Alpha virt. eigenvalues --    1.47415   1.50229   1.51930   1.54763   1.58669
 Alpha virt. eigenvalues --    1.61145   1.61172   1.72237   1.72318   1.75042
 Alpha virt. eigenvalues --    1.76766   1.79580   1.94092   1.96986   2.07750
 Alpha virt. eigenvalues --    2.11389   2.14195   2.18366   2.26616   2.28762
 Alpha virt. eigenvalues --    2.32216   2.37937   2.42281   2.42730   2.53327
 Alpha virt. eigenvalues --    2.54048   2.63359   2.65104   2.67495   2.68649
 Alpha virt. eigenvalues --    2.72336   2.77988   2.78675   2.83334   2.85513
 Alpha virt. eigenvalues --    2.88093   2.88785   2.94632   2.96247   2.98107
 Alpha virt. eigenvalues --    3.01374   3.06410   3.08823   3.13628   3.16162
 Alpha virt. eigenvalues --    3.16628   3.20300   3.26114   3.28446   3.34388
 Alpha virt. eigenvalues --    3.37351   3.37786   3.40016   3.42014   3.48848
 Alpha virt. eigenvalues --    3.51560   3.59365   3.62342   3.65225   3.74500
 Alpha virt. eigenvalues --    3.76351   3.79915   3.89998   3.95334   4.03550
 Alpha virt. eigenvalues --    4.07824   4.13657   4.18732   4.24967   4.26672
 Alpha virt. eigenvalues --    4.27999   4.32173   4.36676   4.56351   4.62402
 Alpha virt. eigenvalues --    4.62960   4.69445   4.77181   4.79196   4.91833
 Alpha virt. eigenvalues --    4.96864   5.06106   5.12147   5.14109   5.17695
 Alpha virt. eigenvalues --    5.29831   5.45451   5.51338   5.52660   5.60360
 Alpha virt. eigenvalues --    5.60894   5.68070   6.05864   6.08314   6.33326
 Alpha virt. eigenvalues --    6.34962   6.46258   6.69205   6.80884   6.84426
 Alpha virt. eigenvalues --    6.85695   6.94165   7.08934   7.25781   7.30024
 Alpha virt. eigenvalues --    7.35196   7.44789   7.48324   7.59730   7.68380
 Alpha virt. eigenvalues --    7.72509   7.80851   7.83505   7.85412   7.87605
 Alpha virt. eigenvalues --    7.90091   7.96769   7.98319   8.06910   8.26127
 Alpha virt. eigenvalues --    8.29933   8.30117   8.38490   8.47260   8.48270
 Alpha virt. eigenvalues --    8.52322   8.62097   8.73410   8.76724   8.78316
 Alpha virt. eigenvalues --    8.80510   8.87199   8.89781   8.94024   8.94994
 Alpha virt. eigenvalues --    8.96530   8.99813   9.18934   9.24169   9.28593
 Alpha virt. eigenvalues --    9.33734   9.36641   9.38103   9.40106   9.41730
 Alpha virt. eigenvalues --    9.42778   9.60541   9.71614   9.83553   9.86886
 Alpha virt. eigenvalues --    9.93637  10.10261  10.15713  10.26608  10.30558
 Alpha virt. eigenvalues --   10.42963  10.54879  10.62148  10.69604  10.71253
 Alpha virt. eigenvalues --   10.72117  10.82699  10.89329  10.98917  11.00012
 Alpha virt. eigenvalues --   11.07044  11.08999  11.30903  11.34392  11.38450
 Alpha virt. eigenvalues --   11.47746  11.72182  11.73763  11.81071  11.84958
 Alpha virt. eigenvalues --   11.90465  11.98557  12.09865  12.19199  12.22983
 Alpha virt. eigenvalues --   12.64187  12.69284  12.98560  13.05399  13.16684
 Alpha virt. eigenvalues --   13.27258  14.34951  14.38881  14.66964  14.89498
 Alpha virt. eigenvalues --   14.96780  14.99541  15.33392  15.46208  15.53887
 Alpha virt. eigenvalues --   15.76726  16.06587  16.16586  16.40788  16.42154
 Alpha virt. eigenvalues --   17.40469  17.45057  17.89480  18.51345  18.72126
 Alpha virt. eigenvalues --   18.78768  19.08501  19.08607  19.28524  19.32817
 Alpha virt. eigenvalues --   19.38784  19.46468  19.52976  19.68781  19.86826
 Alpha virt. eigenvalues --   19.92271  20.02491  20.22154  20.90825  22.40036
 Alpha virt. eigenvalues --   22.42359  22.90483  23.02925  23.61116  23.88634
 Alpha virt. eigenvalues --   40.13753  63.05051
          Condensed to atoms (all electrons):
               1          2          3          4          5          6
     1  C    4.813947   0.220202   0.420017   0.419172   0.420017  -0.011389
     2  O    0.220202   8.146475  -0.038608  -0.040768  -0.038608   0.287764
     3  H    0.420017  -0.038608   0.549480  -0.028121  -0.041695  -0.006242
     4  H    0.419172  -0.040768  -0.028121   0.496043  -0.028121   0.007668
     5  H    0.420017  -0.038608  -0.041695  -0.028121   0.549480  -0.006242
     6  H   -0.011389   0.287764  -0.006242   0.007668  -0.006242   0.374486
 Mulliken charges:
               1
     1  C   -0.281965
     2  O   -0.536457
     3  H    0.145169
     4  H    0.174127
     5  H    0.145169
     6  H    0.353956
 Sum of Mulliken charges =  -0.00000
 Mulliken charges with hydrogens summed into heavy atoms:
               1
     1  C    0.182501
     2  O   -0.182501
 Electronic spatial extent (au):  <R**2>=             84.4223
 Charge=             -0.0000 electrons
 Dipole moment (field-independent basis, Debye):
    X=              0.8964    Y=             -1.5570    Z=              0.0003  Tot=              1.7966
 Quadrupole moment (field-independent basis, Debye-Ang):
   XX=            -12.9939   YY=            -12.1447   ZZ=            -13.7405
   XY=              2.2935   XZ=             -0.0004   YZ=             -0.0002
 Traceless Quadrupole moment (field-independent basis, Debye-Ang):
   XX=             -0.0342   YY=              0.8150   ZZ=             -0.7808
   XY=              2.2935   XZ=             -0.0004   YZ=             -0.0002
 Octapole moment (field-independent basis, Debye-Ang**2):
  XXX=             -4.1503  YYY=             -0.6645  ZZZ=              0.0015  XYY=             -1.7831
  XXY=             -2.4874  XXZ=              0.0007  XZZ=             -0.2159  YZZ=             -0.7114
  YYZ=              0.0002  XYZ=              0.0002
 Hexadecapole moment (field-independent basis, Debye-Ang**3):
 XXXX=            -61.9376 YYYY=            -19.9916 ZZZZ=            -19.8571 XXXY=              4.1629
 XXXZ=             -0.0009 YYYX=              3.3034 YYYZ=              0.0000 ZZZX=             -0.0003
 ZZZY=              0.0001 XXYY=            -12.5495 XXZZ=            -14.4473 YYZZ=             -6.7972
 XXYZ=             -0.0002 YYXZ=             -0.0007 ZZXY=             -0.1471
 N-N= 4.031203445189D+01 E-N=-3.518333116680D+02  KE= 1.149538349136D+02
 No NMR shielding tensors so no spin-rotation constants.
 Leave Link  601 at Sun Aug 16 01:40:11 2020, MaxMem=  4831838208 cpu:              21.1 elap:               3.5
 (Enter /gpfs/apps/medsci/stacks/noOS/software/gaussian/g16.a03.avx2/g16/l9999.exe)

 Test job not archived.
 1\1\GINC-C068\SP\RHF\GFHFB2\C1H4O1\RANASD01\16-Aug-2020\0\\#P Geom=All
 Check Guess=TCheck SCRF=Check Test HF/GFHFB2 SCF=Tight\\name\\0,1\C,0,
 0.6562455835,-0.021246204,-0.0000150895\O,0,-0.7511754443,0.1275369449
 ,-0.0000625151\H,0,1.0285692387,-0.5473404433,0.8918480088\H,0,1.08305
 19962,0.9854998518,-0.0001828991\H,0,1.028596663,-0.5476493346,-0.8916
 844534\H,0,-1.140392767,-0.7514352548,0.0000841784\\Version=ES64L-G16R
 evA.03\HF=-115.1009766\RMSD=3.609e-09\Dipole=0.3526741,-0.6125644,0.00
 01118\Quadrupole=-0.0253967,0.6059206,-0.5805239,1.7051573,-0.0003068,
 -0.0001465\PG=C01 [X(C1H4O1)]\\@


 IT'S WHAT A FELLER THINKS HE KNOWS THAT HURTS HIM...
                    ------
           KIN HUBBARD
 Diagonal vibrational polarizability:
        0.0000000       0.0000000       0.0000000
 
 Temperature=              298.150000 Pressure=                      1.000000
 E(ZPE)=                     0.050463 E(Thermal)=                    0.053794
 E(QCISD(T))=             -115.374482 E(Empiric)=                   -0.048629
 E(CCSD(T))=                -0.048629 E(Empiric)=                   -0.012034
 DE(Plus)=                  -0.110133 DE(2DF)=                      -0.143942
 E(Delta-G3XP)=             -0.013007 DE(HF)=                     -115.651764
 G4(0 K)=                 -115.648433 G4 Energy=                  -115.647489
 G4 Enthalpy=             -115.674511 G4 Free Energy=    

 Test job not archived.
 1\1\GINC-C068\Mixed\G4\G4\C1H4O1\RANASD01\16-Aug-2020\0\\#P opt=(calcf
 c, noeigentest, tight, maxcycles=128) g4 scf=(tight, direct) integral=
 (grid=ultrafine, Acc2E=12) nosymm iop(2/9=2000) scf=xqc\\name\\0,1\C,0
 ,0.6562455835,-0.021246204,-0.0000150895\O,0,-0.7511754443,0.127536944
 9,-0.0000625151\H,0,1.0285692387,-0.5473404433,0.8918480088\H,0,1.0830
 519962,0.9854998518,-0.0001828991\H,0,1.028596663,-0.5476493346,-0.891
 6844534\H,0,-1.140392767,-0.7514352548,0.0000841784\\Version=ES64L-G16
 RevA.03\MP2/GTBas1=-115.3459775\MP4/GTBas1=-115.3737082\CCSD(T)/G3Bas1
 =-115.3744816\MP2/GTBas2=-115.3574383\MP4/GTBas2=-115.3857426\MP2/GTBa
 s3=-115.4491107\MP4/GTBas3=-115.483841\HF/GTLargeXP=-115.0885269\MP2/G
 TLargeXP=-115.6045139\HF/GFHFB1=-115.0986907\HF/GFHFB2=-115.1009766\G4
 =-115.6517642\FreqCoord=1.2401244232,-0.0401495068,-0.0000285151,-1.41
 95158612,0.2410098966,-0.0001181365,1.9437141612,-1.0343235347,1.68534
 84813,2.0466716514,1.8623248157,-0.0003456293,1.9437659856,-1.03490725
 47,-1.6850394064,-2.155030004,-1.4200068319,0.0001590742\PG=C01 [X(C1H
 4O1)]\NImag=0\\0.47930277,0.02340044,0.59424468,-0.00000514,-0.0000074
 9,0.54910050,-0.23877039,0.04052078,-0.00000976,0.43818673,-0.00821884
 ,-0.09601864,0.00000592,0.14443711,0.53178937,-0.00000129,0.00000667,-
 0.06118905,-0.00001906,-0.00008223,0.04568163,-0.06819257,0.02933821,-
 0.05363424,-0.03105037,0.01949576,-0.02881884,0.08646668,0.03265902,-0
 .10917803,0.09544106,0.00579781,0.00308225,0.00136469,-0.04175661,0.11
 063961,-0.05594942,0.09672874,-0.21805281,-0.00562479,-0.00233300,0.00
 834189,0.06740698,-0.10737821,0.23089185,-0.07775166,-0.07844706,0.000
 01317,-0.02741475,-0.03661692,0.00000590,0.00524817,0.00783343,0.00085
 592,0.10229103,-0.09144756,-0.28248864,0.00003876,-0.00165200,0.007853
 84,-0.00000103,-0.00419726,-0.01333369,-0.00091781,0.09901570,0.298805
 24,0.00001543,0.00003896,-0.05064975,-0.00000017,-0.00000156,0.0020607
 0,0.00934758,0.02605446,0.00061689,-0.00001630,-0.00004213,0.04685094,
 -0.06819592,0.02935978,0.05362869,-0.03105143,0.01950567,0.02881087,0.
 00566477,-0.00441012,-0.00583166,0.00524849,-0.00420052,-0.00934598,0.
 08647081,0.03268134,-0.10924461,-0.09547774,0.00579980,0.00308259,-0.0
 0136269,-0.00440853,0.00818651,0.01397929,0.00783394,-0.01334240,-0.02
 604939,-0.04178328,0.11071401,0.05594271,-0.09676551,-0.21798289,0.005
 62157,0.00233542,0.00834262,0.00583405,-0.01398998,-0.02228400,-0.0008
 5849,0.00092252,0.00062528,-0.06739696,0.10741854,0.23081333,-0.026392
 23,-0.04417215,0.00000728,-0.10989978,-0.13860277,0.00002242,0.0018633
 2,-0.00012352,-0.00085702,-0.00762128,0.00248164,-0.00000055,0.0018632
 8,-0.00012327,0.00085711,0.14018669,0.01092559,0.00268523,-0.00000051,
 -0.19490350,-0.44978940,0.00007458,0.00152843,0.00060336,-0.00007901,0
 .00038092,0.00250565,-0.00000034,0.00152848,0.00060390,0.00007901,0.18
 054008,0.44339127,-0.00000229,-0.00000136,-0.00122600,0.00003220,0.000
 07545,-0.00323778,-0.00013553,-0.00149203,0.00048618,-0.00000020,-0.00
 000031,0.00049594,0.00013504,0.00149199,0.00048566,-0.00002923,-0.0000
 7373,0.00299599\\0.00000120,-0.00000090,0.,-0.00000010,0.00000031,-0.0
 0000001,-0.00000041,0.00000051,-0.00000127,0.00000002,-0.00000067,0.,-
 0.00000042,0.00000052,0.00000127,-0.00000028,0.00000023,0.\\\@
 Job cpu time:       0 days  0 hours  1 minutes 59.7 seconds.
 Elapsed time:       0 days  0 hours  0 minutes 26.4 seconds.
 File lengths (MBytes):  RWF=     89 Int=      0 D2E=      0 Chk=      6 Scr=      1
 Normal termination of Gaussian 16 at Sun Aug 16 01:40:12 2020.
