 Entering Gaussian System, Link 0=g03
 Input=TS1scan.gjf
 Output=TS1scan.log
 Initial command:
 /opt/g03/l1.exe /scratch/nyee/Gau-8156.inp -scrdir=/scratch/nyee/
 Entering Link 1 = /opt/g03/l1.exe PID=      8158.
  
 Copyright (c) 1988,1990,1992,1993,1995,1998,2003,2004, Gaussian, Inc.
                  All Rights Reserved.
  
 This is the Gaussian(R) 03 program.  It is based on the
 the Gaussian(R) 98 system (copyright 1998, Gaussian, Inc.),
 the Gaussian(R) 94 system (copyright 1995, Gaussian, Inc.),
 the Gaussian 92(TM) system (copyright 1992, Gaussian, Inc.),
 the Gaussian 90(TM) system (copyright 1990, Gaussian, Inc.),
 the Gaussian 88(TM) system (copyright 1988, Gaussian, Inc.),
 the Gaussian 86(TM) system (copyright 1986, Carnegie Mellon
 University), and the Gaussian 82(TM) system (copyright 1983,
 Carnegie Mellon University). Gaussian is a federally registered
 trademark of Gaussian, Inc.
  
 This software contains proprietary and confidential information,
 including trade secrets, belonging to Gaussian, Inc.
  
 This software is provided under written license and may be
 used, copied, transmitted, or stored only in accord with that
 written license.
  
 The following legend is applicable only to US Government
 contracts under FAR:
  
                    RESTRICTED RIGHTS LEGEND
  
 Use, reproduction and disclosure by the US Government is
 subject to restrictions as set forth in subparagraphs (a)
 and (c) of the Commercial Computer Software - Restricted
 Rights clause in FAR 52.227-19.
  
 Gaussian, Inc.
 340 Quinnipiac St., Bldg. 40, Wallingford CT 06492
  
  
 ---------------------------------------------------------------
 Warning -- This program may not be used in any manner that
 competes with the business of Gaussian, Inc. or will provide
 assistance to any competitor of Gaussian, Inc.  The licensee
 of this program is prohibited from giving any competitor of
 Gaussian, Inc. access to this program.  By using this program,
 the user acknowledges that Gaussian, Inc. is engaged in the
 business of creating and licensing software in the field of
 computational chemistry and represents and warrants to the
 licensee that it is not a competitor of Gaussian, Inc. and that
 it will not use this program in any manner prohibited above.
 ---------------------------------------------------------------
  

 Cite this work as:
 Gaussian 03, Revision D.01,
 M. J. Frisch, G. W. Trucks, H. B. Schlegel, G. E. Scuseria, 
 M. A. Robb, J. R. Cheeseman, J. A. Montgomery, Jr., T. Vreven, 
 K. N. Kudin, J. C. Burant, J. M. Millam, S. S. Iyengar, J. Tomasi, 
 V. Barone, B. Mennucci, M. Cossi, G. Scalmani, N. Rega, 
 G. A. Petersson, H. Nakatsuji, M. Hada, M. Ehara, K. Toyota, 
 R. Fukuda, J. Hasegawa, M. Ishida, T. Nakajima, Y. Honda, O. Kitao, 
 H. Nakai, M. Klene, X. Li, J. E. Knox, H. P. Hratchian, J. B. Cross, 
 V. Bakken, C. Adamo, J. Jaramillo, R. Gomperts, R. E. Stratmann, 
 O. Yazyev, A. J. Austin, R. Cammi, C. Pomelli, J. W. Ochterski, 
 P. Y. Ayala, K. Morokuma, G. A. Voth, P. Salvador, J. J. Dannenberg, 
 V. G. Zakrzewski, S. Dapprich, A. D. Daniels, M. C. Strain, 
 O. Farkas, D. K. Malick, A. D. Rabuck, K. Raghavachari, 
 J. B. Foresman, J. V. Ortiz, Q. Cui, A. G. Baboul, S. Clifford, 
 J. Cioslowski, B. B. Stefanov, G. Liu, A. Liashenko, P. Piskorz, 
 I. Komaromi, R. L. Martin, D. J. Fox, T. Keith, M. A. Al-Laham, 
 C. Y. Peng, A. Nanayakkara, M. Challacombe, P. M. W. Gill, 
 B. Johnson, W. Chen, M. W. Wong, C. Gonzalez, and J. A. Pople, 
 Gaussian, Inc., Wallingford CT, 2004.
 
 ******************************************
 Gaussian 03:  AM64L-G03RevD.01 13-Oct-2005
                 6-Jun-2013 
 ******************************************
 %chk=TS1scan.chk
 %mem=1000mb
 %nproc=8
 Will use up to    8 processors via shared memory.
 --------------------------------------------------------
 # opt=(addred,ts,noeigentest) b3lyp/6-31g(d) nosymm freq
 --------------------------------------------------------
 1/5=1,11=1,14=-1,18=120,26=3,38=1/1,3;
 2/9=110,15=1,17=6,18=5,40=1/2;
 3/5=1,6=6,7=1,11=2,16=1,25=1,30=1,74=-5/1,2,3;
 4//1;
 5/5=2,38=5/2;
 6/7=2,8=2,9=2,10=2,28=1/1;
 7/30=1/1,2,3,16;
 1/5=1,11=1,14=-1,18=20/3(3);
 2/9=110,15=1/2;
 6/7=2,8=2,9=2,10=2,19=2,28=1/1;
 99//99;
 2/9=110,15=1/2;
 3/5=1,6=6,7=1,11=2,16=1,25=1,30=1,74=-5/1,2,3;
 4/5=5,16=3/1;
 5/5=2,38=5/2;
 7/30=1/1,2,3,16;
 1/5=1,11=1,14=-1,18=20/3(-5);
 2/9=110,15=1/2;
 6/7=2,8=2,9=2,10=2,19=2,28=1/1;
 99/9=1/99;
 -------------------
 Title Card Required
 -------------------
 Symbolic Z-matrix:
 Charge =  0 Multiplicity = 2
 C                     0.08113   0.08944   0.1248 
 H                     0.84644  -0.15624  -0.59819 
 O                    -0.13178   1.39843   0.24923 
 H                    -0.84437   1.5524    0.88468 
 C                    -0.77632  -0.96103   0.73247 
 C                    -0.02693  -2.27244   0.96973 
 H                     0.5844   -2.52112   0.09874 
 H                     0.61872  -2.21533   1.84994 
 H                    -0.76119  -3.06682   1.1081 
 C                    -1.58001  -0.51958   1.95694 
 H                    -2.15606   0.38935   1.75211 
 H                    -2.31056  -1.2963    2.18296 
 H                    -0.94095  -0.36074   2.82986 
 O                    -1.56985  -0.99946  -0.43405 
 O                    -2.81461  -2.19057  -0.19502 
 H                    -2.63105  -2.62158  -1.04026 
 
 The following ModRedundant input section has been read:
 D    5   14   15   16 S  36 10.000                                            

 GradGradGradGradGradGradGradGradGradGradGradGradGradGradGradGradGradGrad
 Berny optimization.
 Initialization pass.
                           ----------------------------
                           !    Initial Parameters    !
                           ! (Angstroms and Degrees)  !
 --------------------------                            --------------------------
 ! Name  Definition              Value          Derivative Info.                !
 --------------------------------------------------------------------------------
 ! R1    R(1,2)                  1.0811         estimate D2E/DX2                !
 ! R2    R(1,3)                  1.332          estimate D2E/DX2                !
 ! R3    R(1,5)                  1.4859         estimate D2E/DX2                !
 ! R4    R(3,4)                  0.9671         estimate D2E/DX2                !
 ! R5    R(5,6)                  1.5289         estimate D2E/DX2                !
 ! R6    R(5,10)                 1.5297         estimate D2E/DX2                !
 ! R7    R(5,14)                 1.4114         estimate D2E/DX2                !
 ! R8    R(6,7)                  1.0928         estimate D2E/DX2                !
 ! R9    R(6,8)                  1.0931         estimate D2E/DX2                !
 ! R10   R(6,9)                  1.0906         estimate D2E/DX2                !
 ! R11   R(10,11)                1.0954         estimate D2E/DX2                !
 ! R12   R(10,12)                1.09           estimate D2E/DX2                !
 ! R13   R(10,13)                1.0934         estimate D2E/DX2                !
 ! R14   R(14,15)                1.7393         estimate D2E/DX2                !
 ! R15   R(15,16)                0.9664         estimate D2E/DX2                !
 ! A1    A(2,1,3)              113.5125         estimate D2E/DX2                !
 ! A2    A(2,1,5)              121.4212         estimate D2E/DX2                !
 ! A3    A(3,1,5)              124.353          estimate D2E/DX2                !
 ! A4    A(1,3,4)              109.61           estimate D2E/DX2                !
 ! A5    A(1,5,6)              112.768          estimate D2E/DX2                !
 ! A6    A(1,5,10)             115.2454         estimate D2E/DX2                !
 ! A7    A(1,5,14)              90.3254         estimate D2E/DX2                !
 ! A8    A(6,5,10)             112.384          estimate D2E/DX2                !
 ! A9    A(6,5,14)             112.3638         estimate D2E/DX2                !
 ! A10   A(10,5,14)            111.9653         estimate D2E/DX2                !
 ! A11   A(5,6,7)              110.2241         estimate D2E/DX2                !
 ! A12   A(5,6,8)              111.6938         estimate D2E/DX2                !
 ! A13   A(5,6,9)              108.3288         estimate D2E/DX2                !
 ! A14   A(7,6,8)              108.86           estimate D2E/DX2                !
 ! A15   A(7,6,9)              108.1806         estimate D2E/DX2                !
 ! A16   A(8,6,9)              109.4858         estimate D2E/DX2                !
 ! A17   A(5,10,11)            111.4729         estimate D2E/DX2                !
 ! A18   A(5,10,12)            108.2076         estimate D2E/DX2                !
 ! A19   A(5,10,13)            111.9551         estimate D2E/DX2                !
 ! A20   A(11,10,12)           106.1163         estimate D2E/DX2                !
 ! A21   A(11,10,13)           109.6386         estimate D2E/DX2                !
 ! A22   A(12,10,13)           109.2501         estimate D2E/DX2                !
 ! A23   A(5,14,15)            107.9044         estimate D2E/DX2                !
 ! A24   A(14,15,16)            92.8259         estimate D2E/DX2                !
 ! D1    D(2,1,3,4)            178.0846         estimate D2E/DX2                !
 ! D2    D(5,1,3,4)              7.6766         estimate D2E/DX2                !
 ! D3    D(2,1,5,6)             35.592          estimate D2E/DX2                !
 ! D4    D(2,1,5,10)           166.4743         estimate D2E/DX2                !
 ! D5    D(2,1,5,14)           -78.9291         estimate D2E/DX2                !
 ! D6    D(3,1,5,6)           -154.7226         estimate D2E/DX2                !
 ! D7    D(3,1,5,10)           -23.8403         estimate D2E/DX2                !
 ! D8    D(3,1,5,14)            90.7563         estimate D2E/DX2                !
 ! D9    D(1,5,6,7)            -44.0693         estimate D2E/DX2                !
 ! D10   D(1,5,6,8)             77.083          estimate D2E/DX2                !
 ! D11   D(1,5,6,9)           -162.2548         estimate D2E/DX2                !
 ! D12   D(10,5,6,7)          -176.3745         estimate D2E/DX2                !
 ! D13   D(10,5,6,8)           -55.2222         estimate D2E/DX2                !
 ! D14   D(10,5,6,9)            65.44           estimate D2E/DX2                !
 ! D15   D(14,5,6,7)            56.262          estimate D2E/DX2                !
 ! D16   D(14,5,6,8)           177.4143         estimate D2E/DX2                !
 ! D17   D(14,5,6,9)           -61.9235         estimate D2E/DX2                !
 ! D18   D(1,5,10,11)           52.2135         estimate D2E/DX2                !
 ! D19   D(1,5,10,12)          168.5348         estimate D2E/DX2                !
 ! D20   D(1,5,10,13)          -71.0139         estimate D2E/DX2                !
 ! D21   D(6,5,10,11)         -176.7203         estimate D2E/DX2                !
 ! D22   D(6,5,10,12)          -60.3991         estimate D2E/DX2                !
 ! D23   D(6,5,10,13)           60.0522         estimate D2E/DX2                !
 ! D24   D(14,5,10,11)         -49.1451         estimate D2E/DX2                !
 ! D25   D(14,5,10,12)          67.1762         estimate D2E/DX2                !
 ! D26   D(14,5,10,13)        -172.3725         estimate D2E/DX2                !
 ! D27   D(1,5,14,15)          179.6699         estimate D2E/DX2                !
 ! D28   D(6,5,14,15)           64.7836         estimate D2E/DX2                !
 ! D29   D(10,5,14,15)         -62.8025         estimate D2E/DX2                !
 ! D30   D(5,14,15,16)        -130.1724         Scan                            !
 --------------------------------------------------------------------------------
 Trust Radius=3.00D-01 FncErr=1.00D-07 GrdErr=1.00D-06
 Number of optimizations in scan=  37
 Number of steps in this run=  79 maximum allowed number of steps= 100.
 Search for a saddle point of order  1.
 GradGradGradGradGradGradGradGradGradGradGradGradGradGradGradGradGradGrad

                          Input orientation:                          
 ---------------------------------------------------------------------
 Center     Atomic     Atomic              Coordinates (Angstroms)
 Number     Number      Type              X           Y           Z
 ---------------------------------------------------------------------
    1          6             0        0.081126    0.089440    0.124795
    2          1             0        0.846440   -0.156241   -0.598185
    3          8             0       -0.131778    1.398427    0.249234
    4          1             0       -0.844368    1.552401    0.884681
    5          6             0       -0.776316   -0.961031    0.732470
    6          6             0       -0.026934   -2.272437    0.969734
    7          1             0        0.584400   -2.521119    0.098738
    8          1             0        0.618721   -2.215328    1.849938
    9          1             0       -0.761191   -3.066817    1.108100
   10          6             0       -1.580005   -0.519576    1.956938
   11          1             0       -2.156057    0.389348    1.752111
   12          1             0       -2.310561   -1.296301    2.182956
   13          1             0       -0.940952   -0.360737    2.829856
   14          8             0       -1.569854   -0.999455   -0.434052
   15          8             0       -2.814607   -2.190571   -0.195022
   16          1             0       -2.631053   -2.621584   -1.040261
 ---------------------------------------------------------------------
                    Distance matrix (angstroms):
                    1          2          3          4          5
     1  C    0.000000
     2  H    1.081094   0.000000
     3  O    1.332014   2.022875   0.000000
     4  H    1.890561   2.824390   0.967102   0.000000
     5  C    1.485922   2.247591   2.493188   2.518956   0.000000
     6  C    2.510789   2.774786   3.742373   3.912137   1.528939
     7  H    2.658756   2.479317   3.987280   4.387784   2.164957
     8  H    2.928666   3.207024   4.023025   4.155494   2.183603
     9  H    3.411502   3.737290   4.590448   4.625366   2.139080
    10  C    2.546960   3.542358   2.948279   2.446219   1.529745
    11  H    2.782641   3.851824   2.715619   1.955928   2.183318
    12  H    3.446226   4.359029   3.968367   3.456927   2.137808
    13  H    2.926544   3.871441   3.226303   2.730042   2.187804
    14  O    2.055173   2.564454   2.878329   2.962660   1.411365
    15  O    3.699460   4.207648   4.502870   4.365483   2.554729
    16  H    4.007857   4.285593   4.906084   4.931510   3.056151
                    6          7          8          9         10
     6  C    0.000000
     7  H    1.092797   0.000000
     8  H    1.093111   1.778029   0.000000
     9  H    1.090559   1.768393   1.783119   0.000000
    10  C    2.541480   3.484786   2.778744   2.807030   0.000000
    11  H    3.497196   4.326033   3.807007   3.782258   1.095414
    12  H    2.764001   3.771597   3.088075   2.586617   1.089999
    13  H    2.819589   3.801704   2.613872   3.212418   1.093437
    14  O    2.443706   2.690750   3.388926   2.702990   2.438692
    15  O    3.022330   3.427653   3.996275   2.585044   2.991220
    16  H    3.308084   3.412704   4.367989   2.882719   3.808719
                   11         12         13         14         15
    11  H    0.000000
    12  H    1.746686   0.000000
    13  H    1.789034   1.780334   0.000000
    14  O    2.655507   2.735963   3.384756   0.000000
    15  O    3.298636   2.590089   4.001095   1.739340   0.000000
    16  H    4.133845   3.499745   4.790165   2.030994   0.966382
                   16
    16  H    0.000000
 Symmetry turned off by external request.
 Stoichiometry    C4H9O3(2)
 Framework group  C1[X(C4H9O3)]
 Deg. of freedom    42
 Full point group                 C1
 Rotational constants (GHZ):      3.5966968      1.8740963      1.7392688
 Standard basis: 6-31G(d) (6D, 7F)
 Integral buffers will be    131072 words long.
 Raffenetti 2 integral format.
 Two-electron integral symmetry is turned off.
   123 basis functions,   232 primitive gaussians,   123 cartesian basis functions
    29 alpha electrons       28 beta electrons
       nuclear repulsion energy       331.4996643961 Hartrees.
 NAtoms=   16 NActive=   16 NUniq=   16 SFac= 7.50D-01 NAtFMM=   80 NAOKFM=F Big=F
 One-electron integrals computed using PRISM.
 NBasis=   123 RedAO= T  NBF=   123
 NBsUse=   123 1.00D-06 NBFU=   123
 Harris functional with IExCor=  402 diagonalized for initial guess.
 ExpMin= 1.61D-01 ExpMax= 5.48D+03 ExpMxC= 8.25D+02 IAcc=1 IRadAn=         1 AccDes= 1.00D-06
 HarFok:  IExCor= 402 AccDes= 1.00D-06 IRadAn=         1 IDoV=1
 ScaDFX=  1.000000  1.000000  1.000000  1.000000
 <S**2> of initial guess= 0.7500
 Requested convergence on RMS density matrix=1.00D-08 within 128 cycles.
 Requested convergence on MAX density matrix=1.00D-06.
 Requested convergence on             energy=1.00D-06.
 No special actions if energy rises.
 Keep R1 and R2 integrals in memory in canonical form, NReq=    60141286.
 Integral accuracy reduced to 1.0D-05 until final iterations.
 EnCoef did     3 forward-backward iterations
 Problem detected with inexpensive integrals.
 Switching to full accuracy and repeating last cycle.
 SCF Done:  E(UB+HF-LYP) =  -383.338642226     A.U. after   22 cycles
             Convg  =    0.8831D-08             -V/T =  2.0087
             S**2   =   0.7893
 Annihilation of the first spin contaminant:
 S**2 before annihilation     0.7893,   after     0.7502

 **********************************************************************

            Population analysis using the SCF density.

 **********************************************************************

 Alpha  occ. eigenvalues --  -19.22001 -19.16568 -19.14400 -10.27822 -10.25425
 Alpha  occ. eigenvalues --  -10.18654 -10.17718  -1.10565  -1.01585  -0.92280
 Alpha  occ. eigenvalues --   -0.77175  -0.71192  -0.69324  -0.60322  -0.51729
 Alpha  occ. eigenvalues --   -0.49595  -0.46560  -0.44216  -0.42841  -0.41797
 Alpha  occ. eigenvalues --   -0.40669  -0.39442  -0.39141  -0.36622  -0.35632
 Alpha  occ. eigenvalues --   -0.32742  -0.28040  -0.24209  -0.18634
 Alpha virt. eigenvalues --   -0.03461   0.05140   0.09751   0.11532   0.13195
 Alpha virt. eigenvalues --    0.14287   0.15492   0.17385   0.19015   0.20208
 Alpha virt. eigenvalues --    0.21356   0.22541   0.23372   0.28053   0.32414
 Alpha virt. eigenvalues --    0.50493   0.50654   0.54170   0.54826   0.56978
 Alpha virt. eigenvalues --    0.58037   0.63592   0.65213   0.69109   0.71429
 Alpha virt. eigenvalues --    0.73627   0.75494   0.78948   0.82790   0.84410
 Alpha virt. eigenvalues --    0.86770   0.88584   0.91025   0.91659   0.92337
 Alpha virt. eigenvalues --    0.93093   0.94519   0.96335   0.98666   1.00311
 Alpha virt. eigenvalues --    1.02882   1.05136   1.07838   1.09964   1.15955
 Alpha virt. eigenvalues --    1.21787   1.24800   1.28831   1.35545   1.35610
 Alpha virt. eigenvalues --    1.44563   1.52553   1.53286   1.55068   1.64303
 Alpha virt. eigenvalues --    1.67158   1.69480   1.70592   1.75325   1.78715
 Alpha virt. eigenvalues --    1.81118   1.85202   1.87139   1.91213   1.93631
 Alpha virt. eigenvalues --    1.94968   2.07105   2.08734   2.12225   2.15482
 Alpha virt. eigenvalues --    2.20047   2.24035   2.25192   2.26859   2.30740
 Alpha virt. eigenvalues --    2.36070   2.38605   2.39449   2.48975   2.51458
 Alpha virt. eigenvalues --    2.63126   2.65663   2.74297   2.79280   2.84934
 Alpha virt. eigenvalues --    2.90481   3.01351   3.58476   3.80595   3.93808
 Alpha virt. eigenvalues --    4.21143   4.25419   4.29005   4.65292
  Beta  occ. eigenvalues --  -19.21573 -19.16646 -19.13188 -10.26989 -10.25484
  Beta  occ. eigenvalues --  -10.18648 -10.17696  -1.09601  -1.00974  -0.89934
  Beta  occ. eigenvalues --   -0.76957  -0.70556  -0.68501  -0.60000  -0.51352
  Beta  occ. eigenvalues --   -0.49259  -0.45656  -0.43379  -0.42027  -0.41030
  Beta  occ. eigenvalues --   -0.39875  -0.38979  -0.37956  -0.36563  -0.35374
  Beta  occ. eigenvalues --   -0.30362  -0.27487  -0.23535
  Beta virt. eigenvalues --   -0.07377   0.01185   0.05337   0.09956   0.11990
  Beta virt. eigenvalues --    0.13449   0.14436   0.15807   0.17425   0.19498
  Beta virt. eigenvalues --    0.20275   0.21600   0.22977   0.23529   0.28657
  Beta virt. eigenvalues --    0.32817   0.50698   0.52669   0.54640   0.55128
  Beta virt. eigenvalues --    0.57073   0.58320   0.64963   0.65384   0.69250
  Beta virt. eigenvalues --    0.71543   0.73908   0.75707   0.79287   0.83666
  Beta virt. eigenvalues --    0.85243   0.87022   0.88944   0.91284   0.92199
  Beta virt. eigenvalues --    0.92727   0.93436   0.95397   0.97069   0.99069
  Beta virt. eigenvalues --    1.00741   1.03321   1.05877   1.08111   1.10215
  Beta virt. eigenvalues --    1.16651   1.22220   1.25460   1.30358   1.35947
  Beta virt. eigenvalues --    1.36511   1.44659   1.53851   1.54189   1.55857
  Beta virt. eigenvalues --    1.64850   1.67780   1.70077   1.71074   1.75940
  Beta virt. eigenvalues --    1.79164   1.82611   1.85407   1.87370   1.91743
  Beta virt. eigenvalues --    1.95014   1.95861   2.07915   2.09877   2.12780
  Beta virt. eigenvalues --    2.16385   2.20273   2.24238   2.25549   2.27017
  Beta virt. eigenvalues --    2.31158   2.37116   2.39279   2.40714   2.49719
  Beta virt. eigenvalues --    2.52023   2.63604   2.66099   2.74752   2.79641
  Beta virt. eigenvalues --    2.85754   2.91048   3.01670   3.59990   3.80969
  Beta virt. eigenvalues --    3.94246   4.21657   4.26780   4.29056   4.65373
          Condensed to atoms (all electrons):
              1          2          3          4          5          6
     1  C    4.981945   0.369077   0.305026  -0.034262   0.374708  -0.040612
     2  H    0.369077   0.524907  -0.041512   0.006166  -0.044348  -0.004344
     3  O    0.305026  -0.041512   8.055488   0.240862  -0.026759   0.001911
     4  H   -0.034262   0.006166   0.240862   0.341024  -0.011717   0.000516
     5  C    0.374708  -0.044348  -0.026759  -0.011717   4.711958   0.346911
     6  C   -0.040612  -0.004344   0.001911   0.000516   0.346911   5.239142
     7  H   -0.006722   0.005418   0.000026  -0.000006  -0.025873   0.360222
     8  H    0.000200   0.000293  -0.000019  -0.000012  -0.022934   0.341586
     9  H    0.004283  -0.000140  -0.000059  -0.000004  -0.026054   0.359488
    10  C   -0.047990   0.004908  -0.006406   0.013203   0.334923  -0.079120
    11  H   -0.006122  -0.000091  -0.000351   0.013456  -0.023392   0.006358
    12  H    0.004315  -0.000103   0.000247  -0.000515  -0.021491  -0.004849
    13  H   -0.000766  -0.000063  -0.000036  -0.000086  -0.021192   0.000386
    14  O   -0.021269   0.000931  -0.005870   0.000993   0.138523  -0.052434
    15  O    0.005501  -0.000058  -0.000027  -0.000028  -0.005584  -0.004766
    16  H   -0.000647   0.000007   0.000004   0.000001  -0.000886   0.001154
              7          8          9         10         11         12
     1  C   -0.006722   0.000200   0.004283  -0.047990  -0.006122   0.004315
     2  H    0.005418   0.000293  -0.000140   0.004908  -0.000091  -0.000103
     3  O    0.000026  -0.000019  -0.000059  -0.006406  -0.000351   0.000247
     4  H   -0.000006  -0.000012  -0.000004   0.013203   0.013456  -0.000515
     5  C   -0.025873  -0.022934  -0.026054   0.334923  -0.023392  -0.021491
     6  C    0.360222   0.341586   0.359488  -0.079120   0.006358  -0.004849
     7  H    0.570472  -0.028328  -0.026914   0.006169  -0.000205  -0.000012
     8  H   -0.028328   0.589314  -0.025370   0.000176  -0.000111   0.000329
     9  H   -0.026914  -0.025370   0.528906  -0.006425  -0.000053   0.003302
    10  C    0.006169   0.000176  -0.006425   5.282111   0.343191   0.369223
    11  H   -0.000205  -0.000111  -0.000053   0.343191   0.584717  -0.023543
    12  H   -0.000012   0.000329   0.003302   0.369223  -0.023543   0.494830
    13  H   -0.000140   0.000684   0.000271   0.341580  -0.031499  -0.025106
    14  O    0.001883   0.003362  -0.001905  -0.061619   0.002902  -0.002471
    15  O   -0.000244   0.000275   0.013679  -0.003730  -0.000317   0.006937
    16  H    0.000087  -0.000019  -0.000283   0.000228   0.000000  -0.000286
             13         14         15         16
     1  C   -0.000766  -0.021269   0.005501  -0.000647
     2  H   -0.000063   0.000931  -0.000058   0.000007
     3  O   -0.000036  -0.005870  -0.000027   0.000004
     4  H   -0.000086   0.000993  -0.000028   0.000001
     5  C   -0.021192   0.138523  -0.005584  -0.000886
     6  C    0.000386  -0.052434  -0.004766   0.001154
     7  H   -0.000140   0.001883  -0.000244   0.000087
     8  H    0.000684   0.003362   0.000275  -0.000019
     9  H    0.000271  -0.001905   0.013679  -0.000283
    10  C    0.341580  -0.061619  -0.003730   0.000228
    11  H   -0.031499   0.002902  -0.000317   0.000000
    12  H   -0.025106  -0.002471   0.006937  -0.000286
    13  H    0.585846   0.003452   0.000116  -0.000017
    14  O    0.003452   8.359833   0.011979   0.001672
    15  O    0.000116   0.011979   8.292188   0.196601
    16  H   -0.000017   0.001672   0.196601   0.414152
 Mulliken atomic charges:
              1
     1  C    0.113337
     2  H    0.178952
     3  O   -0.522525
     4  H    0.430408
     5  C    0.323208
     6  C   -0.471551
     7  H    0.144167
     8  H    0.140573
     9  H    0.177277
    10  C   -0.490420
    11  H    0.135060
    12  H    0.199194
    13  H    0.146569
    14  O   -0.379960
    15  O   -0.512523
    16  H    0.388233
 Sum of Mulliken charges=   0.00000
 Atomic charges with hydrogens summed into heavy atoms:
              1
     1  C    0.292289
     2  H    0.000000
     3  O   -0.092117
     4  H    0.000000
     5  C    0.323208
     6  C   -0.009534
     7  H    0.000000
     8  H    0.000000
     9  H    0.000000
    10  C   -0.009597
    11  H    0.000000
    12  H    0.000000
    13  H    0.000000
    14  O   -0.379960
    15  O   -0.124290
    16  H    0.000000
 Sum of Mulliken charges=   0.00000
          Atomic-Atomic Spin Densities.
              1          2          3          4          5          6
     1  C    0.692007  -0.002975  -0.112681  -0.000012   0.008064  -0.007049
     2  H   -0.002975  -0.028229   0.000739  -0.000216  -0.000033   0.000563
     3  O   -0.112681   0.000739   0.233687  -0.001296  -0.002510   0.000131
     4  H   -0.000012  -0.000216  -0.001296  -0.003663   0.000451   0.000010
     5  C    0.008064  -0.000033  -0.002510   0.000451  -0.027007   0.003241
     6  C   -0.007049   0.000563   0.000131   0.000010   0.003241   0.015190
     7  H   -0.000615   0.000028   0.000009   0.000000   0.000910   0.000421
     8  H    0.000810  -0.000014  -0.000017   0.000000   0.000174  -0.000256
     9  H    0.000464  -0.000034  -0.000003  -0.000001  -0.000706  -0.004708
    10  C   -0.007295   0.000043   0.000760   0.000074   0.000584   0.004569
    11  H   -0.000048  -0.000002  -0.000003  -0.000045   0.000355  -0.000021
    12  H    0.000123  -0.000002  -0.000004  -0.000007   0.000578  -0.000833
    13  H    0.000797  -0.000006  -0.000123  -0.000010   0.000407  -0.000212
    14  O    0.006804  -0.000454  -0.000658  -0.000182  -0.018902  -0.006560
    15  O    0.003279   0.000012  -0.000037   0.000005   0.009213   0.002765
    16  H   -0.000306  -0.000002   0.000004   0.000000  -0.000662  -0.000238
              7          8          9         10         11         12
     1  C   -0.000615   0.000810   0.000464  -0.007295  -0.000048   0.000123
     2  H    0.000028  -0.000014  -0.000034   0.000043  -0.000002  -0.000002
     3  O    0.000009  -0.000017  -0.000003   0.000760  -0.000003  -0.000004
     4  H    0.000000   0.000000  -0.000001   0.000074  -0.000045  -0.000007
     5  C    0.000910   0.000174  -0.000706   0.000584   0.000355   0.000578
     6  C    0.000421  -0.000256  -0.004708   0.004569  -0.000021  -0.000833
     7  H   -0.000278   0.000032  -0.000729   0.000088  -0.000001  -0.000010
     8  H    0.000032  -0.001175   0.000350  -0.000197   0.000001   0.000044
     9  H   -0.000729   0.000350   0.009744  -0.001233   0.000003   0.000384
    10  C    0.000088  -0.000197  -0.001233   0.012166  -0.000062  -0.001812
    11  H   -0.000001   0.000001   0.000003  -0.000062  -0.000742   0.000173
    12  H   -0.000010   0.000044   0.000384  -0.001812   0.000173   0.001468
    13  H   -0.000006  -0.000014   0.000075  -0.001078   0.000087   0.000293
    14  O   -0.000665   0.000116   0.003225  -0.006843  -0.000025   0.001488
    15  O    0.000162  -0.000045  -0.003089   0.001802   0.000013  -0.001437
    16  H   -0.000029   0.000004   0.000457  -0.000063  -0.000001   0.000096
             13         14         15         16
     1  C    0.000797   0.006804   0.003279  -0.000306
     2  H   -0.000006  -0.000454   0.000012  -0.000002
     3  O   -0.000123  -0.000658  -0.000037   0.000004
     4  H   -0.000010  -0.000182   0.000005   0.000000
     5  C    0.000407  -0.018902   0.009213  -0.000662
     6  C   -0.000212  -0.006560   0.002765  -0.000238
     7  H   -0.000006  -0.000665   0.000162  -0.000029
     8  H   -0.000014   0.000116  -0.000045   0.000004
     9  H    0.000075   0.003225  -0.003089   0.000457
    10  C   -0.001078  -0.006843   0.001802  -0.000063
    11  H    0.000087  -0.000025   0.000013  -0.000001
    12  H    0.000293   0.001488  -0.001437   0.000096
    13  H   -0.000369   0.000109  -0.000027   0.000001
    14  O    0.000109   0.025585  -0.100015   0.005959
    15  O   -0.000027  -0.100015   0.544546  -0.005205
    16  H    0.000001   0.005959  -0.005205  -0.010986
 Mulliken atomic spin densities:
              1
     1  C    0.581368
     2  H   -0.030584
     3  O    0.118000
     4  H   -0.004891
     5  C   -0.025844
     6  C    0.007012
     7  H   -0.000683
     8  H   -0.000186
     9  H    0.004199
    10  C    0.001503
    11  H   -0.000318
    12  H    0.000541
    13  H   -0.000076
    14  O   -0.091017
    15  O    0.451944
    16  H   -0.010970
 Sum of Mulliken spin densities=   1.00000
 Electronic spatial extent (au):  <R**2>=  1208.2591
 Charge=     0.0000 electrons
 Dipole moment (field-independent basis, Debye):
    X=     1.9261    Y=     0.5359    Z=     1.2624  Tot=     2.3645
 Quadrupole moment (field-independent basis, Debye-Ang):
   XX=   -49.1771   YY=   -40.8922   ZZ=   -38.7861
   XY=    -4.6775   XZ=    -1.3616   YZ=     3.5971
 Traceless Quadrupole moment (field-independent basis, Debye-Ang):
   XX=    -6.2253   YY=     2.0596   ZZ=     4.1657
   XY=    -4.6775   XZ=    -1.3616   YZ=     3.5971
 Octapole moment (field-independent basis, Debye-Ang**2):
  XXX=   146.5545  YYY=   100.4089  ZZZ=   -70.8647  XYY=    35.6306
  XXY=    46.8927  XXZ=   -26.6983  XZZ=    34.8248  YZZ=    31.5664
  YYZ=   -28.7719  XYZ=    -8.2975
 Hexadecapole moment (field-independent basis, Debye-Ang**3):
 XXXX=  -630.0003 YYYY=  -582.4697 ZZZZ=  -304.1201 XXXY=  -192.5045
 XXXZ=    68.2186 YYYX=  -147.4568 YYYZ=    89.5446 ZZZX=    63.6120
 ZZZY=    61.5911 XXYY=  -192.4290 XXZZ=  -127.4825 YYZZ=  -136.1104
 XXYZ=    39.7868 YYXZ=    37.3834 ZZXY=   -40.0027
 N-N= 3.314996643961D+02 E-N=-1.560649045669D+03  KE= 3.800245458172D+02
                          Isotropic Fermi Contact Couplings
        Atom                 a.u.       MegaHertz       Gauss      10(-4) cm-1
     1  C(13)              0.05589      62.83110      22.41970      20.95820
     2  H(1)              -0.00988     -44.18325     -15.76568     -14.73795
     3  O(17)              0.03275     -19.85291      -7.08401      -6.62222
     4  H(1)              -0.00234     -10.47144      -3.73647      -3.49290
     5  C(13)             -0.00808      -9.08002      -3.23998      -3.02877
     6  C(13)              0.00824       9.25798       3.30348       3.08813
     7  H(1)              -0.00021      -0.94744      -0.33807      -0.31603
     8  H(1)               0.00013       0.57328       0.20456       0.19123
     9  H(1)               0.00151       6.75466       2.41023       2.25311
    10  C(13)              0.00293       3.29546       1.17590       1.09925
    11  H(1)              -0.00016      -0.73599      -0.26262      -0.24550
    12  H(1)               0.00026       1.16087       0.41423       0.38722
    13  H(1)              -0.00002      -0.09102      -0.03248      -0.03036
    14  O(17)              0.35333    -214.18718     -76.42731     -71.44515
    15  O(17)              0.07377     -44.72179     -15.95785     -14.91758
    16  H(1)              -0.00688     -30.76435     -10.97748     -10.26188
 --------------------------------------------------------
       Center         ----  Spin Dipole Couplings  ----
                      3XX-RR        3YY-RR        3ZZ-RR
 --------------------------------------------------------
     1   Atom        0.056495     -0.342535      0.286040
     2   Atom        0.017466     -0.037714      0.020248
     3   Atom        0.110454     -0.350079      0.239625
     4   Atom        0.011427     -0.015083      0.003656
     5   Atom       -0.003993      0.000145      0.003847
     6   Atom       -0.006875      0.016574     -0.009700
     7   Atom       -0.001054      0.005882     -0.004827
     8   Atom       -0.001934      0.002548     -0.000613
     9   Atom        0.002094      0.000684     -0.002778
    10   Atom        0.003863     -0.004523      0.000660
    11   Atom        0.002336     -0.001841     -0.000495
    12   Atom       -0.001680     -0.002395      0.004075
    13   Atom       -0.001841     -0.003215      0.005056
    14   Atom       -0.303692      0.066678      0.237014
    15   Atom        0.653194      0.162122     -0.815316
    16   Atom       -0.034199     -0.015764      0.049964
 --------------------------------------------------------
                        XY            XZ            YZ
 --------------------------------------------------------
     1   Atom       -0.035178      0.496344     -0.025954
     2   Atom       -0.013335     -0.023473      0.012153
     3   Atom       -0.022222      0.503082     -0.013177
     4   Atom       -0.012285     -0.021187      0.009784
     5   Atom        0.000263     -0.000946     -0.002935
     6   Atom       -0.001334      0.002105     -0.002281
     7   Atom       -0.002021     -0.000171      0.001113
     8   Atom       -0.001149      0.002786     -0.004930
     9   Atom       -0.000421      0.003190     -0.002887
    10   Atom        0.003129     -0.005492      0.000165
    11   Atom        0.000606     -0.004132      0.001742
    12   Atom        0.002367     -0.000396      0.001827
    13   Atom        0.001408     -0.002878     -0.000674
    14   Atom       -0.333294      0.123986      0.016579
    15   Atom        1.255657     -0.239972     -0.192874
    16   Atom        0.006538     -0.023991      0.054611
 --------------------------------------------------------


 ---------------------------------------------------------------------------------
              Anisotropic Spin Dipole Couplings in Principal Axis System
 ---------------------------------------------------------------------------------

       Atom             a.u.   MegaHertz   Gauss  10(-4) cm-1        Axes

              Baa    -0.3530   -47.369   -16.902   -15.801  0.4966  0.7928 -0.3535
     1 C(13)  Bbb    -0.3294   -44.209   -15.775   -14.747 -0.6052  0.6081  0.5137
              Bcc     0.6824    91.578    32.677    30.547  0.6222 -0.0412  0.7818
 
              Baa    -0.0416   -22.205    -7.923    -7.407  0.1699  0.9772 -0.1275
     2 H(1)   Bbb    -0.0046    -2.460    -0.878    -0.821  0.7183 -0.0342  0.6949
              Bcc     0.0462    24.665     8.801     8.227 -0.6747  0.2096  0.7077
 
              Baa    -0.3536    25.588     9.131     8.535  0.2763  0.9370 -0.2135
     3 O(17)  Bbb    -0.3292    23.821     8.500     7.946  0.6981 -0.3484 -0.6255
              Bcc     0.6828   -49.409   -17.631   -16.481  0.6605 -0.0238  0.7504
 
              Baa    -0.0201   -10.732    -3.829    -3.580  0.2679  0.9513 -0.1528
     4 H(1)   Bbb    -0.0140    -7.460    -2.662    -2.488  0.6250 -0.0509  0.7790
              Bcc     0.0341    18.192     6.491     6.068  0.7332 -0.3042 -0.6081
 
              Baa    -0.0041    -0.551    -0.197    -0.184  0.9914  0.0269  0.1278
     5 C(13)  Bbb    -0.0015    -0.195    -0.070    -0.065 -0.0845  0.8781  0.4710
              Bcc     0.0056     0.746     0.266     0.249 -0.0995 -0.4777  0.8728
 
              Baa    -0.0109    -1.462    -0.522    -0.488 -0.4496  0.0522  0.8917
     6 C(13)  Bbb    -0.0060    -0.802    -0.286    -0.267  0.8910  0.0976  0.4435
              Bcc     0.0169     2.263     0.808     0.755 -0.0639  0.9939 -0.0904
 
              Baa    -0.0049    -2.637    -0.941    -0.880 -0.0104 -0.1042  0.9945
     7 H(1)   Bbb    -0.0016    -0.851    -0.304    -0.284  0.9661  0.2556  0.0369
              Bcc     0.0065     3.488     1.245     1.164 -0.2580  0.9611  0.0980
 
              Baa    -0.0052    -2.748    -0.981    -0.917 -0.5098  0.4087  0.7570
     8 H(1)   Bbb    -0.0018    -0.939    -0.335    -0.313  0.8116  0.5204  0.2656
              Bcc     0.0069     3.687     1.316     1.230 -0.2855  0.7497 -0.5970
 
              Baa    -0.0054    -2.860    -1.020    -0.954 -0.3447  0.3849  0.8562
     9 H(1)   Bbb     0.0008     0.442     0.158     0.148  0.5839  0.8021 -0.1256
              Bcc     0.0045     2.417     0.863     0.806  0.7351 -0.4566  0.5012
 
              Baa    -0.0063    -0.850    -0.303    -0.283 -0.4497  0.8118 -0.3724
    10 C(13)  Bbb    -0.0021    -0.283    -0.101    -0.094  0.3881  0.5532  0.7371
              Bcc     0.0084     1.133     0.404     0.378  0.8044  0.1870 -0.5639
 
              Baa    -0.0046    -2.452    -0.875    -0.818  0.4642 -0.5441  0.6989
    11 H(1)   Bbb    -0.0007    -0.391    -0.139    -0.130  0.3753  0.8356  0.4012
              Bcc     0.0053     2.842     1.014     0.948  0.8023 -0.0761 -0.5921
 
              Baa    -0.0047    -2.531    -0.903    -0.844 -0.6157  0.7656 -0.1863
    12 H(1)   Bbb     0.0002     0.095     0.034     0.032  0.7869  0.5855 -0.1947
              Bcc     0.0046     2.435     0.869     0.812  0.0400  0.2664  0.9630
 
              Baa    -0.0042    -2.255    -0.805    -0.752 -0.6202  0.7726 -0.1361
    13 H(1)   Bbb    -0.0020    -1.070    -0.382    -0.357  0.7012  0.6237  0.3453
              Bcc     0.0062     3.325     1.186     1.109 -0.3517 -0.1187  0.9286
 
              Baa    -0.5175    37.444    13.361    12.490  0.8567  0.4931 -0.1516
    14 O(17)  Bbb     0.2105   -15.234    -5.436    -5.082 -0.2412  0.6427  0.7272
              Bcc     0.3069   -22.210    -7.925    -7.408  0.4560 -0.5864  0.6695
 
              Baa    -0.8724    63.129    22.526    21.058 -0.6419  0.7458 -0.1783
    15 O(17)  Bbb    -0.8520    61.648    21.998    20.564 -0.0227  0.2139  0.9766
              Bcc     1.7244  -124.777   -44.524   -41.621  0.7665  0.6309 -0.1203
 
              Baa    -0.0598   -31.884   -11.377   -10.635 -0.5982  0.6575 -0.4581
    16 H(1)   Bbb    -0.0238   -12.690    -4.528    -4.233  0.7869  0.5899 -0.1809
              Bcc     0.0835    44.574    15.905    14.868 -0.1513  0.4687  0.8703
 

 ---------------------------------------------------------------------------------

 -------------------------------------------------------------------
 Center     Atomic                   Forces (Hartrees/Bohr)
 Number     Number              X              Y              Z
 -------------------------------------------------------------------
    1          6           0.000004156   -0.002634458    0.000805548
    2          1           0.001080627    0.000167710   -0.001036772
    3          8           0.004558763    0.003077149   -0.004288800
    4          1          -0.004276112    0.000998535    0.003850301
    5          6          -0.000959309   -0.000970216   -0.000511919
    6          6          -0.000556517    0.000951693   -0.000025556
    7          1           0.001171162   -0.000455165   -0.001236951
    8          1           0.000974196   -0.000058091    0.001274967
    9          1          -0.000945836   -0.001309994    0.000367228
   10          6           0.000527028   -0.000352806   -0.000657007
   11          1          -0.001037354    0.001302683    0.000093425
   12          1          -0.001003812   -0.001189877    0.000716024
   13          1           0.000797300    0.000264074    0.001322174
   14          8          -0.003621250   -0.003011146   -0.000366069
   15          8           0.001311278    0.005963056    0.005894771
   16          1           0.001975680   -0.002743146   -0.006201365
 -------------------------------------------------------------------
 Cartesian Forces:  Max     0.006201365 RMS     0.002316674

 GradGradGradGradGradGradGradGradGradGradGradGradGradGradGradGradGradGrad
 Berny optimization.
 Internal  Forces:  Max     0.007018839 RMS     0.001509663
 Search for a saddle point.
 Step number   1 out of a maximum of  79 on scan point     1 out of    37
 All quantities printed in internal units (Hartrees-Bohrs-Radians)
 Swaping is turned off.
 Second derivative matrix not updated -- first step.
     Eigenvalues ---    0.00372   0.00383   0.00952   0.01374   0.01541
     Eigenvalues ---    0.02591   0.03701   0.05334   0.05521   0.05651
     Eigenvalues ---    0.05862   0.05874   0.09673   0.15783   0.15917
     Eigenvalues ---    0.16000   0.16000   0.16000   0.16000   0.16000
     Eigenvalues ---    0.16000   0.16000   0.16000   0.16243   0.18978
     Eigenvalues ---    0.22034   0.25000   0.29447   0.29522   0.33900
     Eigenvalues ---    0.34194   0.34418   0.34456   0.34491   0.34748
     Eigenvalues ---    0.34813   0.35862   0.43788   0.53974   0.54123
     Eigenvalues ---    0.590331000.000001000.000001000.000001000.00000
     Eigenvalues --- 1000.000001000.000001000.000001000.000001000.00000
     Eigenvalues --- 1000.000001000.000001000.000001000.000001000.00000
     Eigenvalues --- 1000.000001000.000001000.000001000.000001000.00000
     Eigenvalues --- 1000.000001000.000001000.000001000.000001000.00000
     Eigenvalues --- 1000.000001000.000001000.000001000.00000
 Eigenvectors required to have negative eigenvalues:
                          R1        R2        R3        R4        R5
         1              0.00000   0.00000   0.00000   0.00000   0.00000
                          R6        R7        R8        R9        R10
         1              0.00000   0.00000   0.00000   0.00000   0.00000
                          R11       R12       R13       R14       R15
         1              0.00000   0.00000   0.00000   0.00000   0.00000
                          A1        A2        A3        A4        A5
         1              0.00000   0.00000   0.00000   0.00000   0.00000
                          A6        A7        A8        A9        A10
         1              0.00000   0.00000   0.00000   0.00000   0.00000
                          A11       A12       A13       A14       A15
         1              0.00000   0.00000   0.00000   0.00000   0.00000
                          A16       A17       A18       A19       A20
         1              0.00000   0.00000   0.00000   0.00000   0.00000
                          A21       A22       A23       A24       D1
         1              0.00000   0.00000   0.00000   0.00000   0.00000
                          D2        D3        D4        D5        D6
         1              0.00000   0.00000   0.00000   0.00000   0.00000
                          D7        D8        D9        D10       D11
         1              0.00000   0.00000   0.00000   0.00000   0.00000
                          D12       D13       D14       D15       D16
         1              0.00000   0.00000   0.00000   0.00000   0.00000
                          D17       D18       D19       D20       D21
         1              0.00000   0.33333   0.33333   0.33333   0.33333
                          D22       D23       D24       D25       D26
         1              0.33333   0.33333   0.33333   0.33333   0.33333
                          D27       D28       D29       D30
         1              0.00000   0.00000   0.00000   0.00000
 RFO step:  Lambda0=3.738134542D-03 Lambda=-4.52612577D-04.
 Linear search not attempted -- option 19 set.
 Maximum step size (   0.300) exceeded in Quadratic search.
    -- Step size scaled by   0.018
 Iteration  1 RMS(Cart)=  0.03925923 RMS(Int)=  0.00172982
 Iteration  2 RMS(Cart)=  0.00178797 RMS(Int)=  0.00000210
 Iteration  3 RMS(Cart)=  0.00000265 RMS(Int)=  0.00000000
 Iteration  4 RMS(Cart)=  0.00000000 RMS(Int)=  0.00000000
 Iteration  1 RMS(Cart)=  0.00000000 RMS(Int)=  0.00000000
 Variable       Old X    -DE/DX   Delta X   Delta X   Delta X     New X
                                 (Linear)    (Quad)   (Total)
    R1        2.04297   0.00142   0.00000   0.00007   0.00007   2.04304
    R2        2.51714   0.00392   0.00000   0.00012   0.00012   2.51726
    R3        2.80799   0.00220   0.00000   0.00012   0.00012   2.80810
    R4        1.82756   0.00584   0.00000   0.00020   0.00020   1.82775
    R5        2.88928   0.00112   0.00000   0.00007   0.00007   2.88934
    R6        2.89080   0.00156   0.00000   0.00010   0.00010   2.89090
    R7        2.66709   0.00074   0.00000   0.00003   0.00003   2.66712
    R8        2.06509   0.00174   0.00000   0.00009   0.00009   2.06518
    R9        2.06568   0.00160   0.00000   0.00008   0.00008   2.06576
   R10        2.06086   0.00164   0.00000   0.00009   0.00009   2.06094
   R11        2.07003   0.00161   0.00000   0.00008   0.00008   2.07012
   R12        2.05980   0.00167   0.00000   0.00009   0.00009   2.05989
   R13        2.06630   0.00156   0.00000   0.00008   0.00008   2.06638
   R14        3.28688  -0.00460   0.00000  -0.00051  -0.00051   3.28637
   R15        1.82620   0.00702   0.00000   0.00023   0.00023   1.82643
    A1        1.98117  -0.00142   0.00000  -0.00013  -0.00013   1.98103
    A2        2.11920  -0.00039   0.00000  -0.00002  -0.00002   2.11918
    A3        2.17037   0.00183   0.00000   0.00015   0.00015   2.17052
    A4        1.91306   0.00013   0.00000   0.00001   0.00001   1.91307
    A5        1.96817  -0.00035   0.00000  -0.00007  -0.00007   1.96810
    A6        2.01141   0.00069   0.00000   0.00007   0.00007   2.01148
    A7        1.57648  -0.00016   0.00000   0.00001   0.00001   1.57649
    A8        1.96147  -0.00052   0.00000  -0.00007  -0.00007   1.96140
    A9        1.96112   0.00025   0.00000   0.00003   0.00003   1.96115
   A10        1.95416   0.00021   0.00000   0.00006   0.00006   1.95422
   A11        1.92377   0.00021   0.00000   0.00003   0.00003   1.92380
   A12        1.94942   0.00007   0.00000   0.00000   0.00000   1.94942
   A13        1.89069   0.00026   0.00000   0.00003   0.00003   1.89073
   A14        1.89996  -0.00021   0.00000  -0.00003  -0.00003   1.89993
   A15        1.88811  -0.00011   0.00000   0.00001   0.00001   1.88811
   A16        1.91089  -0.00023   0.00000  -0.00003  -0.00003   1.91085
   A17        1.94557   0.00061   0.00000   0.00008   0.00008   1.94565
   A18        1.88858   0.00024   0.00000   0.00002   0.00002   1.88860
   A19        1.95398  -0.00002   0.00000  -0.00001  -0.00001   1.95397
   A20        1.85208  -0.00027   0.00000  -0.00001  -0.00001   1.85207
   A21        1.91355  -0.00031   0.00000  -0.00003  -0.00003   1.91352
   A22        1.90677  -0.00027   0.00000  -0.00006  -0.00006   1.90672
   A23        1.88329  -0.00009   0.00000  -0.00001  -0.00001   1.88328
   A24        1.62012  -0.00134   0.00000  -0.00015  -0.00015   1.61997
    D1        3.10816   0.00004   0.00000   0.00000   0.00000   3.10816
    D2        0.13398   0.00001   0.00000   0.00003   0.00003   0.13402
    D3        0.62120   0.00019   0.00000   0.00002   0.00002   0.62122
    D4        2.90552  -0.00026   0.00000  -0.00009  -0.00009   2.90544
    D5       -1.37757   0.00005   0.00000   0.00000   0.00000  -1.37757
    D6       -2.70042   0.00016   0.00000  -0.00002  -0.00002  -2.70044
    D7       -0.41609  -0.00029   0.00000  -0.00013  -0.00013  -0.41622
    D8        1.58400   0.00002   0.00000  -0.00005  -0.00005   1.58395
    D9       -0.76915   0.00022   0.00000   0.00006   0.00006  -0.76909
   D10        1.34535   0.00014   0.00000   0.00004   0.00004   1.34539
   D11       -2.83188   0.00007   0.00000   0.00002   0.00002  -2.83186
   D12       -3.07832   0.00005   0.00000   0.00010   0.00010  -3.07822
   D13       -0.96381  -0.00003   0.00000   0.00007   0.00007  -0.96373
   D14        1.14214  -0.00009   0.00000   0.00006   0.00006   1.14220
   D15        0.98196  -0.00001   0.00000   0.00006   0.00006   0.98201
   D16        3.09646  -0.00009   0.00000   0.00003   0.00003   3.09649
   D17       -1.08077  -0.00015   0.00000   0.00001   0.00001  -1.08076
   D18        0.91130   0.00024   0.00000  -0.10068  -0.10068   0.81062
   D19        2.94149   0.00041   0.00000  -0.10063  -0.10063   2.84086
   D20       -1.23943   0.00021   0.00000  -0.10069  -0.10069  -1.34012
   D21       -3.08435  -0.00012   0.00000  -0.10079  -0.10079   3.09804
   D22       -1.05416   0.00004   0.00000  -0.10074  -0.10074  -1.15490
   D23        1.04811  -0.00015   0.00000  -0.10080  -0.10080   0.94731
   D24       -0.85774  -0.00003   0.00000  -0.10076  -0.10076  -0.95850
   D25        1.17245   0.00013   0.00000  -0.10071  -0.10071   1.07173
   D26       -3.00847  -0.00007   0.00000  -0.10077  -0.10077  -3.10924
   D27        3.13583  -0.00048   0.00000  -0.00017  -0.00017   3.13566
   D28        1.13069  -0.00008   0.00000  -0.00010  -0.00010   1.13058
   D29       -1.09611   0.00025   0.00000  -0.00008  -0.00008  -1.09619
   D30       -2.27194   0.00030   0.00000   0.00000   0.00000  -2.27194
         Item               Value     Threshold  Converged?
 Maximum Force            0.007019     0.000450     NO 
 RMS     Force            0.001520     0.000300     NO 
 Maximum Displacement     0.173773     0.001800     NO 
 RMS     Displacement     0.039247     0.001200     NO 
 Predicted change in Energy= 2.295555D-04
 GradGradGradGradGradGradGradGradGradGradGradGradGradGradGradGradGradGrad

                          Input orientation:                          
 ---------------------------------------------------------------------
 Center     Atomic     Atomic              Coordinates (Angstroms)
 Number     Number      Type              X           Y           Z
 ---------------------------------------------------------------------
    1          6             0        0.073978    0.091973    0.119064
    2          1             0        0.838732   -0.152133   -0.605097
    3          8             0       -0.145222    1.400341    0.239693
    4          1             0       -0.857041    1.552877    0.876507
    5          6             0       -0.776539   -0.960967    0.732325
    6          6             0       -0.019701   -2.267709    0.971880
    7          1             0        0.590791   -2.516007    0.100124
    8          1             0        0.627882   -2.204409    1.850298
    9          1             0       -0.749448   -3.065517    1.114665
   10          6             0       -1.579357   -0.519808    1.957535
   11          1             0       -2.079933    0.439199    1.785022
   12          1             0       -2.372003   -1.248876    2.125966
   13          1             0       -0.955147   -0.452694    2.852832
   14          8             0       -1.572845   -1.007244   -0.432043
   15          8             0       -2.810468   -2.203980   -0.186125
   16          1             0       -2.626668   -2.636628   -1.030617
 ---------------------------------------------------------------------
                    Distance matrix (angstroms):
                    1          2          3          4          5
     1  C    0.000000
     2  H    1.081132   0.000000
     3  O    1.332077   2.022873   0.000000
     4  H    1.890703   2.824510   0.967205   0.000000
     5  C    1.485984   2.247668   2.493397   2.519263   0.000000
     6  C    2.510810   2.774784   3.742519   3.912431   1.528975
     7  H    2.658761   2.479256   3.987352   4.388030   2.165045
     8  H    2.928711   3.207064   4.023178   4.155775   2.183669
     9  H    3.411597   3.737339   4.590704   4.625783   2.139170
    10  C    2.547108   3.542516   2.948677   2.446709   1.529796
    11  H    2.745053   3.818501   2.656115   1.887100   2.183454
    12  H    3.436328   4.355499   3.941438   3.421415   2.137904
    13  H    2.971404   3.907123   3.304271   2.817410   2.187873
    14  O    2.055242   2.564540   2.878507   2.962921   1.411382
    15  O    3.699266   4.207407   4.502887   4.365667   2.554506
    16  H    4.007557   4.285181   4.905954   4.931598   3.055942
                    6          7          8          9         10
     6  C    0.000000
     7  H    1.092846   0.000000
     8  H    1.093155   1.778083   0.000000
     9  H    1.090604   1.768473   1.783171   0.000000
    10  C    2.541495   3.484871   2.778719   2.807101   0.000000
    11  H    3.497586   4.324915   3.784863   3.808229   1.095459
    12  H    2.811274   3.806285   3.160434   2.637348   1.090045
    13  H    2.776206   3.771549   2.565065   3.144898   1.093480
    14  O    2.443774   2.690890   3.389024   2.703106   2.438794
    15  O    3.022155   3.427516   3.996157   2.584978   2.991212
    16  H    3.307925   3.412501   4.367903   2.882730   3.808784
                   11         12         13         14         15
    11  H    0.000000
    12  H    1.746752   0.000000
    13  H    1.789087   1.780371   0.000000
    14  O    2.695313   2.690808   3.388138   0.000000
    15  O    3.377203   2.539733   3.967932   1.739070   0.000000
    16  H    4.205646   3.457561   4.758647   2.030696   0.966505
                   16
    16  H    0.000000
 Symmetry turned off by external request.
 Stoichiometry    C4H9O3(2)
 Framework group  C1[X(C4H9O3)]
 Deg. of freedom    42
 Full point group                 C1
 Rotational constants (GHZ):      3.5964523      1.8740898      1.7392689
 Standard basis: 6-31G(d) (6D, 7F)
 Integral buffers will be    131072 words long.
 Raffenetti 2 integral format.
 Two-electron integral symmetry is turned off.
   123 basis functions,   232 primitive gaussians,   123 cartesian basis functions
    29 alpha electrons       28 beta electrons
       nuclear repulsion energy       331.5234801212 Hartrees.
 NAtoms=   16 NActive=   16 NUniq=   16 SFac= 7.50D-01 NAtFMM=   80 NAOKFM=F Big=F
 One-electron integrals computed using PRISM.
 NBasis=   123 RedAO= T  NBF=   123
 NBsUse=   123 1.00D-06 NBFU=   123
 Initial guess read from the read-write file:
 <S**2> of initial guess= 0.7893
 Harris functional with IExCor=  402 diagonalized for initial guess.
 ExpMin= 1.61D-01 ExpMax= 5.48D+03 ExpMxC= 8.25D+02 IAcc=1 IRadAn=         1 AccDes= 1.00D-06
 HarFok:  IExCor= 402 AccDes= 1.00D-06 IRadAn=         1 IDoV=1
 ScaDFX=  1.000000  1.000000  1.000000  1.000000
 Requested convergence on RMS density matrix=1.00D-08 within 128 cycles.
 Requested convergence on MAX density matrix=1.00D-06.
 Requested convergence on             energy=1.00D-06.
 No special actions if energy rises.
 Keep R1 and R2 integrals in memory in canonical form, NReq=    60141286.
 Integral accuracy reduced to 1.0D-05 until final iterations.
 Initial convergence to 1.0D-05 achieved.  Increase integral accuracy.
 SCF Done:  E(UB+HF-LYP) =  -383.338429858     A.U. after   16 cycles
             Convg  =    0.6807D-08             -V/T =  2.0087
             S**2   =   0.7891
 Annihilation of the first spin contaminant:
 S**2 before annihilation     0.7891,   after     0.7502
 -------------------------------------------------------------------
 Center     Atomic                   Forces (Hartrees/Bohr)
 Number     Number              X              Y              Z
 -------------------------------------------------------------------
    1          6           0.000087859   -0.002194588    0.000857353
    2          1           0.001087169    0.000150849   -0.000979734
    3          8           0.004889383    0.002835909   -0.004698944
    4          1          -0.004051760    0.001069027    0.003732380
    5          6          -0.000788075   -0.001396904    0.000044289
    6          6          -0.000702737    0.000795370   -0.000053928
    7          1           0.001081488   -0.000473548   -0.001267029
    8          1           0.000966829   -0.000045882    0.001169271
    9          1          -0.000943409   -0.001331338    0.000421696
   10          6           0.000591576   -0.000764205   -0.000789751
   11          1          -0.001717896    0.001236761    0.000938411
   12          1          -0.000729083   -0.001468870    0.000432332
   13          1           0.000646985    0.000970743    0.000917706
   14          8          -0.003614097   -0.002556403   -0.000283923
   15          8           0.001262241    0.005872065    0.005628388
   16          1           0.001933527   -0.002698986   -0.006068516
 -------------------------------------------------------------------
 Cartesian Forces:  Max     0.006068516 RMS     0.002292962

 GradGradGradGradGradGradGradGradGradGradGradGradGradGradGradGradGradGrad
 Berny optimization.
 Internal  Forces:  Max     0.006874294 RMS     0.001606728
 Search for a saddle point.
 Step number   2 out of a maximum of  79 on scan point     1 out of    37
 All quantities printed in internal units (Hartrees-Bohrs-Radians)
 Swaping is turned off.
 Update second derivatives using D2CorX and points  1  2
     Eigenvalues ---    0.00240   0.00394   0.00954   0.01374   0.01542
     Eigenvalues ---    0.02591   0.03708   0.05335   0.05521   0.05651
     Eigenvalues ---    0.05861   0.05874   0.09675   0.15789   0.15917
     Eigenvalues ---    0.16000   0.16000   0.16000   0.16000   0.16000
     Eigenvalues ---    0.16000   0.16000   0.16014   0.16243   0.18979
     Eigenvalues ---    0.22037   0.25000   0.29447   0.29522   0.33900
     Eigenvalues ---    0.34194   0.34418   0.34456   0.34491   0.34748
     Eigenvalues ---    0.34813   0.35862   0.43788   0.53974   0.54123
     Eigenvalues ---    0.590331000.000001000.000001000.000001000.00000
     Eigenvalues --- 1000.000001000.000001000.000001000.000001000.00000
     Eigenvalues --- 1000.000001000.000001000.000001000.000001000.00000
     Eigenvalues --- 1000.000001000.000001000.000001000.000001000.00000
     Eigenvalues --- 1000.000001000.000001000.000001000.000001000.00000
     Eigenvalues --- 1000.000001000.000001000.000001000.00000
 Eigenvectors required to have negative eigenvalues:
                          R1        R2        R3        R4        R5
         1              0.00003   0.00129  -0.00720   0.00075  -0.00046
                          R6        R7        R8        R9        R10
         1             -0.00318  -0.00065  -0.00008   0.00057  -0.00049
                          R11       R12       R13       R14       R15
         1             -0.00132   0.00055   0.00328   0.00010   0.00010
                          A1        A2        A3        A4        A5
         1              0.00998   0.01052  -0.02060  -0.00428   0.00743
                          A6        A7        A8        A9        A10
         1             -0.02995   0.00559   0.00639   0.00303   0.00752
                          A11       A12       A13       A14       A15
         1              0.00094  -0.00079  -0.00032  -0.00051   0.00071
                          A16       A17       A18       A19       A20
         1              0.00003  -0.03384   0.01929   0.00037   0.00645
                          A21       A22       A23       A24       D1
         1              0.01281  -0.00431  -0.00483  -0.00019  -0.00663
                          D2        D3        D4        D5        D6
         1             -0.00729   0.02366   0.01153   0.01626   0.02400
                          D7        D8        D9        D10       D11
         1              0.01186   0.01660   0.07482   0.07428   0.07361
                          D12       D13       D14       D15       D16
         1              0.10477   0.10424   0.10357   0.08668   0.08614
                          D17       D18       D19       D20       D21
         1              0.08547   0.31967   0.32009   0.32771   0.30817
                          D22       D23       D24       D25       D26
         1              0.30859   0.31622   0.32381   0.32423   0.33185
                          D27       D28       D29       D30
         1              0.02280   0.01148  -0.00595   0.00000
 RFO step:  Lambda0=2.635385982D-03 Lambda=-6.08753074D-04.
 Linear search not attempted -- option 19 set.
 Maximum step size (   0.300) exceeded in Quadratic search.
    -- Step size scaled by   0.091
 Iteration  1 RMS(Cart)=  0.04070178 RMS(Int)=  0.00164173
 Iteration  2 RMS(Cart)=  0.00169989 RMS(Int)=  0.00000550
 Iteration  3 RMS(Cart)=  0.00000236 RMS(Int)=  0.00000516
 Iteration  4 RMS(Cart)=  0.00000000 RMS(Int)=  0.00000516
 Iteration  1 RMS(Cart)=  0.00000000 RMS(Int)=  0.00000000
 Variable       Old X    -DE/DX   Delta X   Delta X   Delta X     New X
                                 (Linear)    (Quad)   (Total)
    R1        2.04304   0.00139   0.00000   0.00035   0.00035   2.04339
    R2        2.51726   0.00361   0.00000   0.00017   0.00017   2.51743
    R3        2.80810   0.00292   0.00000   0.00295   0.00295   2.81105
    R4        1.82775   0.00560   0.00000   0.00072   0.00072   1.82847
    R5        2.88934   0.00114   0.00000   0.00049   0.00049   2.88983
    R6        2.89090   0.00183   0.00000   0.00152   0.00152   2.89241
    R7        2.66712   0.00081   0.00000   0.00037   0.00037   2.66749
    R8        2.06518   0.00172   0.00000   0.00048   0.00048   2.06566
    R9        2.06576   0.00151   0.00000   0.00023   0.00023   2.06599
   R10        2.06094   0.00166   0.00000   0.00058   0.00058   2.06153
   R11        2.07012   0.00172   0.00000   0.00085   0.00085   2.07097
   R12        2.05989   0.00158   0.00000   0.00025   0.00025   2.06013
   R13        2.06638   0.00118   0.00000  -0.00067  -0.00067   2.06571
   R14        3.28637  -0.00452   0.00000  -0.00255  -0.00255   3.28381
   R15        1.82643   0.00687   0.00000   0.00112   0.00112   1.82756
    A1        1.98103  -0.00208   0.00000  -0.00394  -0.00394   1.97709
    A2        2.11918  -0.00110   0.00000  -0.00355  -0.00355   2.11563
    A3        2.17052   0.00321   0.00000   0.00751   0.00751   2.17803
    A4        1.91307   0.00034   0.00000   0.00148   0.00148   1.91455
    A5        1.96810  -0.00088   0.00000  -0.00281  -0.00281   1.96529
    A6        2.01148   0.00180   0.00000   0.01017   0.01018   2.02165
    A7        1.57649  -0.00040   0.00000  -0.00178  -0.00177   1.57472
    A8        1.96140  -0.00094   0.00000  -0.00243  -0.00244   1.95896
    A9        1.96115   0.00057   0.00000  -0.00085  -0.00086   1.96028
   A10        1.95422   0.00005   0.00000  -0.00220  -0.00220   1.95202
   A11        1.92380   0.00016   0.00000  -0.00018  -0.00018   1.92362
   A12        1.94942   0.00010   0.00000   0.00025   0.00025   1.94968
   A13        1.89073   0.00028   0.00000   0.00028   0.00028   1.89101
   A14        1.89993  -0.00020   0.00000   0.00000   0.00000   1.89993
   A15        1.88811  -0.00011   0.00000  -0.00020  -0.00020   1.88792
   A16        1.91085  -0.00024   0.00000  -0.00017  -0.00017   1.91068
   A17        1.94565   0.00219   0.00000   0.01152   0.01152   1.95718
   A18        1.88860  -0.00063   0.00000  -0.00622  -0.00622   1.88238
   A19        1.95397  -0.00005   0.00000  -0.00018  -0.00019   1.95378
   A20        1.85207  -0.00057   0.00000  -0.00216  -0.00214   1.84993
   A21        1.91352  -0.00109   0.00000  -0.00436  -0.00437   1.90915
   A22        1.90672   0.00010   0.00000   0.00114   0.00113   1.90785
   A23        1.88328   0.00029   0.00000   0.00156   0.00156   1.88484
   A24        1.61997  -0.00130   0.00000  -0.00068  -0.00068   1.61929
    D1        3.10816   0.00009   0.00000   0.00219   0.00219   3.11035
    D2        0.13402   0.00006   0.00000   0.00257   0.00257   0.13658
    D3        0.62122   0.00020   0.00000  -0.00766  -0.00766   0.61356
    D4        2.90544  -0.00031   0.00000  -0.00420  -0.00420   2.90124
    D5       -1.37757  -0.00006   0.00000  -0.00534  -0.00534  -1.38292
    D6       -2.70044   0.00019   0.00000  -0.00798  -0.00798  -2.70843
    D7       -0.41622  -0.00032   0.00000  -0.00453  -0.00453  -0.42075
    D8        1.58395  -0.00008   0.00000  -0.00567  -0.00567   1.57828
    D9       -0.76909   0.00053   0.00000  -0.02414  -0.02415  -0.79324
   D10        1.34539   0.00046   0.00000  -0.02409  -0.02410   1.32129
   D11       -2.83186   0.00041   0.00000  -0.02397  -0.02397  -2.85583
   D12       -3.07822  -0.00034   0.00000  -0.03380  -0.03380  -3.11202
   D13       -0.96373  -0.00041   0.00000  -0.03375  -0.03375  -0.99748
   D14        1.14220  -0.00046   0.00000  -0.03363  -0.03362   1.10857
   D15        0.98201  -0.00009   0.00000  -0.02807  -0.02807   0.95394
   D16        3.09649  -0.00016   0.00000  -0.02802  -0.02802   3.06847
   D17       -1.08076  -0.00021   0.00000  -0.02790  -0.02790  -1.10865
   D18        0.81062   0.00072   0.00000  -0.09566  -0.09566   0.71496
   D19        2.84086   0.00088   0.00000  -0.09556  -0.09557   2.74528
   D20       -1.34012   0.00056   0.00000  -0.09837  -0.09838  -1.43850
   D21        3.09804   0.00023   0.00000  -0.09243  -0.09242   3.00562
   D22       -1.15490   0.00039   0.00000  -0.09233  -0.09233  -1.24724
   D23        0.94731   0.00007   0.00000  -0.09514  -0.09514   0.85217
   D24       -0.95850   0.00027   0.00000  -0.09742  -0.09741  -1.05591
   D25        1.07173   0.00043   0.00000  -0.09732  -0.09732   0.97441
   D26       -3.10924   0.00011   0.00000  -0.10013  -0.10012   3.07382
   D27        3.13566  -0.00109   0.00000  -0.00833  -0.00834   3.12732
   D28        1.13058  -0.00005   0.00000  -0.00427  -0.00427   1.12631
   D29       -1.09619   0.00072   0.00000   0.00156   0.00157  -1.09463
   D30       -2.27194   0.00029   0.00000   0.00000   0.00000  -2.27194
         Item               Value     Threshold  Converged?
 Maximum Force            0.006874     0.000450     NO 
 RMS     Force            0.001618     0.000300     NO 
 Maximum Displacement     0.184130     0.001800     NO 
 RMS     Displacement     0.040691     0.001200     NO 
 Predicted change in Energy= 2.965122D-04
 GradGradGradGradGradGradGradGradGradGradGradGradGradGradGradGradGradGrad

                          Input orientation:                          
 ---------------------------------------------------------------------
 Center     Atomic     Atomic              Coordinates (Angstroms)
 Number     Number      Type              X           Y           Z
 ---------------------------------------------------------------------
    1          6             0        0.069369    0.095617    0.113981
    2          1             0        0.835012   -0.154438   -0.607479
    3          8             0       -0.148413    1.405750    0.217855
    4          1             0       -0.859306    1.568748    0.853688
    5          6             0       -0.777330   -0.957500    0.735940
    6          6             0       -0.013483   -2.260514    0.975212
    7          1             0        0.574129   -2.521668    0.091256
    8          1             0        0.657032   -2.184092    1.835340
    9          1             0       -0.738691   -3.056724    1.149025
   10          6             0       -1.585017   -0.525882    1.962351
   11          1             0       -2.020616    0.472222    1.839619
   12          1             0       -2.427108   -1.210470    2.065810
   13          1             0       -0.985071   -0.550131    2.875805
   14          8             0       -1.575837   -1.010074   -0.426887
   15          8             0       -2.802341   -2.216412   -0.181732
   16          1             0       -2.615319   -2.646014   -1.027752
 ---------------------------------------------------------------------
                    Distance matrix (angstroms):
                    1          2          3          4          5
     1  C    0.000000
     2  H    1.081315   0.000000
     3  O    1.332166   2.020516   0.000000
     4  H    1.892014   2.824021   0.967585   0.000000
     5  C    1.487544   2.247071   2.499779   2.530319   0.000000
     6  C    2.509967   2.767744   3.746102   3.923446   1.529235
     7  H    2.665610   2.481948   3.995335   4.400857   2.165336
     8  H    2.916419   3.180965   4.018951   4.164941   2.184171
     9  H    3.414898   3.739667   4.596648   4.636460   2.139830
    10  C    2.557289   3.549442   2.972928   2.478562   1.530600
    11  H    2.736366   3.812559   2.647025   1.876985   2.192709
    12  H    3.427521   4.347771   3.930903   3.413400   2.134085
    13  H    3.025972   3.950005   3.404433   2.931625   2.188179
    14  O    2.054700   2.564551   2.879137   2.967088   1.411575
    15  O    3.698600   4.202777   4.508110   4.378918   2.554927
    16  H    4.003454   4.276607   4.904483   4.938382   3.056124
                    6          7          8          9         10
     6  C    0.000000
     7  H    1.093099   0.000000
     8  H    1.093276   1.778387   0.000000
     9  H    1.090912   1.768801   1.783412   0.000000
    10  C    2.540297   3.485121   2.791519   2.789789   0.000000
    11  H    3.499090   4.330456   3.771714   3.817553   1.095911
    12  H    2.849138   3.824334   3.242373   2.664564   1.090175
    13  H    2.735260   3.751236   2.539468   3.053765   1.093125
    14  O    2.443446   2.678757   3.388465   2.715343   2.437823
    15  O    3.019635   3.401213   4.004609   2.595320   2.989458
    16  H    3.306059   3.382339   4.372522   2.903234   3.807518
                   11         12         13         14         15
    11  H    0.000000
    12  H    1.745809   0.000000
    13  H    1.786404   1.780902   0.000000
    14  O    2.744463   2.641658   3.386491   0.000000
    15  O    3.453361   2.490816   3.927785   1.737718   0.000000
    16  H    4.277719   3.415601   4.721037   2.029252   0.967101
                   16
    16  H    0.000000
 Symmetry turned off by external request.
 Stoichiometry    C4H9O3(2)
 Framework group  C1[X(C4H9O3)]
 Deg. of freedom    42
 Full point group                 C1
 Rotational constants (GHZ):      3.5897775      1.8703575      1.7364431
 Standard basis: 6-31G(d) (6D, 7F)
 Integral buffers will be    131072 words long.
 Raffenetti 2 integral format.
 Two-electron integral symmetry is turned off.
   123 basis functions,   232 primitive gaussians,   123 cartesian basis functions
    29 alpha electrons       28 beta electrons
       nuclear repulsion energy       331.3350103448 Hartrees.
 NAtoms=   16 NActive=   16 NUniq=   16 SFac= 7.50D-01 NAtFMM=   80 NAOKFM=F Big=F
 One-electron integrals computed using PRISM.
 NBasis=   123 RedAO= T  NBF=   123
 NBsUse=   123 1.00D-06 NBFU=   123
 Initial guess read from the read-write file:
 <S**2> of initial guess= 0.7891
 Harris functional with IExCor=  402 diagonalized for initial guess.
 ExpMin= 1.61D-01 ExpMax= 5.48D+03 ExpMxC= 8.25D+02 IAcc=1 IRadAn=         1 AccDes= 1.00D-06
 HarFok:  IExCor= 402 AccDes= 1.00D-06 IRadAn=         1 IDoV=1
 ScaDFX=  1.000000  1.000000  1.000000  1.000000
 Requested convergence on RMS density matrix=1.00D-08 within 128 cycles.
 Requested convergence on MAX density matrix=1.00D-06.
 Requested convergence on             energy=1.00D-06.
 No special actions if energy rises.
 Keep R1 and R2 integrals in memory in canonical form, NReq=    60141286.
 Integral accuracy reduced to 1.0D-05 until final iterations.
 Initial convergence to 1.0D-05 achieved.  Increase integral accuracy.
 SCF Done:  E(UB+HF-LYP) =  -383.338149937     A.U. after   16 cycles
             Convg  =    0.8937D-08             -V/T =  2.0087
             S**2   =   0.7889
 Annihilation of the first spin contaminant:
 S**2 before annihilation     0.7889,   after     0.7502
 -------------------------------------------------------------------
 Center     Atomic                   Forces (Hartrees/Bohr)
 Number     Number              X              Y              Z
 -------------------------------------------------------------------
    1          6           0.000293023   -0.002548303    0.000967081
    2          1           0.001003918   -0.000034413   -0.000879186
    3          8           0.004198601    0.002478706   -0.004126342
    4          1          -0.003908837    0.000974207    0.003508448
    5          6          -0.000912221   -0.000899223   -0.000019253
    6          6          -0.000848366    0.000528859   -0.000052271
    7          1           0.000902342   -0.000350642   -0.001166536
    8          1           0.000862064    0.000013428    0.001126672
    9          1          -0.000703728   -0.001304012    0.000352808
   10          6           0.000572828   -0.000578862   -0.000845047
   11          1          -0.001306295    0.001238918    0.000749535
   12          1          -0.000475431   -0.001737287    0.000550911
   13          1           0.000693673    0.001260474    0.000975607
   14          8          -0.003433080   -0.002141278   -0.000701127
   15          8           0.001275534    0.005528309    0.005053283
   16          1           0.001785974   -0.002428879   -0.005494583
 -------------------------------------------------------------------
 Cartesian Forces:  Max     0.005528309 RMS     0.002109129

 GradGradGradGradGradGradGradGradGradGradGradGradGradGradGradGradGradGrad
 Berny optimization.
 Internal  Forces:  Max     0.006224351 RMS     0.001420752
 Search for a saddle point.
 Step number   3 out of a maximum of  79 on scan point     1 out of    37
 All quantities printed in internal units (Hartrees-Bohrs-Radians)
 Swaping is turned off.
 Update second derivatives using D2CorX and points  1  2  3
     Eigenvalues ---    0.00162   0.00398   0.00956   0.01374   0.01542
     Eigenvalues ---    0.02591   0.03695   0.05290   0.05519   0.05665
     Eigenvalues ---    0.05868   0.05873   0.09660   0.15784   0.15918
     Eigenvalues ---    0.16000   0.16000   0.16000   0.16000   0.16000
     Eigenvalues ---    0.16000   0.16000   0.16013   0.16242   0.19014
     Eigenvalues ---    0.22033   0.25000   0.29447   0.29522   0.33897
     Eigenvalues ---    0.34194   0.34418   0.34456   0.34491   0.34748
     Eigenvalues ---    0.34813   0.35862   0.43787   0.53973   0.54123
     Eigenvalues ---    0.590331000.000001000.000001000.000001000.00000
     Eigenvalues --- 1000.000001000.000001000.000001000.000001000.00000
     Eigenvalues --- 1000.000001000.000001000.000001000.000001000.00000
     Eigenvalues --- 1000.000001000.000001000.000001000.000001000.00000
     Eigenvalues --- 1000.000001000.000001000.000001000.000001000.00000
     Eigenvalues --- 1000.000001000.000001000.000001000.00000
 Eigenvectors required to have negative eigenvalues:
                          R1        R2        R3        R4        R5
         1             -0.00035   0.00115   0.00187  -0.00076  -0.00106
                          R6        R7        R8        R9        R10
         1             -0.00096  -0.00344   0.00042   0.00013  -0.00015
                          R11       R12       R13       R14       R15
         1             -0.00129  -0.00016   0.00227   0.00540   0.00025
                          A1        A2        A3        A4        A5
         1             -0.00026   0.00673  -0.00530  -0.00075   0.00788
                          A6        A7        A8        A9        A10
         1             -0.01645   0.00962   0.00321  -0.00249  -0.00113
                          A11       A12       A13       A14       A15
         1              0.00510   0.00135  -0.00682  -0.00145   0.00197
                          A16       A17       A18       A19       A20
         1             -0.00014  -0.02566   0.01631  -0.00031  -0.00709
                          A21       A22       A23       A24       D1
         1              0.02059  -0.00409  -0.00474  -0.00025   0.00502
                          D2        D3        D4        D5        D6
         1             -0.00353   0.03286   0.02951   0.02966   0.04130
                          D7        D8        D9        D10       D11
         1              0.03795   0.03810   0.10612   0.10870   0.10488
                          D12       D13       D14       D15       D16
         1              0.11927   0.12185   0.11802   0.12021   0.12279
                          D17       D18       D19       D20       D21
         1              0.11896   0.31891   0.30590   0.31133   0.31782
                          D22       D23       D24       D25       D26
         1              0.30481   0.31024   0.31615   0.30313   0.30856
                          D27       D28       D29       D30
         1              0.01607   0.00354   0.00214   0.00000
 RFO step:  Lambda0=2.405116807D-03 Lambda=-4.97531880D-04.
 Linear search not attempted -- option 19 set.
 Maximum step size (   0.300) exceeded in Quadratic search.
    -- Step size scaled by   0.172
 Iteration  1 RMS(Cart)=  0.04103263 RMS(Int)=  0.00155772
 Iteration  2 RMS(Cart)=  0.00161333 RMS(Int)=  0.00000288
 Iteration  3 RMS(Cart)=  0.00000212 RMS(Int)=  0.00000234
 Iteration  4 RMS(Cart)=  0.00000000 RMS(Int)=  0.00000234
 Iteration  1 RMS(Cart)=  0.00000000 RMS(Int)=  0.00000000
 Variable       Old X    -DE/DX   Delta X   Delta X   Delta X     New X
                                 (Linear)    (Quad)   (Total)
    R1        2.04339   0.00131   0.00000   0.00073   0.00073   2.04412
    R2        2.51743   0.00330   0.00000   0.00062   0.00062   2.51805
    R3        2.81105   0.00174   0.00000   0.00029   0.00029   2.81134
    R4        1.82847   0.00534   0.00000   0.00193   0.00193   1.83040
    R5        2.88983   0.00109   0.00000   0.00095   0.00095   2.89079
    R6        2.89241   0.00147   0.00000   0.00113   0.00113   2.89355
    R7        2.66749   0.00111   0.00000   0.00146   0.00146   2.66895
    R8        2.06566   0.00151   0.00000   0.00063   0.00063   2.06628
    R9        2.06599   0.00142   0.00000   0.00067   0.00067   2.06666
   R10        2.06153   0.00148   0.00000   0.00077   0.00077   2.06230
[...]
 -------------------------------------------------------------------
 Center     Atomic                   Forces (Hartrees/Bohr)
 Number     Number              X              Y              Z
 -------------------------------------------------------------------
    1          6           0.000002209   -0.000003551    0.000012758
    2          1          -0.000002577    0.000001765   -0.000003140
    3          8          -0.000007096   -0.000002707   -0.000000651
    4          1           0.000001647    0.000000892   -0.000000787
    5          6           0.000059785   -0.000049572   -0.000058040
    6          6          -0.000000228   -0.000002378    0.000008420
    7          1          -0.000000546   -0.000000902   -0.000000856
    8          1           0.000002471    0.000001825   -0.000004483
    9          1           0.000001287    0.000000981   -0.000000418
   10          6          -0.000001887   -0.000001530    0.000001946
   11          1          -0.000001345   -0.000003530    0.000002659
   12          1           0.000000648   -0.000001381    0.000003580
   13          1           0.000001987    0.000001159   -0.000002710
   14          8          -0.000068446    0.000071725    0.000050452
   15          8          -0.000072216    0.000061627   -0.000057174
   16          1           0.000084306   -0.000074424    0.000048444
 -------------------------------------------------------------------
 Cartesian Forces:  Max     0.000084306 RMS     0.000032107

 GradGradGradGradGradGradGradGradGradGradGradGradGradGradGradGradGradGrad
 Berny optimization.
 Internal  Forces:  Max     0.000223771 RMS     0.000027043
 Search for a saddle point.
 Step number   1 out of a maximum of   2 on scan point     1 out of    37
 All quantities printed in internal units (Hartrees-Bohrs-Radians)
 Swaping is turned off.
 Second derivative matrix not updated -- analytic derivatives used.
     Eigenvalues ---   -0.07359   0.00203   0.00282   0.00517   0.01175
     Eigenvalues ---    0.01403   0.01680   0.03287   0.04498   0.04610
     Eigenvalues ---    0.04681   0.04864   0.06217   0.08649   0.10934
     Eigenvalues ---    0.11936   0.12298   0.12574   0.12688   0.13200
     Eigenvalues ---    0.14342   0.15031   0.17031   0.17671   0.18794
     Eigenvalues ---    0.21058   0.22169   0.27511   0.28135   0.31207
     Eigenvalues ---    0.33409   0.33952   0.34119   0.34298   0.35104
     Eigenvalues ---    0.35209   0.37347   0.38203   0.47936   0.50086
     Eigenvalues ---    0.508161000.000001000.000001000.000001000.00000
     Eigenvalues --- 1000.000001000.000001000.000001000.000001000.00000
     Eigenvalues --- 1000.000001000.000001000.000001000.000001000.00000
     Eigenvalues --- 1000.000001000.000001000.000001000.000001000.00000
     Eigenvalues --- 1000.000001000.000001000.000001000.000001000.00000
     Eigenvalues --- 1000.000001000.000001000.000001000.00000
 Eigenvectors required to have negative eigenvalues:
                          R1        R2        R3        R4        R5
         1              0.00209  -0.06601  -0.07004   0.00837   0.00390
                          R6        R7        R8        R9        R10
         1              0.00341  -0.13424   0.00128   0.00272  -0.00092
                          R11       R12       R13       R14       R15
         1              0.00274  -0.00079   0.00211   0.78558   0.00512
                          A1        A2        A3        A4        A5
         1             -0.00620  -0.00877   0.02022  -0.00063   0.08278
                          A6        A7        A8        A9        A10
         1              0.06530  -0.28979  -0.05347   0.07427   0.09309
                          A11       A12       A13       A14       A15
         1              0.00442   0.01260  -0.02143  -0.00027  -0.00292
                          A16       A17       A18       A19       A20
         1              0.00722   0.00753  -0.01673   0.00872  -0.00280
                          A21       A22       A23       A24       D1
         1             -0.00236   0.00485  -0.04889  -0.10500   0.03035
                          D2        D3        D4        D5        D6
         1             -0.00763  -0.05043   0.01823  -0.01404  -0.00895
                          D7        D8        D9        D10       D11
         1              0.05971   0.02744   0.12450   0.13569   0.13837
                          D12       D13       D14       D15       D16
         1              0.00247   0.01366   0.01634  -0.14358  -0.13239
                          D17       D18       D19       D20       D21
         1             -0.12971  -0.13034  -0.13965  -0.13925   0.00170
                          D22       D23       D24       D25       D26
         1             -0.00761  -0.00721   0.13773   0.12841   0.12881
                          D27       D28       D29       D30
         1             -0.01077   0.01671  -0.05319   0.00000
 Angle between quadratic step and forces=  71.08 degrees.
 Linear search not attempted -- option 19 set.
 Iteration  1 RMS(Cart)=  0.00021880 RMS(Int)=  0.00000004
 Iteration  2 RMS(Cart)=  0.00000004 RMS(Int)=  0.00000000
 Iteration  1 RMS(Cart)=  0.00000000 RMS(Int)=  0.00000000
 Variable       Old X    -DE/DX   Delta X   Delta X   Delta X     New X
                                 (Linear)    (Quad)   (Total)
    R1        2.04660   0.00000   0.00000   0.00000   0.00000   2.04660
    R2        2.52312   0.00000   0.00000  -0.00001  -0.00001   2.52311
    R3        2.81013  -0.00001   0.00000  -0.00003  -0.00003   2.81010
    R4        1.83964   0.00000   0.00000  -0.00001  -0.00001   1.83963
    R5        2.89167   0.00000   0.00000   0.00001   0.00001   2.89168
    R6        2.89394   0.00000   0.00000   0.00003   0.00003   2.89397
    R7        2.66280   0.00001   0.00000  -0.00003  -0.00003   2.66277
    R8        2.07012   0.00000   0.00000   0.00000   0.00000   2.07012
    R9        2.07045   0.00000   0.00000   0.00000   0.00000   2.07045
   R10        2.06544   0.00000   0.00000   0.00000   0.00000   2.06544
   R11        2.07439   0.00000   0.00000  -0.00001  -0.00001   2.07439
   R12        2.06481   0.00000   0.00000   0.00000   0.00000   2.06481
   R13        2.07109   0.00000   0.00000   0.00000   0.00000   2.07110
   R14        3.30874   0.00000   0.00000   0.00010   0.00010   3.30884
   R15        1.83986   0.00000   0.00000  -0.00001  -0.00001   1.83985
    A1        1.97396   0.00000   0.00000  -0.00001  -0.00001   1.97396
    A2        2.11971   0.00000   0.00000   0.00000   0.00000   2.11971
    A3        2.17941   0.00000   0.00000  -0.00002  -0.00002   2.17939
    A4        1.91096   0.00000   0.00000   0.00001   0.00001   1.91097
    A5        1.97158   0.00000   0.00000   0.00003   0.00003   1.97162
    A6        2.01794   0.00000   0.00000  -0.00004  -0.00004   2.01790
    A7        1.54850   0.00000   0.00000   0.00001   0.00001   1.54851
    A8        1.95971  -0.00001   0.00000  -0.00006  -0.00006   1.95966
    A9        1.96817   0.00000   0.00000   0.00005   0.00005   1.96822
   A10        1.96344   0.00000   0.00000   0.00002   0.00002   1.96346
   A11        1.92664   0.00000   0.00000   0.00000   0.00000   1.92664
   A12        1.94936   0.00000   0.00000  -0.00001  -0.00001   1.94935
   A13        1.89139   0.00000   0.00000   0.00001   0.00001   1.89141
   A14        1.89782   0.00000   0.00000  -0.00001  -0.00001   1.89781
   A15        1.88821   0.00000   0.00000  -0.00001  -0.00001   1.88820
   A16        1.90942   0.00000   0.00000   0.00002   0.00002   1.90944
   A17        1.94805   0.00000   0.00000  -0.00001  -0.00001   1.94804
   A18        1.89148   0.00000   0.00000   0.00005   0.00005   1.89153
   A19        1.95325   0.00000   0.00000  -0.00003  -0.00003   1.95321
   A20        1.85340   0.00000   0.00000   0.00000   0.00000   1.85340
   A21        1.91217   0.00000   0.00000   0.00002   0.00002   1.91219
   A22        1.90218   0.00000   0.00000  -0.00002  -0.00002   1.90216
   A23        1.88268   0.00000   0.00000  -0.00001  -0.00001   1.88267
   A24        1.60594   0.00000   0.00000  -0.00006  -0.00006   1.60588
    D1        3.11831   0.00000   0.00000   0.00004   0.00004   3.11835
    D2        0.12775   0.00000   0.00000   0.00023   0.00023   0.12798
    D3        0.60715   0.00000   0.00000   0.00026   0.00026   0.60740
    D4        2.89865   0.00000   0.00000   0.00017   0.00017   2.89881
    D5       -1.38716   0.00000   0.00000   0.00019   0.00019  -1.38697
    D6       -2.69740   0.00000   0.00000   0.00005   0.00005  -2.69735
    D7       -0.40590   0.00000   0.00000  -0.00004  -0.00004  -0.40593
    D8        1.59148   0.00000   0.00000  -0.00001  -0.00001   1.59147
    D9       -0.74400   0.00000   0.00000  -0.00035  -0.00035  -0.74435
   D10        1.36972   0.00000   0.00000  -0.00037  -0.00037   1.36935
   D11       -2.80893   0.00000   0.00000  -0.00034  -0.00034  -2.80926
   D12       -3.06412   0.00000   0.00000  -0.00027  -0.00027  -3.06439
   D13       -0.95040   0.00000   0.00000  -0.00029  -0.00029  -0.95069
   D14        1.15414   0.00000   0.00000  -0.00026  -0.00026   1.15388
   D15        0.97896   0.00000   0.00000  -0.00029  -0.00029   0.97866
   D16        3.09267   0.00000   0.00000  -0.00031  -0.00031   3.09236
   D17       -1.08597   0.00000   0.00000  -0.00028  -0.00028  -1.08625
   D18        0.91998   0.00000   0.00000   0.00045   0.00045   0.92043
   D19        2.95494   0.00000   0.00000   0.00047   0.00047   2.95541
   D20       -1.23023   0.00000   0.00000   0.00046   0.00046  -1.22977
   D21       -3.06610   0.00000   0.00000   0.00040   0.00040  -3.06570
   D22       -1.03115   0.00000   0.00000   0.00043   0.00043  -1.03072
   D23        1.06687   0.00000   0.00000   0.00042   0.00042   1.06728
   D24       -0.82351   0.00000   0.00000   0.00044   0.00044  -0.82306
   D25        1.21144   0.00000   0.00000   0.00047   0.00047   1.21191
   D26       -2.97372   0.00000   0.00000   0.00046   0.00046  -2.97327
   D27        3.12220   0.00000   0.00000  -0.00002  -0.00002   3.12219
   D28        1.12472   0.00000   0.00000  -0.00007  -0.00007   1.12465
   D29       -1.11345   0.00000   0.00000  -0.00005  -0.00005  -1.11350
   D30       -2.27194   0.00022   0.00000   0.00000   0.00000  -2.27194
         Item               Value     Threshold  Converged?
 Maximum Force            0.000008     0.000450     YES
 RMS     Force            0.000002     0.000300     YES
 Maximum Displacement     0.000744     0.001800     YES
 RMS     Displacement     0.000219     0.001200     YES
 Predicted change in Energy=-5.398662D-09
 Optimization completed.
    -- Stationary point found.
                           ----------------------------
                           !   Optimized Parameters   !
                           ! (Angstroms and Degrees)  !
 --------------------------                            --------------------------
 ! Name  Definition              Value          Derivative Info.                !
 --------------------------------------------------------------------------------
 ! R1    R(1,2)                  1.083          -DE/DX =    0.0                 !
 ! R2    R(1,3)                  1.3352         -DE/DX =    0.0                 !
 ! R3    R(1,5)                  1.4871         -DE/DX =    0.0                 !
 ! R4    R(3,4)                  0.9735         -DE/DX =    0.0                 !
 ! R5    R(5,6)                  1.5302         -DE/DX =    0.0                 !
 ! R6    R(5,10)                 1.5314         -DE/DX =    0.0                 !
 ! R7    R(5,14)                 1.4091         -DE/DX =    0.0                 !
 ! R8    R(6,7)                  1.0955         -DE/DX =    0.0                 !
 ! R9    R(6,8)                  1.0956         -DE/DX =    0.0                 !
 ! R10   R(6,9)                  1.093          -DE/DX =    0.0                 !
 ! R11   R(10,11)                1.0977         -DE/DX =    0.0                 !
 ! R12   R(10,12)                1.0927         -DE/DX =    0.0                 !
 ! R13   R(10,13)                1.096          -DE/DX =    0.0                 !
 ! R14   R(14,15)                1.7509         -DE/DX =    0.0                 !
 ! R15   R(15,16)                0.9736         -DE/DX =    0.0                 !
 ! A1    A(2,1,3)              113.0997         -DE/DX =    0.0                 !
 ! A2    A(2,1,5)              121.4502         -DE/DX =    0.0                 !
 ! A3    A(3,1,5)              124.8713         -DE/DX =    0.0                 !
 ! A4    A(1,3,4)              109.4898         -DE/DX =    0.0                 !
 ! A5    A(1,5,6)              112.9634         -DE/DX =    0.0                 !
 ! A6    A(1,5,10)             115.6194         -DE/DX =    0.0                 !
 ! A7    A(1,5,14)              88.7225         -DE/DX =    0.0                 !
 ! A8    A(6,5,10)             112.2833         -DE/DX =    0.0                 !
 ! A9    A(6,5,14)             112.7677         -DE/DX =    0.0                 !
 ! A10   A(10,5,14)            112.4969         -DE/DX =    0.0                 !
 ! A11   A(5,6,7)              110.3884         -DE/DX =    0.0                 !
 ! A12   A(5,6,8)              111.6899         -DE/DX =    0.0                 !
 ! A13   A(5,6,9)              108.3689         -DE/DX =    0.0                 !
 ! A14   A(7,6,8)              108.7373         -DE/DX =    0.0                 !
 ! A15   A(7,6,9)              108.1866         -DE/DX =    0.0                 !
 ! A16   A(8,6,9)              109.4015         -DE/DX =    0.0                 !
 ! A17   A(5,10,11)            111.6151         -DE/DX =    0.0                 !
 ! A18   A(5,10,12)            108.3738         -DE/DX =    0.0                 !
 ! A19   A(5,10,13)            111.9128         -DE/DX =    0.0                 !
 ! A20   A(11,10,12)           106.1919         -DE/DX =    0.0                 !
 ! A21   A(11,10,13)           109.5595         -DE/DX =    0.0                 !
 ! A22   A(12,10,13)           108.9868         -DE/DX =    0.0                 !
 ! A23   A(5,14,15)            107.8697         -DE/DX =    0.0                 !
 ! A24   A(14,15,16)            92.0135         -DE/DX =    0.0                 !
 ! D1    D(2,1,3,4)            178.6657         -DE/DX =    0.0                 !
 ! D2    D(5,1,3,4)              7.3195         -DE/DX =    0.0                 !
 ! D3    D(2,1,5,6)             34.7869         -DE/DX =    0.0                 !
 ! D4    D(2,1,5,10)           166.0802         -DE/DX =    0.0                 !
 ! D5    D(2,1,5,14)           -79.4782         -DE/DX =    0.0                 !
 ! D6    D(3,1,5,6)           -154.5496         -DE/DX =    0.0                 !
 ! D7    D(3,1,5,10)           -23.2563         -DE/DX =    0.0                 !
 ! D8    D(3,1,5,14)            91.1853         -DE/DX =    0.0                 !
 ! D9    D(1,5,6,7)            -42.6282         -DE/DX =    0.0                 !
 ! D10   D(1,5,6,8)             78.4789         -DE/DX =    0.0                 !
 ! D11   D(1,5,6,9)           -160.9396         -DE/DX =    0.0                 !
 ! D12   D(10,5,6,7)          -175.5613         -DE/DX =    0.0                 !
 ! D13   D(10,5,6,8)           -54.4541         -DE/DX =    0.0                 !
 ! D14   D(10,5,6,9)            66.1274         -DE/DX =    0.0                 !
 ! D15   D(14,5,6,7)            56.09           -DE/DX =    0.0                 !
 ! D16   D(14,5,6,8)           177.1972         -DE/DX =    0.0                 !
 ! D17   D(14,5,6,9)           -62.2214         -DE/DX =    0.0                 !
 ! D18   D(1,5,10,11)           52.7112         -DE/DX =    0.0                 !
 ! D19   D(1,5,10,12)          169.3054         -DE/DX =    0.0                 !
 ! D20   D(1,5,10,13)          -70.4871         -DE/DX =    0.0                 !
 ! D21   D(6,5,10,11)         -175.6746         -DE/DX =    0.0                 !
 ! D22   D(6,5,10,12)          -59.0804         -DE/DX =    0.0                 !
 ! D23   D(6,5,10,13)           61.1271         -DE/DX =    0.0                 !
 ! D24   D(14,5,10,11)         -47.1835         -DE/DX =    0.0                 !
 ! D25   D(14,5,10,12)          69.4107         -DE/DX =    0.0                 !
 ! D26   D(14,5,10,13)        -170.3818         -DE/DX =    0.0                 !
 ! D27   D(1,5,14,15)          178.8889         -DE/DX =    0.0                 !
 ! D28   D(6,5,14,15)           64.4416         -DE/DX =    0.0                 !
 ! D29   D(10,5,14,15)         -63.7957         -DE/DX =    0.0                 !
 ! D30   D(5,14,15,16)        -130.1724         -DE/DX =    0.0002              !
 --------------------------------------------------------------------------------
 Iteration  1 RMS(Cart)=  0.03358764 RMS(Int)=  0.00304354
 Iteration  2 RMS(Cart)=  0.00285387 RMS(Int)=  0.00000700
 Iteration  3 RMS(Cart)=  0.00001095 RMS(Int)=  0.00000000
 Iteration  4 RMS(Cart)=  0.00000000 RMS(Int)=  0.00000000
 Iteration  1 RMS(Cart)=  0.00000000 RMS(Int)=  0.00000000
 GradGradGradGradGradGradGradGradGradGradGradGradGradGradGradGradGradGrad

 1\1\GINC-NODE04\Scan\UB3LYP\6-31G(d)\C4H9O3(2)\NYEE\06-Jun-2013\0\\#N 
 Geom=AllCheck Guess=Read SCRF=Check GenChk UB3LYP/6-31G(d) Freq\\Title
  Card Required\\0,2\C,0.0209556455,0.1253197922,0.1132532059\H,0.73104
 08755,-0.0790495558,-0.6785372125\O,-0.1670037582,1.4302342006,0.32438
 02536\H,-0.8275195465,1.5534491668,1.0288139293\C,-0.7833307142,-0.960
 8117277,0.7335591874\C,-0.0223345224,-2.2846017035,0.8335439312\H,0.53
 3947261,-2.4757629663,-0.0905975156\H,0.6805930424,-2.2851073903,1.673
 9682868\H,-0.7487526641,-3.0902328086,0.9673025491\C,-1.4896363381,-0.
 5967276154,2.0426758198\H,-2.0935364109,0.3137983184,1.9366536767\H,-2
 .1887313094,-1.3987634012,2.2914548454\H,-0.7806248733,-0.4725983402,2
 .8691494187\O,-1.6484856158,-0.9117375233,-0.3775819385\O,-2.884390631
 8,-2.1310212627,-0.1504753191\H,-2.7451794398,-2.487968183,-1.04553211
 82\\Version=AM64L-G03RevD.01\HF=-383.3387536,-383.3363424,2.8041949,1.
 9070294,0.,0.,0.,0.,0.,0.,0.,0.,0.,0.,0.,0.,0.,0.,0.,0.,0.,0.,0.,0.,0.
 ,0.,0.,0.,0.,0.,0.,0.,0.,0.,0.,0.,0.\S2=0.792456,-383.330286,1.843263,
 1.327781,0.,0.,0.,0.,0.,0.,0.,0.,0.,0.,0.,0.,0.,0.,0.,0.,0.,0.,0.,0.,0
 .,0.,0.,0.,0.,0.,0.,0.,0.,0.,0.,0.,0.\S2-1=0.,-383.331517,1.973691,-2.
 850564,0.,0.,0.,0.,0.,0.,0.,0.,0.,0.,0.,0.,0.,0.,0.,0.,0.,0.,0.,0.,0.,
 0.,0.,0.,0.,0.,0.,0.,0.,0.,0.,0.,0.\S2A=0.750199,0.,1.261868,1.901808,
 0.,0.,0.,0.,0.,0.,0.,0.,0.,0.,0.,0.,0.,0.,0.,0.,0.,0.,0.,0.,0.,0.,0.,0
 .,0.,0.,0.,0.,0.,0.,0.,0.,0.\RMSD=2.498e-09,0.000e+00,-7.825e-01,1.903
 e+00,0.000e+00,0.000e+00,0.000e+00,0.000e+00,0.000e+00,0.000e+00,0.000
 e+00,0.000e+00,0.000e+00,0.000e+00,0.000e+00,0.000e+00,0.000e+00,0.000
 e+00,0.000e+00,0.000e+00,0.000e+00,0.000e+00,0.000e+00,0.000e+00,0.000
 e+00,0.000e+00,0.000e+00,0.000e+00,0.000e+00,0.000e+00,0.000e+00,0.000
 e+00,0.000e+00,0.000e+00,0.000e+00,0.000e+00,0.000e+00\ZeroPoint=0.128
 3928,0.,-0.9691033,2.1167385,0.,0.,0.,0.,0.,0.,0.,0.,0.,0.,0.,0.,0.,0.
 ,0.,0.,0.,0.,0.,0.,0.,0.,0.,0.,0.,0.,0.,0.,0.,0.,0.,0.,0.\Thermal=0.13
 74624,0.,-0.792673,2.0708647,0.,0.,0.,0.,0.,0.,0.,0.,0.,0.,0.,0.,0.,0.
 ,0.,0.,0.,0.,0.,0.,0.,0.,0.,0.,0.,0.,0.,0.,0.,0.,0.,0.,0.\PG=C01 [X(C4
 H9O3)]\\@


 DEPRESSION IS WAITING FOR YOUR SHIP TO COME IN,
 AND FINDING OUT IT'S THE TITANIC.
 Job cpu time:  0 days  0 hours 31 minutes  5.2 seconds.
 File lengths (MBytes):  RWF=     78 Int=      0 D2E=      0 Chk=     10 Scr=      1
 Normal termination of Gaussian 03 at Thu Jun  6 23:18:28 2013.
