 Entering Gaussian System, Link 0=g03
 Input=g-Q2-scan5-frozen.gjf
 Output=g-Q2-scan5-frozen.log
 Initial command:
 /opt/g03/l1.exe /scratch/shamel/Gau-24171.inp -scrdir=/scratch/shamel/
 Entering Link 1 = /opt/g03/l1.exe PID=     24173.
  
 Copyright (c) 1988,1990,1992,1993,1995,1998,2003,2004, Gaussian, Inc.
                  All Rights Reserved.
  
 This is the Gaussian(R) 03 program.  It is based on the
 the Gaussian(R) 98 system (copyright 1998, Gaussian, Inc.),
 the Gaussian(R) 94 system (copyright 1995, Gaussian, Inc.),
 the Gaussian 92(TM) system (copyright 1992, Gaussian, Inc.),
 the Gaussian 90(TM) system (copyright 1990, Gaussian, Inc.),
 the Gaussian 88(TM) system (copyright 1988, Gaussian, Inc.),
 the Gaussian 86(TM) system (copyright 1986, Carnegie Mellon
 University), and the Gaussian 82(TM) system (copyright 1983,
 Carnegie Mellon University). Gaussian is a federally registered
 trademark of Gaussian, Inc.
  
 This software contains proprietary and confidential information,
 including trade secrets, belonging to Gaussian, Inc.
  
 This software is provided under written license and may be
 used, copied, transmitted, or stored only in accord with that
 written license.
  
 The following legend is applicable only to US Government
 contracts under FAR:
  
                    RESTRICTED RIGHTS LEGEND
  
 Use, reproduction and disclosure by the US Government is
 subject to restrictions as set forth in subparagraphs (a)
 and (c) of the Commercial Computer Software - Restricted
 Rights clause in FAR 52.227-19.
  
 Gaussian, Inc.
 340 Quinnipiac St., Bldg. 40, Wallingford CT 06492
  
  
 ---------------------------------------------------------------
 Warning -- This program may not be used in any manner that
 competes with the business of Gaussian, Inc. or will provide
 assistance to any competitor of Gaussian, Inc.  The licensee
 of this program is prohibited from giving any competitor of
 Gaussian, Inc. access to this program.  By using this program,
 the user acknowledges that Gaussian, Inc. is engaged in the
 business of creating and licensing software in the field of
 computational chemistry and represents and warrants to the
 licensee that it is not a competitor of Gaussian, Inc. and that
 it will not use this program in any manner prohibited above.
 ---------------------------------------------------------------
  

 Cite this work as:
 Gaussian 03, Revision D.01,
 M. J. Frisch, G. W. Trucks, H. B. Schlegel, G. E. Scuseria, 
 M. A. Robb, J. R. Cheeseman, J. A. Montgomery, Jr., T. Vreven, 
 K. N. Kudin, J. C. Burant, J. M. Millam, S. S. Iyengar, J. Tomasi, 
 V. Barone, B. Mennucci, M. Cossi, G. Scalmani, N. Rega, 
 G. A. Petersson, H. Nakatsuji, M. Hada, M. Ehara, K. Toyota, 
 R. Fukuda, J. Hasegawa, M. Ishida, T. Nakajima, Y. Honda, O. Kitao, 
 H. Nakai, M. Klene, X. Li, J. E. Knox, H. P. Hratchian, J. B. Cross, 
 V. Bakken, C. Adamo, J. Jaramillo, R. Gomperts, R. E. Stratmann, 
 O. Yazyev, A. J. Austin, R. Cammi, C. Pomelli, J. W. Ochterski, 
 P. Y. Ayala, K. Morokuma, G. A. Voth, P. Salvador, J. J. Dannenberg, 
 V. G. Zakrzewski, S. Dapprich, A. D. Daniels, M. C. Strain, 
 O. Farkas, D. K. Malick, A. D. Rabuck, K. Raghavachari, 
 J. B. Foresman, J. V. Ortiz, Q. Cui, A. G. Baboul, S. Clifford, 
 J. Cioslowski, B. B. Stefanov, G. Liu, A. Liashenko, P. Piskorz, 
 I. Komaromi, R. L. Martin, D. J. Fox, T. Keith, M. A. Al-Laham, 
 C. Y. Peng, A. Nanayakkara, M. Challacombe, P. M. W. Gill, 
 B. Johnson, W. Chen, M. W. Wong, C. Gonzalez, and J. A. Pople, 
 Gaussian, Inc., Wallingford CT, 2004.
 
 ******************************************
 Gaussian 03:  AM64L-G03RevD.01 13-Oct-2005
                13-Aug-2013 
 ******************************************
 %chk=g-Q2-scan5-frozen.chk
 %mem=1000mb
 %nproc=8
 Will use up to    8 processors via shared memory.
 ------------------------------------
 # opt=(addred) b3lyp/6-31g(d) nosymm
 ------------------------------------
 1/14=-1,18=120,26=3,38=1/1,3;
 2/9=110,15=1,17=6,18=5,40=1/2;
 3/5=1,6=6,7=1,11=2,16=1,25=1,30=1,74=-5/1,2,3;
 4//1;
 5/5=2,38=5/2;
 6/7=2,8=2,9=2,10=2,28=1/1;
 7/30=1/1,2,3,16;
 1/14=-1,18=20/3(3);
 2/9=110,15=1/2;
 6/7=2,8=2,9=2,10=2,19=2,28=1/1;
 99//99;
 2/9=110,15=1/2;
 3/5=1,6=6,7=1,11=2,16=1,25=1,30=1,74=-5/1,2,3;
 4/5=5,16=3/1;
 5/5=2,38=5/2;
 7/30=1/1,2,3,16;
 1/14=-1,18=20/3(-5);
 2/9=110,15=1/2;
 6/7=2,8=2,9=2,10=2,19=2,28=1/1;
 99/9=1/99;
 -------------------
 Title Card Required
 -------------------
 Symbolic Z-matrix:
 Charge =  0 Multiplicity = 2
 C                    -1.024    -0.04169   0.00876 
 H                    -1.86379  -0.19812  -0.67935 
 H                    -0.62691  -1.017     0.31525 
 C                    -1.40804   0.78094   1.20379 
 C                    -0.74293   0.49973   2.51727 
 H                    -0.81437  -0.56389   2.78339 
 H                     0.3367    0.72759   2.48725 
 H                    -1.18073   1.0829    3.33579 
 C                    -2.13175   2.07281   0.99536 
 H                    -2.87918   1.99067   0.20151 
 H                    -2.63478   2.40017   1.91509 
 O                    -1.2547    3.14767   0.53637 
 H                    -0.53805   3.23475   1.18636 
 O                     0.06218   0.54745  -0.73893 
 O                    -0.49975   1.56618  -1.60507 
 H                    -0.5776    2.32329  -0.97704 
 
 The following ModRedundant input section has been read:
 D    4    9   12   13 S  36 10.000                                            
 D    1    4    9   12 F                                                       
 D   14    1    4    9 F                                                       
 D    4    1   14   15 F                                                       
 D    1   14   15   16 F                                                       

 GradGradGradGradGradGradGradGradGradGradGradGradGradGradGradGradGradGrad
 Berny optimization.
 Initialization pass.
                           ----------------------------
                           !    Initial Parameters    !
                           ! (Angstroms and Degrees)  !
 --------------------------                            --------------------------
 ! Name  Definition              Value          Derivative Info.                !
 --------------------------------------------------------------------------------
 ! R1    R(1,2)                  1.0969         estimate D2E/DX2                !
 ! R2    R(1,3)                  1.0967         estimate D2E/DX2                !
 ! R3    R(1,4)                  1.5008         estimate D2E/DX2                !
 ! R4    R(1,14)                 1.4443         estimate D2E/DX2                !
 ! R5    R(4,5)                  1.4989         estimate D2E/DX2                !
 ! R6    R(4,9)                  1.4954         estimate D2E/DX2                !
 ! R7    R(5,6)                  1.0987         estimate D2E/DX2                !
 ! R8    R(5,7)                  1.1038         estimate D2E/DX2                !
 ! R9    R(5,8)                  1.0962         estimate D2E/DX2                !
 ! R10   R(9,10)                 1.0934         estimate D2E/DX2                !
 ! R11   R(9,11)                 1.0982         estimate D2E/DX2                !
 ! R12   R(9,12)                 1.4612         estimate D2E/DX2                !
 ! R13   R(12,13)                0.9714         estimate D2E/DX2                !
 ! R14   R(12,16)                1.8516         estimate D2E/DX2                !
 ! R15   R(14,15)                1.4504         estimate D2E/DX2                !
 ! R16   R(15,16)                0.9868         estimate D2E/DX2                !
 ! A1    A(2,1,3)              109.0065         estimate D2E/DX2                !
 ! A2    A(2,1,4)              112.4435         estimate D2E/DX2                !
 ! A3    A(2,1,14)             108.0106         estimate D2E/DX2                !
 ! A4    A(3,1,4)              110.9516         estimate D2E/DX2                !
 ! A5    A(3,1,14)             103.599          estimate D2E/DX2                !
 ! A6    A(4,1,14)             112.4012         estimate D2E/DX2                !
 ! A7    A(1,4,5)              118.7761         estimate D2E/DX2                !
 ! A8    A(1,4,9)              119.1043         estimate D2E/DX2                !
 ! A9    A(5,4,9)              119.9324         estimate D2E/DX2                !
 ! A10   A(4,5,6)              111.4081         estimate D2E/DX2                !
 ! A11   A(4,5,7)              111.8051         estimate D2E/DX2                !
 ! A12   A(4,5,8)              112.1654         estimate D2E/DX2                !
 ! A13   A(6,5,7)              105.6657         estimate D2E/DX2                !
 ! A14   A(6,5,8)              107.9485         estimate D2E/DX2                !
 ! A15   A(7,5,8)              107.5237         estimate D2E/DX2                !
 ! A16   A(4,9,10)             111.5377         estimate D2E/DX2                !
 ! A17   A(4,9,11)             111.2509         estimate D2E/DX2                !
 ! A18   A(4,9,12)             112.8787         estimate D2E/DX2                !
 ! A19   A(10,9,11)            108.5006         estimate D2E/DX2                !
 ! A20   A(10,9,12)            103.7387         estimate D2E/DX2                !
 ! A21   A(11,9,12)            108.5853         estimate D2E/DX2                !
 ! A22   A(9,12,13)            107.3709         estimate D2E/DX2                !
 ! A23   A(1,14,15)            107.7152         estimate D2E/DX2                !
 ! A24   A(14,15,16)           100.9179         estimate D2E/DX2                !
 ! D1    D(2,1,4,5)            146.9325         estimate D2E/DX2                !
 ! D2    D(2,1,4,9)            -49.8737         estimate D2E/DX2                !
 ! D3    D(3,1,4,5)             24.5567         estimate D2E/DX2                !
 ! D4    D(3,1,4,9)           -172.2495         estimate D2E/DX2                !
 ! D5    D(14,1,4,5)           -90.9203         estimate D2E/DX2                !
 ! D6    D(14,1,4,9)            72.2735         Frozen                          !
 ! D7    D(2,1,14,15)           42.7589         estimate D2E/DX2                !
 ! D8    D(3,1,14,15)          158.2889         estimate D2E/DX2                !
 ! D9    D(4,1,14,15)          -81.8675         Frozen                          !
 ! D10   D(1,4,5,6)            -52.4947         estimate D2E/DX2                !
 ! D11   D(1,4,5,7)             65.4902         estimate D2E/DX2                !
 ! D12   D(1,4,5,8)           -173.6347         estimate D2E/DX2                !
 ! D13   D(9,4,5,6)            144.4538         estimate D2E/DX2                !
 ! D14   D(9,4,5,7)            -97.5614         estimate D2E/DX2                !
 ! D15   D(9,4,5,8)             23.3138         estimate D2E/DX2                !
 ! D16   D(1,4,9,10)            39.9621         estimate D2E/DX2                !
 ! D17   D(1,4,9,11)           161.2614         estimate D2E/DX2                !
 ! D18   D(1,4,9,12)           -76.3759         Frozen                          !
 ! D19   D(5,4,9,10)          -157.0418         estimate D2E/DX2                !
 ! D20   D(5,4,9,11)           -35.7424         estimate D2E/DX2                !
 ! D21   D(5,4,9,12)            86.6202         estimate D2E/DX2                !
 ! D22   D(4,9,12,13)          -56.2175         Scan                            !
 ! D23   D(10,9,12,13)        -177.1058         estimate D2E/DX2                !
 ! D24   D(11,9,12,13)          67.6268         estimate D2E/DX2                !
 ! D25   D(1,14,15,16)          81.7955         Frozen                          !
 --------------------------------------------------------------------------------
 Trust Radius=3.00D-01 FncErr=1.00D-07 GrdErr=1.00D-06
 Number of optimizations in scan=  37
 Number of steps in this run=  75 maximum allowed number of steps= 100.
 GradGradGradGradGradGradGradGradGradGradGradGradGradGradGradGradGradGrad

                          Input orientation:                          
 ---------------------------------------------------------------------
 Center     Atomic     Atomic              Coordinates (Angstroms)
 Number     Number      Type              X           Y           Z
 ---------------------------------------------------------------------
    1          6             0       -1.023999   -0.041688    0.008762
    2          1             0       -1.863792   -0.198121   -0.679345
    3          1             0       -0.626907   -1.017001    0.315247
    4          6             0       -1.408044    0.780938    1.203790
    5          6             0       -0.742928    0.499727    2.517270
    6          1             0       -0.814371   -0.563888    2.783388
    7          1             0        0.336696    0.727594    2.487252
    8          1             0       -1.180728    1.082897    3.335788
    9          6             0       -2.131750    2.072814    0.995355
   10          1             0       -2.879178    1.990669    0.201506
   11          1             0       -2.634776    2.400170    1.915088
   12          8             0       -1.254699    3.147671    0.536365
   13          1             0       -0.538053    3.234750    1.186357
   14          8             0        0.062182    0.547451   -0.738931
   15          8             0       -0.499745    1.566180   -1.605071
   16          1             0       -0.577600    2.323292   -0.977043
 ---------------------------------------------------------------------
                    Distance matrix (angstroms):
                    1          2          3          4          5
     1  C    0.000000
     2  H    1.096911   0.000000
     3  H    1.096745   1.785963   0.000000
     4  C    1.500765   2.170820   2.152271   0.000000
     5  C    2.581616   3.458566   2.676346   1.498896   0.000000
     6  H    2.831110   3.636700   2.516381   2.157808   1.098726
     7  H    2.930222   3.965657   2.947838   2.166619   1.103817
     8  H    3.515446   4.269529   3.720209   2.165241   1.096233
     9  C    2.582943   2.834355   3.503435   1.495373   2.592230
    10  H    2.758499   2.568601   3.759221   2.152268   3.485575
    11  H    3.491612   3.751882   4.274118   2.152377   2.748344
    12  O    3.240926   3.611547   4.217524   2.463817   3.346267
    13  H    3.515383   4.125898   4.340981   2.603533   3.048549
    14  O    1.444271   2.066108   2.008394   2.447498   3.354598
    15  O    2.337635   2.414612   3.221275   3.054720   4.264992
    16  H    2.600810   2.846127   3.581899   2.797235   3.944990
                    6          7          8          9         10
     6  H    0.000000
     7  H    1.755157   0.000000
     8  H    1.775180   1.774494   0.000000
     9  C    3.447426   3.182546   2.713302   0.000000
    10  H    4.177955   4.142685   3.678655   1.093432   0.000000
    11  H    3.585172   3.457532   2.422365   1.098229   1.778704
    12  O    4.361040   3.492173   3.479301   1.461235   2.022305
    13  H    4.129953   2.956915   3.108626   1.981526   2.828168
    14  O    3.796070   3.242848   4.293584   3.185564   3.408651
    15  O    4.888226   4.260278   5.010927   3.111645   3.017551
    16  H    4.746863   3.922184   4.528008   2.523584   2.607082
                   11         12         13         14         15
    11  H    0.000000
    12  O    2.089078   0.000000
    13  H    2.371459   0.971418   0.000000
    14  O    4.213071   3.181462   3.359850   0.000000
    15  O    4.200645   2.767095   3.252332   1.450438   0.000000
    16  H    3.549973   1.851612   2.347897   1.902532   0.986762
                   16
    16  H    0.000000
 Symmetry turned off by external request.
 Stoichiometry    C4H9O3(2)
 Framework group  C1[X(C4H9O3)]
 Deg. of freedom    42
 Full point group                 C1
 Rotational constants (GHZ):      3.1288940      2.3199703      1.5684872
 Standard basis: 6-31G(d) (6D, 7F)
 Integral buffers will be    131072 words long.
 Raffenetti 2 integral format.
 Two-electron integral symmetry is turned off.
   123 basis functions,   232 primitive gaussians,   123 cartesian basis functions
    29 alpha electrons       28 beta electrons
       nuclear repulsion energy       330.3675231275 Hartrees.
 NAtoms=   16 NActive=   16 NUniq=   16 SFac= 7.50D-01 NAtFMM=   80 NAOKFM=F Big=F
 One-electron integrals computed using PRISM.
 NBasis=   123 RedAO= T  NBF=   123
 NBsUse=   123 1.00D-06 NBFU=   123
 Harris functional with IExCor=  402 diagonalized for initial guess.
 ExpMin= 1.61D-01 ExpMax= 5.48D+03 ExpMxC= 8.25D+02 IAcc=1 IRadAn=         1 AccDes= 1.00D-06
 HarFok:  IExCor= 402 AccDes= 1.00D-06 IRadAn=         1 IDoV=1
 ScaDFX=  1.000000  1.000000  1.000000  1.000000
 <S**2> of initial guess= 0.7500
 Requested convergence on RMS density matrix=1.00D-08 within 128 cycles.
 Requested convergence on MAX density matrix=1.00D-06.
 Requested convergence on             energy=1.00D-06.
 No special actions if energy rises.
 Keep R1 and R2 integrals in memory in canonical form, NReq=    60141418.
 Integral accuracy reduced to 1.0D-05 until final iterations.
 Initial convergence to 1.0D-05 achieved.  Increase integral accuracy.
 SCF Done:  E(UB+HF-LYP) =  -383.344545163     A.U. after   17 cycles
             Convg  =    0.8749D-08             -V/T =  2.0089
             S**2   =   0.7543
 Annihilation of the first spin contaminant:
 S**2 before annihilation     0.7543,   after     0.7500

 **********************************************************************

            Population analysis using the SCF density.

 **********************************************************************

 Alpha  occ. eigenvalues --  -19.19036 -19.17568 -19.17102 -10.24840 -10.23416
 Alpha  occ. eigenvalues --  -10.21426 -10.19945  -1.09380  -1.03717  -0.88907
 Alpha  occ. eigenvalues --   -0.80429  -0.70637  -0.67854  -0.57436  -0.52357
 Alpha  occ. eigenvalues --   -0.50743  -0.48252  -0.46324  -0.44044  -0.42534
 Alpha  occ. eigenvalues --   -0.41685  -0.41030  -0.38614  -0.36441  -0.34823
 Alpha  occ. eigenvalues --   -0.29951  -0.27396  -0.25742  -0.21079
 Alpha virt. eigenvalues --    0.04313   0.05814   0.09747   0.12233   0.13257
 Alpha virt. eigenvalues --    0.14202   0.14540   0.15865   0.17545   0.18887
 Alpha virt. eigenvalues --    0.19790   0.21314   0.23883   0.29924   0.31545
 Alpha virt. eigenvalues --    0.49259   0.50443   0.51181   0.52773   0.55010
 Alpha virt. eigenvalues --    0.57061   0.64730   0.69587   0.70723   0.73570
 Alpha virt. eigenvalues --    0.74301   0.77333   0.78170   0.79734   0.82745
 Alpha virt. eigenvalues --    0.83256   0.85921   0.86986   0.88390   0.89667
 Alpha virt. eigenvalues --    0.90658   0.92617   0.94245   0.97378   0.98868
 Alpha virt. eigenvalues --    1.01460   1.04949   1.06512   1.14176   1.16162
 Alpha virt. eigenvalues --    1.21637   1.24937   1.27432   1.33772   1.36582
 Alpha virt. eigenvalues --    1.42272   1.47192   1.50490   1.55924   1.62903
 Alpha virt. eigenvalues --    1.65595   1.71875   1.73737   1.76343   1.79805
 Alpha virt. eigenvalues --    1.81545   1.84439   1.89596   1.94221   1.96851
 Alpha virt. eigenvalues --    1.97647   2.01617   2.04642   2.07609   2.10083
 Alpha virt. eigenvalues --    2.20339   2.23745   2.26397   2.28850   2.32605
 Alpha virt. eigenvalues --    2.36749   2.41360   2.45603   2.50550   2.56388
 Alpha virt. eigenvalues --    2.57784   2.61673   2.74958   2.75733   2.78977
 Alpha virt. eigenvalues --    2.80734   3.05412   3.65382   3.78908   3.87958
 Alpha virt. eigenvalues --    4.10123   4.31732   4.38704   4.54094
  Beta  occ. eigenvalues --  -19.18820 -19.17333 -19.17109 -10.24923 -10.23501
  Beta  occ. eigenvalues --  -10.20126 -10.20021  -1.09106  -1.03166  -0.88576
  Beta  occ. eigenvalues --   -0.78702  -0.70369  -0.67586  -0.56207  -0.51897
  Beta  occ. eigenvalues --   -0.50448  -0.47833  -0.45586  -0.43034  -0.41933
  Beta  occ. eigenvalues --   -0.41479  -0.40489  -0.38348  -0.36084  -0.34437
  Beta  occ. eigenvalues --   -0.29447  -0.26861  -0.25452
  Beta virt. eigenvalues --   -0.07683   0.04538   0.06229   0.09833   0.12346
  Beta virt. eigenvalues --    0.13333   0.14557   0.14926   0.16065   0.18202
  Beta virt. eigenvalues --    0.19423   0.20548   0.22531   0.25030   0.30720
  Beta virt. eigenvalues --    0.32329   0.49372   0.50696   0.52115   0.53552
  Beta virt. eigenvalues --    0.55450   0.57758   0.67492   0.70970   0.71407
  Beta virt. eigenvalues --    0.74191   0.74841   0.77611   0.79027   0.80004
  Beta virt. eigenvalues --    0.83046   0.83417   0.86300   0.87229   0.88696
  Beta virt. eigenvalues --    0.89887   0.90913   0.92808   0.94603   0.97683
  Beta virt. eigenvalues --    0.99263   1.01687   1.05160   1.06973   1.14590
  Beta virt. eigenvalues --    1.16479   1.22257   1.25223   1.27966   1.34573
  Beta virt. eigenvalues --    1.37304   1.43443   1.47800   1.50737   1.56022
  Beta virt. eigenvalues --    1.63309   1.66036   1.72458   1.74186   1.77107
  Beta virt. eigenvalues --    1.80895   1.82311   1.85321   1.90062   1.95027
  Beta virt. eigenvalues --    1.97480   1.99443   2.01997   2.05145   2.08468
  Beta virt. eigenvalues --    2.11300   2.20786   2.23872   2.26921   2.28981
  Beta virt. eigenvalues --    2.32713   2.37562   2.42006   2.46376   2.51997
  Beta virt. eigenvalues --    2.57042   2.58393   2.63347   2.75567   2.76367
  Beta virt. eigenvalues --    2.79362   2.81142   3.05548   3.65489   3.79293
  Beta virt. eigenvalues --    3.88181   4.11018   4.31781   4.38752   4.56088
          Condensed to atoms (all electrons):
              1          2          3          4          5          6
     1  C    4.921543   0.349883   0.362467   0.377261  -0.056139  -0.004444
     2  H    0.349883   0.597591  -0.027324  -0.047033   0.005132   0.000158
     3  H    0.362467  -0.027324   0.591337  -0.047560  -0.007607   0.004551
     4  C    0.377261  -0.047033  -0.047560   5.151855   0.376994  -0.032240
     5  C   -0.056139   0.005132  -0.007607   0.376994   5.152656   0.369699
     6  H   -0.004444   0.000158   0.004551  -0.032240   0.369699   0.552421
     7  H   -0.001508   0.000013   0.000317  -0.038732   0.358965  -0.034592
     8  H    0.004144  -0.000161   0.000076  -0.032431   0.367633  -0.025884
     9  C   -0.045914  -0.007618   0.005293   0.390880  -0.058524   0.003322
    10  H   -0.006945   0.005409   0.000006  -0.038470   0.005681  -0.000128
    11  H    0.004970  -0.000018  -0.000129  -0.043555  -0.009872   0.000095
    12  O   -0.000486  -0.000119  -0.000070  -0.053157   0.000283  -0.000039
    13  H   -0.000738   0.000066   0.000006  -0.002389   0.004279  -0.000017
    14  O    0.193439  -0.032939  -0.032857  -0.051494   0.000638  -0.000104
    15  O   -0.035123   0.004597   0.004919  -0.008940  -0.000029   0.000001
    16  H   -0.000205  -0.000428  -0.000548   0.004310  -0.000045  -0.000001
              7          8          9         10         11         12
     1  C   -0.001508   0.004144  -0.045914  -0.006945   0.004970  -0.000486
     2  H    0.000013  -0.000161  -0.007618   0.005409  -0.000018  -0.000119
     3  H    0.000317   0.000076   0.005293   0.000006  -0.000129  -0.000070
     4  C   -0.038732  -0.032431   0.390880  -0.038470  -0.043555  -0.053157
     5  C    0.358965   0.367633  -0.058524   0.005681  -0.009872   0.000283
     6  H   -0.034592  -0.025884   0.003322  -0.000128   0.000095  -0.000039
     7  H    0.574140  -0.032410   0.000645  -0.000160  -0.000082   0.000873
     8  H   -0.032410   0.563884  -0.004617   0.000057   0.006798  -0.000313
     9  C    0.000645  -0.004617   4.901129   0.377325   0.363166   0.204993
    10  H   -0.000160   0.000057   0.377325   0.558827  -0.036382  -0.040296
    11  H   -0.000082   0.006798   0.363166  -0.036382   0.610733  -0.036599
    12  O    0.000873  -0.000313   0.204993  -0.040296  -0.036599   8.270077
    13  H   -0.000407   0.000190  -0.022362   0.006912  -0.003495   0.226755
    14  O    0.002559  -0.000067  -0.004259  -0.000405  -0.000068   0.002235
    15  O   -0.000019   0.000000   0.012206   0.002297   0.000032  -0.022679
    16  H   -0.000031   0.000007  -0.010323  -0.002678   0.001060   0.062493
             13         14         15         16
     1  C   -0.000738   0.193439  -0.035123  -0.000205
     2  H    0.000066  -0.032939   0.004597  -0.000428
     3  H    0.000006  -0.032857   0.004919  -0.000548
     4  C   -0.002389  -0.051494  -0.008940   0.004310
     5  C    0.004279   0.000638  -0.000029  -0.000045
     6  H   -0.000017  -0.000104   0.000001  -0.000001
     7  H   -0.000407   0.002559  -0.000019  -0.000031
     8  H    0.000190  -0.000067   0.000000   0.000007
     9  C   -0.022362  -0.004259   0.012206  -0.010323
    10  H    0.006912  -0.000405   0.002297  -0.002678
    11  H   -0.003495  -0.000068   0.000032   0.001060
    12  O    0.226755   0.002235  -0.022679   0.062493
    13  H    0.393076   0.000147   0.001122  -0.003368
    14  O    0.000147   8.159340   0.075639  -0.020600
    15  O    0.001122   0.075639   8.224703   0.186919
    16  H   -0.003368  -0.020600   0.186919   0.353214
 Mulliken atomic charges:
              1
     1  C   -0.062206
     2  H    0.152792
     3  H    0.147124
     4  C    0.094701
     5  C   -0.509744
     6  H    0.167203
     7  H    0.170431
     8  H    0.153094
     9  C   -0.105342
    10  H    0.168950
    11  H    0.143348
    12  O   -0.613950
    13  H    0.400224
    14  O   -0.291204
    15  O   -0.445646
    16  H    0.430225
 Sum of Mulliken charges=   0.00000
 Atomic charges with hydrogens summed into heavy atoms:
              1
     1  C    0.237710
     2  H    0.000000
     3  H    0.000000
     4  C    0.094701
     5  C   -0.019016
     6  H    0.000000
     7  H    0.000000
     8  H    0.000000
     9  C    0.206956
    10  H    0.000000
    11  H    0.000000
    12  O   -0.213726
    13  H    0.000000
    14  O   -0.291204
    15  O   -0.015421
    16  H    0.000000
 Sum of Mulliken charges=   0.00000
          Atomic-Atomic Spin Densities.
              1          2          3          4          5          6
     1  C   -0.056616   0.007450   0.003877   0.009611  -0.000425  -0.000348
     2  H    0.007450   0.013289   0.000838  -0.007142   0.000201   0.000201
     3  H    0.003877   0.000838   0.001871  -0.002871   0.000993   0.000616
     4  C    0.009611  -0.007142  -0.002871   1.031373  -0.019094  -0.014819
     5  C   -0.000425   0.000201   0.000993  -0.019094  -0.075656   0.011433
     6  H   -0.000348   0.000201   0.000616  -0.014819   0.011433   0.043113
     7  H   -0.000150  -0.000161  -0.000583  -0.024597   0.003839  -0.016091
     8  H   -0.000132   0.000018   0.000028  -0.003770   0.004449   0.003156
     9  C   -0.000599   0.000345  -0.000065   0.024109  -0.000769  -0.000333
    10  H    0.000834   0.000775   0.000034  -0.005869   0.000110   0.000054
    11  H   -0.000062   0.000062   0.000008  -0.005095   0.000951   0.000157
    12  O   -0.000531  -0.000340  -0.000029  -0.034175  -0.000330  -0.000084
    13  H    0.000114   0.000023   0.000007   0.004890  -0.000038   0.000045
    14  O   -0.011608  -0.005246  -0.002079  -0.029332  -0.000463  -0.000307
    15  O    0.000550   0.000135   0.000012   0.000256   0.000005   0.000001
    16  H    0.000767   0.000217   0.000024   0.002228   0.000021   0.000005
              7          8          9         10         11         12
     1  C   -0.000150  -0.000132  -0.000599   0.000834  -0.000062  -0.000531
     2  H   -0.000161   0.000018   0.000345   0.000775   0.000062  -0.000340
     3  H   -0.000583   0.000028  -0.000065   0.000034   0.000008  -0.000029
     4  C   -0.024597  -0.003770   0.024109  -0.005869  -0.005095  -0.034175
     5  C    0.003839   0.004449  -0.000769   0.000110   0.000951  -0.000330
     6  H   -0.016091   0.003156  -0.000333   0.000054   0.000157  -0.000084
     7  H    0.101790  -0.006508  -0.000423  -0.000102  -0.000350   0.001209
     8  H   -0.006508   0.006204   0.000539   0.000072   0.000432  -0.000332
     9  C   -0.000423   0.000539  -0.048808   0.005674   0.005088  -0.026415
    10  H   -0.000102   0.000072   0.005674   0.011205   0.001753  -0.006192
    11  H   -0.000350   0.000432   0.005088   0.001753   0.005438  -0.004173
    12  O    0.001209  -0.000332  -0.026415  -0.006192  -0.004173   0.136839
    13  H   -0.000894   0.000152   0.003152   0.000306   0.000508  -0.005579
    14  O    0.001558  -0.000032  -0.000559  -0.000473  -0.000045   0.001535
    15  O   -0.000005   0.000000   0.000127   0.000021   0.000004   0.000140
    16  H   -0.000071   0.000004   0.001020   0.000340   0.000028  -0.002620
             13         14         15         16
     1  C    0.000114  -0.011608   0.000550   0.000767
     2  H    0.000023  -0.005246   0.000135   0.000217
     3  H    0.000007  -0.002079   0.000012   0.000024
     4  C    0.004890  -0.029332   0.000256   0.002228
     5  C   -0.000038  -0.000463   0.000005   0.000021
     6  H    0.000045  -0.000307   0.000001   0.000005
     7  H   -0.000894   0.001558  -0.000005  -0.000071
     8  H    0.000152  -0.000032   0.000000   0.000004
     9  C    0.003152  -0.000559   0.000127   0.001020
    10  H    0.000306  -0.000473   0.000021   0.000340
    11  H    0.000508  -0.000045   0.000004   0.000028
    12  O   -0.005579   0.001535   0.000140  -0.002620
    13  H   -0.000633  -0.000310   0.000001   0.000382
    14  O   -0.000310   0.108075  -0.001037  -0.001629
    15  O    0.000001  -0.001037  -0.002238  -0.000465
    16  H    0.000382  -0.001629  -0.000465   0.001272
 Mulliken atomic spin densities:
              1
     1  C   -0.047269
     2  H    0.010665
     3  H    0.002681
     4  C    0.925702
     5  C   -0.074774
     6  H    0.026799
     7  H    0.058462
     8  H    0.004279
     9  C   -0.037917
    10  H    0.008542
    11  H    0.004702
    12  O    0.058923
    13  H    0.002126
    14  O    0.058048
    15  O   -0.002493
    16  H    0.001525
 Sum of Mulliken spin densities=   1.00000
 Electronic spatial extent (au):  <R**2>=  1370.3560
 Charge=     0.0000 electrons
 Dipole moment (field-independent basis, Debye):
    X=    -1.0475    Y=    -0.1101    Z=     3.9450  Tot=     4.0832
 Quadrupole moment (field-independent basis, Debye-Ang):
   XX=   -40.5853   YY=   -41.3116   ZZ=   -42.5923
   XY=     1.2097   XZ=    -0.9486   YZ=     5.7811
 Traceless Quadrupole moment (field-independent basis, Debye-Ang):
   XX=     0.9111   YY=     0.1848   ZZ=    -1.0959
   XY=     1.2097   XZ=    -0.9486   YZ=     5.7811
 Octapole moment (field-independent basis, Debye-Ang**2):
  XXX=   124.0938  YYY=  -157.0838  ZZZ=   -51.3445  XYY=    52.6220
  XXY=   -50.0497  XXZ=   -21.0993  XZZ=    41.4729  YZZ=   -47.0706
  YYZ=    -9.8251  XYZ=    -2.3623
 Hexadecapole moment (field-independent basis, Debye-Ang**3):
 XXXX=  -417.9044 YYYY=  -741.4502 ZZZZ=  -557.1915 XXXY=   182.5578
 XXXZ=   107.0603 YYYX=   241.3793 YYYZ=   -40.2627 ZZZX=    95.1161
 ZZZY=   -40.7526 XXYY=  -200.3353 XXZZ=  -161.8720 YYZZ=  -187.7672
 XXYZ=   -16.9830 YYXZ=    33.5768 ZZXY=    58.0795
 N-N= 3.303675231275D+02 E-N=-1.558184571895D+03  KE= 3.799729365882D+02
                          Isotropic Fermi Contact Couplings
        Atom                 a.u.       MegaHertz       Gauss      10(-4) cm-1
     1  C(13)             -0.01737     -19.52297      -6.96628      -6.51216
     2  H(1)               0.00563      25.17830       8.98424       8.39858
     3  H(1)               0.00091       4.06773       1.45147       1.35685
     4  C(13)              0.12144     136.52665      48.71610      45.54039
     5  C(13)             -0.02459     -27.64629      -9.86488      -9.22181
     6  H(1)               0.01440      64.36996      22.96880      21.47151
     7  H(1)               0.02831     126.53297      45.15011      42.20686
     8  H(1)               0.00190       8.48257       3.02679       2.82948
     9  C(13)             -0.01506     -16.92674      -6.03988      -5.64615
    10  H(1)               0.00388      17.36007       6.19450       5.79069
    11  H(1)               0.00222       9.91382       3.53750       3.30690
    12  O(17)              0.05608     -33.99648     -12.13079     -11.34000
    13  H(1)              -0.00132      -5.89375      -2.10304      -1.96594
    14  O(17)              0.02773     -16.80785      -5.99746      -5.60650
    15  O(17)              0.00363      -2.19992      -0.78499      -0.73381
    16  H(1)               0.00034       1.50755       0.53793       0.50287
 --------------------------------------------------------
       Center         ----  Spin Dipole Couplings  ----
                      3XX-RR        3YY-RR        3ZZ-RR
 --------------------------------------------------------
     1   Atom       -0.009073      0.002091      0.006982
     2   Atom       -0.007779     -0.004026      0.011805
     3   Atom       -0.003691      0.007553     -0.003861
     4   Atom        0.518268     -0.091585     -0.426683
     5   Atom        0.004026     -0.008987      0.004961
     6   Atom       -0.005458      0.001056      0.004402
     7   Atom        0.008096     -0.009526      0.001430
     8   Atom       -0.006984     -0.007658      0.014642
     9   Atom       -0.000199      0.008437     -0.008238
    10   Atom        0.002814      0.002728     -0.005541
    11   Atom       -0.001043      0.009905     -0.008862
    12   Atom       -0.152679      0.274376     -0.121698
    13   Atom       -0.001226      0.007339     -0.006113
    14   Atom        0.066451     -0.150605      0.084154
    15   Atom       -0.008127     -0.004796      0.012923
    16   Atom       -0.005352      0.000356      0.004997
 --------------------------------------------------------
                        XY            XZ            YZ
 --------------------------------------------------------
     1   Atom       -0.004749     -0.001864      0.012388
     2   Atom        0.003227      0.001024      0.010724
     3   Atom       -0.006963     -0.006187      0.009612
     4   Atom        0.648606     -0.281316     -0.178191
     5   Atom        0.007638      0.012011     -0.004443
     6   Atom       -0.005345      0.006659     -0.011364
     7   Atom       -0.000573      0.009916     -0.001779
     8   Atom        0.001318      0.003700      0.003355
     9   Atom       -0.011892      0.000587     -0.002813
    10   Atom       -0.009399      0.007041     -0.008983
    11   Atom       -0.009968     -0.005045      0.005650
    12   Atom        0.045332     -0.008902     -0.131497
    13   Atom        0.009915      0.011974      0.002976
    14   Atom       -0.047379     -0.231820      0.033225
    15   Atom        0.014048     -0.010493     -0.007884
    16   Atom        0.000921     -0.004407     -0.006889
 --------------------------------------------------------


 ---------------------------------------------------------------------------------
              Anisotropic Spin Dipole Couplings in Principal Axis System
 ---------------------------------------------------------------------------------

       Atom             a.u.   MegaHertz   Gauss  10(-4) cm-1        Axes

              Baa    -0.0115    -1.550    -0.553    -0.517  0.8058  0.5266 -0.2710
     1 C(13)  Bbb    -0.0064    -0.853    -0.304    -0.285  0.5689 -0.5614  0.6009
              Bcc     0.0179     2.403     0.857     0.801 -0.1643  0.6384  0.7520
 
              Baa    -0.0112    -5.995    -2.139    -2.000 -0.5953  0.7383 -0.3172
     2 H(1)   Bbb    -0.0062    -3.312    -1.182    -1.105  0.7980  0.4968 -0.3412
              Bcc     0.0174     9.307     3.321     3.104  0.0943  0.4562  0.8849
 
              Baa    -0.0105    -5.592    -1.995    -1.865  0.5006 -0.2487  0.8292
     3 H(1)   Bbb    -0.0066    -3.508    -1.252    -1.170  0.7655  0.5745 -0.2899
              Bcc     0.0171     9.099     3.247     3.035 -0.4043  0.7798  0.4780
 
              Baa    -0.5042   -67.653   -24.140   -22.566  0.3859 -0.2198  0.8960
     4 C(13)  Bbb    -0.5032   -67.528   -24.096   -22.525 -0.4180  0.8241  0.3822
              Bcc     1.0074   135.180    48.236    45.091  0.8224  0.5220 -0.2262
 
              Baa    -0.0169    -2.274    -0.811    -0.758 -0.5170  0.7382  0.4333
     5 C(13)  Bbb     0.0002     0.032     0.011     0.011  0.4730  0.6683 -0.5742
              Bcc     0.0167     2.242     0.800     0.748  0.7134  0.0919  0.6947
 
              Baa    -0.0090    -4.799    -1.712    -1.601 -0.5956  0.4418  0.6709
     6 H(1)   Bbb    -0.0084    -4.486    -1.601    -1.496  0.7231  0.6586  0.2083
              Bcc     0.0174     9.284     3.313     3.097  0.3498 -0.6092  0.7117
 
              Baa    -0.0099    -5.287    -1.886    -1.763 -0.1016  0.9654  0.2403
     7 H(1)   Bbb    -0.0054    -2.885    -1.029    -0.962 -0.5795 -0.2538  0.7744
              Bcc     0.0153     8.172     2.916     2.726  0.8086 -0.0606  0.5852
 
              Baa    -0.0087    -4.637    -1.655    -1.547 -0.5740  0.8184 -0.0267
     8 H(1)   Bbb    -0.0071    -3.786    -1.351    -1.263  0.8016  0.5550 -0.2221
              Bcc     0.0158     8.424     3.006     2.810  0.1670  0.1489  0.9747
 
              Baa    -0.0097    -1.295    -0.462    -0.432  0.5413  0.4649  0.7006
     9 C(13)  Bbb    -0.0074    -0.992    -0.354    -0.331 -0.6209 -0.3409  0.7059
              Bcc     0.0170     2.287     0.816     0.763 -0.5670  0.8171 -0.1041
 
              Baa    -0.0114    -6.081    -2.170    -2.028 -0.1164  0.4767  0.8713
    10 H(1)   Bbb    -0.0063    -3.367    -1.202    -1.123  0.7770  0.5902 -0.2191
              Bcc     0.0177     9.448     3.371     3.151 -0.6187  0.6515 -0.4391
 
              Baa    -0.0114    -6.070    -2.166    -2.025  0.3891 -0.0617  0.9191
    11 H(1)   Bbb    -0.0065    -3.467    -1.237    -1.157  0.7710  0.5678 -0.2883
              Bcc     0.0179     9.538     3.403     3.181 -0.5041  0.8208  0.2686
 
              Baa    -0.1643    11.888     4.242     3.965 -0.5360  0.2928  0.7919
    12 O(17)  Bbb    -0.1543    11.162     3.983     3.723  0.8386  0.0767  0.5393
              Bcc     0.3185   -23.050    -8.225    -7.688  0.0971  0.9531 -0.2866
 
              Baa    -0.0167    -8.890    -3.172    -2.965 -0.6752  0.1906  0.7126
    13 H(1)   Bbb    -0.0011    -0.580    -0.207    -0.193 -0.4178  0.6974 -0.5823
              Bcc     0.0177     9.470     3.379     3.159  0.6079  0.6909  0.3912
 
              Baa    -0.1681    12.166     4.341     4.058  0.5588  0.7156  0.4192
    14 O(17)  Bbb    -0.1461    10.571     3.772     3.526 -0.4595  0.6879 -0.5619
              Bcc     0.3142   -22.738    -8.113    -7.584 -0.6904  0.1213  0.7132
 
              Baa    -0.0209     1.509     0.538     0.503  0.7715 -0.6295  0.0927
    15 O(17)  Bbb    -0.0027     0.193     0.069     0.064  0.4473  0.6402  0.6246
              Bcc     0.0235    -1.702    -0.607    -0.568 -0.4525 -0.4404  0.7754
 
              Baa    -0.0075    -3.990    -1.424    -1.331  0.8289  0.3113  0.4648
    16 H(1)   Bbb    -0.0035    -1.877    -0.670    -0.626 -0.5018  0.7809  0.3720
              Bcc     0.0110     5.867     2.093     1.957 -0.2471 -0.5416  0.8035
 

 ---------------------------------------------------------------------------------

 -------------------------------------------------------------------
 Center     Atomic                   Forces (Hartrees/Bohr)
 Number     Number              X              Y              Z
 -------------------------------------------------------------------
    1          6          -0.000006922    0.000003321    0.000002964
    2          1          -0.000009253   -0.000001657    0.000006320
    3          1          -0.000002306   -0.000001513   -0.000002117
    4          6          -0.000044266   -0.000059767   -0.000215265
    5          6           0.000009240    0.000002358   -0.000004523
    6          1           0.000015835    0.000001704   -0.000001935
    7          1           0.000014738    0.000000950   -0.000008069
    8          1           0.000018616    0.000001308    0.000000811
    9          6           0.000023033    0.000127850    0.000344609
   10          1          -0.000004083   -0.000000864    0.000011468
   11          1           0.000008350   -0.000000330    0.000010376
   12          8           0.000200856   -0.000295308   -0.000299535
   13          1          -0.000183307    0.000225738    0.000170079
   14          8          -0.000008713   -0.000002501   -0.000007219
   15          8          -0.000018970    0.000002403   -0.000003025
   16          1          -0.000012848   -0.000003692   -0.000004941
 -------------------------------------------------------------------
 Cartesian Forces:  Max     0.000344609 RMS     0.000104134

 GradGradGradGradGradGradGradGradGradGradGradGradGradGradGradGradGradGrad
 Berny optimization.
 Internal  Forces:  Max     0.000309628 RMS     0.000053297
 Search for a local minimum.
 Step number   1 out of a maximum of  75 on scan point     1 out of    37
 All quantities printed in internal units (Hartrees-Bohrs-Radians)
 Second derivative matrix not updated -- first step.
     Eigenvalues ---    0.00781   0.00872   0.03057   0.03511   0.06063
     Eigenvalues ---    0.06993   0.07081   0.07181   0.07420   0.11412
     Eigenvalues ---    0.11694   0.11956   0.12031   0.16000   0.16000
     Eigenvalues ---    0.16000   0.16000   0.16042   0.22096   0.23119
     Eigenvalues ---    0.23560   0.24808   0.31921   0.32493   0.32822
     Eigenvalues ---    0.33263   0.33823   0.33879   0.34026   0.34045
     Eigenvalues ---    0.34102   0.34419   0.36799   0.38187   0.38852
     Eigenvalues ---    0.49356   0.530881000.000001000.000001000.00000
     Eigenvalues --- 1000.000001000.000001000.000001000.000001000.00000
     Eigenvalues --- 1000.000001000.000001000.000001000.000001000.00000
     Eigenvalues --- 1000.000001000.000001000.000001000.000001000.00000
     Eigenvalues --- 1000.000001000.000001000.000001000.000001000.00000
     Eigenvalues --- 1000.000001000.000001000.000001000.000001000.00000
 RFO step:  Lambda= 0.00000000D+00.
 Linear search not attempted -- first point.
 Iteration  1 RMS(Cart)=  0.00003042 RMS(Int)=  0.00000000
 Iteration  2 RMS(Cart)=  0.00000000 RMS(Int)=  0.00000000
 Iteration  1 RMS(Cart)=  0.00000000 RMS(Int)=  0.00000000
 Variable       Old X    -DE/DX   Delta X   Delta X   Delta X     New X
                                 (Linear)    (Quad)   (Total)
    R1        2.07286   0.00000   0.00000   0.00000   0.00000   2.07286
    R2        2.07255   0.00000   0.00000   0.00000   0.00000   2.07255
    R3        2.83604   0.00000   0.00000  -0.00001  -0.00001   2.83603
    R4        2.72928   0.00000   0.00000   0.00000   0.00000   2.72928
    R5        2.83250   0.00000   0.00000   0.00000   0.00000   2.83250
    R6        2.82584   0.00000   0.00000   0.00000   0.00000   2.82584
    R7        2.07629   0.00000   0.00000   0.00000   0.00000   2.07629
    R8        2.08591   0.00000   0.00000   0.00001   0.00001   2.08592
    R9        2.07158   0.00000   0.00000   0.00000   0.00000   2.07158
   R10        2.06629   0.00000   0.00000   0.00000   0.00000   2.06629
   R11        2.07535   0.00000   0.00000   0.00000   0.00000   2.07535
   R12        2.76133   0.00000   0.00000   0.00000   0.00000   2.76133
   R13        1.83571   0.00000   0.00000   0.00000   0.00000   1.83572
   R14        3.49904  -0.00001   0.00000  -0.00003  -0.00003   3.49901
   R15        2.74093   0.00000   0.00000   0.00000   0.00000   2.74093
   R16        1.86471  -0.00001   0.00000  -0.00001  -0.00001   1.86470
    A1        1.90252   0.00000   0.00000   0.00000   0.00000   1.90252
    A2        1.96251   0.00000   0.00000   0.00001   0.00001   1.96252
    A3        1.88514   0.00000   0.00000   0.00000   0.00000   1.88514
    A4        1.93647   0.00000   0.00000   0.00000   0.00000   1.93647
    A5        1.80814  -0.00001   0.00000  -0.00001  -0.00001   1.80814
    A6        1.96177   0.00001   0.00000   0.00000   0.00000   1.96177
    A7        2.07303  -0.00001   0.00000  -0.00002  -0.00002   2.07301
    A8        2.07876   0.00001   0.00000   0.00000   0.00000   2.07876
    A9        2.09322   0.00000   0.00000   0.00001   0.00001   2.09322
   A10        1.94444   0.00000   0.00000  -0.00001  -0.00001   1.94443
   A11        1.95137   0.00000   0.00000   0.00002   0.00002   1.95138
   A12        1.95765   0.00000   0.00000   0.00001   0.00001   1.95767
   A13        1.84421   0.00000   0.00000  -0.00002  -0.00002   1.84419
   A14        1.88406   0.00000   0.00000   0.00000   0.00000   1.88406
   A15        1.87664   0.00000   0.00000  -0.00001  -0.00001   1.87664
   A16        1.94670  -0.00013   0.00000   0.00000   0.00000   1.94671
   A17        1.94169   0.00012   0.00000  -0.00001  -0.00001   1.94168
   A18        1.97011   0.00001   0.00000   0.00000   0.00000   1.97011
   A19        1.89369   0.00000   0.00000   0.00001   0.00001   1.89370
   A20        1.81058  -0.00001   0.00000   0.00000   0.00000   1.81058
   A21        1.89517   0.00000   0.00000  -0.00001  -0.00001   1.89517
   A22        1.87398   0.00000   0.00000  -0.00001  -0.00001   1.87397
   A23        1.87998   0.00001   0.00000  -0.00001  -0.00001   1.87998
   A24        1.76135   0.00000   0.00000  -0.00001  -0.00001   1.76134
    D1        2.56446   0.00000   0.00000   0.00005   0.00005   2.56451
    D2       -0.87046   0.00000   0.00000   0.00000   0.00000  -0.87046
    D3        0.42860   0.00000   0.00000   0.00005   0.00005   0.42865
    D4       -3.00632   0.00000   0.00000  -0.00001  -0.00001  -3.00633
    D5       -1.58686   0.00000   0.00000   0.00006   0.00006  -1.58680
    D6        1.26141   0.00000   0.00000   0.00000   0.00000   1.26141
    D7        0.74628   0.00000   0.00000   0.00001   0.00001   0.74629
    D8        2.76266   0.00000   0.00000   0.00000   0.00000   2.76266
    D9       -1.42886   0.00000   0.00000   0.00000   0.00000  -1.42886
   D10       -0.91621   0.00000   0.00000   0.00001   0.00001  -0.91620
   D11        1.14302   0.00000   0.00000  -0.00001  -0.00001   1.14301
   D12       -3.03050   0.00000   0.00000   0.00000   0.00000  -3.03049
   D13        2.52119   0.00000   0.00000   0.00007   0.00007   2.52126
   D14       -1.70277   0.00000   0.00000   0.00005   0.00005  -1.70272
   D15        0.40690   0.00000   0.00000   0.00006   0.00006   0.40697
   D16        0.69747  -0.00003   0.00000   0.00001   0.00001   0.69748
   D17        2.81454  -0.00004   0.00000   0.00001   0.00001   2.81456
   D18       -1.33301   0.00007   0.00000   0.00000   0.00000  -1.33301
   D19       -2.74090  -0.00003   0.00000  -0.00006  -0.00006  -2.74095
   D20       -0.62382  -0.00004   0.00000  -0.00005  -0.00005  -0.62387
   D21        1.51181   0.00007   0.00000  -0.00006  -0.00006   1.51174
   D22       -0.98118  -0.00031   0.00000   0.00000   0.00000  -0.98118
   D23       -3.09108  -0.00015   0.00000  -0.00001  -0.00001  -3.09109
   D24        1.18031  -0.00014   0.00000  -0.00002  -0.00002   1.18029
   D25        1.42760   0.00000   0.00000   0.00000   0.00000   1.42760
         Item               Value     Threshold  Converged?
 Maximum Force            0.000003     0.000450     YES
 RMS     Force            0.000001     0.000300     YES
 Maximum Displacement     0.000100     0.001800     YES
 RMS     Displacement     0.000030     0.001200     YES
 Predicted change in Energy=-3.730733D-10
 Optimization completed.
    -- Stationary point found.
                           ----------------------------
                           !   Optimized Parameters   !
                           ! (Angstroms and Degrees)  !
 --------------------------                            --------------------------
 ! Name  Definition              Value          Derivative Info.                !
 --------------------------------------------------------------------------------
 ! R1    R(1,2)                  1.0969         -DE/DX =    0.0                 !
 ! R2    R(1,3)                  1.0967         -DE/DX =    0.0                 !
 ! R3    R(1,4)                  1.5008         -DE/DX =    0.0                 !
 ! R4    R(1,14)                 1.4443         -DE/DX =    0.0                 !
 ! R5    R(4,5)                  1.4989         -DE/DX =    0.0                 !
 ! R6    R(4,9)                  1.4954         -DE/DX =    0.0                 !
 ! R7    R(5,6)                  1.0987         -DE/DX =    0.0                 !
 ! R8    R(5,7)                  1.1038         -DE/DX =    0.0                 !
 ! R9    R(5,8)                  1.0962         -DE/DX =    0.0                 !
 ! R10   R(9,10)                 1.0934         -DE/DX =    0.0                 !
 ! R11   R(9,11)                 1.0982         -DE/DX =    0.0                 !
 ! R12   R(9,12)                 1.4612         -DE/DX =    0.0                 !
 ! R13   R(12,13)                0.9714         -DE/DX =    0.0                 !
 ! R14   R(12,16)                1.8516         -DE/DX =    0.0                 !
 ! R15   R(14,15)                1.4504         -DE/DX =    0.0                 !
 ! R16   R(15,16)                0.9868         -DE/DX =    0.0                 !
 ! A1    A(2,1,3)              109.0065         -DE/DX =    0.0                 !
 ! A2    A(2,1,4)              112.4435         -DE/DX =    0.0                 !
 ! A3    A(2,1,14)             108.0106         -DE/DX =    0.0                 !
 ! A4    A(3,1,4)              110.9516         -DE/DX =    0.0                 !
 ! A5    A(3,1,14)             103.599          -DE/DX =    0.0                 !
 ! A6    A(4,1,14)             112.4012         -DE/DX =    0.0                 !
 ! A7    A(1,4,5)              118.7761         -DE/DX =    0.0                 !
 ! A8    A(1,4,9)              119.1043         -DE/DX =    0.0                 !
 ! A9    A(5,4,9)              119.9324         -DE/DX =    0.0                 !
 ! A10   A(4,5,6)              111.4081         -DE/DX =    0.0                 !
 ! A11   A(4,5,7)              111.8051         -DE/DX =    0.0                 !
 ! A12   A(4,5,8)              112.1654         -DE/DX =    0.0                 !
 ! A13   A(6,5,7)              105.6657         -DE/DX =    0.0                 !
 ! A14   A(6,5,8)              107.9485         -DE/DX =    0.0                 !
 ! A15   A(7,5,8)              107.5237         -DE/DX =    0.0                 !
 ! A16   A(4,9,10)             111.5377         -DE/DX =   -0.0001              !
 ! A17   A(4,9,11)             111.2509         -DE/DX =    0.0001              !
 ! A18   A(4,9,12)             112.8787         -DE/DX =    0.0                 !
 ! A19   A(10,9,11)            108.5006         -DE/DX =    0.0                 !
 ! A20   A(10,9,12)            103.7387         -DE/DX =    0.0                 !
 ! A21   A(11,9,12)            108.5853         -DE/DX =    0.0                 !
 ! A22   A(9,12,13)            107.3709         -DE/DX =    0.0                 !
 ! A23   A(1,14,15)            107.7152         -DE/DX =    0.0                 !
 ! A24   A(14,15,16)           100.9179         -DE/DX =    0.0                 !
 ! D1    D(2,1,4,5)            146.9325         -DE/DX =    0.0                 !
 ! D2    D(2,1,4,9)            -49.8737         -DE/DX =    0.0                 !
 ! D3    D(3,1,4,5)             24.5567         -DE/DX =    0.0                 !
 ! D4    D(3,1,4,9)           -172.2495         -DE/DX =    0.0                 !
 ! D5    D(14,1,4,5)           -90.9203         -DE/DX =    0.0                 !
 ! D6    D(14,1,4,9)            72.2735         -DE/DX =    0.0                 !
 ! D7    D(2,1,14,15)           42.7589         -DE/DX =    0.0                 !
 ! D8    D(3,1,14,15)          158.2889         -DE/DX =    0.0                 !
 ! D9    D(4,1,14,15)          -81.8675         -DE/DX =    0.0                 !
 ! D10   D(1,4,5,6)            -52.4947         -DE/DX =    0.0                 !
 ! D11   D(1,4,5,7)             65.4902         -DE/DX =    0.0                 !
 ! D12   D(1,4,5,8)           -173.6347         -DE/DX =    0.0                 !
 ! D13   D(9,4,5,6)            144.4538         -DE/DX =    0.0                 !
 ! D14   D(9,4,5,7)            -97.5614         -DE/DX =    0.0                 !
 ! D15   D(9,4,5,8)             23.3138         -DE/DX =    0.0                 !
 ! D16   D(1,4,9,10)            39.9621         -DE/DX =    0.0                 !
 ! D17   D(1,4,9,11)           161.2614         -DE/DX =    0.0                 !
 ! D18   D(1,4,9,12)           -76.3759         -DE/DX =    0.0001              !
 ! D19   D(5,4,9,10)          -157.0418         -DE/DX =    0.0                 !
 ! D20   D(5,4,9,11)           -35.7424         -DE/DX =    0.0                 !
 ! D21   D(5,4,9,12)            86.6202         -DE/DX =    0.0001              !
 ! D22   D(4,9,12,13)          -56.2175         -DE/DX =   -0.0003              !
 ! D23   D(10,9,12,13)        -177.1058         -DE/DX =   -0.0001              !
 ! D24   D(11,9,12,13)          67.6268         -DE/DX =   -0.0001              !
 ! D25   D(1,14,15,16)          81.7955         -DE/DX =    0.0                 !
 --------------------------------------------------------------------------------
 Iteration  1 RMS(Cart)=  0.02035438 RMS(Int)=  0.01501917
 Iteration  2 RMS(Cart)=  0.00066729 RMS(Int)=  0.01500487
 Iteration  3 RMS(Cart)=  0.00000339 RMS(Int)=  0.01500487
 Iteration  4 RMS(Cart)=  0.00000006 RMS(Int)=  0.01500487
 Iteration  1 RMS(Cart)=  0.01016460 RMS(Int)=  0.00780498
 Iteration  2 RMS(Cart)=  0.00588668 RMS(Int)=  0.00864936
 Iteration  3 RMS(Cart)=  0.00379881 RMS(Int)=  0.00974064
 Iteration  4 RMS(Cart)=  0.00260270 RMS(Int)=  0.01055333
 Iteration  5 RMS(Cart)=  0.00183509 RMS(Int)=  0.01111929
 Iteration  6 RMS(Cart)=  0.00131220 RMS(Int)=  0.01151047
 Iteration  7 RMS(Cart)=  0.00094556 RMS(Int)=  0.01178154
 Iteration  8 RMS(Cart)=  0.00068457 RMS(Int)=  0.01197010
 Iteration  9 RMS(Cart)=  0.00049712 RMS(Int)=  0.01210172
 Iteration 10 RMS(Cart)=  0.00036169 RMS(Int)=  0.01219389
 Iteration 11 RMS(Cart)=  0.00026345 RMS(Int)=  0.01225860
 Iteration 12 RMS(Cart)=  0.00019202 RMS(Int)=  0.01230415
 Iteration 13 RMS(Cart)=  0.00013998 RMS(Int)=  0.01233629
 Iteration 14 RMS(Cart)=  0.00010204 RMS(Int)=  0.01235902
 Iteration 15 RMS(Cart)=  0.00007436 RMS(Int)=  0.01237512
 Iteration 16 RMS(Cart)=  0.00005418 RMS(Int)=  0.01238656
 Iteration 17 RMS(Cart)=  0.00003945 RMS(Int)=  0.01239470
 Iteration 18 RMS(Cart)=  0.00002872 RMS(Int)=  0.01240050
 Iteration 19 RMS(Cart)=  0.00002090 RMS(Int)=  0.01240463
 Iteration 20 RMS(Cart)=  0.00001520 RMS(Int)=  0.01240759
 Iteration 21 RMS(Cart)=  0.00001105 RMS(Int)=  0.01240971
 Iteration 22 RMS(Cart)=  0.00000803 RMS(Int)=  0.01241123
 Iteration 23 RMS(Cart)=  0.00000583 RMS(Int)=  0.01241232
 Iteration 24 RMS(Cart)=  0.00000424 RMS(Int)=  0.01241310
 Iteration 25 RMS(Cart)=  0.00000308 RMS(Int)=  0.01241367
 Iteration 26 RMS(Cart)=  0.00000223 RMS(Int)=  0.01241407
 Iteration 27 RMS(Cart)=  0.00000162 RMS(Int)=  0.01241436
 Iteration 28 RMS(Cart)=  0.00000118 RMS(Int)=  0.01241457
 Iteration 29 RMS(Cart)=  0.00000085 RMS(Int)=  0.01241472
 GradGradGradGradGradGradGradGradGradGradGradGradGradGradGradGradGradGrad

                          Input orientation:                          
 ---------------------------------------------------------------------
 Center     Atomic     Atomic              Coordinates (Angstroms)
 Number     Number      Type              X           Y           Z
 ---------------------------------------------------------------------
    1          6             0       -1.015550   -0.035409    0.012122
    2          1             0       -1.846935   -0.202075   -0.683766
    3          1             0       -0.610554   -1.005833    0.323763
    4          6             0       -1.420435    0.784341    1.202338
    5          6             0       -0.753255    0.509795    2.516184
    6          1             0       -0.813868   -0.554553    2.782075
    7          1             0        0.323988    0.748793    2.486882
    8          1             0       -1.197555    1.088271    3.334535
    9          6             0       -2.152978    2.070252    0.987724
   10          1             0       -2.933605    2.052314    0.221989
   11          1             0       -2.609991    2.347077    1.947454
   12          8             0       -1.273443    3.147638    0.539532
   13          1             0       -0.483409    3.131709    1.106119
   14          8             0        0.074029    0.562452   -0.723699
   15          8             0       -0.486399    1.575928   -1.596970
   16          1             0       -0.577731    2.332756   -0.970504
 ---------------------------------------------------------------------
                    Distance matrix (angstroms):
                    1          2          3          4          5
     1  C    0.000000
     2  H    1.096922   0.000000
     3  H    1.096753   1.785996   0.000000
     4  C    1.500845   2.170785   2.152330   0.000000
     5  C    2.576116   3.455803   2.669121   1.498898   0.000000
     6  H    2.825390   3.633665   2.507646   2.157807   1.098731
     7  H    2.921263   3.958544   2.937885   2.166640   1.103826
     8  H    3.512010   4.270062   3.714108   2.165252   1.096237
     9  C    2.584444   2.837431   3.504600   1.495408   2.594309
    10  H    2.842810   2.661488   3.841770   2.204207   3.520884
    11  H    3.458901   3.742159   4.228018   2.100569   2.673299
    12  O    3.236735   3.611915   4.211567   2.458880   3.337059
    13  H    3.392733   4.022065   4.212779   2.529310   2.989236
    14  O    1.444318   2.067898   2.006327   2.447912   3.344251
    15  O    2.337859   2.417911   3.220267   3.055349   4.257451
    16  H    2.601046   2.849292   3.580835   2.798031   3.938399
                    6          7          8          9         10
     6  H    0.000000
     7  H    1.755155   0.000000
     8  H    1.775190   1.774502   0.000000
     9  C    3.450002   3.182623   2.717470   0.000000
    10  H    4.224108   4.176221   3.692045   1.093642   0.000000
    11  H    3.513134   3.384336   2.345967   1.098442   1.780125
    12  O    4.352749   3.478277   3.472577   1.461238   2.014126
    13  H    4.062827   2.869962   3.106684   1.981961   2.819617
    14  O    3.785038   3.225684   4.285170   3.187788   3.487102
    15  O    4.880801   4.244847   5.006326   3.114882   3.086159
    16  H    4.740692   3.908395   4.523968   2.526849   2.655340
                   11         12         13         14         15
    11  H    0.000000
    12  O    2.099882   0.000000
    13  H    2.417818   0.972332   0.000000
    14  O    4.186158   3.177203   3.203132   0.000000
    15  O    4.203244   2.766650   3.118839   1.450453   0.000000
    16  H    3.555948   1.851555   2.227013   1.902545   0.986707
                   16
    16  H    0.000000
 Symmetry turned off by external request.
 Stoichiometry    C4H9O3(2)
 Framework group  C1[X(C4H9O3)]
 Deg. of freedom    42
 Full point group                 C1
 Rotational constants (GHZ):      3.1368240      2.3234054      1.5743837
 Standard basis: 6-31G(d) (6D, 7F)
 Integral buffers will be    131072 words long.
 Raffenetti 2 integral format.
 Two-electron integral symmetry is turned off.
   123 basis functions,   232 primitive gaussians,   123 cartesian basis functions
    29 alpha electrons       28 beta electrons
       nuclear repulsion energy       330.6557263669 Hartrees.
 NAtoms=   16 NActive=   16 NUniq=   16 SFac= 7.50D-01 NAtFMM=   80 NAOKFM=F Big=F
 One-electron integrals computed using PRISM.
 NBasis=   123 RedAO= T  NBF=   123
 NBsUse=   123 1.00D-06 NBFU=   123
 Initial guess read from the read-write file:
 <S**2> of initial guess= 0.7544
 Harris functional with IExCor=  402 diagonalized for initial guess.
 ExpMin= 1.61D-01 ExpMax= 5.48D+03 ExpMxC= 8.25D+02 IAcc=1 IRadAn=         1 AccDes= 1.00D-06
 HarFok:  IExCor= 402 AccDes= 1.00D-06 IRadAn=         1 IDoV=1
 ScaDFX=  1.000000  1.000000  1.000000  1.000000
 Requested convergence on RMS density matrix=1.00D-08 within 128 cycles.
 Requested convergence on MAX density matrix=1.00D-06.
 Requested convergence on             energy=1.00D-06.
 No special actions if energy rises.
 Keep R1 and R2 integrals in memory in canonical form, NReq=    60141418.
 Integral accuracy reduced to 1.0D-05 until final iterations.
 Initial convergence to 1.0D-05 achieved.  Increase integral accuracy.
 SCF Done:  E(UB+HF-LYP) =  -383.343279243     A.U. after   13 cycles
             Convg  =    0.5979D-08             -V/T =  2.0089
             S**2   =   0.7544
 Annihilation of the first spin contaminant:
 S**2 before annihilation     0.7544,   after     0.7500
 -------------------------------------------------------------------
 Center     Atomic                   Forces (Hartrees/Bohr)
 Number     Number              X              Y              Z
 -------------------------------------------------------------------
    1          6          -0.000023392   -0.001341324   -0.000046629
    2          1           0.000262202    0.000108738   -0.000086328
    3          1          -0.000109398   -0.000190364   -0.000110467
    4          6          -0.000858148   -0.003065002   -0.008433543
    5          6          -0.000786063    0.001191104    0.000438622
    6          1          -0.000083343    0.000068654   -0.000265932
    7          1          -0.000006052   -0.000087900    0.000019386
    8          1           0.000139339    0.000002187    0.000112877
    9          6           0.002402158    0.002045570    0.010002467
   10          1           0.001536418   -0.005612026   -0.000063128
   11          1          -0.002236112    0.005570320   -0.001662321
   12          8           0.002141012   -0.000203204   -0.000329279
   13          1          -0.001401184    0.001176811    0.001339581
   14          8          -0.000064737    0.000429991    0.000141757
   15          8           0.000389288   -0.000087729   -0.000393974
   16          1          -0.001301987   -0.000005827   -0.000663091
 -------------------------------------------------------------------
 Cartesian Forces:  Max     0.010002467 RMS     0.002418452

 GradGradGradGradGradGradGradGradGradGradGradGradGradGradGradGradGradGrad
 Berny optimization.
 Internal  Forces:  Max     0.008815372 RMS     0.002090459
 Search for a local minimum.
 Step number   1 out of a maximum of  75 on scan point     2 out of    37
 All quantities printed in internal units (Hartrees-Bohrs-Radians)
 Second derivative matrix not updated -- first step.
     Eigenvalues ---    0.00781   0.00878   0.03067   0.03522   0.06063
     Eigenvalues ---    0.06992   0.07054   0.07181   0.07420   0.11381
     Eigenvalues ---    0.11679   0.11862   0.12032   0.16000   0.16000
     Eigenvalues ---    0.16000   0.16000   0.16044   0.22039   0.23072
     Eigenvalues ---    0.23475   0.24799   0.31918   0.32493   0.32822
     Eigenvalues ---    0.33263   0.33823   0.33879   0.34026   0.34045
     Eigenvalues ---    0.34102   0.34419   0.36798   0.38187   0.38852
     Eigenvalues ---    0.49354   0.530881000.000001000.000001000.00000
     Eigenvalues --- 1000.000001000.000001000.000001000.000001000.00000
     Eigenvalues --- 1000.000001000.000001000.000001000.000001000.00000
     Eigenvalues --- 1000.000001000.000001000.000001000.000001000.00000
     Eigenvalues --- 1000.000001000.000001000.000001000.000001000.00000
     Eigenvalues --- 1000.000001000.000001000.000001000.000001000.00000
 RFO step:  Lambda=-1.63877070D-03.
 Linear search not attempted -- first point.
 Iteration  1 RMS(Cart)=  0.02278773 RMS(Int)=  0.00071181
 Iteration  2 RMS(Cart)=  0.00067922 RMS(Int)=  0.00023804
 Iteration  3 RMS(Cart)=  0.00000031 RMS(Int)=  0.00023804
 Iteration  1 RMS(Cart)=  0.00001006 RMS(Int)=  0.00000712
 Iteration  2 RMS(Cart)=  0.00000537 RMS(Int)=  0.00000793
 Iteration  3 RMS(Cart)=  0.00000330 RMS(Int)=  0.00000884
 Iteration  4 RMS(Cart)=  0.00000216 RMS(Int)=  0.00000940
 Iteration  5 RMS(Cart)=  0.00000148 RMS(Int)=  0.00000973
 Iteration  6 RMS(Cart)=  0.00000103 RMS(Int)=  0.00000992
 Iteration  7 RMS(Cart)=  0.00000073 RMS(Int)=  0.00001005
 Variable       Old X    -DE/DX   Delta X   Delta X   Delta X     New X
                                 (Linear)    (Quad)   (Total)
    R1        2.07288  -0.00017   0.00000  -0.00048  -0.00048   2.07240
    R2        2.07256   0.00010   0.00000   0.00029   0.00029   2.07285
    R3        2.83619   0.00097   0.00000   0.00314   0.00317   2.83936
    R4        2.72936  -0.00027   0.00000  -0.00063  -0.00062   2.72875
    R5        2.83251  -0.00029   0.00000  -0.00088  -0.00088   2.83163
    R6        2.82591  -0.00011   0.00000  -0.00025  -0.00024   2.82567
    R7        2.07630  -0.00012   0.00000  -0.00037  -0.00037   2.07593
    R8        2.08593  -0.00004   0.00000  -0.00011  -0.00011   2.08582
    R9        2.07159   0.00003   0.00000   0.00010   0.00010   2.07169
   R10        2.06668  -0.00095   0.00000  -0.00276  -0.00276   2.06392
   R11        2.07576   0.00088   0.00000   0.00258   0.00258   2.07833
   R12        2.76134   0.00090   0.00000   0.00241   0.00241   2.76374
   R13        1.83744  -0.00038   0.00000  -0.00071  -0.00071   1.83673
   R14        3.49893   0.00032   0.00000   0.00469   0.00466   3.50359
   R15        2.74096   0.00090   0.00000   0.00235   0.00235   2.74331
   R16        1.86461  -0.00002   0.00000  -0.00012  -0.00015   1.86446
    A1        1.90255  -0.00015   0.00000   0.00004   0.00004   1.90259
    A2        1.96235   0.00092   0.00000   0.00061   0.00058   1.96292
    A3        1.88753  -0.00092   0.00000  -0.00309  -0.00314   1.88439
    A4        1.93645  -0.00029   0.00000   0.00305   0.00303   1.93948
    A5        1.80539   0.00130   0.00000   0.00302   0.00302   1.80841
    A6        1.96215  -0.00084   0.00000  -0.00351  -0.00343   1.95872
    A7        2.06576   0.00135   0.00000   0.00557   0.00551   2.07127
    A8        2.08061   0.00120   0.00000   0.00671   0.00675   2.08736
    A9        2.09595  -0.00258   0.00000  -0.00781  -0.00791   2.08804
   A10        1.94443  -0.00045   0.00000  -0.00318  -0.00318   1.94125
   A11        1.95138   0.00009   0.00000   0.00053   0.00052   1.95191
   A12        1.95766   0.00031   0.00000   0.00229   0.00229   1.95995
   A13        1.84419   0.00007   0.00000  -0.00031  -0.00031   1.84388
   A14        1.88406   0.00009   0.00000   0.00057   0.00058   1.88464
   A15        1.87664  -0.00010   0.00000   0.00006   0.00006   1.87669
   A16        2.02199  -0.00873   0.00000  -0.06339  -0.06318   1.95881
   A17        1.87039   0.00882   0.00000   0.06579   0.06608   1.93647
   A18        1.96404   0.00008   0.00000  -0.00028  -0.00085   1.96319
   A19        1.89538  -0.00042   0.00000  -0.00114  -0.00027   1.89510
   A20        1.79976   0.00410   0.00000   0.01185   0.01119   1.81096
   A21        1.90986  -0.00435   0.00000  -0.01543  -0.01605   1.89380
   A22        1.87366  -0.00053   0.00000  -0.00331  -0.00331   1.87035
   A23        1.88019  -0.00192   0.00000  -0.00731  -0.00726   1.87293
   A24        1.76140   0.00168   0.00000   0.01050   0.01052   1.77192
    D1        2.57057  -0.00020   0.00000  -0.00850  -0.00856   2.56200
    D2       -0.87377  -0.00076   0.00000   0.00624   0.00626  -0.86751
    D3        0.43480  -0.00045   0.00000  -0.01121  -0.01126   0.42354
    D4       -3.00953  -0.00101   0.00000   0.00353   0.00357  -3.00597
    D5       -1.57744  -0.00136   0.00000  -0.01474  -0.01482  -1.59226
    D6        1.26141  -0.00192   0.00000   0.00000   0.00000   1.26141
    D7        0.74807  -0.00137   0.00000  -0.00388  -0.00387   0.74420
    D8        2.76418  -0.00131   0.00000  -0.00370  -0.00371   2.76047
    D9       -1.42886  -0.00129   0.00000   0.00000   0.00000  -1.42886
   D10       -0.92100   0.00008   0.00000   0.00615   0.00613  -0.91487
   D11        1.13821  -0.00008   0.00000   0.00400   0.00398   1.14218
   D12       -3.03530   0.00007   0.00000   0.00607   0.00605  -3.02925
   D13        2.52608  -0.00003   0.00000  -0.01134  -0.01132   2.51475
   D14       -1.69791  -0.00019   0.00000  -0.01349  -0.01347  -1.71138
   D15        0.41178  -0.00004   0.00000  -0.01142  -0.01140   0.40038
   D16        0.73168  -0.00107   0.00000  -0.03085  -0.03020   0.70148
   D17        2.84998  -0.00067   0.00000  -0.02425  -0.02486   2.82512
   D18       -1.33301  -0.00019   0.00000   0.00000   0.00000  -1.33301
   D19       -2.71798  -0.00093   0.00000  -0.01344  -0.01284  -2.73082
   D20       -0.59968  -0.00054   0.00000  -0.00684  -0.00749  -0.60717
   D21        1.50052  -0.00005   0.00000   0.01741   0.01737   1.51788
   D22       -0.80665  -0.00667   0.00000   0.00000   0.00000  -0.80665
   D23       -2.99790   0.00125   0.00000   0.07009   0.07019  -2.92771
   D24        1.27064   0.00152   0.00000   0.07202   0.07184   1.34248
   D25        1.42760  -0.00213   0.00000   0.00000   0.00000   1.42760
         Item               Value     Threshold  Converged?
 Maximum Force            0.006092     0.000450     NO 
 RMS     Force            0.001669     0.000300     NO 
 Maximum Displacement     0.095566     0.001800     NO 
 RMS     Displacement     0.022826     0.001200     NO 
 Predicted change in Energy=-8.363686D-04
 GradGradGradGradGradGradGradGradGradGradGradGradGradGradGradGradGradGrad

                          Input orientation:                          
 ---------------------------------------------------------------------
 Center     Atomic     Atomic              Coordinates (Angstroms)
 Number     Number      Type              X           Y           Z
 ---------------------------------------------------------------------
    1          6             0       -1.012785   -0.035167    0.009923
    2          1             0       -1.846792   -0.197712   -0.683394
    3          1             0       -0.608405   -1.007586    0.316643
    4          6             0       -1.409999    0.786869    1.203261
    5          6             0       -0.752381    0.506973    2.520265
    6          1             0       -0.821743   -0.557897    2.781084
    7          1             0        0.326646    0.738274    2.497740
    8          1             0       -1.197029    1.085481    3.338475
    9          6             0       -2.144313    2.073808    1.002179
   10          1             0       -2.895974    2.001743    0.213084
   11          1             0       -2.640266    2.392808    1.930534
   12          8             0       -1.267391    3.153281    0.549761
   13          1             0       -0.473279    3.131475    1.109773
   14          8             0        0.071535    0.565548   -0.730684
   15          8             0       -0.505523    1.577427   -1.597014
   16          1             0       -0.599991    2.338130   -0.975852
 ---------------------------------------------------------------------
                    Distance matrix (angstroms):
                    1          2          3          4          5
     1  C    0.000000
     2  H    1.096666   0.000000
     3  H    1.096904   1.785937   0.000000
     4  C    1.502523   2.172476   2.156087   0.000000
     5  C    2.581383   3.457997   2.677791   1.498434   0.000000
     6  H    2.826495   3.630849   2.514200   2.154986   1.098537
     7  H    2.929422   3.964784   2.946104   2.166558   1.103769
     8  H    3.516966   4.271323   3.722751   2.166487   1.096289
     9  C    2.590888   2.844201   3.510550   1.495280   2.587862
    10  H    2.781488   2.596547   3.781502   2.159743   3.486031
    11  H    3.497499   3.764706   4.277357   2.149773   2.732813
    12  O    3.243833   3.617393   4.219173   2.459127   3.339321
    13  H    3.395343   4.023117   4.216532   2.526531   2.992557
    14  O    1.443990   2.065135   2.008473   2.446236   3.354242
    15  O    2.332385   2.405166   3.217912   3.047063   4.261314
    16  H    2.602823   2.840869   3.586702   2.794826   3.949581
                    6          7          8          9         10
     6  H    0.000000
     7  H    1.754748   0.000000
     8  H    1.775447   1.774534   0.000000
     9  C    3.440866   3.182136   2.707843   0.000000
    10  H    4.177177   4.147443   3.673420   1.092180   0.000000
    11  H    3.568910   3.444092   2.402985   1.099805   1.779874
    12  O    4.353188   3.488242   3.472416   1.462511   2.022789
    13  H    4.065239   2.879886   3.110790   1.980553   2.819538
    14  O    3.793756   3.243090   4.293907   3.191810   3.429208
    15  O    4.881326   4.261888   5.007917   3.112528   3.028325
    16  H    4.748759   3.934976   4.531997   2.523372   2.607347
                   11         12         13         14         15
    11  H    0.000000
    12  O    2.090368   0.000000
    13  H    2.432099   0.971958   0.000000
    14  O    4.216020   3.182550   3.204385   0.000000
    15  O    4.203042   2.769910   3.121346   1.451697   0.000000
    16  H    3.551449   1.854020   2.235013   1.911309   0.986628
                   16
    16  H    0.000000
 Symmetry turned off by external request.
 Stoichiometry    C4H9O3(2)
 Framework group  C1[X(C4H9O3)]
 Deg. of freedom    42
 Full point group                 C1
 Rotational constants (GHZ):      3.1371777      2.3215901      1.5713388
 Standard basis: 6-31G(d) (6D, 7F)
 Integral buffers will be    131072 words long.
 Raffenetti 2 integral format.
 Two-electron integral symmetry is turned off.
   123 basis functions,   232 primitive gaussians,   123 cartesian basis functions
    29 alpha electrons       28 beta electrons
       nuclear repulsion energy       330.5633276720 Hartrees.
 NAtoms=   16 NActive=   16 NUniq=   16 SFac= 7.50D-01 NAtFMM=   80 NAOKFM=F Big=F
 One-electron integrals computed using PRISM.
 NBasis=   123 RedAO= T  NBF=   123
 NBsUse=   123 1.00D-06 NBFU=   123
 Initial guess read from the read-write file:
 <S**2> of initial guess= 0.7544
 Harris functional with IExCor=  402 diagonalized for initial guess.
 ExpMin= 1.61D-01 ExpMax= 5.48D+03 ExpMxC= 8.25D+02 IAcc=1 IRadAn=         1 AccDes= 1.00D-06
 HarFok:  IExCor= 402 AccDes= 1.00D-06 IRadAn=         1 IDoV=1
 ScaDFX=  1.000000  1.000000  1.000000  1.000000
 Requested convergence on RMS density matrix=1.00D-08 within 128 cycles.
 Requested convergence on MAX density matrix=1.00D-06.
 Requested convergence on             energy=1.00D-06.
 No special actions if energy rises.
 Keep R1 and R2 integrals in memory in canonical form, NReq=    60141418.
 Integral accuracy reduced to 1.0D-05 until final iterations.
 Initial convergence to 1.0D-05 achieved.  Increase integral accuracy.
 SCF Done:  E(UB+HF-LYP) =  -383.344124417     A.U. after   13 cycles
             Convg  =    0.6138D-08             -V/T =  2.0089
             S**2   =   0.7544
 Annihilation of the first spin contaminant:
 S**2 before annihilation     0.7544,   after     0.7500
 -------------------------------------------------------------------
 Center     Atomic                   Forces (Hartrees/Bohr)
 Number     Number              X              Y              Z
 -------------------------------------------------------------------
    1          6          -0.000230244    0.000522594    0.000569724
    2          1          -0.000024191   -0.000068234    0.000031078
    3          1          -0.000171380    0.000201167    0.000365261
    4          6          -0.001009891   -0.001026884   -0.000721676
    5          6           0.000164367   -0.000347649    0.000311918
    6          1           0.000167386   -0.000137335    0.000233087
    7          1           0.000121574   -0.000085943    0.000136257
    8          1           0.000036155   -0.000022273   -0.000262275
    9          6           0.001292904    0.000709309    0.001870832
   10          1          -0.000565527   -0.000759466   -0.000509242
   11          1           0.000437142   -0.000111539   -0.000984024
   12          8           0.001635305   -0.000785671   -0.001193315
   13          1          -0.001073857    0.001277780    0.001409826
   14          8          -0.001106534    0.001766232   -0.000157673
   15          8           0.000748626   -0.000577480   -0.001876829
   16          1          -0.000421834   -0.000554608    0.000777049
 -------------------------------------------------------------------
 Cartesian Forces:  Max     0.001876829 RMS     0.000807248

 GradGradGradGradGradGradGradGradGradGradGradGradGradGradGradGradGradGrad
 Berny optimization.
 Internal  Forces:  Max     0.001990142 RMS     0.000717594
 Search for a local minimum.
 Step number   2 out of a maximum of  75 on scan point     2 out of    37
 All quantities printed in internal units (Hartrees-Bohrs-Radians)
 Update second derivatives using D2CorX and points  1  2
 Trust test= 1.01D+00 RLast= 1.49D-01 DXMaxT set to 4.24D-01
     Eigenvalues ---    0.00780   0.00868   0.03045   0.03584   0.06064
     Eigenvalues ---    0.06979   0.07057   0.07199   0.07412   0.10113
     Eigenvalues ---    0.11634   0.11968   0.12027   0.15991   0.16000
     Eigenvalues ---    0.16000   0.16006   0.16552   0.22087   0.23377
     Eigenvalues ---    0.23864   0.25456   0.32047   0.32566   0.32829
     Eigenvalues ---    0.33264   0.33824   0.34022   0.34033   0.34066
     Eigenvalues ---    0.34118   0.34715   0.36764   0.38232   0.38898
     Eigenvalues ---    0.49350   0.530851000.000001000.000001000.00000
     Eigenvalues --- 1000.000001000.000001000.000001000.000001000.00000
     Eigenvalues --- 1000.000001000.000001000.000001000.000001000.00000
     Eigenvalues --- 1000.000001000.000001000.000001000.000001000.00000
     Eigenvalues --- 1000.000001000.000001000.000001000.000001000.00000
     Eigenvalues --- 1000.000001000.000001000.000001000.000001000.00000
 RFO step:  Lambda=-5.99516890D-05.
 Quartic linear search produced a step of  0.03385.
 Iteration  1 RMS(Cart)=  0.00552802 RMS(Int)=  0.00002365
 Iteration  2 RMS(Cart)=  0.00002484 RMS(Int)=  0.00000946
 Iteration  3 RMS(Cart)=  0.00000000 RMS(Int)=  0.00000946
 Iteration  1 RMS(Cart)=  0.00000209 RMS(Int)=  0.00000137
 Iteration  2 RMS(Cart)=  0.00000159 RMS(Int)=  0.00000150
 Iteration  3 RMS(Cart)=  0.00000116 RMS(Int)=  0.00000173
 Iteration  4 RMS(Cart)=  0.00000085 RMS(Int)=  0.00000194
 Variable       Old X    -DE/DX   Delta X   Delta X   Delta X     New X
[...]
  Beta virt. eigenvalues --   -0.07684   0.04534   0.06224   0.09829   0.12347
  Beta virt. eigenvalues --    0.13333   0.14553   0.14929   0.16071   0.18208
  Beta virt. eigenvalues --    0.19421   0.20547   0.22533   0.25023   0.30726
  Beta virt. eigenvalues --    0.32319   0.49373   0.50694   0.52109   0.53547
  Beta virt. eigenvalues --    0.55438   0.57758   0.67497   0.70971   0.71419
  Beta virt. eigenvalues --    0.74174   0.74839   0.77614   0.79034   0.80006
  Beta virt. eigenvalues --    0.83043   0.83428   0.86305   0.87223   0.88696
  Beta virt. eigenvalues --    0.89890   0.90913   0.92813   0.94601   0.97684
  Beta virt. eigenvalues --    0.99276   1.01684   1.05153   1.06973   1.14591
  Beta virt. eigenvalues --    1.16468   1.22242   1.25219   1.27962   1.34552
  Beta virt. eigenvalues --    1.37309   1.43457   1.47804   1.50745   1.56043
  Beta virt. eigenvalues --    1.63294   1.66020   1.72463   1.74199   1.77112
  Beta virt. eigenvalues --    1.80902   1.82305   1.85332   1.90070   1.95021
  Beta virt. eigenvalues --    1.97477   1.99418   2.01984   2.05149   2.08458
  Beta virt. eigenvalues --    2.11310   2.20777   2.23870   2.26895   2.28992
  Beta virt. eigenvalues --    2.32718   2.37557   2.41995   2.46375   2.52006
  Beta virt. eigenvalues --    2.57025   2.58389   2.63332   2.75556   2.76376
  Beta virt. eigenvalues --    2.79357   2.81145   3.05547   3.65483   3.79287
  Beta virt. eigenvalues --    3.88175   4.11020   4.31791   4.38748   4.56096
          Condensed to atoms (all electrons):
              1          2          3          4          5          6
     1  C    4.921312   0.349936   0.362447   0.377268  -0.056147  -0.004463
     2  H    0.349936   0.597564  -0.027327  -0.047057   0.005136   0.000158
     3  H    0.362447  -0.027327   0.591399  -0.047559  -0.007634   0.004582
     4  C    0.377268  -0.047057  -0.047559   5.152031   0.376993  -0.032194
     5  C   -0.056147   0.005136  -0.007634   0.376993   5.152729   0.369724
     6  H   -0.004463   0.000158   0.004582  -0.032194   0.369724   0.552311
     7  H   -0.001487   0.000011   0.000311  -0.038733   0.358914  -0.034581
     8  H    0.004142  -0.000161   0.000077  -0.032445   0.367625  -0.025848
     9  C   -0.045877  -0.007605   0.005296   0.390826  -0.058589   0.003334
    10  H   -0.006930   0.005389   0.000006  -0.038433   0.005682  -0.000128
    11  H    0.004967  -0.000019  -0.000129  -0.043554  -0.009885   0.000094
    12  O   -0.000493  -0.000118  -0.000070  -0.053177   0.000278  -0.000039
    13  H   -0.000740   0.000065   0.000006  -0.002403   0.004295  -0.000017
    14  O    0.193492  -0.032943  -0.032855  -0.051567   0.000660  -0.000104
    15  O   -0.035111   0.004592   0.004920  -0.008932  -0.000029   0.000001
    16  H   -0.000209  -0.000428  -0.000548   0.004308  -0.000045  -0.000001
              7          8          9         10         11         12
     1  C   -0.001487   0.004142  -0.045877  -0.006930   0.004967  -0.000493
     2  H    0.000011  -0.000161  -0.007605   0.005389  -0.000019  -0.000118
     3  H    0.000311   0.000077   0.005296   0.000006  -0.000129  -0.000070
     4  C   -0.038733  -0.032445   0.390826  -0.038433  -0.043554  -0.053177
     5  C    0.358914   0.367625  -0.058589   0.005682  -0.009885   0.000278
     6  H   -0.034581  -0.025848   0.003334  -0.000128   0.000094  -0.000039
     7  H    0.574349  -0.032472   0.000622  -0.000160  -0.000082   0.000884
     8  H   -0.032472   0.563874  -0.004619   0.000057   0.006812  -0.000316
     9  C    0.000622  -0.004619   4.901169   0.377316   0.363172   0.204995
    10  H   -0.000160   0.000057   0.377316   0.558815  -0.036391  -0.040286
    11  H   -0.000082   0.006812   0.363172  -0.036391   0.610732  -0.036585
    12  O    0.000884  -0.000316   0.204995  -0.040286  -0.036585   8.270056
    13  H   -0.000401   0.000187  -0.022390   0.006912  -0.003500   0.226785
    14  O    0.002544  -0.000067  -0.004265  -0.000404  -0.000068   0.002233
    15  O   -0.000018   0.000000   0.012193   0.002293   0.000031  -0.022630
    16  H   -0.000031   0.000007  -0.010313  -0.002674   0.001058   0.062451
             13         14         15         16
     1  C   -0.000740   0.193492  -0.035111  -0.000209
     2  H    0.000065  -0.032943   0.004592  -0.000428
     3  H    0.000006  -0.032855   0.004920  -0.000548
     4  C   -0.002403  -0.051567  -0.008932   0.004308
     5  C    0.004295   0.000660  -0.000029  -0.000045
     6  H   -0.000017  -0.000104   0.000001  -0.000001
     7  H   -0.000401   0.002544  -0.000018  -0.000031
     8  H    0.000187  -0.000067   0.000000   0.000007
     9  C   -0.022390  -0.004265   0.012193  -0.010313
    10  H    0.006912  -0.000404   0.002293  -0.002674
    11  H   -0.003500  -0.000068   0.000031   0.001058
    12  O    0.226785   0.002233  -0.022630   0.062451
    13  H    0.393066   0.000147   0.001120  -0.003365
    14  O    0.000147   8.159366   0.075634  -0.020608
    15  O    0.001120   0.075634   8.224641   0.186942
    16  H   -0.003365  -0.020608   0.186942   0.353240
 Mulliken atomic charges:
              1
     1  C   -0.062109
     2  H    0.152806
     3  H    0.147080
     4  C    0.094629
     5  C   -0.509708
     6  H    0.167172
     7  H    0.170331
     8  H    0.153146
     9  C   -0.105265
    10  H    0.168935
    11  H    0.143345
    12  O   -0.613970
    13  H    0.400233
    14  O   -0.291195
    15  O   -0.445647
    16  H    0.430216
 Sum of Mulliken charges=   0.00000
 Atomic charges with hydrogens summed into heavy atoms:
              1
     1  C    0.237777
     2  H    0.000000
     3  H    0.000000
     4  C    0.094629
     5  C   -0.019058
     6  H    0.000000
     7  H    0.000000
     8  H    0.000000
     9  C    0.207015
    10  H    0.000000
    11  H    0.000000
    12  O   -0.213737
    13  H    0.000000
    14  O   -0.291195
    15  O   -0.015431
    16  H    0.000000
 Sum of Mulliken charges=   0.00000
          Atomic-Atomic Spin Densities.
              1          2          3          4          5          6
     1  C   -0.056605   0.007449   0.003878   0.009636  -0.000424  -0.000343
     2  H    0.007449   0.013292   0.000840  -0.007140   0.000200   0.000200
     3  H    0.003878   0.000840   0.001877  -0.002876   0.000994   0.000616
     4  C    0.009636  -0.007140  -0.002876   1.031276  -0.019037  -0.014710
     5  C   -0.000424   0.000200   0.000994  -0.019037  -0.075687   0.011382
     6  H   -0.000343   0.000200   0.000616  -0.014710   0.011382   0.042746
     7  H   -0.000152  -0.000160  -0.000581  -0.024639   0.003806  -0.016048
     8  H   -0.000133   0.000019   0.000029  -0.003831   0.004486   0.003194
     9  C   -0.000593   0.000345  -0.000064   0.024093  -0.000763  -0.000329
    10  H    0.000832   0.000772   0.000034  -0.005859   0.000109   0.000054
    11  H   -0.000062   0.000061   0.000008  -0.005095   0.000953   0.000156
    12  O   -0.000533  -0.000339  -0.000029  -0.034194  -0.000332  -0.000084
    13  H    0.000114   0.000023   0.000007   0.004877  -0.000038   0.000045
    14  O   -0.011637  -0.005248  -0.002083  -0.029344  -0.000464  -0.000308
    15  O    0.000553   0.000135   0.000012   0.000258   0.000005   0.000001
    16  H    0.000768   0.000217   0.000024   0.002226   0.000021   0.000005
              7          8          9         10         11         12
     1  C   -0.000152  -0.000133  -0.000593   0.000832  -0.000062  -0.000533
     2  H   -0.000160   0.000019   0.000345   0.000772   0.000061  -0.000339
     3  H   -0.000581   0.000029  -0.000064   0.000034   0.000008  -0.000029
     4  C   -0.024639  -0.003831   0.024093  -0.005859  -0.005095  -0.034194
     5  C    0.003806   0.004486  -0.000763   0.000109   0.000953  -0.000332
     6  H   -0.016048   0.003194  -0.000329   0.000054   0.000156  -0.000084
     7  H    0.102078  -0.006606  -0.000432  -0.000102  -0.000353   0.001221
     8  H   -0.006606   0.006387   0.000537   0.000073   0.000441  -0.000336
     9  C   -0.000432   0.000537  -0.048801   0.005671   0.005083  -0.026396
    10  H   -0.000102   0.000073   0.005671   0.011190   0.001752  -0.006187
    11  H   -0.000353   0.000441   0.005083   0.001752   0.005431  -0.004168
    12  O    0.001221  -0.000336  -0.026396  -0.006187  -0.004168   0.136827
    13  H   -0.000901   0.000154   0.003144   0.000304   0.000506  -0.005555
    14  O    0.001556  -0.000033  -0.000562  -0.000472  -0.000045   0.001535
    15  O   -0.000005   0.000000   0.000127   0.000022   0.000004   0.000140
    16  H   -0.000071   0.000004   0.001018   0.000339   0.000028  -0.002616
             13         14         15         16
     1  C    0.000114  -0.011637   0.000553   0.000768
     2  H    0.000023  -0.005248   0.000135   0.000217
     3  H    0.000007  -0.002083   0.000012   0.000024
     4  C    0.004877  -0.029344   0.000258   0.002226
     5  C   -0.000038  -0.000464   0.000005   0.000021
     6  H    0.000045  -0.000308   0.000001   0.000005
     7  H   -0.000901   0.001556  -0.000005  -0.000071
     8  H    0.000154  -0.000033   0.000000   0.000004
     9  C    0.003144  -0.000562   0.000127   0.001018
    10  H    0.000304  -0.000472   0.000022   0.000339
    11  H    0.000506  -0.000045   0.000004   0.000028
    12  O   -0.005555   0.001535   0.000140  -0.002616
    13  H   -0.000652  -0.000309   0.000001   0.000380
    14  O   -0.000309   0.108171  -0.001043  -0.001627
    15  O    0.000001  -0.001043  -0.002242  -0.000462
    16  H    0.000380  -0.001627  -0.000462   0.001269
 Mulliken atomic spin densities:
              1
     1  C   -0.047254
     2  H    0.010668
     3  H    0.002685
     4  C    0.925643
     5  C   -0.074789
     6  H    0.026578
     7  H    0.058610
     8  H    0.004383
     9  C   -0.037921
    10  H    0.008532
    11  H    0.004698
    12  O    0.058952
    13  H    0.002100
    14  O    0.058087
    15  O   -0.002495
    16  H    0.001523
 Sum of Mulliken spin densities=   1.00000
 Electronic spatial extent (au):  <R**2>=  1358.1248
 Charge=     0.0000 electrons
 Dipole moment (field-independent basis, Debye):
    X=    -1.2409    Y=    -0.0082    Z=     3.8896  Tot=     4.0827
 Quadrupole moment (field-independent basis, Debye-Ang):
   XX=   -40.7237   YY=   -40.8622   ZZ=   -42.3340
   XY=     0.8938   XZ=    -0.8725   YZ=     5.7630
 Traceless Quadrupole moment (field-independent basis, Debye-Ang):
   XX=     0.5829   YY=     0.4445   ZZ=    -1.0274
   XY=     0.8938   XZ=    -0.8725   YZ=     5.7630
 Octapole moment (field-independent basis, Debye-Ang**2):
  XXX=   122.3742  YYY=  -153.9783  ZZZ=   -52.5506  XYY=    51.4282
  XXY=   -49.9105  XXZ=   -21.1648  XZZ=    40.1063  YZZ=   -46.2992
  YYZ=    -9.1378  XYZ=    -2.7133
 Hexadecapole moment (field-independent basis, Debye-Ang**3):
 XXXX=  -423.6146 YYYY=  -720.9773 ZZZZ=  -551.6350 XXXY=   182.9974
 XXXZ=   112.2929 YYYX=   239.1136 YYYZ=   -34.5054 ZZZX=   101.6533
 ZZZY=   -42.8346 XXYY=  -200.4805 XXZZ=  -160.7666 YYZZ=  -183.5409
 XXYZ=   -16.2091 YYXZ=    32.8941 ZZXY=    56.4122
 N-N= 3.303678926183D+02 E-N=-1.558185018174D+03  KE= 3.799729280291D+02
                          Isotropic Fermi Contact Couplings
        Atom                 a.u.       MegaHertz       Gauss      10(-4) cm-1
     1  C(13)             -0.01736     -19.51945      -6.96503      -6.51099
     2  H(1)               0.00563      25.18448       8.98645       8.40064
     3  H(1)               0.00091       4.07415       1.45376       1.35899
     4  C(13)              0.12145     136.52939      48.71708      45.54130
     5  C(13)             -0.02459     -27.64217      -9.86341      -9.22044
     6  H(1)               0.01428      63.82933      22.77589      21.29117
     7  H(1)               0.02837     126.79422      45.24333      42.29400
     8  H(1)               0.00195       8.71601       3.11009       2.90735
     9  C(13)             -0.01505     -16.92233      -6.03831      -5.64468
    10  H(1)               0.00388      17.33964       6.18722       5.78388
    11  H(1)               0.00221       9.89287       3.53002       3.29991
    12  O(17)              0.05602     -33.95871     -12.11731     -11.32741
    13  H(1)              -0.00132      -5.89467      -2.10337      -1.96625
    14  O(17)              0.02776     -16.82616      -6.00399      -5.61260
    15  O(17)              0.00362      -2.19620      -0.78366      -0.73257
    16  H(1)               0.00034       1.50702       0.53774       0.50269
 --------------------------------------------------------
       Center         ----  Spin Dipole Couplings  ----
                      3XX-RR        3YY-RR        3ZZ-RR
 --------------------------------------------------------
     1   Atom       -0.008557      0.002638      0.005918
     2   Atom       -0.007976     -0.003092      0.011068
     3   Atom       -0.002648      0.007764     -0.005116
     4   Atom        0.506793     -0.065616     -0.441176
     5   Atom        0.002362     -0.008783      0.006421
     6   Atom       -0.005787     -0.000026      0.005813
     7   Atom        0.007074     -0.009620      0.002547
     8   Atom       -0.007381     -0.007325      0.014706
     9   Atom        0.000407      0.007498     -0.007905
    10   Atom        0.002587      0.001587     -0.004175
    11   Atom        0.000013      0.009658     -0.009672
    12   Atom       -0.154284      0.267706     -0.113422
    13   Atom       -0.002966      0.008113     -0.005147
    14   Atom        0.092393     -0.151233      0.058840
    15   Atom       -0.007829     -0.004505      0.012334
    16   Atom       -0.004952     -0.000061      0.005013
 --------------------------------------------------------
                        XY            XZ            YZ
 --------------------------------------------------------
     1   Atom       -0.005759     -0.002787      0.012213
     2   Atom        0.002565     -0.000355      0.011395
     3   Atom       -0.007949     -0.006132      0.008649
     4   Atom        0.664955     -0.252251     -0.165708
     5   Atom        0.008543      0.011717     -0.003190
     6   Atom       -0.004758      0.006645     -0.011245
     7   Atom        0.000400      0.010248     -0.001071
     8   Atom        0.001239      0.002447      0.004258
     9   Atom       -0.011939      0.001491     -0.003913
    10   Atom       -0.008670      0.007979     -0.009451
    11   Atom       -0.010669     -0.004401      0.004359
    12   Atom        0.039951     -0.008255     -0.142690
    13   Atom        0.009881      0.011732      0.003347
    14   Atom       -0.050414     -0.230796      0.031805
    15   Atom        0.013950     -0.011806     -0.006914
    16   Atom        0.000954     -0.004749     -0.006808
 --------------------------------------------------------


 ---------------------------------------------------------------------------------
              Anisotropic Spin Dipole Couplings in Principal Axis System
 ---------------------------------------------------------------------------------

       Atom             a.u.   MegaHertz   Gauss  10(-4) cm-1        Axes

              Baa    -0.0116    -1.552    -0.554    -0.518  0.8037  0.5403 -0.2494
     1 C(13)  Bbb    -0.0064    -0.853    -0.305    -0.285  0.5534 -0.5243  0.6472
              Bcc     0.0179     2.405     0.858     0.802 -0.2189  0.6581  0.7204
 
              Baa    -0.0112    -5.994    -2.139    -1.999 -0.5990  0.7092 -0.3719
     2 H(1)   Bbb    -0.0062    -3.310    -1.181    -1.104  0.7999  0.5084 -0.3189
              Bcc     0.0174     9.304     3.320     3.104  0.0371  0.4885  0.8718
 
              Baa    -0.0105    -5.598    -1.997    -1.867  0.4650 -0.2055  0.8611
     3 H(1)   Bbb    -0.0066    -3.509    -1.252    -1.171  0.7628  0.5867 -0.2718
              Bcc     0.0171     9.107     3.250     3.038 -0.4494  0.7833  0.4296
 
              Baa    -0.5042   -67.653   -24.140   -22.567  0.3412 -0.1679  0.9249
     4 C(13)  Bbb    -0.5032   -67.531   -24.097   -22.526 -0.4636  0.8259  0.3209
              Bcc     1.0074   135.184    48.237    45.092  0.8177  0.5383 -0.2040
 
              Baa    -0.0169    -2.269    -0.810    -0.757 -0.5584  0.7368  0.3812
     5 C(13)  Bbb     0.0002     0.028     0.010     0.009  0.4837  0.6625 -0.5720
              Bcc     0.0167     2.241     0.800     0.748  0.6740  0.1350  0.7263
 
              Baa    -0.0090    -4.792    -1.710    -1.599  0.6322 -0.4532 -0.6284
     6 H(1)   Bbb    -0.0084    -4.486    -1.601    -1.496  0.6999  0.6820  0.2122
              Bcc     0.0174     9.278     3.311     3.095  0.3324 -0.5740  0.7483
 
              Baa    -0.0099    -5.285    -1.886    -1.763 -0.1453  0.9684  0.2029
     7 H(1)   Bbb    -0.0054    -2.884    -1.029    -0.962 -0.6098 -0.2491  0.7523
              Bcc     0.0153     8.169     2.915     2.725  0.7791 -0.0144  0.6267
 
              Baa    -0.0087    -4.639    -1.655    -1.547 -0.5980  0.7972 -0.0825
     8 H(1)   Bbb    -0.0071    -3.791    -1.353    -1.264  0.7935  0.5744 -0.2012
              Bcc     0.0158     8.430     3.008     2.812  0.1130  0.1858  0.9761
 
              Baa    -0.0097    -1.296    -0.463    -0.432  0.4949  0.5055  0.7068
     9 C(13)  Bbb    -0.0074    -0.993    -0.354    -0.331 -0.6429 -0.3342  0.6892
              Bcc     0.0171     2.289     0.817     0.764 -0.5846  0.7955 -0.1596
 
              Baa    -0.0114    -6.080    -2.169    -2.028 -0.1724  0.5019  0.8476
    10 H(1)   Bbb    -0.0063    -3.365    -1.201    -1.122  0.7704  0.6049 -0.2015
              Bcc     0.0177     9.445     3.370     3.150 -0.6138  0.6182 -0.4910
 
              Baa    -0.0114    -6.070    -2.166    -2.025  0.3439 -0.0201  0.9388
    11 H(1)   Bbb    -0.0065    -3.467    -1.237    -1.157  0.7687  0.5802 -0.2691
              Bcc     0.0179     9.538     3.403     3.181 -0.5393  0.8142  0.2150
 
              Baa    -0.1644    11.893     4.244     3.967 -0.5830  0.3029  0.7539
    12 O(17)  Bbb    -0.1543    11.166     3.984     3.725  0.8080  0.1187  0.5772
              Bcc     0.3187   -23.059    -8.228    -7.692  0.0854  0.9456 -0.3139
 
              Baa    -0.0167    -8.894    -3.174    -2.967  0.7150 -0.1944 -0.6715
    13 H(1)   Bbb    -0.0011    -0.575    -0.205    -0.192 -0.4069  0.6654 -0.6259
              Bcc     0.0177     9.470     3.379     3.159  0.5685  0.7208  0.3967
 
              Baa    -0.1682    12.174     4.344     4.061  0.5171  0.7451  0.4212
    14 O(17)  Bbb    -0.1462    10.576     3.774     3.528 -0.4492  0.6552 -0.6074
              Bcc     0.3144   -22.749    -8.118    -7.588  0.7286 -0.1249 -0.6735
 
              Baa    -0.0209     1.510     0.539     0.504  0.7831 -0.6028  0.1529
    15 O(17)  Bbb    -0.0027     0.194     0.069     0.065  0.3972  0.6740  0.6229
              Bcc     0.0235    -1.704    -0.608    -0.568 -0.4785 -0.4271  0.7672
 
              Baa    -0.0075    -3.990    -1.424    -1.331  0.7957  0.3508  0.4937
    16 H(1)   Bbb    -0.0035    -1.878    -0.670    -0.627 -0.5411  0.7779  0.3194
              Bcc     0.0110     5.868     2.094     1.957 -0.2720 -0.5214  0.8088
 

 ---------------------------------------------------------------------------------


 This type of calculation cannot be archived.


 THE POLHOLDE ROLLS WITHOUT SLIPPING ON THE HERPOLHOLDE LYING IN
 THE INVARIABLE PLANE.
 H.GOLDSTEIN, "CLASSICAL MECHANICS", PG 161
 Job cpu time:  0 days  9 hours 42 minutes 42.7 seconds.
 File lengths (MBytes):  RWF=     28 Int=      0 D2E=      0 Chk=     10 Scr=      1
 Normal termination of Gaussian 03 at Tue Aug 13 13:26:31 2013.
