 Entering Gaussian System, Link 0=g09
 Initial command:
 /cm/shared/c3ddb/gaussian/09.d01/g09/l1.exe "/scratch/users/duminda/g09/a3664-9030828/Gau-15641.inp" -scrdir="/scratch/users/duminda/g09/a3664-9030828/"
 Entering Link 1 = /cm/shared/c3ddb/gaussian/09.d01/g09/l1.exe PID=     15648.
  
 Copyright (c) 1988,1990,1992,1993,1995,1998,2003,2009,2013,
            Gaussian, Inc.  All Rights Reserved.
  
 This is part of the Gaussian(R) 09 program.  It is based on
 the Gaussian(R) 03 system (copyright 2003, Gaussian, Inc.),
 the Gaussian(R) 98 system (copyright 1998, Gaussian, Inc.),
 the Gaussian(R) 94 system (copyright 1995, Gaussian, Inc.),
 the Gaussian 92(TM) system (copyright 1992, Gaussian, Inc.),
 the Gaussian 90(TM) system (copyright 1990, Gaussian, Inc.),
 the Gaussian 88(TM) system (copyright 1988, Gaussian, Inc.),
 the Gaussian 86(TM) system (copyright 1986, Carnegie Mellon
 University), and the Gaussian 82(TM) system (copyright 1983,
 Carnegie Mellon University). Gaussian is a federally registered
 trademark of Gaussian, Inc.
  
 This software contains proprietary and confidential information,
 including trade secrets, belonging to Gaussian, Inc.
  
 This software is provided under written license and may be
 used, copied, transmitted, or stored only in accord with that
 written license.
  
 The following legend is applicable only to US Government
 contracts under FAR:
  
                    RESTRICTED RIGHTS LEGEND
  
 Use, reproduction and disclosure by the US Government is
 subject to restrictions as set forth in subparagraphs (a)
 and (c) of the Commercial Computer Software - Restricted
 Rights clause in FAR 52.227-19.
  
 Gaussian, Inc.
 340 Quinnipiac St., Bldg. 40, Wallingford CT 06492
  
  
 ---------------------------------------------------------------
 Warning -- This program may not be used in any manner that
 competes with the business of Gaussian, Inc. or will provide
 assistance to any competitor of Gaussian, Inc.  The licensee
 of this program is prohibited from giving any competitor of
 Gaussian, Inc. access to this program.  By using this program,
 the user acknowledges that Gaussian, Inc. is engaged in the
 business of creating and licensing software in the field of
 computational chemistry and represents and warrants to the
 licensee that it is not a competitor of Gaussian, Inc. and that
 it will not use this program in any manner prohibited above.
 ---------------------------------------------------------------
  

 Cite this work as:
 Gaussian 09, Revision D.01,
 M. J. Frisch, G. W. Trucks, H. B. Schlegel, G. E. Scuseria, 
 M. A. Robb, J. R. Cheeseman, G. Scalmani, V. Barone, B. Mennucci, 
 G. A. Petersson, H. Nakatsuji, M. Caricato, X. Li, H. P. Hratchian, 
 A. F. Izmaylov, J. Bloino, G. Zheng, J. L. Sonnenberg, M. Hada, 
 M. Ehara, K. Toyota, R. Fukuda, J. Hasegawa, M. Ishida, T. Nakajima, 
 Y. Honda, O. Kitao, H. Nakai, T. Vreven, J. A. Montgomery, Jr., 
 J. E. Peralta, F. Ogliaro, M. Bearpark, J. J. Heyd, E. Brothers, 
 K. N. Kudin, V. N. Staroverov, T. Keith, R. Kobayashi, J. Normand, 
 K. Raghavachari, A. Rendell, J. C. Burant, S. S. Iyengar, J. Tomasi, 
 M. Cossi, N. Rega, J. M. Millam, M. Klene, J. E. Knox, J. B. Cross, 
 V. Bakken, C. Adamo, J. Jaramillo, R. Gomperts, R. E. Stratmann, 
 O. Yazyev, A. J. Austin, R. Cammi, C. Pomelli, J. W. Ochterski, 
 R. L. Martin, K. Morokuma, V. G. Zakrzewski, G. A. Voth, 
 P. Salvador, J. J. Dannenberg, S. Dapprich, A. D. Daniels, 
 O. Farkas, J. B. Foresman, J. V. Ortiz, J. Cioslowski, 
 and D. J. Fox, Gaussian, Inc., Wallingford CT, 2013.
 
 ******************************************
 Gaussian 09:  AS64L-G09RevD.01 24-Apr-2013
                29-Jul-2019 
 ******************************************
 %chk=check.chk
 %mem=14000mb
 %NProcShared=8
 Will use up to    8 processors via shared memory.
 ----------------------------------------------------------------------
 #P opt=(calcfc, noeigentest, tight) guess=read cbs-qb3 scf=(tight, dir
 ect) integral=(grid=ultrafine, Acc2E=12) scf=xqc iop(2/9=2000)
 ----------------------------------------------------------------------
 1/7=10,10=4,11=1,14=-1,18=20,19=15,26=4,38=1/1,3;
 2/9=2000,12=2,17=6,18=5,40=1/2;
 3/5=4,6=6,7=700,11=2,16=1,25=1,30=1,71=2,74=-5,75=-5,116=-2,140=1/1,2,3;
 4/5=1/1;
 5/5=2,8=3,13=1,32=2,38=6,87=12/2,8;
 8/6=4,10=90,11=11,87=12/1;
 11/6=1,8=1,9=11,15=111,16=1,87=12/1,2,10;
 10/6=1,13=1,87=12/2;
 6/7=2,8=2,9=2,10=2,28=1/1;
 7/10=1,18=20,25=1,87=12/1,2,3,16;
 1/7=10,10=4,11=1,14=-1,18=20,19=15,26=4/3(2);
 2/9=2000/2;
 99//99;
 2/9=2000/2;
 3/5=4,6=6,7=700,11=2,16=1,25=1,30=1,71=1,74=-5,75=-5/1,2,3;
 4/5=5,16=3,69=1/1;
 5/5=2,8=3,13=1,32=2,38=5,87=12/2,8;
 7/87=12/1,2,3,16;
 1/7=10,11=1,14=-1,18=20,19=15,26=4/3(-5);
 2/9=2000/2;
 6/7=2,8=2,9=2,10=2,19=2,28=1/1;
 99/9=1/99;
 Leave Link    1 at Mon Jul 29 02:09:45 2019, MaxMem=  1835008000 cpu:         0.7
 (Enter /cm/shared/c3ddb/gaussian/09.d01/g09/l101.exe)
 ----
 name
 ----
 Symbolic Z-matrix:
 Charge =  0 Multiplicity = 2
 O                     1.43737   0.22828  -1.52615 
 O                     1.48503  -2.37511  -2.65629 
 O                    -1.73398  -0.62846   1.60265 
 C                     0.14436   0.43652   0.51832 
 C                    -0.28299   1.83085   0.01627 
 C                     0.76153   0.50622   1.92612 
 C                    -1.59827  -1.0983   -0.74026 
 C                    -1.13475  -0.47409   0.56006 
 C                     1.13923  -0.20148  -0.42603 
 H                    -0.69699   1.79194  -0.99476 
 H                    -1.03124   2.2598    0.68981 
 H                     0.58414   2.49826  -0.01105 
 H                    -0.00106   0.81607   2.64414 
 H                     1.13782  -0.47114   2.24848 
 H                     1.58978   1.22235   1.94986 
 H                    -2.55212  -1.60467  -0.5817 
 H                    -1.70461  -0.34053  -1.52512 
 H                    -0.85596  -1.82155  -1.10528 
 H                     1.58468  -1.15077  -0.06008 
 H                     1.72804  -1.42418  -2.529 
 
 Add virtual bond connecting atoms H20        and O1         Dist= 3.69D+00.
 NAtoms=     20 NQM=       20 NQMF=       0 NMMI=      0 NMMIF=      0
                NMic=       0 NMicF=      0.
                    Isotopes and Nuclear Properties:
 (Nuclear quadrupole moments (NQMom) in fm**2, nuclear magnetic moments (NMagM)
  in nuclear magnetons)

  Atom         1           2           3           4           5           6           7           8           9          10
 IAtWgt=          16          16          16          12          12          12          12          12          12           1
 AtmWgt=  15.9949146  15.9949146  15.9949146  12.0000000  12.0000000  12.0000000  12.0000000  12.0000000  12.0000000   1.0078250
 NucSpn=           0           0           0           0           0           0           0           0           0           1
 AtZEff=   0.0000000   0.0000000   0.0000000   0.0000000   0.0000000   0.0000000   0.0000000   0.0000000   0.0000000   0.0000000
 NQMom=    0.0000000   0.0000000   0.0000000   0.0000000   0.0000000   0.0000000   0.0000000   0.0000000   0.0000000   0.0000000
 NMagM=    0.0000000   0.0000000   0.0000000   0.0000000   0.0000000   0.0000000   0.0000000   0.0000000   0.0000000   2.7928460
 AtZNuc=   8.0000000   8.0000000   8.0000000   6.0000000   6.0000000   6.0000000   6.0000000   6.0000000   6.0000000   1.0000000

  Atom        11          12          13          14          15          16          17          18          19          20
 IAtWgt=           1           1           1           1           1           1           1           1           1           1
 AtmWgt=   1.0078250   1.0078250   1.0078250   1.0078250   1.0078250   1.0078250   1.0078250   1.0078250   1.0078250   1.0078250
 NucSpn=           1           1           1           1           1           1           1           1           1           1
 AtZEff=   0.0000000   0.0000000   0.0000000   0.0000000   0.0000000   0.0000000   0.0000000   0.0000000   0.0000000   0.0000000
 NQMom=    0.0000000   0.0000000   0.0000000   0.0000000   0.0000000   0.0000000   0.0000000   0.0000000   0.0000000   0.0000000
 NMagM=    2.7928460   2.7928460   2.7928460   2.7928460   2.7928460   2.7928460   2.7928460   2.7928460   2.7928460   2.7928460
 AtZNuc=   1.0000000   1.0000000   1.0000000   1.0000000   1.0000000   1.0000000   1.0000000   1.0000000   1.0000000   1.0000000
 Leave Link  101 at Mon Jul 29 02:09:46 2019, MaxMem=  1835008000 cpu:         2.0
 (Enter /cm/shared/c3ddb/gaussian/09.d01/g09/l103.exe)

 GradGradGradGradGradGradGradGradGradGradGradGradGradGradGradGradGradGrad
 Berny optimization.
 Initialization pass.
                           ----------------------------
                           !    Initial Parameters    !
                           ! (Angstroms and Degrees)  !
 --------------------------                            --------------------------
 ! Name  Definition              Value          Derivative Info.                !
 --------------------------------------------------------------------------------
 ! R1    R(1,9)                  1.2181         calculate D2E/DX2 analytically  !
 ! R2    R(1,20)                 1.9547         calculate D2E/DX2 analytically  !
 ! R3    R(2,20)                 0.9897         calculate D2E/DX2 analytically  !
 ! R4    R(3,8)                  1.2124         calculate D2E/DX2 analytically  !
 ! R5    R(4,5)                  1.5424         calculate D2E/DX2 analytically  !
 ! R6    R(4,6)                  1.5387         calculate D2E/DX2 analytically  !
 ! R7    R(4,8)                  1.5707         calculate D2E/DX2 analytically  !
 ! R8    R(4,9)                  1.5128         calculate D2E/DX2 analytically  !
 ! R9    R(5,10)                 1.0932         calculate D2E/DX2 analytically  !
 ! R10   R(5,11)                 1.0943         calculate D2E/DX2 analytically  !
 ! R11   R(5,12)                 1.0946         calculate D2E/DX2 analytically  !
 ! R12   R(6,13)                 1.0923         calculate D2E/DX2 analytically  !
 ! R13   R(6,14)                 1.0958         calculate D2E/DX2 analytically  !
 ! R14   R(6,15)                 1.0952         calculate D2E/DX2 analytically  !
 ! R15   R(7,8)                  1.515          calculate D2E/DX2 analytically  !
 ! R16   R(7,16)                 1.0915         calculate D2E/DX2 analytically  !
 ! R17   R(7,17)                 1.0961         calculate D2E/DX2 analytically  !
 ! R18   R(7,18)                 1.0988         calculate D2E/DX2 analytically  !
 ! R19   R(9,19)                 1.1106         calculate D2E/DX2 analytically  !
 ! A1    A(9,1,20)             101.624          calculate D2E/DX2 analytically  !
 ! A2    A(5,4,6)              111.5921         calculate D2E/DX2 analytically  !
 ! A3    A(5,4,8)              107.886          calculate D2E/DX2 analytically  !
 ! A4    A(5,4,9)              111.117          calculate D2E/DX2 analytically  !
 ! A5    A(6,4,8)              109.1833         calculate D2E/DX2 analytically  !
 ! A6    A(6,4,9)              109.0535         calculate D2E/DX2 analytically  !
 ! A7    A(8,4,9)              107.9168         calculate D2E/DX2 analytically  !
 ! A8    A(4,5,10)             111.9497         calculate D2E/DX2 analytically  !
 ! A9    A(4,5,11)             110.0883         calculate D2E/DX2 analytically  !
 ! A10   A(4,5,12)             109.8677         calculate D2E/DX2 analytically  !
 ! A11   A(10,5,11)            108.9197         calculate D2E/DX2 analytically  !
 ! A12   A(10,5,12)            107.375          calculate D2E/DX2 analytically  !
 ! A13   A(11,5,12)            108.544          calculate D2E/DX2 analytically  !
 ! A14   A(4,6,13)             109.5263         calculate D2E/DX2 analytically  !
 ! A15   A(4,6,14)             111.4993         calculate D2E/DX2 analytically  !
 ! A16   A(4,6,15)             110.6585         calculate D2E/DX2 analytically  !
 ! A17   A(13,6,14)            107.4197         calculate D2E/DX2 analytically  !
 ! A18   A(13,6,15)            109.1627         calculate D2E/DX2 analytically  !
 ! A19   A(14,6,15)            108.4909         calculate D2E/DX2 analytically  !
 ! A20   A(8,7,16)             109.5012         calculate D2E/DX2 analytically  !
 ! A21   A(8,7,17)             111.0629         calculate D2E/DX2 analytically  !
 ! A22   A(8,7,18)             110.4639         calculate D2E/DX2 analytically  !
 ! A23   A(16,7,17)            109.8735         calculate D2E/DX2 analytically  !
 ! A24   A(16,7,18)            109.4675         calculate D2E/DX2 analytically  !
 ! A25   A(17,7,18)            106.4224         calculate D2E/DX2 analytically  !
 ! A26   A(3,8,4)              119.9448         calculate D2E/DX2 analytically  !
 ! A27   A(3,8,7)              122.3026         calculate D2E/DX2 analytically  !
 ! A28   A(4,8,7)              117.7242         calculate D2E/DX2 analytically  !
 ! A29   A(1,9,4)              125.165          calculate D2E/DX2 analytically  !
 ! A30   A(1,9,19)             120.0636         calculate D2E/DX2 analytically  !
 ! A31   A(4,9,19)             114.7424         calculate D2E/DX2 analytically  !
 ! A32   A(1,20,2)             147.3229         calculate D2E/DX2 analytically  !
 ! D1    D(20,1,9,4)          -145.3267         calculate D2E/DX2 analytically  !
 ! D2    D(20,1,9,19)           32.6074         calculate D2E/DX2 analytically  !
 ! D3    D(9,1,20,2)            31.1619         calculate D2E/DX2 analytically  !
 ! D4    D(6,4,5,10)           178.4203         calculate D2E/DX2 analytically  !
 ! D5    D(6,4,5,11)           -60.2734         calculate D2E/DX2 analytically  !
 ! D6    D(6,4,5,12)            59.2131         calculate D2E/DX2 analytically  !
 ! D7    D(8,4,5,10)           -61.642          calculate D2E/DX2 analytically  !
 ! D8    D(8,4,5,11)            59.6644         calculate D2E/DX2 analytically  !
 ! D9    D(8,4,5,12)           179.1509         calculate D2E/DX2 analytically  !
 ! D10   D(9,4,5,10)            56.4681         calculate D2E/DX2 analytically  !
 ! D11   D(9,4,5,11)           177.7744         calculate D2E/DX2 analytically  !
 ! D12   D(9,4,5,12)           -62.739          calculate D2E/DX2 analytically  !
 ! D13   D(5,4,6,13)            65.8231         calculate D2E/DX2 analytically  !
 ! D14   D(5,4,6,14)          -175.421          calculate D2E/DX2 analytically  !
 ! D15   D(5,4,6,15)           -54.5699         calculate D2E/DX2 analytically  !
 ! D16   D(8,4,6,13)           -53.3475         calculate D2E/DX2 analytically  !
 ! D17   D(8,4,6,14)            65.4083         calculate D2E/DX2 analytically  !
 ! D18   D(8,4,6,15)          -173.7405         calculate D2E/DX2 analytically  !
 ! D19   D(9,4,6,13)          -171.0422         calculate D2E/DX2 analytically  !
 ! D20   D(9,4,6,14)           -52.2864         calculate D2E/DX2 analytically  !
 ! D21   D(9,4,6,15)            68.5648         calculate D2E/DX2 analytically  !
 ! D22   D(5,4,8,3)            -97.2995         calculate D2E/DX2 analytically  !
 ! D23   D(5,4,8,7)             80.8089         calculate D2E/DX2 analytically  !
 ! D24   D(6,4,8,3)             24.1467         calculate D2E/DX2 analytically  !
 ! D25   D(6,4,8,7)           -157.7449         calculate D2E/DX2 analytically  !
 ! D26   D(9,4,8,3)            142.5545         calculate D2E/DX2 analytically  !
 ! D27   D(9,4,8,7)            -39.337          calculate D2E/DX2 analytically  !
 ! D28   D(5,4,9,1)             -9.2916         calculate D2E/DX2 analytically  !
 ! D29   D(5,4,9,19)           172.6771         calculate D2E/DX2 analytically  !
 ! D30   D(6,4,9,1)           -132.7093         calculate D2E/DX2 analytically  !
 ! D31   D(6,4,9,19)            49.2594         calculate D2E/DX2 analytically  !
 ! D32   D(8,4,9,1)            108.7998         calculate D2E/DX2 analytically  !
 ! D33   D(8,4,9,19)           -69.2315         calculate D2E/DX2 analytically  !
 ! D34   D(16,7,8,3)             4.488          calculate D2E/DX2 analytically  !
 ! D35   D(16,7,8,4)          -173.5728         calculate D2E/DX2 analytically  !
 ! D36   D(17,7,8,3)           126.0111         calculate D2E/DX2 analytically  !
 ! D37   D(17,7,8,4)           -52.0498         calculate D2E/DX2 analytically  !
 ! D38   D(18,7,8,3)          -116.144          calculate D2E/DX2 analytically  !
 ! D39   D(18,7,8,4)            65.7952         calculate D2E/DX2 analytically  !
 --------------------------------------------------------------------------------
 Trust Radius=3.00D-01 FncErr=1.00D-07 GrdErr=1.00D-06
 Number of steps in this run=    100 maximum allowed number of steps=    120.
 GradGradGradGradGradGradGradGradGradGradGradGradGradGradGradGradGradGrad

 Leave Link  103 at Mon Jul 29 02:09:46 2019, MaxMem=  1835008000 cpu:         0.1
 (Enter /cm/shared/c3ddb/gaussian/09.d01/g09/l202.exe)
                          Input orientation:                          
 ---------------------------------------------------------------------
 Center     Atomic      Atomic             Coordinates (Angstroms)
 Number     Number       Type             X           Y           Z
 ---------------------------------------------------------------------
      1          8           0        1.437370    0.228283   -1.526151
      2          8           0        1.485026   -2.375111   -2.656285
      3          8           0       -1.733976   -0.628462    1.602646
      4          6           0        0.144357    0.436517    0.518322
      5          6           0       -0.282993    1.830850    0.016272
      6          6           0        0.761534    0.506219    1.926116
      7          6           0       -1.598272   -1.098304   -0.740261
      8          6           0       -1.134745   -0.474093    0.560055
      9          6           0        1.139227   -0.201475   -0.426028
     10          1           0       -0.696985    1.791938   -0.994764
     11          1           0       -1.031238    2.259799    0.689809
     12          1           0        0.584142    2.498264   -0.011048
     13          1           0       -0.001061    0.816070    2.644139
     14          1           0        1.137819   -0.471141    2.248484
     15          1           0        1.589775    1.222346    1.949861
     16          1           0       -2.552122   -1.604670   -0.581701
     17          1           0       -1.704614   -0.340529   -1.525115
     18          1           0       -0.855959   -1.821550   -1.105275
     19          1           0        1.584679   -1.150768   -0.060075
     20          1           0        1.728037   -1.424183   -2.529003
 ---------------------------------------------------------------------
                    Distance matrix (angstroms):
                    1          2          3          4          5
     1  O    0.000000
     2  O    2.838509   0.000000
     3  O    4.536609   5.617050   0.000000
     4  C    2.427986   4.447558   2.416211   0.000000
     5  C    2.811928   5.287585   3.266520   1.542351   0.000000
     6  C    3.528760   5.461126   2.760381   1.538717   2.548173
     7  C    3.404788   3.848131   2.393403   2.641299   3.298825
     8  C    3.385463   4.563103   1.212396   1.570686   2.516733
     9  C    1.218135   3.133419   3.543040   1.512811   2.519659
    10  H    2.698678   4.988599   3.698679   2.198739   1.093205
    11  H    3.889931   6.245824   3.109528   2.176187   1.094313
    12  H    2.859432   5.617709   4.213561   2.173579   1.094583
    13  H    4.450382   6.362907   2.484829   2.164325   2.831069
    14  H    3.850558   5.272799   2.947722   2.191865   3.507227
    15  H    3.618570   5.845447   3.820127   2.180840   2.759765
    16  H    4.490852   4.603916   2.528580   3.556332   4.160447
    17  H    3.193057   3.948781   3.141123   2.863238   3.018570
    18  H    3.104563   2.862215   3.086618   2.955599   3.863442
    19  H    2.018133   2.872151   3.748455   2.220032   3.519101
    20  H    1.954698   0.989707   5.448782   3.905949   4.595422
                    6          7          8          9         10
     6  C    0.000000
     7  C    3.905476   0.000000
     8  C    2.534365   1.515031   0.000000
     9  C    2.485169   2.897748   2.493517   0.000000
    10  H    3.508830   3.038188   2.782803   2.769265   0.000000
    11  H    2.795984   3.693709   2.738926   3.466104   1.780001
    12  H    2.784298   4.269659   3.480752   2.787278   1.762918
    13  H    1.092298   4.203579   2.700586   3.429516   3.831220
    14  H    1.095785   4.100259   2.831139   2.688073   4.359666
    15  H    1.095164   4.773449   3.497496   2.806262   3.771541
    16  H    4.661042   1.091502   2.142608   3.952119   3.892185
    17  H    4.325490   1.096142   2.165762   3.052009   2.417437
    18  H    4.150196   1.098794   2.160251   2.658343   3.618671
    19  H    2.714430   3.255239   2.870142   1.110633   3.839160
    20  H    4.950623   3.790795   4.317461   2.502842   4.310227
                   11         12         13         14         15
    11  H    0.000000
    12  H    1.776941   0.000000
    13  H    2.639133   3.197226   0.000000
    14  H    3.819988   3.772189   1.763662   0.000000
    15  H    3.087677   2.546454   1.782650   1.778015   0.000000
    16  H    4.343264   5.195754   4.772205   4.786491   5.617485
    17  H    3.481527   3.948360   4.649999   4.726154   5.036967
    18  H    4.462114   4.683163   4.663260   4.128735   4.957900
    19  H    4.363177   3.784034   3.700783   2.447656   3.109910
    20  H    5.616589   4.799394   5.896602   4.907242   5.204177
                   16         17         18         19         20
    16  H    0.000000
    17  H    1.790629   0.000000
    18  H    1.788333   1.757812   0.000000
    19  H    4.194192   3.690837   2.738449   0.000000
    20  H    4.705775   3.737003   2.976901   2.488154   0.000000
 Stoichiometry    C6H11O3(2)
 Framework group  C1[X(C6H11O3)]
 Deg. of freedom    54
 Full point group                 C1      NOp   1
 Largest Abelian subgroup         C1      NOp   1
 Largest concise Abelian subgroup C1      NOp   1
                         Standard orientation:                         
 ---------------------------------------------------------------------
 Center     Atomic      Atomic             Coordinates (Angstroms)
 Number     Number       Type             X           Y           Z
 ---------------------------------------------------------------------
      1          8           0        1.532045   -1.233234    0.461557
      2          8           0        3.562303    0.499712   -0.503888
      3          8           0       -1.963930    1.504995   -0.466386
      4          6           0       -0.738529   -0.532753   -0.037374
      5          6           0       -1.131104   -1.078531    1.350739
      6          6           0       -1.604882   -1.144636   -1.152130
      7          6           0        0.143293    1.872026    0.607523
      8          6           0       -0.944591    1.024254   -0.019461
      9          6           0        0.718678   -0.805920   -0.338248
     10          1           0       -0.500795   -0.668484    2.144257
     11          1           0       -2.176284   -0.837474    1.567554
     12          1           0       -1.013705   -2.166639    1.369444
     13          1           0       -2.640241   -0.818549   -1.030409
     14          1           0       -1.272564   -0.818122   -2.143945
     15          1           0       -1.565813   -2.238487   -1.115399
     16          1           0       -0.184980    2.912074    0.651283
     17          1           0        0.388794    1.516071    1.614774
     18          1           0        1.069357    1.804730    0.019965
     19          1           0        1.035134   -0.553087   -1.372383
     20          1           0        3.160558   -0.310456   -0.101709
 ---------------------------------------------------------------------
 Rotational constants (GHZ):      1.9306639      1.0580197      0.8583203
 Leave Link  202 at Mon Jul 29 02:09:46 2019, MaxMem=  1835008000 cpu:         0.5
 (Enter /cm/shared/c3ddb/gaussian/09.d01/g09/l301.exe)
 Standard basis: 6-311G(2d,d,p) (5D, 7F)
 Ernie: Thresh=  0.10000D-02 Tol=  0.10000D-05 Strict=F.
 There are   237 symmetry adapted cartesian basis functions of A   symmetry.
 There are   228 symmetry adapted basis functions of A   symmetry.
   228 basis functions,   376 primitive gaussians,   237 cartesian basis functions
    36 alpha electrons       35 beta electrons
       nuclear repulsion energy       461.1816037756 Hartrees.
 IExCor=  402 DFT=T Ex+Corr=B3LYP ExCW=0 ScaHFX=  0.200000
 ScaDFX=  0.800000  0.720000  1.000000  0.810000 ScalE2=  1.000000  1.000000
 IRadAn=      5 IRanWt=     -1 IRanGd=            0 ICorTp=0 IEmpDi=  4
 NAtoms=   20 NActive=   20 NUniq=   20 SFac= 1.00D+00 NAtFMM=   60 NAOKFM=F Big=F
 Integral buffers will be    131072 words long.
 Raffenetti 2 integral format.
 Two-electron integral symmetry is turned on.
 Leave Link  301 at Mon Jul 29 02:09:46 2019, MaxMem=  1835008000 cpu:         0.4
 (Enter /cm/shared/c3ddb/gaussian/09.d01/g09/l302.exe)
 NPDir=0 NMtPBC=     1 NCelOv=     1 NCel=       1 NClECP=     1 NCelD=      1
         NCelK=      1 NCelE2=     1 NClLst=     1 CellRange=     0.0.
 One-electron integrals computed using PRISM.
 NBasis=   228 RedAO= T EigKep=  1.53D-03  NBF=   228
 NBsUse=   228 1.00D-06 EigRej= -1.00D+00 NBFU=   228
 Precomputing XC quadrature grid using
 IXCGrd= 4 IRadAn=           5 IRanWt=          -1 IRanGd=           0 AccXCQ= 0.00D+00.
 Generated NRdTot=       0 NPtTot=           0 NUsed=           0 NTot=          32
 NSgBfM=   237   237   237   237   237 MxSgAt=    20 MxSgA2=    20.
 Leave Link  302 at Mon Jul 29 02:09:48 2019, MaxMem=  1835008000 cpu:         9.7
 (Enter /cm/shared/c3ddb/gaussian/09.d01/g09/l303.exe)
 DipDrv:  MaxL=1.
 Leave Link  303 at Mon Jul 29 02:09:48 2019, MaxMem=  1835008000 cpu:         1.3
 (Enter /cm/shared/c3ddb/gaussian/09.d01/g09/l401.exe)
 Initial guess from the checkpoint file:  "check.chk"
 B after Tr=     0.000000    0.000000    0.000000
         Rot=    0.000000    0.000000    0.000000    1.000000 Ang= 180.00 deg.
 Guess basis will be translated and rotated to current coordinates.
 JPrj=2 DoOrth=T DoCkMO=T.
 Initial guess <Sx>= 0.0000 <Sy>= 0.0000 <Sz>= 0.5000 <S**2>= 0.7519 S= 0.5010
 Leave Link  401 at Mon Jul 29 02:09:52 2019, MaxMem=  1835008000 cpu:        20.6
 (Enter /cm/shared/c3ddb/gaussian/09.d01/g09/l502.exe)
 UHF open shell SCF:
 Using DIIS extrapolation, IDIIS=  1040.
 Integral symmetry usage will be decided dynamically.
 Keep R1 and R2 ints in memory in canonical form, NReq=688467983.
 IVT=      178124 IEndB=      178124 NGot=  1835008000 MDV=  1153280535
 LenX=  1153280535 LenY=  1153223925
 Requested convergence on RMS density matrix=1.00D-08 within  64 cycles.
 Requested convergence on MAX density matrix=1.00D-06.
 Requested convergence on             energy=1.00D-06.
 No special actions if energy rises.
 FoFCou: FMM=F IPFlag=           0 FMFlag=           0 FMFlg1=           0
         NFxFlg=           0 DoJE=F BraDBF=F KetDBF=F FulRan=T
         wScrn=  0.000000 ICntrl=     600 IOpCl=  0 I1Cent=           0 NGrid=           0
         NMat0=    1 NMatS0=  26106 NMatT0=    0 NMatD0=    1 NMtDS0=    0 NMtDT0=    0
 Symmetry not used in FoFCou.

 Cycle   1  Pass 1  IDiag  1:
 E= -460.909079194967    
 DIIS: error= 2.27D-02 at cycle   1 NSaved=   1.
 NSaved= 1 IEnMin= 1 EnMin= -460.909079194967     IErMin= 1 ErrMin= 2.27D-02
 ErrMax= 2.27D-02  0.00D+00 EMaxC= 1.00D-01 BMatC= 7.65D-01 BMatP= 7.65D-01
 IDIUse=3 WtCom= 7.73D-01 WtEn= 2.27D-01
 Coeff-Com:  0.100D+01
 Coeff-En:   0.100D+01
 Coeff:      0.100D+01
 Gap=     0.635 Goal=   None    Shift=    0.000
 Gap=     0.635 Goal=   None    Shift=    0.000
 GapD=    0.635 DampG=2.000 DampE=0.500 DampFc=1.0000 IDamp=-1.
 RMSDP=1.92D-03 MaxDP=8.67D-02              OVMax= 3.38D-02

 Cycle   2  Pass 1  IDiag  1:
 E= -460.968285671637     Delta-E=       -0.059206476670 Rises=F Damp=F
 DIIS: error= 4.04D-03 at cycle   2 NSaved=   2.
 NSaved= 2 IEnMin= 2 EnMin= -460.968285671637     IErMin= 2 ErrMin= 4.04D-03
 ErrMax= 4.04D-03  0.00D+00 EMaxC= 1.00D-01 BMatC= 1.36D-02 BMatP= 7.65D-01
 IDIUse=3 WtCom= 9.60D-01 WtEn= 4.04D-02
 Coeff-Com:  0.361D-01 0.964D+00
 Coeff-En:   0.000D+00 0.100D+01
 Coeff:      0.347D-01 0.965D+00
 Gap=     0.194 Goal=   None    Shift=    0.000
 Gap=     0.108 Goal=   None    Shift=    0.000
 RMSDP=5.54D-04 MaxDP=4.08D-02 DE=-5.92D-02 OVMax= 3.04D-02

 Cycle   3  Pass 1  IDiag  1:
 E= -460.961520415554     Delta-E=        0.006765256084 Rises=F Damp=F
 DIIS: error= 8.85D-03 at cycle   3 NSaved=   3.
 NSaved= 3 IEnMin= 2 EnMin= -460.968285671637     IErMin= 2 ErrMin= 4.04D-03
 ErrMax= 8.85D-03  0.00D+00 EMaxC= 1.00D-01 BMatC= 4.91D-02 BMatP= 1.36D-02
 IDIUse=3 WtCom= 9.61D-02 WtEn= 9.04D-01
 Coeff-Com:  0.489D-02 0.661D+00 0.334D+00
 Coeff-En:   0.000D+00 0.763D+00 0.237D+00
 Coeff:      0.470D-03 0.754D+00 0.246D+00
 Gap=     0.200 Goal=   None    Shift=    0.000
 Gap=     0.114 Goal=   None    Shift=    0.000
 RMSDP=2.83D-04 MaxDP=1.88D-02 DE= 6.77D-03 OVMax= 1.56D-02

 Cycle   4  Pass 1  IDiag  1:
 E= -460.969901621393     Delta-E=       -0.008381205839 Rises=F Damp=F
 DIIS: error= 1.79D-03 at cycle   4 NSaved=   4.
 NSaved= 4 IEnMin= 4 EnMin= -460.969901621393     IErMin= 4 ErrMin= 1.79D-03
 ErrMax= 1.79D-03  0.00D+00 EMaxC= 1.00D-01 BMatC= 2.22D-03 BMatP= 1.36D-02
 IDIUse=3 WtCom= 9.82D-01 WtEn= 1.79D-02
 Coeff-Com: -0.212D-02 0.160D+00-0.122D+00 0.965D+00
 Coeff-En:   0.000D+00 0.191D+00 0.000D+00 0.809D+00
 Coeff:     -0.208D-02 0.160D+00-0.120D+00 0.962D+00
 Gap=     0.200 Goal=   None    Shift=    0.000
 Gap=     0.114 Goal=   None    Shift=    0.000
 RMSDP=7.76D-05 MaxDP=5.14D-03 DE=-8.38D-03 OVMax= 3.78D-03

 Cycle   5  Pass 1  IDiag  1:
 E= -460.970266298544     Delta-E=       -0.000364677151 Rises=F Damp=F
 DIIS: error= 2.80D-04 at cycle   5 NSaved=   5.
 NSaved= 5 IEnMin= 5 EnMin= -460.970266298544     IErMin= 5 ErrMin= 2.80D-04
 ErrMax= 2.80D-04  0.00D+00 EMaxC= 1.00D-01 BMatC= 4.63D-05 BMatP= 2.22D-03
 IDIUse=3 WtCom= 9.97D-01 WtEn= 2.80D-03
 Coeff-Com: -0.848D-03 0.362D-01-0.822D-01 0.483D+00 0.563D+00
 Coeff-En:   0.000D+00 0.000D+00 0.000D+00 0.000D+00 0.100D+01
 Coeff:     -0.846D-03 0.361D-01-0.820D-01 0.482D+00 0.565D+00
 Gap=     0.200 Goal=   None    Shift=    0.000
 Gap=     0.114 Goal=   None    Shift=    0.000
 RMSDP=1.20D-05 MaxDP=4.71D-04 DE=-3.65D-04 OVMax= 5.15D-04

 Cycle   6  Pass 1  IDiag  1:
 E= -460.970276506913     Delta-E=       -0.000010208369 Rises=F Damp=F
 DIIS: error= 3.38D-05 at cycle   6 NSaved=   6.
 NSaved= 6 IEnMin= 6 EnMin= -460.970276506913     IErMin= 6 ErrMin= 3.38D-05
 ErrMax= 3.38D-05  0.00D+00 EMaxC= 1.00D-01 BMatC= 1.00D-06 BMatP= 4.63D-05
 IDIUse=1 WtCom= 1.00D+00 WtEn= 0.00D+00
 Coeff-Com: -0.287D-03 0.100D-01-0.306D-01 0.169D+00 0.224D+00 0.628D+00
 Coeff:     -0.287D-03 0.100D-01-0.306D-01 0.169D+00 0.224D+00 0.628D+00
 Gap=     0.200 Goal=   None    Shift=    0.000
 Gap=     0.114 Goal=   None    Shift=    0.000
 RMSDP=2.71D-06 MaxDP=6.96D-05 DE=-1.02D-05 OVMax= 1.57D-04

 Cycle   7  Pass 1  IDiag  1:
 E= -460.970276607510     Delta-E=       -0.000000100597 Rises=F Damp=F
 DIIS: error= 2.82D-05 at cycle   7 NSaved=   7.
 NSaved= 7 IEnMin= 7 EnMin= -460.970276607510     IErMin= 7 ErrMin= 2.82D-05
 ErrMax= 2.82D-05  0.00D+00 EMaxC= 1.00D-01 BMatC= 5.63D-07 BMatP= 1.00D-06
 IDIUse=1 WtCom= 1.00D+00 WtEn= 0.00D+00
 Coeff-Com: -0.937D-04 0.237D-02-0.102D-01 0.531D-01 0.795D-01 0.437D+00
 Coeff-Com:  0.438D+00
 Coeff:     -0.937D-04 0.237D-02-0.102D-01 0.531D-01 0.795D-01 0.437D+00
 Coeff:      0.438D+00
 Gap=     0.200 Goal=   None    Shift=    0.000
 Gap=     0.114 Goal=   None    Shift=    0.000
 RMSDP=1.41D-06 MaxDP=3.81D-05 DE=-1.01D-07 OVMax= 9.43D-05

 Cycle   8  Pass 1  IDiag  1:
 E= -460.970276712080     Delta-E=       -0.000000104571 Rises=F Damp=F
 DIIS: error= 1.15D-05 at cycle   8 NSaved=   8.
 NSaved= 8 IEnMin= 8 EnMin= -460.970276712080     IErMin= 8 ErrMin= 1.15D-05
 ErrMax= 1.15D-05  0.00D+00 EMaxC= 1.00D-01 BMatC= 2.89D-08 BMatP= 5.63D-07
 IDIUse=1 WtCom= 1.00D+00 WtEn= 0.00D+00
 Coeff-Com: -0.108D-04-0.962D-04-0.823D-03 0.338D-02 0.960D-02 0.137D+00
 Coeff-Com:  0.224D+00 0.627D+00
 Coeff:     -0.108D-04-0.962D-04-0.823D-03 0.338D-02 0.960D-02 0.137D+00
 Coeff:      0.224D+00 0.627D+00
 Gap=     0.200 Goal=   None    Shift=    0.000
 Gap=     0.114 Goal=   None    Shift=    0.000
 RMSDP=4.53D-07 MaxDP=2.22D-05 DE=-1.05D-07 OVMax= 1.23D-04

 -------------------
 - Thermochemistry -
 -------------------
 Temperature   298.150 Kelvin.  Pressure   1.00000 Atm.
 Atom     1 has atomic number  8 and mass  15.99491
 Atom     2 has atomic number  8 and mass  15.99491
 Atom     3 has atomic number  8 and mass  15.99491
 Atom     4 has atomic number  6 and mass  12.00000
 Atom     5 has atomic number  6 and mass  12.00000
 Atom     6 has atomic number  6 and mass  12.00000
 Atom     7 has atomic number  6 and mass  12.00000
 Atom     8 has atomic number  6 and mass  12.00000
 Atom     9 has atomic number  6 and mass  12.00000
 Atom    10 has atomic number  1 and mass   1.00783
 Atom    11 has atomic number  1 and mass   1.00783
 Atom    12 has atomic number  1 and mass   1.00783
 Atom    13 has atomic number  1 and mass   1.00783
 Atom    14 has atomic number  1 and mass   1.00783
 Atom    15 has atomic number  1 and mass   1.00783
 Atom    16 has atomic number  1 and mass   1.00783
 Atom    17 has atomic number  1 and mass   1.00783
 Atom    18 has atomic number  1 and mass   1.00783
 Atom    19 has atomic number  1 and mass   1.00783
 Atom    20 has atomic number  1 and mass   1.00783
 Molecular mass:   131.07082 amu.
 Principal axes and moments of inertia in atomic units:
                           1         2         3
     Eigenvalues --   942.983891604.822781943.41165
           X            0.99849   0.05472  -0.00362
           Y           -0.05478   0.99834  -0.01779
           Z            0.00264   0.01796   0.99984
 This molecule is an asymmetric top.
 Rotational symmetry number  1.
 Warning -- assumption of classical behavior for rotation
           may cause significant error
 Rotational temperatures (Kelvin)      0.09185     0.05397     0.04457
 Rotational constants (GHZ):           1.91386     1.12457     0.92865
 Zero-point vibrational energy     421321.7 (Joules/Mol)
                                  100.69831 (Kcal/Mol)
 Warning -- explicit consideration of  18 degrees of freedom as
           vibrations may cause significant error
 Vibrational temperatures:     48.14    83.75   120.02   124.62   250.19
          (Kelvin)            278.23   288.22   303.43   355.77   398.68
                              416.99   496.95   523.02   606.07   635.82
                              719.85   821.97   840.19   908.56  1003.13
                             1171.22  1323.81  1381.65  1393.50  1425.10
                             1496.63  1532.86  1654.14  1709.65  1749.86
                             1796.71  2005.94  2019.45  2026.88  2059.86
                             2110.63  2126.89  2142.01  2148.99  2168.57
                             2181.62  2538.72  2588.02  4203.97  4365.76
                             4371.26  4377.74  4453.33  4460.06  4468.58
                             4501.21  4504.55  4523.62  5140.21
 
 Zero-point correction=                           0.160473 (Hartree/Particle)
 Thermal correction to Energy=                    0.172708
 Thermal correction to Enthalpy=                  0.173653
 Thermal correction to Gibbs Free Energy=         0.121376
 Sum of electronic and zero-point Energies=           -460.812876
 Sum of electronic and thermal Energies=              -460.800640
 Sum of electronic and thermal Enthalpies=            -460.799696
 Sum of electronic and thermal Free Energies=         -460.851973
 
                     E (Thermal)             CV                S
                      KCal/Mol        Cal/Mol-Kelvin    Cal/Mol-Kelvin
 Total                  108.376             42.267            110.025
 Electronic               0.000              0.000              1.377
 Translational            0.889              2.981             40.525
 Rotational               0.889              2.981             29.465
 Vibrational            106.599             36.305             38.658
 Vibration     1          0.594              1.983              5.613
 Vibration     2          0.596              1.974              4.517
 Vibration     3          0.600              1.961              3.809
 Vibration     4          0.601              1.959              3.735
 Vibration     5          0.627              1.875              2.393
 Vibration     6          0.635              1.849              2.195
 Vibration     7          0.638              1.839              2.130
 Vibration     8          0.643              1.824              2.036
 Vibration     9          0.661              1.767              1.750
 Vibration    10          0.678              1.716              1.552
 Vibration    11          0.686              1.693              1.475
 Vibration    12          0.724              1.585              1.187
 Vibration    13          0.737              1.547              1.107
 Vibration    14          0.784              1.424              0.888
 Vibration    15          0.802              1.379              0.821
 Vibration    16          0.856              1.249              0.657
 Vibration    17          0.927              1.093              0.502
 Vibration    18          0.941              1.066              0.478
                       Q            Log10(Q)             Ln(Q)
 Total Bot       0.148274D-55        -55.828934       -128.550871
 Total V=0       0.962388D+18         17.983350         41.408194
 Vib (Bot)       0.204752D-69        -69.688773       -160.464329
 Vib (Bot)    1  0.618619D+01          0.791423          1.822319
 Vib (Bot)    2  0.354842D+01          0.550035          1.266503
 Vib (Bot)    3  0.246754D+01          0.392264          0.903221
 Vib (Bot)    4  0.237523D+01          0.375705          0.865092
 Vib (Bot)    5  0.115744D+01          0.063499          0.146211
 Vib (Bot)    6  0.103366D+01          0.014379          0.033109
 Vib (Bot)    7  0.995227D+00         -0.002078         -0.004785
 Vib (Bot)    8  0.941427D+00         -0.026214         -0.060359
 Vib (Bot)    9  0.790322D+00         -0.102196         -0.235315
 Vib (Bot)   10  0.694903D+00         -0.158076         -0.363983
 Vib (Bot)   11  0.659887D+00         -0.180530         -0.415686
 Vib (Bot)   12  0.535747D+00         -0.271040         -0.624092
 Vib (Bot)   13  0.503024D+00         -0.298411         -0.687117
 Vib (Bot)   14  0.416439D+00         -0.380448         -0.876015
 Vib (Bot)   15  0.390590D+00         -0.408279         -0.940097
 Vib (Bot)   16  0.328401D+00         -0.483596         -1.113520
 Vib (Bot)   17  0.269052D+00         -0.570164         -1.312850
 Vib (Bot)   18  0.259910D+00         -0.585177         -1.347419
 Vib (V=0)       0.132896D+05          4.123512          9.494736
 Vib (V=0)    1  0.670636D+01          0.826487          1.903056
 Vib (V=0)    2  0.408348D+01          0.611030          1.406949
 Vib (V=0)    3  0.301769D+01          0.479674          1.104490
 Vib (V=0)    4  0.292728D+01          0.466464          1.074074
 Vib (V=0)    5  0.176082D+01          0.245715          0.565780
 Vib (V=0)    6  0.164824D+01          0.217021          0.499709
 Vib (V=0)    7  0.161377D+01          0.207841          0.478571
 Vib (V=0)    8  0.156597D+01          0.194782          0.448503
 Vib (V=0)    9  0.143521D+01          0.156914          0.361308
 Vib (V=0)   10  0.135609D+01          0.132289          0.304606
 Vib (V=0)   11  0.132792D+01          0.123172          0.283614
 Vib (V=0)   12  0.123282D+01          0.090900          0.209304
 Vib (V=0)   13  0.120925D+01          0.082515          0.189999
 Vib (V=0)   14  0.115071D+01          0.060965          0.140378
 Vib (V=0)   15  0.113448D+01          0.054796          0.126171
 Vib (V=0)   16  0.109820D+01          0.040683          0.093675
 Vib (V=0)   17  0.106779D+01          0.028487          0.065594
 Vib (V=0)   18  0.106352D+01          0.026745          0.061583
 Electronic      0.200000D+01          0.301030          0.693147
 Translational   0.589813D+08          7.770714         17.892731
 Rotational      0.613896D+06          5.788094         13.327580
 
                                                                 name
                                                             IR Spectrum
 
     3           333333333   2                                       11   1111111111    111 1 11                                     
     5           111110000   9                                       77   5544444443    221 1 00999 9   8   6 655  544332222211      
     7           432009433   2                                       96   1098763009    418 5 64966 2   1   9 387  042649741097 8853 
     3           419605384   2                                       95   6749872944    968 0 50090 0   4   7 141  021450771034 7383 
 
     X           XXXXXXXXX   X                                       XX   XXXXXXXXXX    XXX X XXXXX X   X   X XXX  XXXXXXXXXXXX XXXX 
     X                       X                                       XX            X     X  X           X      XX   XX               
     X                       X                                        X                     X           X      XX   XX               
     X                       X                                        X                                        X     X               
     X                                                                X                                        X                     
     X                                                                X                                        X                     
     X                                                                X                                        X                     
     X                                                                X                                        X                     
     X                                                                X                                        X                     
     X                                                                X                                                              
     X                                                                X                                                              
     X                                                                X                                                              
                                                                      X                                                              
                                                                      X                                                              
                                                                      X                                                              
                                                                      X                                                              
                                                                      X                                                              
                                                                      X                                                              
                                                                      X                                                              
                                                                      X                                                              
 
 ***** Axes restored to original set *****
 -------------------------------------------------------------------
 Center     Atomic                   Forces (Hartrees/Bohr)
 Number     Number              X              Y              Z
 -------------------------------------------------------------------
      1        8          -0.000000022   -0.000000033    0.000000353
      2        8           0.000000216   -0.000000981    0.000000160
      3        8           0.000000175    0.000000121   -0.000000066
      4        6           0.000000224    0.000000594    0.000000232
      5        6          -0.000000435   -0.000000313   -0.000000658
      6        6          -0.000000127    0.000000854   -0.000000345
      7        6           0.000000194   -0.000000619    0.000000187
      8        6           0.000000131   -0.000000208    0.000000667
      9        6           0.000000078    0.000000310    0.000000019
     10        1           0.000000012   -0.000000379   -0.000000244
     11        1          -0.000000373   -0.000000092   -0.000000552
     12        1          -0.000000293    0.000000037   -0.000000506
     13        1          -0.000000405    0.000000614   -0.000000475
     14        1          -0.000000153    0.000000917    0.000000014
     15        1          -0.000000343    0.000000849   -0.000000331
     16        1           0.000000321   -0.000000565    0.000000514
     17        1           0.000000073   -0.000000674   -0.000000166
     18        1           0.000000401   -0.000000566    0.000000379
     19        1          -0.000000018    0.000000627    0.000000680
     20        1           0.000000345   -0.000000491    0.000000138
 -------------------------------------------------------------------
 Cartesian Forces:  Max     0.000000981 RMS     0.000000427
 FormGI is forming the generalized inverse of G from B-inverse, IUseBI=4.
 Leave Link  716 at Mon Jul 29 05:41:53 2019, MaxMem=  1835008000 cpu:         2.9
 (Enter /cm/shared/c3ddb/gaussian/09.d01/g09/l103.exe)

 GradGradGradGradGradGradGradGradGradGradGradGradGradGradGradGradGradGrad
 Berny optimization.
 Red2BG is reusing G-inverse.
 Internal  Forces:  Max     0.000000402 RMS     0.000000135
 Search for a local minimum.
 Step number   1 out of a maximum of    2
 All quantities printed in internal units (Hartrees-Bohrs-Radians)
 Second derivative matrix not updated -- analytic derivatives used.
 ITU=  0
     Eigenvalues ---    0.00063   0.00070   0.00149   0.00186   0.00261
     Eigenvalues ---    0.00563   0.00953   0.01117   0.02014   0.02858
     Eigenvalues ---    0.03036   0.03717   0.04123   0.04483   0.04499
     Eigenvalues ---    0.04524   0.04658   0.05183   0.05624   0.06092
     Eigenvalues ---    0.08582   0.11889   0.12004   0.12192   0.12245
     Eigenvalues ---    0.12951   0.13361   0.13663   0.14221   0.14602
     Eigenvalues ---    0.15111   0.17125   0.17320   0.17985   0.22999
     Eigenvalues ---    0.24804   0.27661   0.28251   0.29580   0.30831
     Eigenvalues ---    0.32217   0.33256   0.33357   0.33466   0.33631
     Eigenvalues ---    0.33896   0.33954   0.34487   0.34743   0.34823
     Eigenvalues ---    0.36949   0.46955   0.84869   0.86137
 Angle between quadratic step and forces=  78.19 degrees.
 Linear search not attempted -- first point.
 Iteration  1 RMS(Cart)=  0.00001502 RMS(Int)=  0.00000000
 Iteration  2 RMS(Cart)=  0.00000000 RMS(Int)=  0.00000000
 ITry= 1 IFail=0 DXMaxC= 8.06D-05 DCOld= 1.00D+10 DXMaxT= 3.00D-01 DXLimC= 3.00D+00 Rises=F
 Variable       Old X    -DE/DX   Delta X   Delta X   Delta X     New X
                                 (Linear)    (Quad)   (Total)
    R1        2.28535   0.00000   0.00000   0.00000   0.00000   2.28534
    R2        3.60908   0.00000   0.00000   0.00001   0.00001   3.60909
    R3        1.85741   0.00000   0.00000   0.00000   0.00000   1.85741
    R4        2.28174   0.00000   0.00000   0.00000   0.00000   2.28174
    R5        2.90254   0.00000   0.00000   0.00000   0.00000   2.90254
    R6        2.90723   0.00000   0.00000   0.00000   0.00000   2.90723
    R7        2.96467   0.00000   0.00000   0.00000   0.00000   2.96467
    R8        2.88477   0.00000   0.00000   0.00000   0.00000   2.88478
    R9        2.05826   0.00000   0.00000   0.00000   0.00000   2.05826
   R10        2.06496   0.00000   0.00000   0.00000   0.00000   2.06496
   R11        2.06488   0.00000   0.00000   0.00000   0.00000   2.06488
   R12        2.06331   0.00000   0.00000   0.00000   0.00000   2.06331
   R13        2.05964   0.00000   0.00000   0.00000   0.00000   2.05964
   R14        2.06611   0.00000   0.00000   0.00000   0.00000   2.06611
   R15        2.85799   0.00000   0.00000   0.00000   0.00000   2.85799
   R16        2.05816   0.00000   0.00000   0.00000   0.00000   2.05816
   R17        2.06956   0.00000   0.00000   0.00000   0.00000   2.06956
   R18        2.06376   0.00000   0.00000   0.00000   0.00000   2.06376
   R19        2.09460   0.00000   0.00000   0.00000   0.00000   2.09460
    A1        2.32118   0.00000   0.00000   0.00001   0.00001   2.32118
    A2        1.95298   0.00000   0.00000   0.00000   0.00000   1.95298
    A3        1.95888   0.00000   0.00000   0.00001   0.00001   1.95888
    A4        1.94218   0.00000   0.00000   0.00000   0.00000   1.94218
    A5        1.90625   0.00000   0.00000   0.00000   0.00000   1.90626
    A6        1.88335   0.00000   0.00000   0.00000   0.00000   1.88335
    A7        1.81378   0.00000   0.00000  -0.00001  -0.00001   1.81377
    A8        1.96260   0.00000   0.00000   0.00000   0.00000   1.96260
    A9        1.92640   0.00000   0.00000   0.00000   0.00000   1.92640
   A10        1.91711   0.00000   0.00000   0.00000   0.00000   1.91711
   A11        1.89288   0.00000   0.00000   0.00000   0.00000   1.89288
   A12        1.88093   0.00000   0.00000   0.00000   0.00000   1.88093
   A13        1.88157   0.00000   0.00000   0.00000   0.00000   1.88157
   A14        1.92072   0.00000   0.00000   0.00000   0.00000   1.92072
   A15        1.94058   0.00000   0.00000   0.00000   0.00000   1.94058
   A16        1.93018   0.00000   0.00000   0.00000   0.00000   1.93018
   A17        1.87652   0.00000   0.00000   0.00000   0.00000   1.87652
   A18        1.88921   0.00000   0.00000   0.00000   0.00000   1.88921
   A19        1.90512   0.00000   0.00000   0.00000   0.00000   1.90512
   A20        1.89969   0.00000   0.00000   0.00000   0.00000   1.89969
   A21        1.90544   0.00000   0.00000   0.00000   0.00000   1.90544
   A22        1.96669   0.00000   0.00000  -0.00001  -0.00001   1.96669
   A23        1.89475   0.00000   0.00000   0.00000   0.00000   1.89475
   A24        1.93627   0.00000   0.00000   0.00000   0.00000   1.93627
   A25        1.85934   0.00000   0.00000   0.00000   0.00000   1.85934
   A26        2.09385   0.00000   0.00000   0.00000   0.00000   2.09385
   A27        2.13132   0.00000   0.00000   0.00000   0.00000   2.13132
   A28        2.05785   0.00000   0.00000   0.00000   0.00000   2.05785
   A29        2.19640   0.00000   0.00000   0.00000   0.00000   2.19640
   A30        2.09228   0.00000   0.00000   0.00000   0.00000   2.09228
   A31        1.99441   0.00000   0.00000   0.00000   0.00000   1.99441
   A32        2.85461   0.00000   0.00000  -0.00001  -0.00001   2.85459
    D1       -0.47510   0.00000   0.00000   0.00001   0.00001  -0.47509
    D2        2.65035   0.00000   0.00000   0.00000   0.00000   2.65035
    D3       -0.51024   0.00000   0.00000  -0.00003  -0.00003  -0.51028
    D4        3.09214   0.00000   0.00000  -0.00001  -0.00001   3.09213
    D5       -1.07480   0.00000   0.00000   0.00000   0.00000  -1.07480
    D6        0.99758   0.00000   0.00000  -0.00001  -0.00001   0.99758
    D7       -1.04073   0.00000   0.00000   0.00000   0.00000  -1.04073
    D8        1.07552   0.00000   0.00000   0.00000   0.00000   1.07552
    D9       -3.13529   0.00000   0.00000   0.00000   0.00000  -3.13528
   D10        0.98362   0.00000   0.00000  -0.00001  -0.00001   0.98361
   D11        3.09986   0.00000   0.00000  -0.00001  -0.00001   3.09986
   D12       -1.11094   0.00000   0.00000  -0.00001  -0.00001  -1.11095
   D13        1.03714   0.00000   0.00000  -0.00001  -0.00001   1.03713
   D14        3.11439   0.00000   0.00000  -0.00001  -0.00001   3.11439
   D15       -1.04931   0.00000   0.00000  -0.00001  -0.00001  -1.04932
   D16       -1.14265   0.00000   0.00000  -0.00001  -0.00001  -1.14267
   D17        0.93460   0.00000   0.00000  -0.00001  -0.00001   0.93459
   D18        3.05408   0.00000   0.00000  -0.00001  -0.00001   3.05407
   D19       -3.10371   0.00000   0.00000   0.00000   0.00000  -3.10371
   D20       -1.02646   0.00000   0.00000   0.00000   0.00000  -1.02646
   D21        1.09302   0.00000   0.00000   0.00000   0.00000   1.09302
   D22       -2.54353   0.00000   0.00000  -0.00004  -0.00004  -2.54357
   D23        0.61683   0.00000   0.00000  -0.00003  -0.00003   0.61681
   D24       -0.36718   0.00000   0.00000  -0.00003  -0.00003  -0.36721
   D25        2.79319   0.00000   0.00000  -0.00002  -0.00002   2.79316
   D26        1.63918   0.00000   0.00000  -0.00004  -0.00004   1.63914
   D27       -1.48365   0.00000   0.00000  -0.00003  -0.00003  -1.48367
   D28       -0.34538   0.00000   0.00000   0.00000   0.00000  -0.34538
   D29        2.81157   0.00000   0.00000   0.00000   0.00000   2.81158
   D30       -2.49431   0.00000   0.00000  -0.00001  -0.00001  -2.49431
   D31        0.66264   0.00000   0.00000   0.00000   0.00000   0.66264
   D32        1.76634   0.00000   0.00000   0.00000   0.00000   1.76634
   D33       -1.35990   0.00000   0.00000   0.00000   0.00000  -1.35989
   D34       -0.28461   0.00000   0.00000   0.00004   0.00004  -0.28457
   D35        2.83778   0.00000   0.00000   0.00003   0.00003   2.83781
   D36        1.78088   0.00000   0.00000   0.00005   0.00005   1.78093
   D37       -1.37990   0.00000   0.00000   0.00004   0.00004  -1.37987
   D38       -2.44010   0.00000   0.00000   0.00004   0.00004  -2.44006
   D39        0.68230   0.00000   0.00000   0.00003   0.00003   0.68233
         Item               Value     Threshold  Converged?
 Maximum Force            0.000000     0.000015     YES
 RMS     Force            0.000000     0.000010     YES
 Maximum Displacement     0.000081     0.000060     NO 
 RMS     Displacement     0.000015     0.000040     YES
 Predicted change in Energy=-1.760981D-11
 GradGradGradGradGradGradGradGradGradGradGradGradGradGradGradGradGradGrad

 Leave Link  103 at Mon Jul 29 05:42:00 2019, MaxMem=  1835008000 cpu:        44.8
 (Enter /cm/shared/c3ddb/gaussian/09.d01/g09/l9999.exe)

 Test job not archived.
 1\1\GINC-NODE037\Freq\UB3LYP\6-311G(2d,d,p)\C6H11O3(2)\DUMINDA\29-Jul-
 2019\0\\#P Geom=AllCheck Guess=TCheck SCRF=Check Test B3LYP/CBSB7 Freq
 \\name\\0,2\O,1.91753845,-0.7613266947,-0.9061045268\O,0.5891276071,-0
 .5437431945,-3.4363951999\O,-1.2558509852,-1.2334875252,1.7249960286\C
 ,0.2580607934,0.2466138755,0.5721543036\C,0.0312508163,1.3423562099,-0
 .4800187085\C,0.5316743225,0.8374306117,1.9660236416\C,-1.6835883157,-
 1.0898850327,-0.6166489715\C,-0.9504490775,-0.7497437379,0.6616770886\
 C,1.4409375475,-0.6433326943,0.1990935248\H,-0.1144345975,0.9352668105
 ,-1.4797083255\H,-0.8434513505,1.9437168521,-0.2205686609\H,0.89662974
 75,2.0086292892,-0.5141245475\H,-0.3130274612,1.4514958244,2.284690061
 8\H,0.6636961801,0.0504761864,2.7084404946\H,1.425194643,1.4672664531,
 1.9480676517\H,-2.267170393,-1.9955398592,-0.4571690405\H,-2.368936007
 6,-0.2730255532,-0.8664887148\H,-1.0116370219,-1.2037572278,-1.4699890
 157\H,1.8585927049,-1.224544256,1.0454616602\H,1.1958433979,-0.5648663
 372,-2.663390744\\Version=AS64L-G09RevD.01\State=2-A\HF=-460.9733486\S
 2=0.751989\S2-1=0.\S2A=0.750003\RMSD=6.112e-09\RMSF=4.268e-07\ZeroPoin
 t=0.160473\Thermal=0.1727084\Dipole=0.0740848,0.6163591,0.6481997\Dipo
 leDeriv=-0.6190189,0.1528157,0.2698021,0.1909444,-0.3722794,-0.0818727
 ,0.3918024,-0.0848842,-1.1283882,-0.3244266,0.0038162,0.0944733,-0.013
 8356,-0.375575,-0.0044432,0.1084126,-0.0154148,-0.4629079,-0.5282015,-
 0.2305988,0.1045098,-0.3088735,-0.5002971,0.2292583,0.1631484,0.194844
 1,-0.9194756,-0.6676342,-0.0789822,0.2165968,-0.0017247,-0.0773866,-0.
 0431292,0.0450666,-0.0159906,-0.0379047,0.0852412,-0.001761,-0.0039496
 ,-0.0026839,0.0540731,-0.0117889,-0.0138993,-0.0186908,-0.0145715,0.08
 05672,0.0402749,-0.0102331,0.0257934,0.0427157,0.0187108,-0.0210487,0.
 0516741,0.0293231,-0.1314871,-0.0631857,-0.1970316,-0.0896043,0.015532
 4,-0.0210624,-0.1509684,-0.0469796,-0.2877748,0.8789928,0.5068849,0.01
 41986,0.7193661,0.4629138,-0.2354112,0.0048247,-0.1464779,1.0390899,0.
 8997331,-0.3773081,-0.4288199,-0.5975092,0.3584966,0.0903565,-0.345880
 9,-0.0499262,0.9970747,0.0577489,-0.0064911,-0.0415328,0.0000488,0.049
 2801,-0.0242253,-0.0422841,-0.0225299,-0.0618892,-0.0536082,0.1034861,
 0.0292435,0.0694152,0.0012161,-0.0028183,0.0490144,-0.0207767,0.035869
 6,-0.0561566,-0.1177546,0.0030483,-0.0717282,-0.0187309,0.0208189,-0.0
 20309,0.0105459,0.0657254,-0.0382826,0.0932153,0.0450713,0.0646934,0.0
 137332,-0.0414085,0.006097,-0.0366066,0.0359667,0.0800298,0.0249159,-0
 .0093347,0.0349754,-0.014919,0.0932755,-0.0271388,0.0437195,-0.0124866
 ,-0.0662322,-0.1120233,-0.0165195,-0.0957656,-0.003339,-0.0271149,0.01
 95998,-0.001165,0.0455611,0.0299169,-0.0745591,-0.0038976,-0.0959696,-
 0.0271456,-0.0031021,0.008381,0.0417678,0.0535447,0.053982,0.0522708,-
 0.0359633,0.0781503,-0.0201347,-0.0030837,-0.0101865,-0.005254,0.07083
 31,0.015816,0.0206566,0.0469104,0.0012199,0.0915575,-0.0471923,-0.0018
 038,-0.0128275,0.063225,0.0014947,0.0809843,-0.0479363,0.1021527,-0.00
 84442,0.0911063,-0.0872813,0.1035278,-0.1198844,0.3015252,-0.0166567,-
 0.0286356,-0.0090648,0.3287332,0.0031265,-0.075546,0.0314446,0.6090694
 \Polar=75.278246,3.3939983,68.3758986,-0.743916,0.0934245,87.2947564\P
 G=C01 [X(C6H11O3)]\NImag=0\\0.17887644,-0.05638160,0.05650176,-0.26910
 370,0.05155506,0.71854602,0.00233596,-0.00135092,-0.00717598,0.1811149
 9,0.00018533,0.00183201,0.00069856,-0.00650271,0.00309589,-0.00233457,
 -0.00191584,-0.01087778,0.22338412,-0.00770994,0.29486189,-0.00128086,
 0.00148327,0.00323548,0.00057628,0.00037522,-0.00011738,0.11760738,-0.
 00298220,0.00425713,0.00577513,0.00019175,0.00014710,0.00033032,0.1137
 1989,0.17427911,0.00278177,-0.00242315,-0.00322802,0.00080408,0.000219
 05,-0.00086871,-0.15611439,-0.26583276,0.67477373,-0.01074534,0.021495
 93,0.04449895,0.00114466,0.00017329,0.00033694,-0.00637421,-0.03572652
 ,0.03396565,0.35524168,0.01126985,0.01113312,-0.00913390,-0.00005273,-
 0.00033530,-0.00023060,-0.02607396,-0.00618768,0.01929556,-0.02505092,
 0.43683053,0.04125680,-0.01924711,-0.01794817,-0.00028302,0.00015891,-
 0.00010917,0.03253524,0.02888355,-0.01308449,0.01685338,-0.01966774,0.
 49436763,0.00104170,-0.00205206,-0.00353784,-0.00002878,0.00018636,-0.
 00023054,-0.00824094,-0.00274741,0.00199560,-0.07072581,0.00682801,-0.
 01009559,0.56794811,-0.00269884,0.00226737,0.00253169,0.00017406,0.000
 00938,-0.00071209,-0.00284500,-0.00043740,-0.00022962,0.01243409,-0.12
 586339,0.04403564,0.01010403,0.50789328,0.00086021,-0.00171700,-0.0034
 1066,-0.00041573,-0.00007876,-0.00076914,-0.00214678,-0.00025051,0.002
 37767,-0.01232086,0.03946094,-0.12331971,-0.00846489,0.06507576,0.5286
 6857,-0.00841267,0.00060329,0.00230335,0.00023367,-0.00005880,0.000234
 52,-0.00089462,0.00155805,-0.00455240,-0.06881673,-0.00175717,-0.01290
 599,-0.00088735,-0.00109019,-0.00603979,0.56772403,0.00364528,0.000152
 25,0.00022023,-0.00019456,0.00027141,-0.00022957,0.00015747,0.00115023
 ,-0.00198007,-0.00760187,-0.09414831,-0.03050954,0.00336657,0.01089753
 ,0.02233597,-0.00797761,0.56229467,-0.00152223,-0.00060766,0.00386140,
 0.00011197,-0.00017395,0.00022311,0.00109896,0.00315286,-0.00330448,-0
 .01769449,-0.02679895,-0.14836696,-0.00498679,-0.00563436,-0.02715794,
 -0.02194157,-0.04846731,0.47240856,0.00002392,0.00016025,0.00107236,0.
 00066452,0.00036697,-0.00006649,0.02333767,-0.00382670,0.00190545,-0.0
 0237789,-0.01016183,-0.01726189,-0.00295265,-0.00203293,-0.00056102,-0
 .00316037,-0.00222226,0.00169358,0.52012343,-0.00070250,0.00119795,0.0
 0220968,-0.00042035,0.00036541,0.00060238,0.00060206,0.01725152,0.0218
 1517,-0.01843936,0.00477611,-0.01107200,0.00002667,0.00034650,-0.00039
 326,-0.00274454,-0.00093667,-0.00019808,0.02820438,0.55083076,-0.00056
 599,-0.00014474,-0.00040799,0.00079730,0.00025039,0.00001087,-0.016369
 75,0.00732949,-0.05973175,0.00057916,0.00141974,0.00488477,-0.00042698
 ,-0.00093689,0.00058494,0.00179033,0.00115366,0.00022847,-0.05874458,-
 0.03159240,0.50184867,0.00558498,-0.00122105,-0.01140884,-0.00181122,-
 0.00095739,0.00024367,-0.12827291,-0.07714714,0.13044596,-0.08616905,-
 0.02190610,-0.01844606,0.01048248,0.00119445,0.00782073,-0.01204510,-0
 .00729841,-0.00934424,-0.11932026,-0.02163062,-0.03932395,0.37904496,0
 .00663049,-0.00923041,-0.01733107,-0.00115955,-0.00032338,-0.00045725,
 -0.08050875,-0.17981992,0.22238062,0.01865664,-0.08841103,-0.01251564,
 -0.01806710,-0.01822798,0.00667517,-0.01985457,-0.01248418,-0.00766346
 ,-0.01747426,-0.09383601,-0.02714994,0.12269770,0.37450192,-0.00156794
 ,-0.00113323,-0.00019893,-0.00103467,-0.00035843,0.00093227,0.13869245
 ,0.22771626,-0.60032483,-0.02988277,-0.00806282,-0.07142091,0.01895822
 ,0.01515274,-0.00355579,-0.02614777,-0.02017407,0.00089865,-0.03894073
 ,-0.03316130,-0.13457899,-0.06163766,-0.18235281,0.84774156,-0.1806159
 5,0.03970401,0.22272894,-0.00351619,0.00031853,-0.00377447,0.00480965,
 0.00524154,-0.00883684,-0.10784171,0.04847225,-0.00363682,-0.01063397,
 0.01005335,-0.00629180,0.00787147,-0.00218144,0.00939580,0.00192487,0.
 00088710,-0.00066812,-0.04691080,-0.00898934,0.01579264,0.43070894,0.0
 4033898,-0.08367710,-0.03794695,0.00221787,-0.00022224,0.00220243,-0.0
 0446287,-0.01364291,0.01065193,0.01607433,-0.11243613,0.00107845,0.026
 89294,-0.02195695,-0.00048069,0.01349054,-0.01200160,-0.01246726,-0.00
 070660,-0.00427089,-0.00016289,0.00024880,0.03384100,-0.00258610,-0.14
 130612,0.34130671,0.22923709,-0.04309932,-0.64620879,0.00169953,-0.000
 23708,0.00302093,-0.00165334,-0.00266236,0.00283793,-0.02476526,0.0017
 2111,-0.07421990,-0.01867593,0.01429025,0.00839983,0.02632582,-0.02226
 751,-0.01980622,-0.00198556,-0.00213143,0.00122507,0.01503338,0.014234
 96,-0.00468284,-0.15659003,-0.04582468,0.90918700,-0.00043554,0.000070
 49,0.00123637,-0.00034997,0.00013670,0.00049543,0.00011817,-0.00003037
 ,-0.00018960,-0.00298560,-0.00234317,-0.00356149,-0.05136773,-0.013418
 22,-0.03276309,-0.00015400,0.00128345,-0.00053749,-0.00005762,-0.00063
 162,-0.00009780,0.00013040,0.00045921,0.00065324,0.00097945,-0.0006539
 7,-0.00190087,0.05351576,0.00029006,-0.00094647,-0.00061970,-0.0003583
 2,-0.00032384,0.00030442,-0.00005888,-0.00011495,-0.00032711,0.0029033
 6,0.01133742,0.02257718,-0.01400472,-0.08827725,-0.09650931,0.00067337
 ,-0.00417543,0.00241115,-0.00107602,-0.00080666,0.00031862,0.00022999,
 0.00147644,0.00024676,0.00008696,0.00125723,0.00025445,0.01547956,0.09
 655681,0.00027321,-0.00066447,0.00202920,0.00029455,0.00027962,-0.0005
 4368,0.00039053,0.00025976,0.00056201,-0.00279343,-0.00767567,-0.01877
 284,-0.03273908,-0.09302164,-0.27251958,-0.00036901,0.00458688,-0.0017
 8221,-0.00007029,-0.00068317,-0.00000035,-0.00125417,-0.00113002,-0.00
 083294,0.00147915,-0.00104643,-0.00160317,0.03569989,0.10230304,0.2958
 2857,0.00026877,0.00023366,-0.00060318,0.00005048,0.00002936,0.0000863
 3,0.00040203,0.00054750,-0.00051198,-0.00233445,0.00162529,0.00051074,
 -0.21629779,0.11440013,0.05206438,-0.00009058,-0.00011289,0.00045488,0
 .00001811,0.00016310,-0.00013410,-0.00028646,-0.00098557,0.00002551,0.
 00071997,-0.00005500,0.00038693,0.00438796,-0.00365386,-0.00077540,0.2
 3280291,-0.00014338,0.00068417,-0.00024578,0.00001971,-0.00008904,-0.0
 0019423,-0.00032885,-0.00024282,0.00046702,0.01749365,-0.01512701,-0.0
 0568233,0.11388870,-0.12344993,-0.03542552,-0.00033006,0.00053281,-0.0
 0120260,0.00036025,-0.00042703,-0.00013292,0.00184226,0.00096023,-0.00
 081155,-0.00025968,-0.00268924,0.00422867,0.00960865,-0.00695364,-0.00
 227349,-0.12613245,0.13461489,0.00014601,-0.00098924,0.00179697,0.0002
 0964,-0.00027058,-0.00002547,-0.00000513,0.00000947,-0.00044467,-0.018
 83733,0.01387684,0.00410513,0.05287453,-0.03656669,-0.06247875,-0.0006
 3672,0.00020297,0.00141231,0.00038836,0.00003799,-0.00027837,-0.000497
 98,-0.00088781,0.00137350,0.00097269,0.00291551,-0.00552794,0.02477933
 ,-0.01470585,-0.00556972,-0.05734391,0.03567942,0.06658550,0.00021789,
 -0.00021557,-0.00039498,0.00010231,-0.00000786,-0.00010094,0.00079266,
 0.00020316,-0.00007973,0.00486643,0.00389577,-0.00000017,-0.21457894,-
 0.12708270,0.00464436,0.00018343,0.00040486,-0.00015219,-0.00017389,-0
 .00003178,0.00001222,-0.00052238,0.00125460,-0.00113950,0.00074313,0.0
 0095605,0.00028063,-0.00317466,-0.00130228,0.00001838,-0.02001181,-0.0
 1582652,-0.00032754,0.23085092,0.00102387,0.00054671,-0.00166430,0.000
 21830,0.00004167,-0.00011991,-0.00202226,-0.00091377,0.00116774,-0.016
 95752,-0.01747777,0.00082467,-0.12587843,-0.14119856,0.00280057,-0.000
 42360,0.00056693,-0.00122726,-0.00012507,0.00020874,-0.00011847,0.0037
 7498,-0.00141466,0.00267405,-0.00287326,0.00083801,0.00176930,-0.00966
 833,-0.00753727,0.00070270,0.01447452,0.01203455,-0.00005918,0.1382186
 3,0.15385706,-0.00002236,0.00059381,0.00061778,0.00027967,-0.00004121,
 -0.00015500,0.00225826,0.00089941,-0.00067845,0.01721544,0.01619621,-0
 .00252714,0.00420465,0.00194368,-0.04584714,0.00120422,0.00041049,0.00
 109919,0.00026726,-0.00076800,0.00011381,-0.00417165,0.00144528,-0.002
 96231,0.00090511,-0.00129086,0.00015460,-0.02450934,-0.01714591,0.0024
 6993,0.00667022,0.00519713,-0.00106848,-0.00342599,-0.00700502,0.04897
 811,0.00117573,-0.00001210,-0.00039837,0.00000182,-0.00001585,0.000025
 92,0.00013483,0.00025579,-0.00027845,0.00547604,-0.00468532,-0.0025397
 1,0.00020186,-0.00026102,-0.00007032,-0.20841712,0.11721637,0.05884556
 ,0.00006737,0.00026383,-0.00003208,0.00089330,-0.00084734,0.00005940,-
 0.00112769,-0.00067861,-0.00123851,0.00014547,-0.00021506,0.00008320,0
 .00027583,-0.00011187,0.00022148,-0.00015683,0.00011966,0.00004385,0.2
 2382692,0.00085633,-0.00005478,-0.00044923,-0.00005352,0.00000049,-0.0
 0005263,-0.00103323,0.00033151,0.00149543,0.00833407,-0.00844987,-0.00
 317055,-0.00011697,0.00025758,0.00081749,0.11552827,-0.12913428,-0.041
 75323,0.00005652,-0.00017290,0.00003566,0.00204403,0.00088649,-0.00151
 936,-0.00107989,-0.00088828,-0.00281502,-0.00019173,-0.00002512,0.0000
 0056,-0.00009057,0.00051291,-0.00006591,-0.00012719,0.00003947,-0.0000
 2787,-0.12719731,0.13740270,0.00289111,-0.00061910,-0.00081776,-0.0000
 9092,0.00007013,-0.00013007,-0.00025577,-0.00066420,0.00092141,0.02148
 041,-0.01969100,-0.01176980,0.00109137,-0.00067354,0.00141739,0.057974
 27,-0.04107236,-0.06484831,-0.00002277,0.00010111,-0.00013639,0.001754
 73,0.00196141,0.00030590,-0.00491761,-0.00028731,-0.00489045,-0.000268
 39,0.00004063,0.00036455,-0.00060782,0.00052424,-0.00039475,0.00001763
 ,0.00010000,-0.00014026,-0.06216346,0.04837705,0.07338145,0.00009170,0
 .00016497,-0.00042594,-0.00004421,-0.00004027,0.00000600,-0.00095638,-
 0.00116991,0.00144863,-0.00306317,0.00430563,-0.00335570,-0.00041600,-
 0.00109670,-0.00116896,-0.04944203,0.02320906,-0.02098825,0.00000686,-
 0.00023076,0.00044865,0.00103586,0.00170848,-0.00217869,0.00038987,-0.
 00089269,0.00136112,0.00041386,0.00042343,-0.00038938,0.00025802,-0.00
 027361,0.00026456,0.00017231,0.00024486,-0.00012729,-0.00306976,0.0185
 6985,-0.01804201,0.05023612,-0.00036450,-0.00005757,0.00013772,-0.0000
 1458,0.00000338,0.00004580,-0.00147955,-0.00183785,-0.00135305,-0.0010
 3817,0.01081493,-0.00814635,-0.00041654,-0.00109887,-0.00187687,0.0250
 6420,-0.19071773,0.13352089,0.00004219,0.00009347,0.00009040,-0.000842
 83,0.00041436,0.00062241,0.00090116,0.00082640,-0.00115142,-0.00011614
 ,0.00056615,-0.00069319,-0.00019202,0.00004191,-0.00013941,0.00012292,
 0.00000115,-0.00018280,0.00123326,-0.01282201,0.01171367,-0.02629362,0
 .20587103,0.00025918,-0.00070994,0.00098388,0.00009412,-0.00012117,0.0
 0007179,0.00112570,-0.00049708,0.00265070,-0.00360160,0.02039353,-0.02
 032829,-0.00069504,-0.00428125,-0.00478962,-0.02248627,0.13063053,-0.1
 6889827,-0.00009480,-0.00001541,0.00030750,0.00111561,0.00230014,-0.00
 192858,-0.00167808,0.00287841,-0.00051300,-0.00047358,0.00152935,-0.00
 112241,-0.00012424,-0.00006651,0.00017055,0.00013879,-0.00019016,0.000
 29478,0.00072046,-0.00720931,0.00693950,0.02384663,-0.14294164,0.18565
 993,0.00064768,-0.00026857,-0.00100415,-0.00000004,0.00004382,-0.00006
 718,0.00015302,-0.00000098,-0.00097748,-0.00262512,-0.00207243,0.00007
 000,-0.00014148,-0.00006494,0.00042993,-0.22259516,-0.12160821,0.00609
 275,-0.00006969,-0.00002250,-0.00005283,0.00069646,-0.00047621,0.00075
 874,-0.00057038,0.00077753,0.00057580,0.00030053,0.00022332,-0.0000501
 2,-0.00003800,-0.00008629,-0.00001896,0.00031102,0.00035395,-0.0005630
 0,-0.01957750,-0.01519845,0.00059790,0.00434106,0.00336996,0.00081868,
 0.23919380,0.00052439,-0.00020814,-0.00042617,0.00007037,0.00001091,-0
 .00001681,-0.00042244,0.00020623,-0.00104846,-0.00808210,-0.00861966,0
 .00052513,0.00052977,0.00022636,0.00071555,-0.12159433,-0.13307482,0.0
 0434821,-0.00046253,-0.00028882,0.00021095,-0.00028302,-0.00081773,-0.
 00139216,-0.00202728,0.00062201,0.00044185,0.00016573,-0.00001601,-0.0
 0005150,0.00010080,0.00007454,-0.00000565,0.00004902,0.00055600,-0.000
 09536,0.01513634,0.01180166,0.00015768,-0.01903130,-0.01222946,-0.0009
 1699,0.13537985,0.14208652,0.00013157,0.00002594,-0.00039685,0.0000409
 1,0.00005107,-0.00001816,0.00050332,0.00080042,0.00218036,-0.02423116,
 -0.01853146,-0.00106841,-0.00054171,-0.00067087,0.00165749,0.00650354,
 0.00555545,-0.04706934,-0.00128020,-0.00102996,0.00070280,0.00103420,-
 0.00076131,-0.00781295,-0.00152866,0.00029832,0.00131945,0.00037571,-0
 .00000349,0.00021179,0.00001913,0.00010638,-0.00012043,0.00027930,0.00
 048904,-0.00042626,0.00657356,0.00590640,-0.00092754,0.01892013,0.0103
 8216,0.00026856,-0.00653164,-0.00231266,0.05175928,-0.00019257,0.00019
 124,0.00020569,-0.00027470,-0.00003875,0.00040368,0.00149080,0.0025885
 5,0.00295829,-0.00048748,-0.00046373,-0.00305571,0.00041397,0.00064619
 ,-0.00007850,-0.00091468,-0.00051787,0.00021940,-0.12248658,-0.1212003
 6,0.02375682,-0.01289544,-0.01600097,0.00145306,0.00074078,-0.00065491
 ,-0.00022238,-0.00009081,0.00017208,-0.00000914,0.00004082,-0.00028142
 ,-0.00012768,0.00012538,-0.00000430,-0.00000448,0.00004115,-0.00002927
 ,0.00000647,-0.00004396,0.00002696,-0.00005524,-0.00001196,-0.00010239
 ,-0.00037990,0.13114610,-0.00014031,0.00016978,0.00035550,0.00007894,0
 .00007685,-0.00008338,0.00217326,0.00180533,0.00024701,-0.00067320,0.0
 0084899,-0.00042752,-0.00007120,0.00028175,-0.00013550,-0.00016893,-0.
 00003648,0.00004033,-0.12177335,-0.23638179,0.03225010,-0.00382914,-0.
 00700313,0.00301343,0.00022212,-0.00056202,-0.00033880,0.00015709,-0.0
 0009422,-0.00012520,0.00005640,0.00019131,0.00012068,-0.00008163,0.000
 06780,-0.00007583,0.00002134,-0.00001335,-0.00000473,-0.00001680,0.000
 01662,-0.00005344,0.00003208,0.00000797,-0.00009304,0.13323268,0.25319
 455,-0.00011567,0.00021006,0.00081707,0.00053513,0.00001552,-0.0004931
 2,0.00132483,0.00170875,0.00281736,-0.00288670,0.00054584,-0.00351003,
 0.00058103,0.00075416,-0.00086484,-0.00098821,-0.00066047,0.00009924,0
 .02618729,0.03621103,-0.05481443,-0.01689224,-0.02656620,0.00342472,0.
 00053228,-0.00092567,-0.00100350,0.00000725,0.00002153,0.00047849,0.00
 002067,-0.00002053,0.00003890,0.00007108,0.00010800,0.00025649,0.00004
 688,0.00000667,0.00001655,-0.00002221,0.00002236,0.00002946,-0.0000550
 1,-0.00017965,-0.00037900,-0.02229465,-0.03755604,0.05611320,0.0000556
 0,-0.00014771,-0.00013550,0.00014320,-0.00022149,0.00014254,0.00028317
 ,-0.00132910,-0.00036703,0.00051733,-0.00102460,-0.00129427,-0.0000955
 2,0.00010724,-0.00010931,-0.00014239,-0.00037762,0.00025347,-0.1457452
 2,0.12330989,-0.03938981,-0.01052526,0.01265871,-0.00158798,0.00035099
 ,0.00021373,0.00006847,-0.00070350,0.00002936,0.00038769,0.00004292,-0
 .00054622,-0.00029223,0.00034836,-0.00010214,0.00030071,-0.00002182,-0
 .00000370,-0.00008577,0.00006998,0.00001178,0.00007625,-0.00003489,-0.
 00006845,-0.00010469,0.01231678,-0.01277582,0.00440230,0.15621323,0.00
 004877,0.00000623,-0.00000798,0.00007252,0.00006863,-0.00014347,0.0011
 4300,0.00033795,-0.00160711,0.00126318,-0.00101197,-0.00013611,-0.0013
 1056,-0.00076425,0.00022122,0.00000051,-0.00015703,0.00013004,0.120017
 33,-0.18840794,0.04180958,-0.00565517,0.00698717,0.00229726,0.00012654
 ,0.00009655,-0.00008172,-0.00025510,-0.00021725,-0.00015470,-0.0002937
 5,-0.00012812,-0.00005285,-0.00005376,-0.00009680,0.00000934,-0.000007
 14,0.00001617,-0.00003733,0.00003454,-0.00000540,0.00001940,-0.0000165
 7,-0.00002694,-0.00000943,0.01752128,-0.01832219,0.00509423,-0.1346002
 5,0.20511466,0.00017617,0.00001364,0.00019504,-0.00020600,0.00014109,-
 0.00011647,0.00129312,-0.00458745,-0.00382867,0.00136267,-0.00198485,-
 0.00080488,-0.00075412,-0.00014607,0.00035321,-0.00026393,-0.00009804,
 0.00017996,-0.04192153,0.04695486,-0.05254154,-0.01731086,0.02490612,-
 0.00674524,0.00056532,0.00036290,-0.00046159,0.00032571,-0.00014651,-0
 .00003005,0.00004632,-0.00026206,0.00011524,0.00011402,-0.00021756,-0.
 00001761,-0.00002441,0.00000675,-0.00004399,0.00009485,-0.00000662,0.0
 0001446,-0.00000422,-0.00007250,-0.00005617,-0.00276202,0.00297471,-0.
 00172638,0.04260047,-0.04845398,0.05874794,-0.00031277,0.00020855,0.00
 090589,-0.00058186,0.00002668,-0.00031783,-0.00341810,0.00176716,-0.00
 508440,-0.00145224,0.00101831,0.00113199,-0.00052981,-0.00038508,-0.00
 004065,0.00024740,0.00016986,-0.00003235,-0.14926645,0.01239310,0.1282
 8339,0.01677195,-0.00194225,-0.01120281,-0.00008337,-0.00085661,-0.001
 39940,0.00027745,-0.00100586,-0.00025413,0.00002932,0.00009792,0.00016
 842,-0.00004116,-0.00007901,-0.00015426,0.00000197,0.00000810,-0.00000
 339,0.00008372,0.00003156,0.00009929,0.00001418,0.00000253,0.00008187,
 -0.00913453,0.00366880,0.00997695,-0.01306218,0.00209853,0.01672073,0.
 16154625,0.00000546,-0.00006170,0.00065996,0.00082439,-0.00067932,-0.0
 0029010,-0.00079460,0.00180725,-0.00102945,-0.00104343,0.00048880,0.00
 024366,0.00017818,-0.00037099,-0.00072080,0.00024572,-0.00004457,0.000
 05816,0.01090569,-0.04988050,-0.02465289,0.00840265,-0.00312281,-0.001
 36101,-0.00001301,-0.00017138,-0.00059802,-0.00085864,-0.00160604,0.00
 023037,-0.00010004,0.00005348,-0.00004394,0.00004467,0.00010465,0.0002
 6798,0.00000650,0.00002689,-0.00001553,0.00007213,0.00002954,0.0001108
 8,-0.00002501,0.00001394,0.00004213,-0.01511522,0.00566734,0.02107319,
 0.01486082,-0.00338249,-0.01918092,-0.01716946,0.05073506,0.00006413,0
 .00052378,0.00070367,-0.00033340,-0.00038736,-0.00063436,-0.00467741,-
 0.00082330,-0.00464800,-0.00186963,0.00074448,0.00078114,0.00040791,0.
 00025287,0.00033030,0.00024797,0.00039749,-0.00017657,0.12987740,-0.02
 671176,-0.20689947,0.01992320,-0.00010775,-0.01891663,-0.00028892,-0.0
 0075651,-0.00132163,-0.00007188,-0.00000331,0.00061014,0.00002004,0.00
 005381,-0.00004535,-0.00001109,0.00007970,0.00003852,0.00003075,0.0000
 3834,0.00005109,0.00009551,0.00001973,0.00005819,-0.00000119,0.0000164
 3,0.00017833,0.00019457,-0.00003791,-0.00130011,-0.00474245,0.00107928
 ,0.00658387,-0.13938409,0.02546392,0.22383307,0.01946121,-0.00446514,0
 .01683520,0.00039633,-0.00020414,0.00091002,0.00017410,-0.00082468,0.0
 0121549,0.00061548,0.01861089,-0.01657119,-0.00400351,0.00168205,0.003
 28147,-0.00002867,0.00021401,-0.00067302,-0.00020229,0.00025108,0.0000
 5134,0.00278167,0.00092277,-0.00218272,-0.10251380,0.05176686,-0.06502
 955,0.00002326,-0.00007829,-0.00007626,-0.00009453,0.00122684,-0.00133
 745,0.00007181,-0.00001039,-0.00000636,0.00014607,-0.00033764,0.000514
 21,-0.00008282,-0.00002973,0.00110527,-0.00002001,0.00020288,0.0001637
 0,-0.00003643,-0.00003752,0.00001339,0.00000628,-0.00004668,-0.0000263
 7,-0.00002042,0.00004862,0.00004053,0.08340120,-0.00141404,0.01875277,
 0.00318712,0.00000196,-0.00008925,0.00054812,0.00054572,0.00174355,-0.
 00190814,0.01580775,0.00152567,0.01270919,0.00270008,-0.00032969,-0.00
 037505,-0.00128613,0.00125628,0.00240283,-0.00017980,0.00063318,0.0000
 9713,0.00006195,-0.00447586,0.00101515,0.05309363,-0.12663583,0.083849
 48,-0.00000540,0.00005746,-0.00002994,0.00010670,-0.00058278,0.0006771
 5,-0.00034823,0.00002726,-0.00010589,-0.00022877,0.00029599,0.00009268
 ,0.00028113,0.00010725,-0.00094817,-0.00030132,-0.00032068,-0.00021144
 ,0.00008097,0.00010836,0.00007706,-0.00012258,-0.00006421,-0.00012570,
 -0.00000469,-0.00003420,0.00004947,-0.06928400,0.10767588,0.00157850,0
 .01617258,-0.05136415,-0.00061699,-0.00010993,-0.00092576,-0.00033005,
 -0.00058072,0.00050970,0.00494101,-0.00226048,0.00250053,0.00098806,-0
 .00108829,0.00046982,0.00046836,-0.00038158,0.00142866,-0.00005344,-0.
 00002766,-0.00000024,0.00047777,0.00044944,-0.00043227,-0.07155688,0.0
 8748351,-0.15650216,0.00018470,0.00005827,0.00001352,-0.00004396,-0.00
 020852,0.00032951,-0.00002627,-0.00004338,-0.00015356,0.00011415,0.000
 23393,0.00039947,0.00015583,-0.00001982,0.00024901,-0.00012932,0.00014
 189,0.00004298,-0.00006757,0.00000194,0.00001819,0.00001349,-0.0000012
 2,0.00000988,0.00006657,0.00010786,-0.00001349,0.06294057,-0.10030453,
 0.20137946,-0.00778588,0.00179908,0.00116624,-0.18015725,0.00620500,-0
 .21925979,-0.00044174,-0.00028840,-0.00052861,-0.00186282,-0.00043407,
 0.00064946,0.00081216,0.00018002,0.00137062,-0.00025852,0.00042580,-0.
 00029374,-0.00035385,-0.00004682,0.00008680,0.00133685,0.00131730,0.00
 110997,0.00457473,-0.00271025,-0.00150794,-0.00097287,0.00124182,0.000
 15382,-0.00014353,-0.00021764,-0.00060009,-0.00012597,-0.00028446,-0.0
 0036469,-0.00001765,0.00006227,0.00012982,0.00001897,-0.00001631,-0.00
 019113,0.00002649,-0.00008783,-0.00002898,0.00025338,-0.00007483,-0.00
 044440,-0.00001707,-0.00008723,-0.00002592,-0.00106934,-0.00047540,0.0
 0047805,-0.00007493,0.00049507,0.00089546,0.18625883,0.00000857,-0.003
 26508,0.00049444,0.00623737,-0.00386077,0.00812236,-0.00016951,-0.0001
 1961,-0.00000060,-0.00002322,0.00031255,-0.00046149,-0.00003631,-0.000
 20448,-0.00013941,0.00012197,-0.00021101,0.00012965,-0.00007222,-0.000
 29445,-0.00007458,0.00027406,0.00009950,0.00017477,-0.00037720,0.00036
 666,0.00041728,0.00081183,-0.00015739,-0.00081350,-0.00012133,-0.00001
 120,0.00026707,-0.00007217,-0.00025118,-0.00022458,0.00000730,-0.00001
 127,-0.00007350,0.00003158,-0.00001731,0.00008882,-0.00003903,-0.00000
 390,-0.00003367,-0.00005076,-0.00002347,0.00006014,0.00012815,-0.00004
 279,-0.00007782,-0.00004814,0.00042704,0.00010860,0.00039220,0.0003488
 7,0.00037672,-0.00700312,0.00691928,-0.00442326,0.00417589,0.00530807,
 -0.21809430,0.00760409,-0.28345397,-0.00078791,-0.00096705,0.00051119,
 -0.00235037,0.00038323,0.00061149,0.00004714,-0.00007549,0.00045396,-0
 .00072074,0.00034686,-0.00042927,-0.00038840,-0.00014778,-0.00051738,0
 .00243838,0.00257012,-0.00028341,0.00739631,-0.00409614,-0.00940364,0.
 00061590,-0.00060422,0.00020872,-0.00016057,0.00026937,0.00002635,0.00
 008200,-0.00007053,-0.00004703,-0.00001989,0.00014483,0.00030201,0.000
 05653,-0.00004397,-0.00011814,0.00011131,-0.00003978,-0.00004593,-0.00
 014073,-0.00007231,-0.00001825,-0.00013636,0.00002555,0.00017299,0.000
 43822,-0.00036545,0.00078728,-0.00116828,-0.00069653,0.00204089,0.2172
 0503,-0.00834070,0.28389406\\0.00000002,0.00000003,-0.00000035,-0.0000
 0022,0.00000098,-0.00000016,-0.00000018,-0.00000012,0.00000007,-0.0000
 0022,-0.00000059,-0.00000023,0.00000044,0.00000031,0.00000066,0.000000
 13,-0.00000085,0.00000034,-0.00000019,0.00000062,-0.00000019,-0.000000
[...]

 **** Warning!!: The largest alpha MO coefficient is  0.62300053D+02


 **** Warning!!: The largest beta MO coefficient is  0.52635536D+02

 Leave Link  801 at Mon Jul 29 05:44:38 2019, MaxMem=  1835008000 cpu:         6.4
 (Enter /cm/shared/c3ddb/gaussian/09.d01/g09/l804.exe)
 Open-shell transformation, MDV=  1835008000 ITran=4 ISComp=1.
 Semi-Direct transformation.
 ModeAB=           4 MOrb=            27 LenV=    1833832120
 LASXX=     75727926 LTotXX=    75727926 LenRXX=   154309266
 LTotAB=    78581340 MaxLAS=    92280600 LenRXY=           0
 NonZer=   230037192 LenScr=   346408960 LnRSAI=    92280600
 LnScr1=   139164672 LExtra=           0 Total=    732163498
 MaxDsk=          -1 SrtSym=           T ITran=            4
 DoSDTr:  NPSUse=  8
 JobTyp=1 Pass  1:  I=   1 to  27.
 (rs|ai) integrals will be sorted in core.
 Complete sort for first half transformation.
 First half transformation complete.
 Begin second half transformation for I=  10.
 Begin second half transformation for I=  20.
 Complete sort for second half transformation.
 Second half transformation complete.
 ModeAB=           4 MOrb=            26 LenV=    1833832120
 LASXX=     73246238 LTotXX=    73246238 LenRXX=   128551215
 LTotAB=    55304977 MaxLAS=    88862800 LenRXY=           0
 NonZer=   201797453 LenScr=   303883264 LnRSAI=    88862800
 LnScr1=   134042112 LExtra=           0 Total=    655339391
 MaxDsk=          -1 SrtSym=           T ITran=            4
 DoSDTr:  NPSUse=  8
 JobTyp=2 Pass  1:  I=   1 to  26.
 (rs|ai) integrals will be sorted in core.
 Complete sort for first half transformation.
 First half transformation complete.
 Begin second half transformation for I=  10.
 Begin second half transformation for I=  20.
 Complete sort for second half transformation.
 Second half transformation complete.
 SymMOI:  orbitals are not symmetric.
 Spin components of T(2) and E(2):
     alpha-alpha T2 =       0.5554787441D-01 E2=     -0.1760206659D+00
     alpha-beta  T2 =       0.3069236806D+00 E2=     -0.9792031171D+00
     beta-beta   T2 =       0.5261990557D-01 E2=     -0.1628965969D+00
 ANorm=    0.1189576168D+01
 E2 =    -0.1318120380D+01 EUMP2 =    -0.45946460725870D+03
 (S**2,0)=  0.75552D+00           (S**2,1)=  0.75109D+00
 E(PUHF)=      -0.45814916036D+03        E(PMP2)=      -0.45946621097D+03
 Leave Link  804 at Mon Jul 29 06:01:26 2019, MaxMem=  1835008000 cpu:      7043.9
 (Enter /cm/shared/c3ddb/gaussian/09.d01/g09/l913.exe)
 CIDS:  MDV=  1835008000.
 Frozen-core window:  NFC=   9 NFV=   0.
 IFCWin=0 IBDFC=1 NFBD=     0     0 NFCmp=     0     0 NFFFC=     0     0
 Using original routines for 1st iteration, S=T.
 Using DD4UQ or CC4UQ for 2nd and later iterations.
 Keep R2 and R3 ints in memory in canonical form, NReq=354146788.
 FoFCou: FMM=F IPFlag=           0 FMFlag=           0 FMFlg1=           0
         NFxFlg=           0 DoJE=F BraDBF=F KetDBF=F FulRan=T
         wScrn=  0.000000 ICntrl=     600 IOpCl=  0 I1Cent=           0 NGrid=           0
         NMat0=    1 NMatS0=  18721 NMatT0=    0 NMatD0=    1 NMtDS0=    0 NMtDT0=    0
 Symmetry not used in FoFCou.
 CCSD(T)
 =======
 Iterations=  50 Convergence= 0.100D-06
 Iteration Nr.   1
 **********************
 DD1Dir will call FoFMem   1 times, MxPair=      2080
 NAB=   702 NAA=   351 NBB=   325.
 E(PMP3)=      -0.45951279530D+03
 MP4(R+Q)=  0.23059875D-01
 Maximum subspace dimension=  5
 Norm of the A-vectors is  3.2375006D+00 conv= 1.00D-05.
 RLE energy=       -1.3415474069
 E3=       -0.47198634D-01        EUMP3=      -0.45951180589D+03
 E4(DQ)=   -0.99650288D-02        UMP4(DQ)=   -0.45952177092D+03
 E4(SDQ)=  -0.27330997D-01        UMP4(SDQ)=  -0.45953913689D+03
 VARIATIONAL ENERGIES WITH THE FIRST-ORDER WAVEFUNCTION:
 DE(Corr)=  -1.3411393     E(Corr)=     -459.48762616    
 NORM(A)=   0.12030622D+01
 Iteration Nr.   2
 **********************
 DD1Dir will call FoFMem   1 times, MxPair=      2080
 NAB=   702 NAA=   351 NBB=   325.
 Norm of the A-vectors is  1.3050124D+00 conv= 1.00D-05.
 RLE energy=       -1.3870895776
 DE(Corr)=  -1.3834869     E(CORR)=     -459.52997378     Delta=-4.23D-02
 NORM(A)=   0.12203680D+01
 Iteration Nr.   3
 **********************
 DD1Dir will call FoFMem   1 times, MxPair=      2080
 NAB=   702 NAA=   351 NBB=   325.
 Norm of the A-vectors is  3.9043365D-01 conv= 1.00D-05.
 RLE energy=       -1.3903006249
 DE(Corr)=  -1.3859244     E(CORR)=     -459.53241129     Delta=-2.44D-03
 NORM(A)=   0.12254356D+01
 Iteration Nr.   4
 **********************
 DD1Dir will call FoFMem   1 times, MxPair=      2080
 NAB=   702 NAA=   351 NBB=   325.
 Norm of the A-vectors is  1.5830485D-01 conv= 1.00D-05.
 RLE energy=       -1.3907638890
 DE(Corr)=  -1.3903656     E(CORR)=     -459.53685246     Delta=-4.44D-03
 NORM(A)=   0.12268222D+01
 Iteration Nr.   5
 **********************
 DD1Dir will call FoFMem   1 times, MxPair=      2080
 NAB=   702 NAA=   351 NBB=   325.
 Norm of the A-vectors is  5.1332400D-02 conv= 1.00D-05.
 RLE energy=       -1.3909637580
 DE(Corr)=  -1.3908709     E(CORR)=     -459.53735779     Delta=-5.05D-04
 NORM(A)=   0.12272949D+01
 Iteration Nr.   6
 **********************
 DD1Dir will call FoFMem   1 times, MxPair=      2080
 NAB=   702 NAA=   351 NBB=   325.
 Norm of the A-vectors is  2.9481079D-02 conv= 1.00D-05.
 RLE energy=       -1.3909605193
 DE(Corr)=  -1.3909374     E(CORR)=     -459.53742431     Delta=-6.65D-05
 NORM(A)=   0.12273907D+01
 Iteration Nr.   7
 **********************
 DD1Dir will call FoFMem   1 times, MxPair=      2080
 NAB=   702 NAA=   351 NBB=   325.
 Norm of the A-vectors is  9.8861658D-03 conv= 1.00D-05.
 RLE energy=       -1.3909035834
 DE(Corr)=  -1.3909461     E(CORR)=     -459.53743297     Delta=-8.66D-06
 NORM(A)=   0.12273830D+01
 Iteration Nr.   8
 **********************
 DD1Dir will call FoFMem   1 times, MxPair=      2080
 NAB=   702 NAA=   351 NBB=   325.
 Norm of the A-vectors is  5.2048338D-03 conv= 1.00D-05.
 RLE energy=       -1.3909384216
 DE(Corr)=  -1.3909423     E(CORR)=     -459.53742921     Delta= 3.76D-06
 NORM(A)=   0.12273919D+01
 Iteration Nr.   9
 **********************
 DD1Dir will call FoFMem   1 times, MxPair=      2080
 NAB=   702 NAA=   351 NBB=   325.
 Norm of the A-vectors is  2.5922440D-03 conv= 1.00D-05.
 RLE energy=       -1.3909369151
 DE(Corr)=  -1.3909389     E(CORR)=     -459.53742581     Delta= 3.40D-06
 NORM(A)=   0.12273895D+01
 Iteration Nr.  10
 **********************
 DD1Dir will call FoFMem   1 times, MxPair=      2080
 NAB=   702 NAA=   351 NBB=   325.
 Norm of the A-vectors is  1.2715915D-03 conv= 1.00D-05.
 RLE energy=       -1.3909442735
 DE(Corr)=  -1.3909433     E(CORR)=     -459.53743015     Delta=-4.34D-06
 NORM(A)=   0.12273898D+01
 Iteration Nr.  11
 **********************
 DD1Dir will call FoFMem   1 times, MxPair=      2080
 NAB=   702 NAA=   351 NBB=   325.
 Norm of the A-vectors is  8.3330560D-04 conv= 1.00D-05.
 RLE energy=       -1.3909457248
 DE(Corr)=  -1.3909435     E(CORR)=     -459.53743035     Delta=-1.96D-07
 NORM(A)=   0.12273913D+01
 Iteration Nr.  12
 **********************
 DD1Dir will call FoFMem   1 times, MxPair=      2080
 NAB=   702 NAA=   351 NBB=   325.
 Norm of the A-vectors is  9.2455119D-04 conv= 1.00D-05.
 RLE energy=       -1.3909506788
 DE(Corr)=  -1.3909466     E(CORR)=     -459.53743345     Delta=-3.10D-06
 NORM(A)=   0.12273939D+01
 Iteration Nr.  13
 **********************
 DD1Dir will call FoFMem   1 times, MxPair=      2080
 NAB=   702 NAA=   351 NBB=   325.
 Norm of the A-vectors is  1.3162661D-03 conv= 1.00D-05.
 RLE energy=       -1.3909486429
 DE(Corr)=  -1.3909467     E(CORR)=     -459.53743354     Delta=-9.47D-08
 NORM(A)=   0.12274008D+01
 Iteration Nr.  14
 **********************
 DD1Dir will call FoFMem   1 times, MxPair=      2080
 NAB=   702 NAA=   351 NBB=   325.
 Norm of the A-vectors is  2.0923075D-03 conv= 1.00D-05.
 RLE energy=       -1.3909454140
 DE(Corr)=  -1.3909483     E(CORR)=     -459.53743514     Delta=-1.60D-06
 NORM(A)=   0.12274177D+01
 Iteration Nr.  15
 **********************
 DD1Dir will call FoFMem   1 times, MxPair=      2080
 NAB=   702 NAA=   351 NBB=   325.
 Norm of the A-vectors is  3.0321147D-03 conv= 1.00D-05.
 RLE energy=       -1.3909454188
 DE(Corr)=  -1.3909474     E(CORR)=     -459.53743430     Delta= 8.43D-07
 NORM(A)=   0.12274638D+01
 Iteration Nr.  16
 **********************
 DD1Dir will call FoFMem   1 times, MxPair=      2080
 NAB=   702 NAA=   351 NBB=   325.
 Norm of the A-vectors is  3.9435642D-03 conv= 1.00D-05.
 RLE energy=       -1.3909346218
 DE(Corr)=  -1.3909436     E(CORR)=     -459.53743051     Delta= 3.78D-06
 NORM(A)=   0.12275970D+01
 Iteration Nr.  17
 **********************
 DD1Dir will call FoFMem   1 times, MxPair=      2080
 NAB=   702 NAA=   351 NBB=   325.
 Norm of the A-vectors is  4.6200146D-03 conv= 1.00D-05.
 RLE energy=       -1.3909446470
 DE(Corr)=  -1.3909458     E(CORR)=     -459.53743269     Delta=-2.18D-06
 NORM(A)=   0.12278523D+01
 Iteration Nr.  18
 **********************
 DD1Dir will call FoFMem   1 times, MxPair=      2080
 NAB=   702 NAA=   351 NBB=   325.
 Norm of the A-vectors is  4.7939233D-03 conv= 1.00D-05.
 RLE energy=       -1.3909460324
 DE(Corr)=  -1.3909437     E(CORR)=     -459.53743057     Delta= 2.12D-06
 NORM(A)=   0.12280958D+01
 Iteration Nr.  19
 **********************
 DD1Dir will call FoFMem   1 times, MxPair=      2080
 NAB=   702 NAA=   351 NBB=   325.
 Norm of the A-vectors is  3.6625539D-03 conv= 1.00D-05.
 RLE energy=       -1.3909498800
 DE(Corr)=  -1.3909486     E(CORR)=     -459.53743546     Delta=-4.89D-06
 NORM(A)=   0.12282242D+01
 Iteration Nr.  20
 **********************
 DD1Dir will call FoFMem   1 times, MxPair=      2080
 NAB=   702 NAA=   351 NBB=   325.
 Norm of the A-vectors is  2.4528522D-03 conv= 1.00D-05.
 RLE energy=       -1.3909522677
 DE(Corr)=  -1.3909504     E(CORR)=     -459.53743723     Delta=-1.78D-06
 NORM(A)=   0.12282737D+01
 Iteration Nr.  21
 **********************
 DD1Dir will call FoFMem   1 times, MxPair=      2080
 NAB=   702 NAA=   351 NBB=   325.
 Norm of the A-vectors is  1.7477868D-03 conv= 1.00D-05.
 RLE energy=       -1.3909507792
 DE(Corr)=  -1.3909505     E(CORR)=     -459.53743741     Delta=-1.77D-07
 NORM(A)=   0.12282893D+01
 Iteration Nr.  22
 **********************
 DD1Dir will call FoFMem   1 times, MxPair=      2080
 NAB=   702 NAA=   351 NBB=   325.
 Norm of the A-vectors is  1.2315387D-03 conv= 1.00D-05.
 RLE energy=       -1.3909511851
 DE(Corr)=  -1.3909512     E(CORR)=     -459.53743810     Delta=-6.90D-07
 NORM(A)=   0.12282932D+01
 Iteration Nr.  23
 **********************
 DD1Dir will call FoFMem   1 times, MxPair=      2080
 NAB=   702 NAA=   351 NBB=   325.
 Norm of the A-vectors is  7.7666556D-04 conv= 1.00D-05.
 RLE energy=       -1.3909502919
 DE(Corr)=  -1.3909504     E(CORR)=     -459.53743729     Delta= 8.12D-07
 NORM(A)=   0.12282911D+01
 Iteration Nr.  24
 **********************
 DD1Dir will call FoFMem   1 times, MxPair=      2080
 NAB=   702 NAA=   351 NBB=   325.
 Norm of the A-vectors is  4.5781284D-04 conv= 1.00D-05.
 RLE energy=       -1.3909501422
 DE(Corr)=  -1.3909504     E(CORR)=     -459.53743724     Delta= 4.50D-08
 NORM(A)=   0.12282890D+01
 Iteration Nr.  25
 **********************
 DD1Dir will call FoFMem   1 times, MxPair=      2080
 NAB=   702 NAA=   351 NBB=   325.
 Norm of the A-vectors is  2.5953397D-04 conv= 1.00D-05.
 RLE energy=       -1.3909501836
 DE(Corr)=  -1.3909502     E(CORR)=     -459.53743708     Delta= 1.64D-07
 NORM(A)=   0.12282875D+01
 Iteration Nr.  26
 **********************
 DD1Dir will call FoFMem   1 times, MxPair=      2080
 NAB=   702 NAA=   351 NBB=   325.
 Norm of the A-vectors is  1.4439780D-04 conv= 1.00D-05.
 RLE energy=       -1.3909501635
 DE(Corr)=  -1.3909502     E(CORR)=     -459.53743704     Delta= 3.35D-08
 NORM(A)=   0.12282871D+01
 Iteration Nr.  27
 **********************
 DD1Dir will call FoFMem   1 times, MxPair=      2080
 NAB=   702 NAA=   351 NBB=   325.
 Norm of the A-vectors is  1.0397461D-04 conv= 1.00D-05.
 RLE energy=       -1.3909503220
 DE(Corr)=  -1.3909502     E(CORR)=     -459.53743713     Delta=-8.16D-08
 NORM(A)=   0.12282873D+01
 Iteration Nr.  28
 **********************
 DD1Dir will call FoFMem   1 times, MxPair=      2080
 NAB=   702 NAA=   351 NBB=   325.
 Norm of the A-vectors is  9.5480299D-05 conv= 1.00D-05.
 RLE energy=       -1.3909503111
 DE(Corr)=  -1.3909502     E(CORR)=     -459.53743712     Delta= 5.43D-09
 NORM(A)=   0.12282885D+01
 Iteration Nr.  29
 **********************
 DD1Dir will call FoFMem   1 times, MxPair=      2080
 NAB=   702 NAA=   351 NBB=   325.
 Norm of the A-vectors is  1.0643679D-04 conv= 1.00D-05.
 RLE energy=       -1.3909503625
 DE(Corr)=  -1.3909503     E(CORR)=     -459.53743718     Delta=-5.84D-08
 NORM(A)=   0.12282921D+01
 Iteration Nr.  30
 **********************
 DD1Dir will call FoFMem   1 times, MxPair=      2080
 NAB=   702 NAA=   351 NBB=   325.
 Norm of the A-vectors is  1.6771755D-04 conv= 1.00D-05.
 RLE energy=       -1.3909502995
 DE(Corr)=  -1.3909503     E(CORR)=     -459.53743716     Delta= 2.21D-08
 NORM(A)=   0.12283025D+01
 Iteration Nr.  31
 **********************
 DD1Dir will call FoFMem   1 times, MxPair=      2080
 NAB=   702 NAA=   351 NBB=   325.
 Norm of the A-vectors is  2.7704568D-04 conv= 1.00D-05.
 RLE energy=       -1.3909501530
 DE(Corr)=  -1.3909503     E(CORR)=     -459.53743716     Delta=-2.04D-10
 NORM(A)=   0.12283275D+01
 Iteration Nr.  32
 **********************
 DD1Dir will call FoFMem   1 times, MxPair=      2080
 NAB=   702 NAA=   351 NBB=   325.
 Norm of the A-vectors is  3.8105006D-04 conv= 1.00D-05.
 RLE energy=       -1.3909502692
 DE(Corr)=  -1.3909503     E(CORR)=     -459.53743715     Delta= 1.12D-08
 NORM(A)=   0.12283643D+01
 Iteration Nr.  33
 **********************
 DD1Dir will call FoFMem   1 times, MxPair=      2080
 NAB=   702 NAA=   351 NBB=   325.
 Norm of the A-vectors is  4.2285006D-04 conv= 1.00D-05.
 RLE energy=       -1.3909502728
 DE(Corr)=  -1.3909503     E(CORR)=     -459.53743713     Delta= 1.08D-08
 NORM(A)=   0.12283980D+01
 Iteration Nr.  34
 **********************
 DD1Dir will call FoFMem   1 times, MxPair=      2080
 NAB=   702 NAA=   351 NBB=   325.
 Norm of the A-vectors is  3.7007181D-04 conv= 1.00D-05.
 RLE energy=       -1.3909505778
 DE(Corr)=  -1.3909505     E(CORR)=     -459.53743735     Delta=-2.11D-07
 NORM(A)=   0.12284191D+01
 Iteration Nr.  35
 **********************
 DD1Dir will call FoFMem   1 times, MxPair=      2080
 NAB=   702 NAA=   351 NBB=   325.
 Norm of the A-vectors is  2.7750068D-04 conv= 1.00D-05.
 RLE energy=       -1.3909505971
 DE(Corr)=  -1.3909505     E(CORR)=     -459.53743738     Delta=-3.18D-08
 NORM(A)=   0.12284302D+01
 Iteration Nr.  36
 **********************
 DD1Dir will call FoFMem   1 times, MxPair=      2080
 NAB=   702 NAA=   351 NBB=   325.
 Norm of the A-vectors is  2.1200617D-04 conv= 1.00D-05.
 RLE energy=       -1.3909506729
 DE(Corr)=  -1.3909506     E(CORR)=     -459.53743751     Delta=-1.32D-07
 NORM(A)=   0.12284344D+01
 Iteration Nr.  37
 **********************
 DD1Dir will call FoFMem   1 times, MxPair=      2080
 NAB=   702 NAA=   351 NBB=   325.
 Norm of the A-vectors is  1.7205560D-04 conv= 1.00D-05.
 RLE energy=       -1.3909506178
 DE(Corr)=  -1.3909506     E(CORR)=     -459.53743748     Delta= 3.01D-08
 NORM(A)=   0.12284356D+01
 Iteration Nr.  38
 **********************
 DD1Dir will call FoFMem   1 times, MxPair=      2080
 NAB=   702 NAA=   351 NBB=   325.
 Norm of the A-vectors is  1.2843072D-04 conv= 1.00D-05.
 RLE energy=       -1.3909505743
 DE(Corr)=  -1.3909506     E(CORR)=     -459.53743748     Delta= 3.06D-09
 NORM(A)=   0.12284349D+01
 Iteration Nr.  39
 **********************
 DD1Dir will call FoFMem   1 times, MxPair=      2080
 NAB=   702 NAA=   351 NBB=   325.
 Norm of the A-vectors is  9.1227267D-05 conv= 1.00D-05.
 RLE energy=       -1.3909505730
 DE(Corr)=  -1.3909506     E(CORR)=     -459.53743746     Delta= 2.01D-08
 NORM(A)=   0.12284344D+01
 Iteration Nr.  40
 **********************
 DD1Dir will call FoFMem   1 times, MxPair=      2080
 NAB=   702 NAA=   351 NBB=   325.
 Norm of the A-vectors is  5.9483896D-05 conv= 1.00D-05.
 RLE energy=       -1.3909505554
 DE(Corr)=  -1.3909506     E(CORR)=     -459.53743744     Delta= 1.84D-08
 NORM(A)=   0.12284339D+01
 Iteration Nr.  41
 **********************
 DD1Dir will call FoFMem   1 times, MxPair=      2080
 NAB=   702 NAA=   351 NBB=   325.
 Norm of the A-vectors is  3.6407853D-05 conv= 1.00D-05.
 RLE energy=       -1.3909505767
 DE(Corr)=  -1.3909506     E(CORR)=     -459.53743745     Delta=-1.46D-08
 NORM(A)=   0.12284338D+01
 Iteration Nr.  42
 **********************
 DD1Dir will call FoFMem   1 times, MxPair=      2080
 NAB=   702 NAA=   351 NBB=   325.
 Norm of the A-vectors is  2.3263395D-05 conv= 1.00D-05.
 RLE energy=       -1.3909505761
 DE(Corr)=  -1.3909506     E(CORR)=     -459.53743745     Delta= 2.84D-09
 NORM(A)=   0.12284339D+01
 Iteration Nr.  43
 **********************
 DD1Dir will call FoFMem   1 times, MxPair=      2080
 NAB=   702 NAA=   351 NBB=   325.
 Norm of the A-vectors is  1.2432710D-05 conv= 1.00D-05.
 RLE energy=       -1.3909505852
 DE(Corr)=  -1.3909506     E(CORR)=     -459.53743746     Delta=-1.07D-08
 NORM(A)=   0.12284341D+01
 Iteration Nr.  44
 **********************
 DD1Dir will call FoFMem   1 times, MxPair=      2080
 NAB=   702 NAA=   351 NBB=   325.
 Norm of the A-vectors is  1.4744788D-05 conv= 1.00D-05.
 RLE energy=       -1.3909505897
 DE(Corr)=  -1.3909506     E(CORR)=     -459.53743746     Delta=-3.14D-10
 NORM(A)=   0.12284351D+01
 Iteration Nr.  45
 **********************
 DD1Dir will call FoFMem   1 times, MxPair=      2080
 NAB=   702 NAA=   351 NBB=   325.
 Norm of the A-vectors is  2.8826759D-05 conv= 1.00D-05.
 RLE energy=       -1.3909505766
 DE(Corr)=  -1.3909506     E(CORR)=     -459.53743746     Delta=-2.09D-09
 NORM(A)=   0.12284366D+01
 Iteration Nr.  46
 **********************
 DD1Dir will call FoFMem   1 times, MxPair=      2080
 NAB=   702 NAA=   351 NBB=   325.
 Norm of the A-vectors is  3.6730690D-05 conv= 1.00D-05.
 RLE energy=       -1.3909505761
 DE(Corr)=  -1.3909506     E(CORR)=     -459.53743746     Delta=-2.01D-09
 NORM(A)=   0.12284385D+01
 Iteration Nr.  47
 **********************
 DD1Dir will call FoFMem   1 times, MxPair=      2080
 NAB=   702 NAA=   351 NBB=   325.
 Norm of the A-vectors is  3.9422133D-05 conv= 1.00D-05.
 RLE energy=       -1.3909505429
 DE(Corr)=  -1.3909506     E(CORR)=     -459.53743745     Delta= 1.41D-08
 NORM(A)=   0.12284434D+01
 Iteration Nr.  48
 **********************
 DD1Dir will call FoFMem   1 times, MxPair=      2080
 NAB=   702 NAA=   351 NBB=   325.
 Norm of the A-vectors is  6.8018436D-05 conv= 1.00D-05.
 RLE energy=       -1.3909506232
 DE(Corr)=  -1.3909506     E(CORR)=     -459.53743747     Delta=-2.21D-08
 NORM(A)=   0.12284506D+01
 Iteration Nr.  49
 **********************
 DD1Dir will call FoFMem   1 times, MxPair=      2080
 NAB=   702 NAA=   351 NBB=   325.
 Norm of the A-vectors is  9.0450298D-05 conv= 1.00D-05.
 RLE energy=       -1.3909506233
 DE(Corr)=  -1.3909506     E(CORR)=     -459.53743747     Delta= 3.39D-09
 NORM(A)=   0.12284543D+01
 Iteration Nr.  50
 **********************
 DD1Dir will call FoFMem   1 times, MxPair=      2080
 NAB=   702 NAA=   351 NBB=   325.
 Norm of the A-vectors is  6.5023648D-05 conv= 1.00D-05.
 RLE energy=       -1.3909506457
 DE(Corr)=  -1.3909506     E(CORR)=     -459.53743750     Delta=-3.05D-08
 NORM(A)=   0.12284568D+01
 *************
 *MAX. CYCLES*
 *************
 Largest amplitude= 3.05D-02
 Error termination via Lnk1e in /cm/shared/c3ddb/gaussian/09.d01/g09/l913.exe at Mon Jul 29 13:53:11 2019.
 Job cpu time:       2 days 14 hours 27 minutes 35.2 seconds.
 File lengths (MBytes):  RWF=   7874 Int=      0 D2E=      0 Chk=      8 Scr=      1
