 Entering Gaussian System, Link 0=g16
 Initial command:
 /gpfs/apps/medsci/stacks/noOS/software/gaussian/g16.a03.avx2/g16/l1.exe "/localscratch/ranasd01/g16/a39013-2400792/Gau-280146.inp" -scrdir="/localscratch/ranasd01/g16/a39013-2400792/"
 Default is to use a total of   8 processors:
                                8 via shared-memory
                                1 via Linda
 Entering Link 1 = /gpfs/apps/medsci/stacks/noOS/software/gaussian/g16.a03.avx2/g16/l1.exe PID=    280147.
  
 Copyright (c) 1988,1990,1992,1993,1995,1998,2003,2009,2016,
            Gaussian, Inc.  All Rights Reserved.
  
 This is part of the Gaussian(R) 16 program.  It is based on
 the Gaussian(R) 09 system (copyright 2009, Gaussian, Inc.),
 the Gaussian(R) 03 system (copyright 2003, Gaussian, Inc.),
 the Gaussian(R) 98 system (copyright 1998, Gaussian, Inc.),
 the Gaussian(R) 94 system (copyright 1995, Gaussian, Inc.),
 the Gaussian 92(TM) system (copyright 1992, Gaussian, Inc.),
 the Gaussian 90(TM) system (copyright 1990, Gaussian, Inc.),
 the Gaussian 88(TM) system (copyright 1988, Gaussian, Inc.),
 the Gaussian 86(TM) system (copyright 1986, Carnegie Mellon
 University), and the Gaussian 82(TM) system (copyright 1983,
 Carnegie Mellon University). Gaussian is a federally registered
 trademark of Gaussian, Inc.
  
 This software contains proprietary and confidential information,
 including trade secrets, belonging to Gaussian, Inc.
  
 This software is provided under written license and may be
 used, copied, transmitted, or stored only in accord with that
 written license.
  
 The following legend is applicable only to US Government
 contracts under FAR:
  
                    RESTRICTED RIGHTS LEGEND
  
 Use, reproduction and disclosure by the US Government is
 subject to restrictions as set forth in subparagraphs (a)
 and (c) of the Commercial Computer Software - Restricted
 Rights clause in FAR 52.227-19.
  
 Gaussian, Inc.
 340 Quinnipiac St., Bldg. 40, Wallingford CT 06492
  
  
 ---------------------------------------------------------------
 Warning -- This program may not be used in any manner that
 competes with the business of Gaussian, Inc. or will provide
 assistance to any competitor of Gaussian, Inc.  The licensee
 of this program is prohibited from giving any competitor of
 Gaussian, Inc. access to this program.  By using this program,
 the user acknowledges that Gaussian, Inc. is engaged in the
 business of creating and licensing software in the field of
 computational chemistry and represents and warrants to the
 licensee that it is not a competitor of Gaussian, Inc. and that
 it will not use this program in any manner prohibited above.
 ---------------------------------------------------------------
  

 Cite this work as:
 Gaussian 16, Revision A.03,
 M. J. Frisch, G. W. Trucks, H. B. Schlegel, G. E. Scuseria, 
 M. A. Robb, J. R. Cheeseman, G. Scalmani, V. Barone, 
 G. A. Petersson, H. Nakatsuji, X. Li, M. Caricato, A. V. Marenich, 
 J. Bloino, B. G. Janesko, R. Gomperts, B. Mennucci, H. P. Hratchian, 
 J. V. Ortiz, A. F. Izmaylov, J. L. Sonnenberg, D. Williams-Young, 
 F. Ding, F. Lipparini, F. Egidi, J. Goings, B. Peng, A. Petrone, 
 T. Henderson, D. Ranasinghe, V. G. Zakrzewski, J. Gao, N. Rega, 
 G. Zheng, W. Liang, M. Hada, M. Ehara, K. Toyota, R. Fukuda, 
 J. Hasegawa, M. Ishida, T. Nakajima, Y. Honda, O. Kitao, H. Nakai, 
 T. Vreven, K. Throssell, J. A. Montgomery, Jr., J. E. Peralta, 
 F. Ogliaro, M. J. Bearpark, J. J. Heyd, E. N. Brothers, K. N. Kudin, 
 V. N. Staroverov, T. A. Keith, R. Kobayashi, J. Normand, 
 K. Raghavachari, A. P. Rendell, J. C. Burant, S. S. Iyengar, 
 J. Tomasi, M. Cossi, J. M. Millam, M. Klene, C. Adamo, R. Cammi, 
 J. W. Ochterski, R. L. Martin, K. Morokuma, O. Farkas, 
 J. B. Foresman, and D. J. Fox, Gaussian, Inc., Wallingford CT, 2016.
 
 ******************************************
 Gaussian 16:  ES64L-G16RevA.03 25-Dec-2016
                17-Aug-2020 
 ******************************************
 %chk=check.chk
 %mem=36864mb
 %NProcShared=8
 Will use up to    8 processors via shared memory.
 ----------------------------------------------------------------------
 #P opt=(noeigentest, tight) rocbs-qb3 scf=(tight, direct) integral=(gr
 id=ultrafine, Acc2E=12) nosymm iop(2/9=2000)
 ----------------------------------------------------------------------
 1/7=10,11=1,18=20,19=15,26=4,38=1/1,3;
 2/9=2000,12=2,15=1,17=6,18=5,40=1/2;
 3/5=4,6=6,7=700,11=2,25=1,27=12,30=1,71=1,74=-5,75=-5,116=201/1,2,3;
 4//1;
 5/5=2,32=2,38=5,87=12/2;
 6/7=2,8=2,9=2,10=2,28=1,87=12/1;
 7/30=1,87=12/1,2,3,16;
 1/7=10,11=1,18=20,19=15,26=4/3(2);
 2/9=2000,15=1/2;
 99//99;
 2/9=2000,15=1/2;
 3/5=4,6=6,7=700,11=2,25=1,27=12,30=1,71=1,74=-5,75=-5,116=201/1,2,3;
 4/5=5,16=3,69=1/1;
 5/5=2,23=1,32=2,38=5,87=12/2;
 7/30=1,87=12/1,2,3,16;
 1/7=10,11=1,18=20,19=15,26=4/3(-5);
 2/9=2000,15=1/2;
 6/7=2,8=2,9=2,10=2,19=2,28=1,87=12/1;
 99/9=1/99;
 Leave Link    1 at Mon Aug 17 22:12:10 2020, MaxMem=  4831838208 cpu:               0.2 elap:               0.0
 (Enter /gpfs/apps/medsci/stacks/noOS/software/gaussian/g16.a03.avx2/g16/l101.exe)
 ----
 name
 ----
 Symbolic Z-matrix:
 Charge =  0 Multiplicity = 1
 C                     0.66459  -0.02038   0. 
 O                    -0.74684   0.12236   0. 
 H                     1.02419  -0.54397   0.89024 
 H                     1.08391   0.98349  -0.00021 
 H                     1.02415  -0.54432  -0.89005 
 H                    -1.14511  -0.75181   0. 
 
 ITRead=  0  0  0  0  0  0
 MicOpt= -1 -1 -1 -1 -1 -1
 NAtoms=      6 NQM=        6 NQMF=       0 NMMI=      0 NMMIF=      0
                NMic=       0 NMicF=      0.
                    Isotopes and Nuclear Properties:
 (Nuclear quadrupole moments (NQMom) in fm**2, nuclear magnetic moments (NMagM)
  in nuclear magnetons)

  Atom         1           2           3           4           5           6
 IAtWgt=          12          16           1           1           1           1
 AtmWgt=  12.0000000  15.9949146   1.0078250   1.0078250   1.0078250   1.0078250
 NucSpn=           0           0           1           1           1           1
 AtZEff=  -0.0000000  -0.0000000  -0.0000000  -0.0000000  -0.0000000  -0.0000000
 NQMom=    0.0000000   0.0000000   0.0000000   0.0000000   0.0000000   0.0000000
 NMagM=    0.0000000   0.0000000   2.7928460   2.7928460   2.7928460   2.7928460
 AtZNuc=   6.0000000   8.0000000   1.0000000   1.0000000   1.0000000   1.0000000
 Leave Link  101 at Mon Aug 17 22:12:11 2020, MaxMem=  4831838208 cpu:               2.6 elap:               0.3
 (Enter /gpfs/apps/medsci/stacks/noOS/software/gaussian/g16.a03.avx2/g16/l103.exe)

 GradGradGradGradGradGradGradGradGradGradGradGradGradGradGradGradGradGrad
 Berny optimization.
 Initialization pass.
                           ----------------------------
                           !    Initial Parameters    !
                           ! (Angstroms and Degrees)  !
 --------------------------                            --------------------------
 ! Name  Definition              Value          Derivative Info.                !
 --------------------------------------------------------------------------------
 ! R1    R(1,2)                  1.4186         estimate D2E/DX2                !
 ! R2    R(1,3)                  1.0936         estimate D2E/DX2                !
 ! R3    R(1,4)                  1.0879         estimate D2E/DX2                !
 ! R4    R(1,5)                  1.0936         estimate D2E/DX2                !
 ! R5    R(2,6)                  0.9606         estimate D2E/DX2                !
 ! A1    A(2,1,3)              112.0441         estimate D2E/DX2                !
 ! A2    A(2,1,4)              106.8957         estimate D2E/DX2                !
 ! A3    A(2,1,5)              112.0439         estimate D2E/DX2                !
 ! A4    A(3,1,4)              108.3731         estimate D2E/DX2                !
 ! A5    A(3,1,5)              108.9675         estimate D2E/DX2                !
 ! A6    A(4,1,5)              108.3728         estimate D2E/DX2                !
 ! A7    A(1,2,6)              108.7192         estimate D2E/DX2                !
 ! D1    D(3,1,2,6)            -61.4307         estimate D2E/DX2                !
 ! D2    D(4,1,2,6)            179.9886         estimate D2E/DX2                !
 ! D3    D(5,1,2,6)             61.4085         estimate D2E/DX2                !
 --------------------------------------------------------------------------------
 Trust Radius=3.00D-01 FncErr=1.00D-07 GrdErr=1.00D-06 EigMax=2.50D+02 EigMin=1.00D-04
 Number of steps in this run=     25 maximum allowed number of steps=    100.
 GradGradGradGradGradGradGradGradGradGradGradGradGradGradGradGradGradGrad

 Leave Link  103 at Mon Aug 17 22:12:11 2020, MaxMem=  4831838208 cpu:               0.1 elap:               0.0
 (Enter /gpfs/apps/medsci/stacks/noOS/software/gaussian/g16.a03.avx2/g16/l202.exe)
                          Input orientation:                          
 ---------------------------------------------------------------------
 Center     Atomic      Atomic             Coordinates (Angstroms)
 Number     Number       Type             X           Y           Z
 ---------------------------------------------------------------------
      1          6           0        0.664592   -0.020378    0.000001
      2          8           0       -0.746837    0.122361    0.000001
      3          1           0        1.024189   -0.543974    0.890242
      4          1           0        1.083911    0.983489   -0.000206
      5          1           0        1.024149   -0.544318   -0.890052
      6          1           0       -1.145110   -0.751814    0.000002
 ---------------------------------------------------------------------
                    Distance matrix (angstroms):
                    1          2          3          4          5
     1  C    0.000000
     2  O    1.418628   0.000000
     3  H    1.093614   2.091187   0.000000
     4  H    1.087924   2.023160   1.769070   0.000000
     5  H    1.093613   2.091183   1.780294   1.769065   0.000000
     6  H    1.951927   0.960627   2.354057   2.824856   2.353919
                    6
     6  H    0.000000
 Symmetry turned off by external request.
 Stoichiometry    CH4O
 Framework group  C1[X(CH4O)]
 Deg. of freedom    12
 Full point group                 C1      NOp   1
 Rotational constants (GHZ):         128.7348908          24.8315625          23.9700500
 Leave Link  202 at Mon Aug 17 22:12:11 2020, MaxMem=  4831838208 cpu:               0.1 elap:               0.0
 (Enter /gpfs/apps/medsci/stacks/noOS/software/gaussian/g16.a03.avx2/g16/l301.exe)
 Standard basis: 6-311G(2d,d,p) (5D, 7F)
 Ernie: Thresh=  0.10000D-02 Tol=  0.10000D-05 Strict=F.
    60 basis functions,    96 primitive gaussians,    62 cartesian basis functions
     9 alpha electrons        9 beta electrons
       nuclear repulsion energy        40.3372866056 Hartrees.
 IExCor=  402 DFT=T Ex+Corr=B3LYP ExCW=0 ScaHFX=  0.200000
 ScaDFX=  0.800000  0.720000  1.000000  0.810000 ScalE2=  1.000000  1.000000
 IRadAn=      5 IRanWt=     -1 IRanGd=            0 ICorTp=0 IEmpDi=  4
 NAtoms=    6 NActive=    6 NUniq=    6 SFac= 1.00D+00 NAtFMM=   60 NAOKFM=F Big=F
 Integral buffers will be    131072 words long.
 Raffenetti 2 integral format.
 Two-electron integral symmetry is turned off.
 Leave Link  301 at Mon Aug 17 22:12:11 2020, MaxMem=  4831838208 cpu:               0.4 elap:               0.1
 (Enter /gpfs/apps/medsci/stacks/noOS/software/gaussian/g16.a03.avx2/g16/l302.exe)
 NPDir=0 NMtPBC=     1 NCelOv=     1 NCel=       1 NClECP=     1 NCelD=      1
         NCelK=      1 NCelE2=     1 NClLst=     1 CellRange=     0.0.
 One-electron integrals computed using PRISM.
 NBasis=    60 RedAO= T EigKep=  8.89D-03  NBF=    60
 NBsUse=    60 1.00D-06 EigRej= -1.00D+00 NBFU=    60
 Precomputing XC quadrature grid using
 IXCGrd= 4 IRadAn=           5 IRanWt=          -1 IRanGd=           0 AccXCQ= 1.00D-12.
 Generated NRdTot=       0 NPtTot=           0 NUsed=           0 NTot=          32
 NSgBfM=    62    62    62    62    62 MxSgAt=     6 MxSgA2=     6.
 Leave Link  302 at Mon Aug 17 22:12:11 2020, MaxMem=  4831838208 cpu:               0.7 elap:               0.1
 (Enter /gpfs/apps/medsci/stacks/noOS/software/gaussian/g16.a03.avx2/g16/l303.exe)
 DipDrv:  MaxL=1.
 Leave Link  303 at Mon Aug 17 22:12:11 2020, MaxMem=  4831838208 cpu:               0.2 elap:               0.0
 (Enter /gpfs/apps/medsci/stacks/noOS/software/gaussian/g16.a03.avx2/g16/l401.exe)
 ExpMin= 1.03D-01 ExpMax= 8.59D+03 ExpMxC= 1.30D+03 IAcc=3 IRadAn=         5 AccDes= 0.00D+00
 Harris functional with IExCor=  402 and IRadAn=       5 diagonalized for initial guess.
 HarFok:  IExCor=  402 AccDes= 0.00D+00 IRadAn=         5 IDoV= 1 UseB2=F ITyADJ=14
 ICtDFT=  3500011 ScaDFX=  1.000000  1.000000  1.000000  1.000000
 FoFCou: FMM=F IPFlag=           0 FMFlag=      100000 FMFlg1=           0
         NFxFlg=           0 DoJE=T BraDBF=F KetDBF=T FulRan=T
         wScrn=  0.000000 ICntrl=       500 IOpCl=  0 I1Cent=   200000004 NGrid=           0
         NMat0=    1 NMatS0=      1 NMatT0=    0 NMatD0=    1 NMtDS0=    0 NMtDT0=    0
 Symmetry not used in FoFCou.
 Harris En= -115.794198668007    
 JPrj=0 DoOrth=F DoCkMO=F.
 Leave Link  401 at Mon Aug 17 22:12:11 2020, MaxMem=  4831838208 cpu:               1.2 elap:               0.2
 (Enter /gpfs/apps/medsci/stacks/noOS/software/gaussian/g16.a03.avx2/g16/l502.exe)
 Keep R1 ints in memory in canonical form, NReq=8746853.
 FoFCou: FMM=F IPFlag=           0 FMFlag=           0 FMFlg1=           0
         NFxFlg=           0 DoJE=F BraDBF=F KetDBF=F FulRan=T
         wScrn=  0.000000 ICntrl=       600 IOpCl=  0 I1Cent=           0 NGrid=           0
         NMat0=    1 NMatS0=   1830 NMatT0=    0 NMatD0=    1 NMtDS0=    0 NMtDT0=    0
 Symmetry not used in FoFCou.
 Two-electron integral symmetry not used.
 Closed shell SCF:
 Using DIIS extrapolation, IDIIS=  1040.
 NGot=  4831838208 LenX=  4830153991 LenY=  4830149706
 Requested convergence on RMS density matrix=1.00D-08 within 128 cycles.
 Requested convergence on MAX density matrix=1.00D-06.
 Requested convergence on             energy=1.00D-06.
 No special actions if energy rises.
 Integral accuracy reduced to 1.0D-05 until final iterations.

 Cycle   1  Pass 0  IDiag  1:
 E= -115.667699642537    
 DIIS: error= 4.21D-02 at cycle   1 NSaved=   1.
 NSaved= 1 IEnMin= 1 EnMin= -115.667699642537     IErMin= 1 ErrMin= 4.21D-02
 ErrMax= 4.21D-02  0.00D+00 EMaxC= 1.00D-01 BMatC= 1.16D-01 BMatP= 1.16D-01
 IDIUse=3 WtCom= 5.79D-01 WtEn= 4.21D-01
 Coeff-Com:  0.100D+01
 Coeff-En:   0.100D+01
 Coeff:      0.100D+01
 Gap=     0.221 Goal=   None    Shift=    0.000
 GapD=    0.221 DampG=1.000 DampE=0.500 DampFc=0.5000 IDamp=-1.
 Damping current iteration by 5.00D-01
 RMSDP=8.22D-03 MaxDP=1.03D-01              OVMax= 1.56D-01

 Cycle   2  Pass 0  IDiag  1:
 E= -115.702242730353     Delta-E=       -0.034543087816 Rises=F Damp=T
 DIIS: error= 8.75D-03 at cycle   2 NSaved=   2.
 NSaved= 2 IEnMin= 2 EnMin= -115.702242730353     IErMin= 2 ErrMin= 8.75D-03
 ErrMax= 8.75D-03  0.00D+00 EMaxC= 1.00D-01 BMatC= 6.92D-03 BMatP= 1.16D-01
 IDIUse=3 WtCom= 9.12D-01 WtEn= 8.75D-02
 Coeff-Com:  0.134D+00 0.866D+00
 Coeff-En:   0.229D+00 0.771D+00
 Coeff:      0.142D+00 0.858D+00
 Gap=     0.316 Goal=   None    Shift=    0.000
 RMSDP=1.32D-03 MaxDP=1.92D-02 DE=-3.45D-02 OVMax= 9.72D-02

 Cycle   3  Pass 0  IDiag  1:
 E= -115.755670207341     Delta-E=       -0.053427476988 Rises=F Damp=F
 DIIS: error= 5.72D-03 at cycle   3 NSaved=   3.
 NSaved= 3 IEnMin= 3 EnMin= -115.755670207341     IErMin= 3 ErrMin= 5.72D-03
 ErrMax= 5.72D-03  0.00D+00 EMaxC= 1.00D-01 BMatC= 2.13D-03 BMatP= 6.92D-03
 IDIUse=3 WtCom= 9.43D-01 WtEn= 5.72D-02
 Coeff-Com:  0.180D-01 0.348D+00 0.634D+00
 Coeff-En:   0.000D+00 0.000D+00 0.100D+01
 Coeff:      0.170D-01 0.328D+00 0.655D+00
 Gap=     0.308 Goal=   None    Shift=    0.000
 RMSDP=5.30D-04 MaxDP=1.07D-02 DE=-5.34D-02 OVMax= 1.50D-02

 Cycle   4  Pass 0  IDiag  1:
 E= -115.756910256233     Delta-E=       -0.001240048892 Rises=F Damp=F
 DIIS: error= 3.27D-03 at cycle   4 NSaved=   4.
 NSaved= 4 IEnMin= 4 EnMin= -115.756910256233     IErMin= 4 ErrMin= 3.27D-03
 ErrMax= 3.27D-03  0.00D+00 EMaxC= 1.00D-01 BMatC= 4.88D-04 BMatP= 2.13D-03
 IDIUse=3 WtCom= 9.67D-01 WtEn= 3.27D-02
 Coeff-Com: -0.354D-02 0.845D-01 0.349D+00 0.570D+00
 Coeff-En:   0.000D+00 0.000D+00 0.181D+00 0.819D+00
 Coeff:     -0.342D-02 0.817D-01 0.344D+00 0.578D+00
 Gap=     0.308 Goal=   None    Shift=    0.000
 RMSDP=2.08D-04 MaxDP=4.72D-03 DE=-1.24D-03 OVMax= 5.76D-03

 Cycle   5  Pass 0  IDiag  1:
 E= -115.757306141164     Delta-E=       -0.000395884931 Rises=F Damp=F
 DIIS: error= 3.98D-04 at cycle   5 NSaved=   5.
 NSaved= 5 IEnMin= 5 EnMin= -115.757306141164     IErMin= 5 ErrMin= 3.98D-04
 ErrMax= 3.98D-04  0.00D+00 EMaxC= 1.00D-01 BMatC= 6.07D-06 BMatP= 4.88D-04
 IDIUse=3 WtCom= 9.96D-01 WtEn= 3.98D-03
 Coeff-Com: -0.178D-02 0.165D-02 0.599D-01 0.164D+00 0.777D+00
 Coeff-En:   0.000D+00 0.000D+00 0.000D+00 0.000D+00 0.100D+01
 Coeff:     -0.177D-02 0.164D-02 0.596D-01 0.163D+00 0.777D+00
 Gap=     0.308 Goal=   None    Shift=    0.000
 RMSDP=2.18D-05 MaxDP=3.79D-04 DE=-3.96D-04 OVMax= 5.64D-04

 Cycle   6  Pass 0  IDiag  1:
 E= -115.757310608848     Delta-E=       -0.000004467684 Rises=F Damp=F
 DIIS: error= 2.48D-05 at cycle   6 NSaved=   6.
 NSaved= 6 IEnMin= 6 EnMin= -115.757310608848     IErMin= 6 ErrMin= 2.48D-05
 ErrMax= 2.48D-05  0.00D+00 EMaxC= 1.00D-01 BMatC= 2.19D-08 BMatP= 6.07D-06
 IDIUse=1 WtCom= 1.00D+00 WtEn= 0.00D+00
 Coeff-Com:  0.182D-03-0.926D-03 0.725D-03 0.227D-02 0.369D-01 0.961D+00
 Coeff:      0.182D-03-0.926D-03 0.725D-03 0.227D-02 0.369D-01 0.961D+00
 Gap=     0.308 Goal=   None    Shift=    0.000
 RMSDP=2.43D-06 MaxDP=3.17D-05 DE=-4.47D-06 OVMax= 5.51D-05

 Initial convergence to 1.0D-05 achieved.  Increase integral accuracy.
 Cycle   7  Pass 1  IDiag  1:
 E= -115.757309434678     Delta-E=        0.000001174170 Rises=F Damp=F
 DIIS: error= 2.25D-06 at cycle   1 NSaved=   1.
 NSaved= 1 IEnMin= 1 EnMin= -115.757309434678     IErMin= 1 ErrMin= 2.25D-06
 ErrMax= 2.25D-06  0.00D+00 EMaxC= 1.00D-01 BMatC= 3.31D-10 BMatP= 3.31D-10
 IDIUse=1 WtCom= 1.00D+00 WtEn= 0.00D+00
 Coeff-Com:  0.100D+01
 Coeff:      0.100D+01
 Gap=     0.308 Goal=   None    Shift=    0.000
 RMSDP=2.43D-06 MaxDP=3.17D-05 DE= 1.17D-06 OVMax= 1.07D-05

 Cycle   8  Pass 1  IDiag  1:
 E= -115.757309434754     Delta-E=       -0.000000000076 Rises=F Damp=F
 DIIS: error= 2.60D-06 at cycle   2 NSaved=   2.
 NSaved= 2 IEnMin= 2 EnMin= -115.757309434754     IErMin= 1 ErrMin= 2.25D-06
 ErrMax= 2.60D-06  0.00D+00 EMaxC= 1.00D-01 BMatC= 3.59D-10 BMatP= 3.31D-10
 IDIUse=1 WtCom= 1.00D+00 WtEn= 0.00D+00
 Coeff-Com:  0.511D+00 0.489D+00
 Coeff:      0.511D+00 0.489D+00
 Gap=     0.308 Goal=   None    Shift=    0.000
 RMSDP=2.05D-07 MaxDP=2.88D-06 DE=-7.55D-11 OVMax= 4.98D-06

 Cycle   9  Pass 1  IDiag  1:
 E= -115.757309435000     Delta-E=       -0.000000000246 Rises=F Damp=F
 DIIS: error= 6.85D-07 at cycle   3 NSaved=   3.
 NSaved= 3 IEnMin= 3 EnMin= -115.757309435000     IErMin= 3 ErrMin= 6.85D-07
 ErrMax= 6.85D-07  0.00D+00 EMaxC= 1.00D-01 BMatC= 2.62D-11 BMatP= 3.31D-10
 IDIUse=1 WtCom= 1.00D+00 WtEn= 0.00D+00
 Coeff-Com:  0.131D+00 0.238D+00 0.631D+00
 Coeff:      0.131D+00 0.238D+00 0.631D+00
 Gap=     0.308 Goal=   None    Shift=    0.000
 RMSDP=4.54D-08 MaxDP=7.74D-07 DE=-2.46D-10 OVMax= 1.11D-06

 Cycle  10  Pass 1  IDiag  1:
 E= -115.757309435017     Delta-E=       -0.000000000017 Rises=F Damp=F
 DIIS: error= 8.58D-08 at cycle   4 NSaved=   4.
 NSaved= 4 IEnMin= 4 EnMin= -115.757309435017     IErMin= 4 ErrMin= 8.58D-08
 ErrMax= 8.58D-08  0.00D+00 EMaxC= 1.00D-01 BMatC= 4.29D-13 BMatP= 2.62D-11
 IDIUse=1 WtCom= 1.00D+00 WtEn= 0.00D+00
 Coeff-Com:  0.153D-01 0.458D-01 0.171D+00 0.768D+00
 Coeff:      0.153D-01 0.458D-01 0.171D+00 0.768D+00
 Gap=     0.308 Goal=   None    Shift=    0.000
 RMSDP=9.94D-09 MaxDP=1.82D-07 DE=-1.69D-11 OVMax= 2.14D-07

 SCF Done:  E(RB3LYP) =  -115.757309435     A.U. after   10 cycles
            NFock= 10  Conv=0.99D-08     -V/T= 2.0030
 KE= 1.154147759559D+02 PE=-3.525919659379D+02 EE= 8.108259394140D+01
 Leave Link  502 at Mon Aug 17 22:12:12 2020, MaxMem=  4831838208 cpu:               3.9 elap:               0.5
 (Enter /gpfs/apps/medsci/stacks/noOS/software/gaussian/g16.a03.avx2/g16/l601.exe)
 Copying SCF densities to generalized density rwf, IOpCl= 0 IROHF=0.

 **********************************************************************

            Population analysis using the SCF density.

 **********************************************************************

 Alpha  occ. eigenvalues --  -19.10638 -10.20804  -1.01449  -0.68330  -0.50642
 Alpha  occ. eigenvalues --   -0.44014  -0.42510  -0.33306  -0.27074
 Alpha virt. eigenvalues --    0.03771   0.07239   0.11393   0.11675   0.18117
 Alpha virt. eigenvalues --    0.30525   0.32434   0.39413   0.44902   0.52057
 Alpha virt. eigenvalues --    0.57174   0.57974   0.70573   0.78727   0.80973
 Alpha virt. eigenvalues --    0.86958   1.07153   1.15122   1.32987   1.37264
 Alpha virt. eigenvalues --    1.44836   1.46005   1.47765   1.48196   1.58456
 Alpha virt. eigenvalues --    1.66595   1.75985   1.95420   1.98981   2.09147
 Alpha virt. eigenvalues --    2.16223   2.28709   2.31564   2.39940   2.45856
 Alpha virt. eigenvalues --    2.46496   2.56091   2.76778   2.90747   3.08282
 Alpha virt. eigenvalues --    3.20625   3.28645   3.65700   3.77060   3.89453
 Alpha virt. eigenvalues --    3.92373   4.84352   5.22221   5.63783  23.86369
 Alpha virt. eigenvalues --   49.87207
          Condensed to atoms (all electrons):
               1          2          3          4          5          6
     1  C    4.682490   0.280758   0.397141   0.400225   0.397145  -0.044250
     2  O    0.280758   7.913691  -0.033670  -0.030381  -0.033666   0.312531
     3  H    0.397141  -0.033670   0.638813  -0.035812  -0.047649  -0.007085
     4  H    0.400225  -0.030381  -0.035812   0.581906  -0.035806   0.009607
     5  H    0.397145  -0.033666  -0.047649  -0.035806   0.638808  -0.007091
     6  H   -0.044250   0.312531  -0.007085   0.009607  -0.007091   0.500300
 Mulliken charges:
               1
     1  C   -0.113509
     2  O   -0.409262
     3  H    0.088262
     4  H    0.110261
     5  H    0.088260
     6  H    0.235989
 Sum of Mulliken charges =  -0.00000
 Mulliken charges with hydrogens summed into heavy atoms:
               1
     1  C    0.173273
     2  O   -0.173273
 Electronic spatial extent (au):  <R**2>=             84.0762
 Charge=             -0.0000 electrons
 Dipole moment (field-independent basis, Debye):
    X=              0.7845    Y=             -1.5151    Z=             -0.0000  Tot=              1.7062
 Quadrupole moment (field-independent basis, Debye-Ang):
   XX=            -12.6963   YY=            -12.1624   ZZ=            -13.6431
   XY=              2.2354   XZ=             -0.0000   YZ=             -0.0000
 Traceless Quadrupole moment (field-independent basis, Debye-Ang):
   XX=              0.1376   YY=              0.6716   ZZ=             -0.8092
   XY=              2.2354   XZ=             -0.0000   YZ=             -0.0000
 Octapole moment (field-independent basis, Debye-Ang**2):
  XXX=             -4.7090  YYY=             -0.4222  ZZZ=              0.0002  XYY=             -1.8875
  XXY=             -2.2202  XXZ=             -0.0001  XZZ=             -0.6115  YZZ=             -0.5896
  YYZ=             -0.0003  XYZ=             -0.0000
 Hexadecapole moment (field-independent basis, Debye-Ang**3):
 XXXX=            -60.7278 YYYY=            -20.0076 ZZZZ=            -19.6995 XXXY=              3.7058
 XXXZ=             -0.0001 YYYX=              2.8363 YYYZ=             -0.0000 ZZZX=              0.0003
 ZZZY=             -0.0000 XXYY=            -12.3437 XXZZ=            -13.9713 YYZZ=             -6.7620
 XXYZ=             -0.0001 YYXZ=             -0.0004 ZZXY=             -0.1515
 N-N= 4.033728660558D+01 E-N=-3.525919737062D+02  KE= 1.154147759559D+02
 No NMR shielding tensors so no spin-rotation constants.
 Leave Link  601 at Mon Aug 17 22:12:12 2020, MaxMem=  4831838208 cpu:               0.5 elap:               0.1
 (Enter /gpfs/apps/medsci/stacks/noOS/software/gaussian/g16.a03.avx2/g16/l701.exe)
 ... and contract with generalized density number  0.
 Compute integral first derivatives.
 Leave Link  701 at Mon Aug 17 22:12:12 2020, MaxMem=  4831838208 cpu:               1.3 elap:               0.2
 (Enter /gpfs/apps/medsci/stacks/noOS/software/gaussian/g16.a03.avx2/g16/l702.exe)
 L702 exits ... SP integral derivatives will be done elsewhere.
 Leave Link  702 at Mon Aug 17 22:12:12 2020, MaxMem=  4831838208 cpu:               0.1 elap:               0.0
 (Enter /gpfs/apps/medsci/stacks/noOS/software/gaussian/g16.a03.avx2/g16/l703.exe)
 Integral derivatives from FoFJK, PRISM(SPDF).
 Compute integral first derivatives, UseDBF=F ICtDFT=           0.
 Calling FoFJK, ICntrl=      2127 FMM=F ISym2X=0 I1Cent= 0 IOpClX= 0 NMat=1 NMatS=1 NMatT=0.
 FoFJK:  IHMeth= 1 ICntrl=    2127 DoSepK=F KAlg= 0 I1Cent=           0 FoldK=F
 IRaf=         0 NMat=       1 IRICut=       1 DoRegI=T DoRafI=F ISym2E= 0 IDoP0=0 IntGTp=1.
 FoFCou: FMM=F IPFlag=           0 FMFlag=      100000 FMFlg1=         800
         NFxFlg=           0 DoJE=F BraDBF=F KetDBF=F FulRan=T
         wScrn=  0.000000 ICntrl=      2127 IOpCl=  0 I1Cent=           0 NGrid=           0
         NMat0=    1 NMatS0=      1 NMatT0=    0 NMatD0=    1 NMtDS0=    0 NMtDT0=    0
 Symmetry not used in FoFCou.
 Leave Link  703 at Mon Aug 17 22:12:12 2020, MaxMem=  4831838208 cpu:               2.3 elap:               0.3
 (Enter /gpfs/apps/medsci/stacks/noOS/software/gaussian/g16.a03.avx2/g16/l716.exe)
 Dipole        = 3.08632704D-01-5.96100560D-01-1.27808325D-05
 -------------------------------------------------------------------
 Center     Atomic                   Forces (Hartrees/Bohr)
 Number     Number              X              Y              Z
 -------------------------------------------------------------------
      1        6          -0.003494509   -0.001097923   -0.000000299
      2        8          -0.003159165    0.002806559   -0.000000919
      3        1           0.002240746   -0.001263571    0.002122541
      4        1           0.000910079    0.001591123    0.000000178
      5        1           0.002241424   -0.001264233   -0.002122517
      6        1           0.001261425   -0.000771955    0.000001016
 -------------------------------------------------------------------
 Cartesian Forces:  Max     0.003494509 RMS     0.001811556
 Leave Link  716 at Mon Aug 17 22:12:12 2020, MaxMem=  4831838208 cpu:               0.2 elap:               0.0
 (Enter /gpfs/apps/medsci/stacks/noOS/software/gaussian/g16.a03.avx2/g16/l103.exe)

 GradGradGradGradGradGradGradGradGradGradGradGradGradGradGradGradGradGrad
 Berny optimization.
 FormGI is forming the generalized inverse of G from B-inverse, IUseBI=4.
 Internal  Forces:  Max     0.003070104 RMS     0.001678620
 Search for a local minimum.
 Step number   1 out of a maximum of   25
 All quantities printed in internal units (Hartrees-Bohrs-Radians)
 RMS Force = .16786D-02 SwitMx=.10000D-02 MixMth= 1
 Mixed Optimization -- RFO/linear search
 Second derivative matrix not updated -- first step.
 The second derivative matrix:
                          R1        R2        R3        R4        R5
           R1           0.42668
           R2           0.00000   0.34398
           R3           0.00000   0.00000   0.35054
           R4           0.00000   0.00000   0.00000   0.34398
           R5           0.00000   0.00000   0.00000   0.00000   0.55339
           A1           0.00000   0.00000   0.00000   0.00000   0.00000
           A2           0.00000   0.00000   0.00000   0.00000   0.00000
           A3           0.00000   0.00000   0.00000   0.00000   0.00000
           A4           0.00000   0.00000   0.00000   0.00000   0.00000
           A5           0.00000   0.00000   0.00000   0.00000   0.00000
           A6           0.00000   0.00000   0.00000   0.00000   0.00000
           A7           0.00000   0.00000   0.00000   0.00000   0.00000
           D1           0.00000   0.00000   0.00000   0.00000   0.00000
           D2           0.00000   0.00000   0.00000   0.00000   0.00000
           D3           0.00000   0.00000   0.00000   0.00000   0.00000
                          A1        A2        A3        A4        A5
           A1           0.16000
           A2           0.00000   0.16000
           A3           0.00000   0.00000   0.16000
           A4           0.00000   0.00000   0.00000   0.16000
           A5           0.00000   0.00000   0.00000   0.00000   0.16000
           A6           0.00000   0.00000   0.00000   0.00000   0.00000
           A7           0.00000   0.00000   0.00000   0.00000   0.00000
           D1           0.00000   0.00000   0.00000   0.00000   0.00000
           D2           0.00000   0.00000   0.00000   0.00000   0.00000
           D3           0.00000   0.00000   0.00000   0.00000   0.00000
                          A6        A7        D1        D2        D3
           A6           0.16000
           A7           0.00000   0.16000
           D1           0.00000   0.00000   0.01445
           D2           0.00000   0.00000   0.00000   0.01445
           D3           0.00000   0.00000   0.00000   0.00000   0.01445
 ITU=  0
     Eigenvalues ---    0.01445   0.09917   0.10531   0.16000   0.16000
     Eigenvalues ---    0.16000   0.16000   0.34398   0.34398   0.35054
     Eigenvalues ---    0.42668   0.55339
 RFO step:  Lambda=-1.75604561D-04 EMin= 1.44536811D-02
 Linear search not attempted -- first point.
 Iteration  1 RMS(Cart)=  0.00666037 RMS(Int)=  0.00005081
 Iteration  2 RMS(Cart)=  0.00004020 RMS(Int)=  0.00003013
 Iteration  3 RMS(Cart)=  0.00000000 RMS(Int)=  0.00003013
 ITry= 1 IFail=0 DXMaxC= 1.25D-02 DCOld= 1.00D+10 DXMaxT= 3.00D-01 DXLimC= 3.00D+00 Rises=F
 Variable       Old X    -DE/DX   Delta X   Delta X   Delta X     New X
                                 (Linear)    (Quad)   (Total)
    R1        2.68082   0.00209   0.00000   0.00490   0.00490   2.68572
    R2        2.06663   0.00307   0.00000   0.00892   0.00892   2.07555
    R3        2.05588   0.00182   0.00000   0.00519   0.00519   2.06106
    R4        2.06663   0.00307   0.00000   0.00892   0.00892   2.07555
    R5        1.81532   0.00018   0.00000   0.00032   0.00032   1.81565
    A1        1.95554   0.00160   0.00000   0.01056   0.01052   1.96606
    A2        1.86568  -0.00042   0.00000  -0.00368  -0.00368   1.86200
    A3        1.95553   0.00161   0.00000   0.01057   0.01053   1.96607
    A4        1.89147  -0.00087   0.00000  -0.00641  -0.00641   1.88506
    A5        1.90184  -0.00119   0.00000  -0.00568  -0.00575   1.89609
    A6        1.89146  -0.00087   0.00000  -0.00641  -0.00641   1.88505
    A7        1.89751  -0.00266   0.00000  -0.01663  -0.01663   1.88087
    D1       -1.07217  -0.00041   0.00000  -0.00409  -0.00415  -1.07632
    D2        3.14139   0.00000   0.00000   0.00004   0.00004   3.14144
    D3        1.07178   0.00041   0.00000   0.00417   0.00422   1.07600
         Item               Value     Threshold  Converged?
 Maximum Force            0.003070     0.000015     NO 
 RMS     Force            0.001679     0.000010     NO 
 Maximum Displacement     0.012519     0.000060     NO 
 RMS     Displacement     0.006663     0.000040     NO 
 Predicted change in Energy=-8.794286D-05
 Lowest energy point so far.  Saving SCF results.
 GradGradGradGradGradGradGradGradGradGradGradGradGradGradGradGradGradGrad

 Leave Link  103 at Mon Aug 17 22:12:13 2020, MaxMem=  4831838208 cpu:               0.1 elap:               0.0
 (Enter /gpfs/apps/medsci/stacks/noOS/software/gaussian/g16.a03.avx2/g16/l202.exe)
                          Input orientation:                          
 ---------------------------------------------------------------------
 Center     Atomic      Atomic             Coordinates (Angstroms)
 Number     Number       Type             X           Y           Z
 ---------------------------------------------------------------------
      1          6           0        0.659767   -0.022678   -0.000004
      2          8           0       -0.753461    0.127850   -0.000011
      3          1           0        1.029352   -0.545784    0.892243
      4          1           0        1.081798    0.983030   -0.000201
      5          1           0        1.029331   -0.546122   -0.892060
      6          1           0       -1.141892   -0.750930    0.000019
 ---------------------------------------------------------------------
                    Distance matrix (angstroms):
                    1          2          3          4          5
     1  C    0.000000
     2  O    1.421223   0.000000
     3  H    1.098334   2.104358   0.000000
     4  H    1.090668   2.024725   1.771010   0.000000
     5  H    1.098333   2.104361   1.784303   1.771008   0.000000
     6  H    1.943278   0.960798   2.356364   2.819826   2.356260
                    6
     6  H    0.000000
 Symmetry turned off by external request.
 Stoichiometry    CH4O
 Framework group  C1[X(CH4O)]
 Deg. of freedom    12
 Full point group                 C1      NOp   1
 Rotational constants (GHZ):         128.1174277          24.7228757          23.8636658
 Leave Link  202 at Mon Aug 17 22:12:13 2020, MaxMem=  4831838208 cpu:               0.1 elap:               0.0
 (Enter /gpfs/apps/medsci/stacks/noOS/software/gaussian/g16.a03.avx2/g16/l301.exe)
 Standard basis: 6-311G(2d,d,p) (5D, 7F)
 Ernie: Thresh=  0.10000D-02 Tol=  0.10000D-05 Strict=F.
    60 basis functions,    96 primitive gaussians,    62 cartesian basis functions
     9 alpha electrons        9 beta electrons
       nuclear repulsion energy        40.2503550556 Hartrees.
 IExCor=  402 DFT=T Ex+Corr=B3LYP ExCW=0 ScaHFX=  0.200000
 ScaDFX=  0.800000  0.720000  1.000000  0.810000 ScalE2=  1.000000  1.000000
 IRadAn=      5 IRanWt=     -1 IRanGd=            0 ICorTp=0 IEmpDi=  4
 NAtoms=    6 NActive=    6 NUniq=    6 SFac= 1.00D+00 NAtFMM=   60 NAOKFM=F Big=F
 Integral buffers will be    131072 words long.
 Raffenetti 2 integral format.
 Two-electron integral symmetry is turned off.
 Leave Link  301 at Mon Aug 17 22:12:13 2020, MaxMem=  4831838208 cpu:               0.4 elap:               0.1
 (Enter /gpfs/apps/medsci/stacks/noOS/software/gaussian/g16.a03.avx2/g16/l302.exe)
 NPDir=0 NMtPBC=     1 NCelOv=     1 NCel=       1 NClECP=     1 NCelD=      1
         NCelK=      1 NCelE2=     1 NClLst=     1 CellRange=     0.0.
 One-electron integrals computed using PRISM.
 NBasis=    60 RedAO= T EigKep=  9.00D-03  NBF=    60
 NBsUse=    60 1.00D-06 EigRej= -1.00D+00 NBFU=    60
 Precomputing XC quadrature grid using
 IXCGrd= 4 IRadAn=           5 IRanWt=          -1 IRanGd=           0 AccXCQ= 1.00D-12.
 Generated NRdTot=       0 NPtTot=           0 NUsed=           0 NTot=          32
 NSgBfM=    62    62    62    62    62 MxSgAt=     6 MxSgA2=     6.
 Leave Link  302 at Mon Aug 17 22:12:13 2020, MaxMem=  4831838208 cpu:               0.7 elap:               0.1
 (Enter /gpfs/apps/medsci/stacks/noOS/software/gaussian/g16.a03.avx2/g16/l303.exe)
 DipDrv:  MaxL=1.
 Leave Link  303 at Mon Aug 17 22:12:13 2020, MaxMem=  4831838208 cpu:               0.2 elap:               0.0
 (Enter /gpfs/apps/medsci/stacks/noOS/software/gaussian/g16.a03.avx2/g16/l401.exe)
 Initial guess from the checkpoint file:  "check.chk"
 B after Tr=    -0.007401    0.002827   -0.000011
         Rot=    0.999999    0.000001    0.000002    0.001115 Ang=   0.13 deg.
 Guess basis will be translated and rotated to current coordinates.
 JPrj=2 DoOrth=T DoCkMO=T.
 Leave Link  401 at Mon Aug 17 22:12:13 2020, MaxMem=  4831838208 cpu:               0.6 elap:               0.1
 (Enter /gpfs/apps/medsci/stacks/noOS/software/gaussian/g16.a03.avx2/g16/l502.exe)
 Keep R1 ints in memory in canonical form, NReq=8746853.
 FoFCou: FMM=F IPFlag=           0 FMFlag=           0 FMFlg1=           0
         NFxFlg=           0 DoJE=F BraDBF=F KetDBF=F FulRan=T
         wScrn=  0.000000 ICntrl=       600 IOpCl=  0 I1Cent=           0 NGrid=           0
         NMat0=    1 NMatS0=   1830 NMatT0=    0 NMatD0=    1 NMtDS0=    0 NMtDT0=    0
 Symmetry not used in FoFCou.
 Two-electron integral symmetry not used.
 Closed shell SCF:
 Using DIIS extrapolation, IDIIS=  1040.
 NGot=  4831838208 LenX=  4830153991 LenY=  4830149706
 Requested convergence on RMS density matrix=1.00D-08 within 128 cycles.
 Requested convergence on MAX density matrix=1.00D-06.
 Requested convergence on             energy=1.00D-06.
 No special actions if energy rises.

 Cycle   1  Pass 1  IDiag  1:
 E= -115.757353660073    
 DIIS: error= 6.55D-04 at cycle   1 NSaved=   1.
 NSaved= 1 IEnMin= 1 EnMin= -115.757353660073     IErMin= 1 ErrMin= 6.55D-04
 ErrMax= 6.55D-04  0.00D+00 EMaxC= 1.00D-01 BMatC= 3.40D-05 BMatP= 3.40D-05
 IDIUse=3 WtCom= 9.93D-01 WtEn= 6.55D-03
 Coeff-Com:  0.100D+01
 Coeff-En:   0.100D+01
 Coeff:      0.100D+01
 Gap=     0.614 Goal=   None    Shift=    0.000
 RMSDP=1.18D-04 MaxDP=1.20D-03              OVMax= 2.42D-03

 Cycle   2  Pass 1  IDiag  1:
 E= -115.757386802648     Delta-E=       -0.000033142576 Rises=F Damp=F
 DIIS: error= 3.58D-04 at cycle   2 NSaved=   2.
 NSaved= 2 IEnMin= 2 EnMin= -115.757386802648     IErMin= 2 ErrMin= 3.58D-04
 ErrMax= 3.58D-04  0.00D+00 EMaxC= 1.00D-01 BMatC= 4.44D-06 BMatP= 3.40D-05
 IDIUse=3 WtCom= 9.96D-01 WtEn= 3.58D-03
 Coeff-Com:  0.152D+00 0.848D+00
 Coeff-En:   0.000D+00 0.100D+01
 Coeff:      0.152D+00 0.848D+00
 Gap=     0.309 Goal=   None    Shift=    0.000
 RMSDP=3.90D-05 MaxDP=9.40D-04 DE=-3.31D-05 OVMax= 1.11D-03

 Cycle   3  Pass 1  IDiag  1:
 E= -115.757387665010     Delta-E=       -0.000000862362 Rises=F Damp=F
 DIIS: error= 3.24D-04 at cycle   3 NSaved=   3.
 NSaved= 3 IEnMin= 3 EnMin= -115.757387665010     IErMin= 3 ErrMin= 3.24D-04
 ErrMax= 3.24D-04  0.00D+00 EMaxC= 1.00D-01 BMatC= 3.82D-06 BMatP= 4.44D-06
 IDIUse=3 WtCom= 9.97D-01 WtEn= 3.24D-03
 Coeff-Com: -0.193D-01 0.484D+00 0.535D+00
 Coeff-En:   0.000D+00 0.447D+00 0.553D+00
 Coeff:     -0.192D-01 0.484D+00 0.536D+00
 Gap=     0.309 Goal=   None    Shift=    0.000
 RMSDP=1.75D-05 MaxDP=4.10D-04 DE=-8.62D-07 OVMax= 5.02D-04

 Cycle   4  Pass 1  IDiag  1:
 E= -115.757390952878     Delta-E=       -0.000003287868 Rises=F Damp=F
 DIIS: error= 4.03D-05 at cycle   4 NSaved=   4.
 NSaved= 4 IEnMin= 4 EnMin= -115.757390952878     IErMin= 4 ErrMin= 4.03D-05
 ErrMax= 4.03D-05  0.00D+00 EMaxC= 1.00D-01 BMatC= 7.20D-08 BMatP= 3.82D-06
 IDIUse=1 WtCom= 1.00D+00 WtEn= 0.00D+00
 Coeff-Com: -0.115D-01 0.245D+00 0.281D+00 0.486D+00
 Coeff:     -0.115D-01 0.245D+00 0.281D+00 0.486D+00
 Gap=     0.309 Goal=   None    Shift=    0.000
 RMSDP=2.83D-06 MaxDP=4.68D-05 DE=-3.29D-06 OVMax= 6.31D-05

 Cycle   5  Pass 1  IDiag  1:
 E= -115.757390999896     Delta-E=       -0.000000047018 Rises=F Damp=F
 DIIS: error= 7.76D-06 at cycle   5 NSaved=   5.
 NSaved= 5 IEnMin= 5 EnMin= -115.757390999896     IErMin= 5 ErrMin= 7.76D-06
 ErrMax= 7.76D-06  0.00D+00 EMaxC= 1.00D-01 BMatC= 2.76D-09 BMatP= 7.20D-08
 IDIUse=1 WtCom= 1.00D+00 WtEn= 0.00D+00
 Coeff-Com: -0.153D-02 0.148D-01 0.178D-01 0.170D+00 0.799D+00
 Coeff:     -0.153D-02 0.148D-01 0.178D-01 0.170D+00 0.799D+00
 Gap=     0.309 Goal=   None    Shift=    0.000
 RMSDP=5.82D-07 MaxDP=8.82D-06 DE=-4.70D-08 OVMax= 1.27D-05

 Cycle   6  Pass 1  IDiag  1:
 E= -115.757391001821     Delta-E=       -0.000000001925 Rises=F Damp=F
 DIIS: error= 1.25D-06 at cycle   6 NSaved=   6.
 NSaved= 6 IEnMin= 6 EnMin= -115.757391001821     IErMin= 6 ErrMin= 1.25D-06
 ErrMax= 1.25D-06  0.00D+00 EMaxC= 1.00D-01 BMatC= 4.44D-11 BMatP= 2.76D-09
 IDIUse=1 WtCom= 1.00D+00 WtEn= 0.00D+00
 Coeff-Com: -0.381D-04-0.343D-02-0.350D-02 0.294D-01 0.211D+00 0.767D+00
 Coeff:     -0.381D-04-0.343D-02-0.350D-02 0.294D-01 0.211D+00 0.767D+00
 Gap=     0.309 Goal=   None    Shift=    0.000
 RMSDP=1.08D-07 MaxDP=1.36D-06 DE=-1.92D-09 OVMax= 2.52D-06

 Cycle   7  Pass 1  IDiag  1:
 E= -115.757391001864     Delta-E=       -0.000000000043 Rises=F Damp=F
 DIIS: error= 1.70D-07 at cycle   7 NSaved=   7.
 NSaved= 7 IEnMin= 7 EnMin= -115.757391001864     IErMin= 7 ErrMin= 1.70D-07
 ErrMax= 1.70D-07  0.00D+00 EMaxC= 1.00D-01 BMatC= 8.02D-13 BMatP= 4.44D-11
 IDIUse=1 WtCom= 1.00D+00 WtEn= 0.00D+00
 Coeff-Com:  0.411D-04-0.100D-02-0.101D-02 0.997D-03 0.838D-02 0.124D+00
 Coeff-Com:  0.869D+00
 Coeff:      0.411D-04-0.100D-02-0.101D-02 0.997D-03 0.838D-02 0.124D+00
 Coeff:      0.869D+00
 Gap=     0.309 Goal=   None    Shift=    0.000
 RMSDP=1.33D-08 MaxDP=1.99D-07 DE=-4.33D-11 OVMax= 3.13D-07

 Cycle   8  Pass 1  IDiag  1:
 E= -115.757391001865     Delta-E=       -0.000000000001 Rises=F Damp=F
 DIIS: error= 2.32D-08 at cycle   8 NSaved=   8.
 NSaved= 8 IEnMin= 8 EnMin= -115.757391001865     IErMin= 8 ErrMin= 2.32D-08
 ErrMax= 2.32D-08  0.00D+00 EMaxC= 1.00D-01 BMatC= 2.03D-14 BMatP= 8.02D-13
 IDIUse=1 WtCom= 1.00D+00 WtEn= 0.00D+00
 Coeff-Com:  0.787D-05-0.130D-03-0.142D-03-0.774D-04-0.223D-02 0.105D-01
 Coeff-Com:  0.162D+00 0.830D+00
 Coeff:      0.787D-05-0.130D-03-0.142D-03-0.774D-04-0.223D-02 0.105D-01
 Coeff:      0.162D+00 0.830D+00
 Gap=     0.309 Goal=   None    Shift=    0.000
 RMSDP=2.39D-09 MaxDP=2.75D-08 DE=-7.96D-13 OVMax= 4.87D-08

 SCF Done:  E(RB3LYP) =  -115.757391002     A.U. after    8 cycles
            NFock=  8  Conv=0.24D-08     -V/T= 2.0032
 KE= 1.153938443921D+02 PE=-3.523953921249D+02 EE= 8.099380167534D+01
 Leave Link  502 at Mon Aug 17 22:12:13 2020, MaxMem=  4831838208 cpu:               4.7 elap:               0.6
 (Enter /gpfs/apps/medsci/stacks/noOS/software/gaussian/g16.a03.avx2/g16/l701.exe)
 ... and contract with generalized density number  0.
 Compute integral first derivatives.
 Leave Link  701 at Mon Aug 17 22:12:14 2020, MaxMem=  4831838208 cpu:               1.3 elap:               0.2
 (Enter /gpfs/apps/medsci/stacks/noOS/software/gaussian/g16.a03.avx2/g16/l702.exe)
 L702 exits ... SP integral derivatives will be done elsewhere.
 Leave Link  702 at Mon Aug 17 22:12:14 2020, MaxMem=  4831838208 cpu:               0.1 elap:               0.0
 (Enter /gpfs/apps/medsci/stacks/noOS/software/gaussian/g16.a03.avx2/g16/l703.exe)
 Integral derivatives from FoFJK, PRISM(SPDF).
 Compute integral first derivatives, UseDBF=F ICtDFT=           0.
 Calling FoFJK, ICntrl=      2127 FMM=F ISym2X=0 I1Cent= 0 IOpClX= 0 NMat=1 NMatS=1 NMatT=0.
 FoFJK:  IHMeth= 1 ICntrl=    2127 DoSepK=F KAlg= 0 I1Cent=           0 FoldK=F
 IRaf=         0 NMat=       1 IRICut=       1 DoRegI=T DoRafI=F ISym2E= 0 IDoP0=0 IntGTp=1.
 FoFCou: FMM=F IPFlag=           0 FMFlag=      100000 FMFlg1=         800
         NFxFlg=           0 DoJE=F BraDBF=F KetDBF=F FulRan=T
         wScrn=  0.000000 ICntrl=      2127 IOpCl=  0 I1Cent=           0 NGrid=           0
         NMat0=    1 NMatS0=      1 NMatT0=    0 NMatD0=    1 NMtDS0=    0 NMtDT0=    0
 Symmetry not used in FoFCou.
 Leave Link  703 at Mon Aug 17 22:12:14 2020, MaxMem=  4831838208 cpu:               2.3 elap:               0.3
 (Enter /gpfs/apps/medsci/stacks/noOS/software/gaussian/g16.a03.avx2/g16/l716.exe)
 Dipole        = 3.11757433D-01-5.97810567D-01 1.14881510D-05
 -------------------------------------------------------------------
 Center     Atomic                   Forces (Hartrees/Bohr)
 Number     Number              X              Y              Z
 -------------------------------------------------------------------
      1        6          -0.000275420    0.000804882    0.000000265
      2        8           0.000388177   -0.000219431   -0.000001122
      3        1          -0.000099149   -0.000163751    0.000114323
      4        1           0.000378382    0.000046160    0.000000269
      5        1          -0.000099363   -0.000163420   -0.000114579
      6        1          -0.000292628   -0.000304440    0.000000844
 -------------------------------------------------------------------
 Cartesian Forces:  Max     0.000804882 RMS     0.000273411
 Leave Link  716 at Mon Aug 17 22:12:14 2020, MaxMem=  4831838208 cpu:               0.2 elap:               0.0
 (Enter /gpfs/apps/medsci/stacks/noOS/software/gaussian/g16.a03.avx2/g16/l103.exe)

 GradGradGradGradGradGradGradGradGradGradGradGradGradGradGradGradGradGrad
 Berny optimization.
 Using GEDIIS/GDIIS optimizer.
 FormGI is forming the generalized inverse of G from B-inverse, IUseBI=4.
 Internal  Forces:  Max     0.000659255 RMS     0.000263069
 Search for a local minimum.
 Step number   2 out of a maximum of   25
 All quantities printed in internal units (Hartrees-Bohrs-Radians)
 RMS Force = .26307D-03 SwitMx=.10000D-02 MixMth= 2
 Mixed Optimization -- En-DIIS/RFO-DIIS
 Update second derivatives using D2CorX and points    1    2
 DE= -8.16D-05 DEPred=-8.79D-05 R= 9.27D-01
 TightC=F SS=  1.41D+00  RLast= 2.95D-02 DXNew= 5.0454D-01 8.8603D-02
 Trust test= 9.27D-01 RLast= 2.95D-02 DXMaxT set to 3.00D-01
 The second derivative matrix:
                          R1        R2        R3        R4        R5
           R1           0.42854
           R2          -0.00155   0.33612
           R3          -0.00220  -0.00634   0.34585
           R4          -0.00155  -0.00786  -0.00634   0.33612
           R5          -0.00474  -0.00653  -0.00375  -0.00653   0.55346
           A1           0.00271   0.00034  -0.00089   0.00034  -0.00393
           A2          -0.00592  -0.00662  -0.00330  -0.00662   0.00186
           A3           0.00271   0.00034  -0.00089   0.00034  -0.00393
           A4           0.00216   0.00478   0.00331   0.00478   0.00202
           A5          -0.00354  -0.00288  -0.00101  -0.00288   0.00235
           A6           0.00216   0.00477   0.00331   0.00477   0.00202
           A7          -0.00325   0.00082   0.00216   0.00082   0.00611
           D1          -0.00684  -0.00882  -0.00487  -0.00882   0.00079
           D2          -0.00000  -0.00000  -0.00000  -0.00000  -0.00000
           D3           0.00682   0.00880   0.00485   0.00880  -0.00079
                          A1        A2        A3        A4        A5
           A1           0.16321
           A2          -0.00535   0.16427
           A3           0.00321  -0.00536   0.16322
           A4           0.00128   0.00142   0.00128   0.15779
           A5          -0.00350   0.00392  -0.00351   0.00007   0.16303
           A6           0.00128   0.00142   0.00128  -0.00221   0.00008
           A7          -0.00419   0.00796  -0.00420  -0.00242   0.00498
           D1          -0.00584   0.00344  -0.00585   0.00249   0.00377
           D2          -0.00000  -0.00000  -0.00000   0.00000   0.00000
           D3           0.00583  -0.00344   0.00584  -0.00248  -0.00377
                          A6        A7        D1        D2        D3
           A6           0.15779
           A7          -0.00241   0.16527
           D1           0.00249   0.00894   0.01656
           D2           0.00000   0.00000  -0.00000   0.01445
           D3          -0.00248  -0.00892  -0.00210   0.00000   0.01656
 ITU=  1  0
 Use linear search instead of GDIIS.
     Eigenvalues ---    0.01445   0.10119   0.10516   0.15186   0.16000
     Eigenvalues ---    0.16000   0.18386   0.32566   0.34398   0.34962
     Eigenvalues ---    0.42888   0.55431
 RFO step:  Lambda=-4.84100067D-06 EMin= 1.44536716D-02
 Quartic linear search produced a step of -0.06439.
 Iteration  1 RMS(Cart)=  0.00190201 RMS(Int)=  0.00000237
 Iteration  2 RMS(Cart)=  0.00000244 RMS(Int)=  0.00000016
 Iteration  3 RMS(Cart)=  0.00000000 RMS(Int)=  0.00000016
 ITry= 1 IFail=0 DXMaxC= 5.08D-03 DCOld= 1.00D+10 DXMaxT= 3.00D-01 DXLimC= 3.00D+00 Rises=F
 Variable       Old X    -DE/DX   Delta X   Delta X   Delta X     New X
                                 (Linear)    (Quad)   (Total)
    R1        2.68572  -0.00015  -0.00032   0.00012  -0.00019   2.68553
    R2        2.07555   0.00014  -0.00057   0.00120   0.00062   2.07617
    R3        2.06106   0.00019  -0.00033   0.00098   0.00065   2.06171
    R4        2.07555   0.00014  -0.00057   0.00120   0.00062   2.07617
    R5        1.81565   0.00040  -0.00002   0.00070   0.00068   1.81632
    A1        1.96606  -0.00030  -0.00068  -0.00108  -0.00176   1.96430
    A2        1.86200   0.00066   0.00024   0.00405   0.00429   1.86629
    A3        1.96607  -0.00030  -0.00068  -0.00108  -0.00176   1.96431
    A4        1.88506  -0.00002   0.00041  -0.00021   0.00021   1.88526
    A5        1.89609   0.00002   0.00037  -0.00132  -0.00095   1.89514
    A6        1.88505  -0.00002   0.00041  -0.00020   0.00021   1.88526
    A7        1.88087   0.00026   0.00107   0.00001   0.00108   1.88196
    D1       -1.07632   0.00022   0.00027   0.00175   0.00202  -1.07430
    D2        3.14144   0.00000  -0.00000   0.00003   0.00003   3.14147
    D3        1.07600  -0.00022  -0.00027  -0.00168  -0.00195   1.07405
         Item               Value     Threshold  Converged?
 Maximum Force            0.000659     0.000015     NO 
 RMS     Force            0.000263     0.000010     NO 
 Maximum Displacement     0.005082     0.000060     NO 
 RMS     Displacement     0.001902     0.000040     NO 
 Predicted change in Energy=-2.802605D-06
 Lowest energy point so far.  Saving SCF results.
 GradGradGradGradGradGradGradGradGradGradGradGradGradGradGradGradGradGrad

 Leave Link  103 at Mon Aug 17 22:12:14 2020, MaxMem=  4831838208 cpu:               0.1 elap:               0.0
 (Enter /gpfs/apps/medsci/stacks/noOS/software/gaussian/g16.a03.avx2/g16/l202.exe)
                          Input orientation:                          
 ---------------------------------------------------------------------
 Center     Atomic      Atomic             Coordinates (Angstroms)
 Number     Number       Type             X           Y           Z
 ---------------------------------------------------------------------
      1          6           0        0.659636   -0.021193   -0.000006
      2          8           0       -0.753732    0.127041   -0.000022
      3          1           0        1.028177   -0.545786    0.892204
      4          1           0        1.084488    0.983698   -0.000197
      5          1           0        1.028164   -0.546118   -0.892025
      6          1           0       -1.141838   -0.752276    0.000033
 ---------------------------------------------------------------------
                    Distance matrix (angstroms):
                    1          2          3          4          5
     1  C    0.000000
     2  O    1.421120   0.000000
     3  H    1.098662   2.103321   0.000000
     4  H    1.091011   2.028032   1.771687   0.000000
     5  H    1.098662   2.103323   1.784229   1.771685   0.000000
     6  H    1.944169   0.961158   2.355328   2.823142   2.355245
                    6
     6  H    0.000000
 Symmetry turned off by external request.
 Stoichiometry    CH4O
 Framework group  C1[X(CH4O)]
 Deg. of freedom    12
 Full point group                 C1      NOp   1
 Rotational constants (GHZ):         128.0606284          24.7208973          23.8595526
 Leave Link  202 at Mon Aug 17 22:12:14 2020, MaxMem=  4831838208 cpu:               0.1 elap:               0.0
 (Enter /gpfs/apps/medsci/stacks/noOS/software/gaussian/g16.a03.avx2/g16/l301.exe)
 Standard basis: 6-311G(2d,d,p) (5D, 7F)
 Ernie: Thresh=  0.10000D-02 Tol=  0.10000D-05 Strict=F.
    60 basis functions,    96 primitive gaussians,    62 cartesian basis functions
     9 alpha electrons        9 beta electrons
       nuclear repulsion energy        40.2449381986 Hartrees.
 IExCor=  402 DFT=T Ex+Corr=B3LYP ExCW=0 ScaHFX=  0.200000
 ScaDFX=  0.800000  0.720000  1.000000  0.810000 ScalE2=  1.000000  1.000000
 IRadAn=      5 IRanWt=     -1 IRanGd=            0 ICorTp=0 IEmpDi=  4
 NAtoms=    6 NActive=    6 NUniq=    6 SFac= 1.00D+00 NAtFMM=   60 NAOKFM=F Big=F
 Integral buffers will be    131072 words long.
 Raffenetti 2 integral format.
 Two-electron integral symmetry is turned off.
 Leave Link  301 at Mon Aug 17 22:12:14 2020, MaxMem=  4831838208 cpu:               0.4 elap:               0.1
 (Enter /gpfs/apps/medsci/stacks/noOS/software/gaussian/g16.a03.avx2/g16/l302.exe)
 NPDir=0 NMtPBC=     1 NCelOv=     1 NCel=       1 NClECP=     1 NCelD=      1
         NCelK=      1 NCelE2=     1 NClLst=     1 CellRange=     0.0.
 One-electron integrals computed using PRISM.
 NBasis=    60 RedAO= T EigKep=  9.02D-03  NBF=    60
 NBsUse=    60 1.00D-06 EigRej= -1.00D+00 NBFU=    60
 Precomputing XC quadrature grid using
 IXCGrd= 4 IRadAn=           5 IRanWt=          -1 IRanGd=           0 AccXCQ= 1.00D-12.
 Generated NRdTot=       0 NPtTot=           0 NUsed=           0 NTot=          32
 NSgBfM=    62    62    62    62    62 MxSgAt=     6 MxSgA2=     6.
 Leave Link  302 at Mon Aug 17 22:12:14 2020, MaxMem=  4831838208 cpu:               0.7 elap:               0.1
 (Enter /gpfs/apps/medsci/stacks/noOS/software/gaussian/g16.a03.avx2/g16/l303.exe)
 DipDrv:  MaxL=1.
 Leave Link  303 at Mon Aug 17 22:12:14 2020, MaxMem=  4831838208 cpu:               0.1 elap:               0.0
 (Enter /gpfs/apps/medsci/stacks/noOS/software/gaussian/g16.a03.avx2/g16/l401.exe)
 Initial guess from the checkpoint file:  "check.chk"
 B after Tr=    -0.000266    0.000190   -0.000009
         Rot=    1.000000    0.000001    0.000002   -0.000335 Ang=   0.04 deg.
 Guess basis will be translated and rotated to current coordinates.
 JPrj=2 DoOrth=T DoCkMO=T.
 Leave Link  401 at Mon Aug 17 22:12:14 2020, MaxMem=  4831838208 cpu:               0.6 elap:               0.1
 (Enter /gpfs/apps/medsci/stacks/noOS/software/gaussian/g16.a03.avx2/g16/l502.exe)
 Keep R1 ints in memory in canonical form, NReq=8746853.
 FoFCou: FMM=F IPFlag=           0 FMFlag=           0 FMFlg1=           0
         NFxFlg=           0 DoJE=F BraDBF=F KetDBF=F FulRan=T
         wScrn=  0.000000 ICntrl=       600 IOpCl=  0 I1Cent=           0 NGrid=           0
         NMat0=    1 NMatS0=   1830 NMatT0=    0 NMatD0=    1 NMtDS0=    0 NMtDT0=    0
 Symmetry not used in FoFCou.
 Two-electron integral symmetry not used.
 Closed shell SCF:
 Using DIIS extrapolation, IDIIS=  1040.
 NGot=  4831838208 LenX=  4830153991 LenY=  4830149706
 Requested convergence on RMS density matrix=1.00D-08 within 128 cycles.
 Requested convergence on MAX density matrix=1.00D-06.
 Requested convergence on             energy=1.00D-06.
 No special actions if energy rises.

 Cycle   1  Pass 1  IDiag  1:
 E= -115.757392099338    
 DIIS: error= 9.70D-05 at cycle   1 NSaved=   1.
 NSaved= 1 IEnMin= 1 EnMin= -115.757392099338     IErMin= 1 ErrMin= 9.70D-05
 ErrMax= 9.70D-05  0.00D+00 EMaxC= 1.00D-01 BMatC= 1.00D-06 BMatP= 1.00D-06
 IDIUse=1 WtCom= 1.00D+00 WtEn= 0.00D+00
 Coeff-Com:  0.100D+01
 Coeff:      0.100D+01
 Gap=     0.613 Goal=   None    Shift=    0.000
 RMSDP=1.81D-05 MaxDP=1.75D-04              OVMax= 4.44D-04

 Cycle   2  Pass 1  IDiag  1:
 E= -115.757393272011     Delta-E=       -0.000001172673 Rises=F Damp=F
 DIIS: error= 2.70D-05 at cycle   2 NSaved=   2.
 NSaved= 2 IEnMin= 2 EnMin= -115.757393272011     IErMin= 2 ErrMin= 2.70D-05
 ErrMax= 2.70D-05  0.00D+00 EMaxC= 1.00D-01 BMatC= 3.24D-08 BMatP= 1.00D-06
 IDIUse=1 WtCom= 1.00D+00 WtEn= 0.00D+00
 Coeff-Com:  0.100D-01 0.990D+00
 Coeff:      0.100D-01 0.990D+00
 Gap=     0.309 Goal=   None    Shift=    0.000
 RMSDP=4.09D-06 MaxDP=8.24D-05 DE=-1.17D-06 OVMax= 9.94D-05

 Cycle   3  Pass 1  IDiag  1:
 E= -115.757393274168     Delta-E=       -0.000000002157 Rises=F Damp=F
 DIIS: error= 3.14D-05 at cycle   3 NSaved=   3.
 NSaved= 3 IEnMin= 3 EnMin= -115.757393274168     IErMin= 2 ErrMin= 2.70D-05
 ErrMax= 3.14D-05  0.00D+00 EMaxC= 1.00D-01 BMatC= 3.43D-08 BMatP= 3.24D-08
 IDIUse=1 WtCom= 1.00D+00 WtEn= 0.00D+00
 Coeff-Com: -0.224D-01 0.519D+00 0.504D+00
 Coeff:     -0.224D-01 0.519D+00 0.504D+00
 Gap=     0.309 Goal=   None    Shift=    0.000
 RMSDP=2.01D-06 MaxDP=4.35D-05 DE=-2.16D-09 OVMax= 5.16D-05

 Cycle   4  Pass 1  IDiag  1:
 E= -115.757393306227     Delta-E=       -0.000000032059 Rises=F Damp=F
 DIIS: error= 2.15D-06 at cycle   4 NSaved=   4.
 NSaved= 4 IEnMin= 4 EnMin= -115.757393306227     IErMin= 4 ErrMin= 2.15D-06
 ErrMax= 2.15D-06  0.00D+00 EMaxC= 1.00D-01 BMatC= 1.49D-10 BMatP= 3.24D-08
 IDIUse=1 WtCom= 1.00D+00 WtEn= 0.00D+00
 Coeff-Com: -0.495D-02 0.621D-01 0.957D-01 0.847D+00
 Coeff:     -0.495D-02 0.621D-01 0.957D-01 0.847D+00
 Gap=     0.309 Goal=   None    Shift=    0.000
 RMSDP=1.60D-07 MaxDP=2.05D-06 DE=-3.21D-08 OVMax= 4.74D-06

 Cycle   5  Pass 1  IDiag  1:
 E= -115.757393306349     Delta-E=       -0.000000000122 Rises=F Damp=F
 DIIS: error= 6.58D-07 at cycle   5 NSaved=   5.
 NSaved= 5 IEnMin= 5 EnMin= -115.757393306349     IErMin= 5 ErrMin= 6.58D-07
 ErrMax= 6.58D-07  0.00D+00 EMaxC= 1.00D-01 BMatC= 2.14D-11 BMatP= 1.49D-10
 IDIUse=1 WtCom= 1.00D+00 WtEn= 0.00D+00
 Coeff-Com: -0.978D-03 0.205D-02 0.162D-01 0.317D+00 0.666D+00
 Coeff:     -0.978D-03 0.205D-02 0.162D-01 0.317D+00 0.666D+00
 Gap=     0.309 Goal=   None    Shift=    0.000
 RMSDP=5.63D-08 MaxDP=1.06D-06 DE=-1.22D-10 OVMax= 1.25D-06

 Cycle   6  Pass 1  IDiag  1:
 E= -115.757393306361     Delta-E=       -0.000000000011 Rises=F Damp=F
 DIIS: error= 3.59D-07 at cycle   6 NSaved=   6.
 NSaved= 6 IEnMin= 6 EnMin= -115.757393306361     IErMin= 6 ErrMin= 3.59D-07
 ErrMax= 3.59D-07  0.00D+00 EMaxC= 1.00D-01 BMatC= 6.60D-12 BMatP= 2.14D-11
 IDIUse=1 WtCom= 1.00D+00 WtEn= 0.00D+00
 Coeff-Com:  0.474D-04-0.585D-02-0.111D-02 0.863D-01 0.387D+00 0.533D+00
 Coeff:      0.474D-04-0.585D-02-0.111D-02 0.863D-01 0.387D+00 0.533D+00
 Gap=     0.309 Goal=   None    Shift=    0.000
 RMSDP=2.46D-08 MaxDP=4.04D-07 DE=-1.15D-11 OVMax= 5.84D-07

 Cycle   7  Pass 1  IDiag  1:
 E= -115.757393306365     Delta-E=       -0.000000000004 Rises=F Damp=F
 DIIS: error= 4.39D-08 at cycle   7 NSaved=   7.
 NSaved= 7 IEnMin= 7 EnMin= -115.757393306365     IErMin= 7 ErrMin= 4.39D-08
 ErrMax= 4.39D-08  0.00D+00 EMaxC= 1.00D-01 BMatC= 6.96D-14 BMatP= 6.60D-12
 IDIUse=1 WtCom= 1.00D+00 WtEn= 0.00D+00
 Coeff-Com:  0.591D-04-0.169D-02-0.858D-03 0.989D-02 0.728D-01 0.160D+00
 Coeff-Com:  0.760D+00
 Coeff:      0.591D-04-0.169D-02-0.858D-03 0.989D-02 0.728D-01 0.160D+00
 Coeff:      0.760D+00
 Gap=     0.309 Goal=   None    Shift=    0.000
 RMSDP=3.31D-09 MaxDP=4.89D-08 DE=-4.35D-12 OVMax= 7.99D-08

 SCF Done:  E(RB3LYP) =  -115.757393306     A.U. after    7 cycles
            NFock=  7  Conv=0.33D-08     -V/T= 2.0032
 KE= 1.153917256526D+02 PE=-3.523834242144D+02 EE= 8.098936705682D+01
 Leave Link  502 at Mon Aug 17 22:12:15 2020, MaxMem=  4831838208 cpu:               4.2 elap:               0.6
 (Enter /gpfs/apps/medsci/stacks/noOS/software/gaussian/g16.a03.avx2/g16/l701.exe)
 ... and contract with generalized density number  0.
 Compute integral first derivatives.
 Leave Link  701 at Mon Aug 17 22:12:15 2020, MaxMem=  4831838208 cpu:               1.3 elap:               0.2
 (Enter /gpfs/apps/medsci/stacks/noOS/software/gaussian/g16.a03.avx2/g16/l702.exe)
 L702 exits ... SP integral derivatives will be done elsewhere.
 Leave Link  702 at Mon Aug 17 22:12:15 2020, MaxMem=  4831838208 cpu:               0.1 elap:               0.0
 (Enter /gpfs/apps/medsci/stacks/noOS/software/gaussian/g16.a03.avx2/g16/l703.exe)
 Integral derivatives from FoFJK, PRISM(SPDF).
 Compute integral first derivatives, UseDBF=F ICtDFT=           0.
 Calling FoFJK, ICntrl=      2127 FMM=F ISym2X=0 I1Cent= 0 IOpClX= 0 NMat=1 NMatS=1 NMatT=0.
 FoFJK:  IHMeth= 1 ICntrl=    2127 DoSepK=F KAlg= 0 I1Cent=           0 FoldK=F
 IRaf=         0 NMat=       1 IRICut=       1 DoRegI=T DoRafI=F ISym2E= 0 IDoP0=0 IntGTp=1.
 FoFCou: FMM=F IPFlag=           0 FMFlag=      100000 FMFlg1=         800
         NFxFlg=           0 DoJE=F BraDBF=F KetDBF=F FulRan=T
         wScrn=  0.000000 ICntrl=      2127 IOpCl=  0 I1Cent=           0 NGrid=           0
         NMat0=    1 NMatS0=      1 NMatT0=    0 NMatD0=    1 NMtDS0=    0 NMtDT0=    0
 Symmetry not used in FoFCou.
 Leave Link  703 at Mon Aug 17 22:12:16 2020, MaxMem=  4831838208 cpu:               2.3 elap:               0.3
 (Enter /gpfs/apps/medsci/stacks/noOS/software/gaussian/g16.a03.avx2/g16/l716.exe)
 Dipole        = 3.12272703D-01-5.97515251D-01 3.13751613D-05
 -------------------------------------------------------------------
 Center     Atomic                   Forces (Hartrees/Bohr)
 Number     Number              X              Y              Z
 -------------------------------------------------------------------
      1        6          -0.000127291   -0.000067115    0.000000227
      2        8           0.000187316    0.000056644   -0.000000843
      3        1           0.000003889    0.000026301   -0.000031124
      4        1          -0.000107337   -0.000057363    0.000000229
      5        1           0.000003891    0.000026590    0.000030859
      6        1           0.000039533    0.000014943    0.000000651
 -------------------------------------------------------------------
 Cartesian Forces:  Max     0.000187316 RMS     0.000066229
 Leave Link  716 at Mon Aug 17 22:12:16 2020, MaxMem=  4831838208 cpu:               0.2 elap:               0.0
 (Enter /gpfs/apps/medsci/stacks/noOS/software/gaussian/g16.a03.avx2/g16/l103.exe)

 GradGradGradGradGradGradGradGradGradGradGradGradGradGradGradGradGradGrad
 Berny optimization.
 Using GEDIIS/GDIIS optimizer.
 FormGI is forming the generalized inverse of G from B-inverse, IUseBI=4.
 Internal  Forces:  Max     0.000218034 RMS     0.000076722
 Search for a local minimum.
 Step number   3 out of a maximum of   25
 All quantities printed in internal units (Hartrees-Bohrs-Radians)
 RMS Force = .76722D-04 SwitMx=.10000D-02 MixMth= 2
 Mixed Optimization -- En-DIIS/RFO-DIIS
 Swapping is turned off.
 Update second derivatives using D2CorX and points    1    2    3
 DE= -2.30D-06 DEPred=-2.80D-06 R= 8.22D-01
 TightC=F SS=  1.41D+00  RLast= 6.02D-03 DXNew= 5.0454D-01 1.8074D-02
 Trust test= 8.22D-01 RLast= 6.02D-03 DXMaxT set to 3.00D-01
 The second derivative matrix:
                          R1        R2        R3        R4        R5
           R1           0.43094
           R2           0.00849   0.33745
           R3           0.00934  -0.00238   0.35303
           R4           0.00849  -0.00654  -0.00239   0.33745
           R5           0.01062  -0.00576   0.00092  -0.00577   0.55266
           A1          -0.00768   0.00061  -0.00318   0.00062  -0.00214
           A2           0.02169  -0.00497   0.00538  -0.00498   0.00083
           A3          -0.00769   0.00062  -0.00318   0.00062  -0.00214
           A4           0.00072   0.00045  -0.00175   0.00046  -0.00454
           A5          -0.00636   0.00306   0.00476   0.00306   0.01198
           A6           0.00072   0.00044  -0.00176   0.00044  -0.00454
           A7           0.00394   0.00298   0.00631   0.00298   0.00854
           D1          -0.00084  -0.00037   0.00583  -0.00038   0.01320
           D2           0.00001  -0.00002  -0.00002  -0.00002  -0.00003
           D3           0.00085   0.00032  -0.00588   0.00032  -0.01325
                          A1        A2        A3        A4        A5
           A1           0.16114
           A2          -0.00242   0.16317
           A3           0.00114  -0.00241   0.16113
           A4           0.00569  -0.01038   0.00570   0.15858
           A5          -0.01037   0.02113  -0.01039   0.00103   0.15861
           A6           0.00569  -0.01039   0.00569  -0.00142   0.00103
           A7          -0.00529   0.01252  -0.00529  -0.00556   0.00870
           D1          -0.01391   0.02585  -0.01392  -0.00041   0.00398
           D2           0.00002  -0.00005   0.00002  -0.00000   0.00001
           D3           0.01394  -0.02595   0.01395   0.00041  -0.00394
                          A6        A7        D1        D2        D3
           A6           0.15858
           A7          -0.00556   0.16764
           D1          -0.00041   0.01548   0.02473
           D2          -0.00000  -0.00001  -0.00000   0.01445
           D3           0.00041  -0.01548  -0.01027   0.00000   0.02472
 ITU=  1  1  0
     Eigenvalues ---    0.01445   0.10361   0.10495   0.15535   0.16000
     Eigenvalues ---    0.16010   0.20345   0.32885   0.34398   0.35353
     Eigenvalues ---    0.43453   0.55446
 En-DIIS/RFO-DIIS/Sim-DIIS IScMMF=       -3 using points:     3    2
 RFO step:  Lambda=-2.67318064D-07.
 NNeg= 0 NGDIIS= 2 SimSw=  2.50D-03 Rises=F DC= -2.30D-06 SmlDif=  1.00D-05
 NRisDI= 0 DoIntr=F SqrtH=F CThrHd= 10.0 CDAdj=  3.0
 RMS Error=  0.2567980521D-03 NUsed= 2 OKEnD=F EnDIS=F
 InvSVX:  RCond= 4.08D-05 Info=           0 Equed=N FErr=  1.02D-15 BErr=  2.40D-17
 DidBck=F Rises=F RFO-DIIS coefs:    0.86176    0.13824
 Iteration  1 RMS(Cart)=  0.00033197 RMS(Int)=  0.00000023
 Iteration  2 RMS(Cart)=  0.00000005 RMS(Int)=  0.00000023
 ITry= 1 IFail=0 DXMaxC= 9.35D-04 DCOld= 1.00D+10 DXMaxT= 3.00D-01 DXLimC= 3.00D+00 Rises=F
 Variable       Old X    -DE/DX   Delta X   Delta X   Delta X     New X
                                 (Linear)    (Quad)   (Total)
    R1        2.68553  -0.00022   0.00003  -0.00048  -0.00045   2.68508
    R2        2.07617  -0.00004  -0.00009  -0.00003  -0.00011   2.07606
    R3        2.06171  -0.00009  -0.00009  -0.00014  -0.00023   2.06148
    R4        2.07617  -0.00004  -0.00009  -0.00003  -0.00011   2.07606
    R5        1.81632  -0.00003  -0.00009   0.00006  -0.00003   1.81629
    A1        1.96430   0.00004   0.00024  -0.00005   0.00019   1.96449
    A2        1.86629  -0.00013  -0.00059  -0.00008  -0.00068   1.86562
    A3        1.96431   0.00004   0.00024  -0.00005   0.00019   1.96450
    A4        1.88526   0.00002  -0.00003   0.00010   0.00007   1.88534
    A5        1.89514   0.00000   0.00013  -0.00000   0.00013   1.89527
    A6        1.88526   0.00002  -0.00003   0.00010   0.00007   1.88533
    A7        1.88196  -0.00005  -0.00015  -0.00005  -0.00020   1.88176
    D1       -1.07430  -0.00003  -0.00028   0.00007  -0.00021  -1.07451
    D2        3.14147   0.00000  -0.00000   0.00003   0.00002   3.14149
    D3        1.07405   0.00003   0.00027  -0.00001   0.00025   1.07431
         Item               Value     Threshold  Converged?
 Maximum Force            0.000218     0.000015     NO 
 RMS     Force            0.000077     0.000010     NO 
 Maximum Displacement     0.000935     0.000060     NO 
 RMS     Displacement     0.000332     0.000040     NO 
 Predicted change in Energy=-1.336590D-07
 Lowest energy point so far.  Saving SCF results.
 GradGradGradGradGradGradGradGradGradGradGradGradGradGradGradGradGradGrad

 Leave Link  103 at Mon Aug 17 22:12:16 2020, MaxMem=  4831838208 cpu:               0.1 elap:               0.0
 (Enter /gpfs/apps/medsci/stacks/noOS/software/gaussian/g16.a03.avx2/g16/l202.exe)
                          Input orientation:                          
 ---------------------------------------------------------------------
 Center     Atomic      Atomic             Coordinates (Angstroms)
 Number     Number       Type             X           Y           Z
 ---------------------------------------------------------------------
      1          6           0        0.659609   -0.021376   -0.000007
      2          8           0       -0.753483    0.127197   -0.000029
      3          1           0        1.028209   -0.545814    0.892196
      4          1           0        1.083993    0.983579   -0.000194
      5          1           0        1.028204   -0.546142   -0.892020
      6          1           0       -1.141637   -0.752080    0.000042
 ---------------------------------------------------------------------
                    Distance matrix (angstroms):
                    1          2          3          4          5
     1  C    0.000000
     2  O    1.420881   0.000000
     3  H    1.098603   2.103197   0.000000
     4  H    1.090887   2.027241   1.771585   0.000000
     5  H    1.098603   2.103198   1.784216   1.771584   0.000000
     6  H    1.943815   0.961141   2.355147   2.822399   2.355078
                    6
     6  H    0.000000
 Symmetry turned off by external request.
 Stoichiometry    CH4O
 Framework group  C1[X(CH4O)]
 Deg. of freedom    12
 Full point group                 C1      NOp   1
 Rotational constants (GHZ):         128.0675392          24.7293359          23.8676004
 Leave Link  202 at Mon Aug 17 22:12:16 2020, MaxMem=  4831838208 cpu:               0.1 elap:               0.0
 (Enter /gpfs/apps/medsci/stacks/noOS/software/gaussian/g16.a03.avx2/g16/l301.exe)
 Standard basis: 6-311G(2d,d,p) (5D, 7F)
 Ernie: Thresh=  0.10000D-02 Tol=  0.10000D-05 Strict=F.
    60 basis functions,    96 primitive gaussians,    62 cartesian basis functions
     9 alpha electrons        9 beta electrons
       nuclear repulsion energy        40.2501380510 Hartrees.
 IExCor=  402 DFT=T Ex+Corr=B3LYP ExCW=0 ScaHFX=  0.200000
 ScaDFX=  0.800000  0.720000  1.000000  0.810000 ScalE2=  1.000000  1.000000
 IRadAn=      5 IRanWt=     -1 IRanGd=            0 ICorTp=0 IEmpDi=  4
 NAtoms=    6 NActive=    6 NUniq=    6 SFac= 1.00D+00 NAtFMM=   60 NAOKFM=F Big=F
 Integral buffers will be    131072 words long.
 Raffenetti 2 integral format.
 Two-electron integral symmetry is turned off.
 Leave Link  301 at Mon Aug 17 22:12:16 2020, MaxMem=  4831838208 cpu:               0.4 elap:               0.1
 (Enter /gpfs/apps/medsci/stacks/noOS/software/gaussian/g16.a03.avx2/g16/l302.exe)
 NPDir=0 NMtPBC=     1 NCelOv=     1 NCel=       1 NClECP=     1 NCelD=      1
         NCelK=      1 NCelE2=     1 NClLst=     1 CellRange=     0.0.
 One-electron integrals computed using PRISM.
 NBasis=    60 RedAO= T EigKep=  9.01D-03  NBF=    60
 NBsUse=    60 1.00D-06 EigRej= -1.00D+00 NBFU=    60
 Precomputing XC quadrature grid using
 IXCGrd= 4 IRadAn=           5 IRanWt=          -1 IRanGd=           0 AccXCQ= 1.00D-12.
 Generated NRdTot=       0 NPtTot=           0 NUsed=           0 NTot=          32
 NSgBfM=    62    62    62    62    62 MxSgAt=     6 MxSgA2=     6.
 Leave Link  302 at Mon Aug 17 22:12:16 2020, MaxMem=  4831838208 cpu:               0.7 elap:               0.1
 (Enter /gpfs/apps/medsci/stacks/noOS/software/gaussian/g16.a03.avx2/g16/l303.exe)
 DipDrv:  MaxL=1.
 Leave Link  303 at Mon Aug 17 22:12:16 2020, MaxMem=  4831838208 cpu:               0.2 elap:               0.0
 (Enter /gpfs/apps/medsci/stacks/noOS/software/gaussian/g16.a03.avx2/g16/l401.exe)
 Initial guess from the checkpoint file:  "check.chk"
 B after Tr=     0.000168    0.000018   -0.000006
         Rot=    1.000000    0.000001    0.000001    0.000059 Ang=   0.01 deg.
 Guess basis will be translated and rotated to current coordinates.
 JPrj=2 DoOrth=T DoCkMO=T.
 Leave Link  401 at Mon Aug 17 22:12:16 2020, MaxMem=  4831838208 cpu:               0.6 elap:               0.1
 (Enter /gpfs/apps/medsci/stacks/noOS/software/gaussian/g16.a03.avx2/g16/l502.exe)
 Keep R1 ints in memory in canonical form, NReq=8746853.
 FoFCou: FMM=F IPFlag=           0 FMFlag=           0 FMFlg1=           0
         NFxFlg=           0 DoJE=F BraDBF=F KetDBF=F FulRan=T
         wScrn=  0.000000 ICntrl=       600 IOpCl=  0 I1Cent=           0 NGrid=           0
         NMat0=    1 NMatS0=   1830 NMatT0=    0 NMatD0=    1 NMtDS0=    0 NMtDT0=    0
 Symmetry not used in FoFCou.
 Two-electron integral symmetry not used.
 Closed shell SCF:
 Using DIIS extrapolation, IDIIS=  1040.
 NGot=  4831838208 LenX=  4830153991 LenY=  4830149706
 Requested convergence on RMS density matrix=1.00D-08 within 128 cycles.
 Requested convergence on MAX density matrix=1.00D-06.
 Requested convergence on             energy=1.00D-06.
 No special actions if energy rises.

 Cycle   1  Pass 1  IDiag  1:
 E= -115.757393401060    
 DIIS: error= 2.45D-05 at cycle   1 NSaved=   1.
 NSaved= 1 IEnMin= 1 EnMin= -115.757393401060     IErMin= 1 ErrMin= 2.45D-05
 ErrMax= 2.45D-05  0.00D+00 EMaxC= 1.00D-01 BMatC= 3.91D-08 BMatP= 3.91D-08
 IDIUse=1 WtCom= 1.00D+00 WtEn= 0.00D+00
 Coeff-Com:  0.100D+01
 Coeff:      0.100D+01
 Gap=     0.613 Goal=   None    Shift=    0.000
 RMSDP=3.26D-06 MaxDP=2.59D-05              OVMax= 6.78D-05

 Cycle   2  Pass 1  IDiag  1:
 E= -115.757393440142     Delta-E=       -0.000000039082 Rises=F Damp=F
 DIIS: error= 1.05D-05 at cycle   2 NSaved=   2.
 NSaved= 2 IEnMin= 2 EnMin= -115.757393440142     IErMin= 2 ErrMin= 1.05D-05
 ErrMax= 1.05D-05  0.00D+00 EMaxC= 1.00D-01 BMatC= 4.23D-09 BMatP= 3.91D-08
 IDIUse=1 WtCom= 1.00D+00 WtEn= 0.00D+00
 Coeff-Com:  0.145D+00 0.855D+00
 Coeff:      0.145D+00 0.855D+00
 Gap=     0.309 Goal=   None    Shift=    0.000
 RMSDP=1.23D-06 MaxDP=2.68D-05 DE=-3.91D-08 OVMax= 2.99D-05

 Cycle   3  Pass 1  IDiag  1:
 E= -115.757393441412     Delta-E=       -0.000000001270 Rises=F Damp=F
 DIIS: error= 9.44D-06 at cycle   3 NSaved=   3.
 NSaved= 3 IEnMin= 3 EnMin= -115.757393441412     IErMin= 3 ErrMin= 9.44D-06
 ErrMax= 9.44D-06  0.00D+00 EMaxC= 1.00D-01 BMatC= 2.80D-09 BMatP= 4.23D-09
 IDIUse=1 WtCom= 1.00D+00 WtEn= 0.00D+00
 Coeff-Com: -0.156D-01 0.447D+00 0.569D+00
 Coeff:     -0.156D-01 0.447D+00 0.569D+00
 Gap=     0.309 Goal=   None    Shift=    0.000
 RMSDP=5.54D-07 MaxDP=1.24D-05 DE=-1.27D-09 OVMax= 1.47D-05

 Cycle   4  Pass 1  IDiag  1:
 E= -115.757393444001     Delta-E=       -0.000000002589 Rises=F Damp=F
 DIIS: error= 3.92D-07 at cycle   4 NSaved=   4.
 NSaved= 4 IEnMin= 4 EnMin= -115.757393444001     IErMin= 4 ErrMin= 3.92D-07
 ErrMax= 3.92D-07  0.00D+00 EMaxC= 1.00D-01 BMatC= 7.71D-12 BMatP= 2.80D-09
 IDIUse=1 WtCom= 1.00D+00 WtEn= 0.00D+00
 Coeff-Com: -0.489D-02 0.728D-01 0.119D+00 0.813D+00
 Coeff:     -0.489D-02 0.728D-01 0.119D+00 0.813D+00
 Gap=     0.309 Goal=   None    Shift=    0.000
 RMSDP=4.01D-08 MaxDP=6.55D-07 DE=-2.59D-09 OVMax= 8.76D-07

 Cycle   5  Pass 1  IDiag  1:
 E= -115.757393444008     Delta-E=       -0.000000000007 Rises=F Damp=F
 DIIS: error= 4.99D-08 at cycle   5 NSaved=   5.
 NSaved= 5 IEnMin= 5 EnMin= -115.757393444008     IErMin= 5 ErrMin= 4.99D-08
 ErrMax= 4.99D-08  0.00D+00 EMaxC= 1.00D-01 BMatC= 2.02D-13 BMatP= 7.71D-12
 IDIUse=1 WtCom= 1.00D+00 WtEn= 0.00D+00
 Coeff-Com: -0.431D-03-0.134D-02 0.300D-02 0.151D+00 0.848D+00
 Coeff:     -0.431D-03-0.134D-02 0.300D-02 0.151D+00 0.848D+00
 Gap=     0.309 Goal=   None    Shift=    0.000
 RMSDP=6.41D-09 MaxDP=6.29D-08 DE=-6.93D-12 OVMax= 1.44D-07

 SCF Done:  E(RB3LYP) =  -115.757393444     A.U. after    5 cycles
            NFock=  5  Conv=0.64D-08     -V/T= 2.0032
 KE= 1.153925998818D+02 PE=-3.523942632721D+02 EE= 8.099413189525D+01
 Leave Link  502 at Mon Aug 17 22:12:16 2020, MaxMem=  4831838208 cpu:               3.2 elap:               0.4
 (Enter /gpfs/apps/medsci/stacks/noOS/software/gaussian/g16.a03.avx2/g16/l701.exe)
 ... and contract with generalized density number  0.
 Compute integral first derivatives.
 Leave Link  701 at Mon Aug 17 22:12:17 2020, MaxMem=  4831838208 cpu:               1.3 elap:               0.2
 (Enter /gpfs/apps/medsci/stacks/noOS/software/gaussian/g16.a03.avx2/g16/l702.exe)
 L702 exits ... SP integral derivatives will be done elsewhere.
 Leave Link  702 at Mon Aug 17 22:12:17 2020, MaxMem=  4831838208 cpu:               0.1 elap:               0.0
 (Enter /gpfs/apps/medsci/stacks/noOS/software/gaussian/g16.a03.avx2/g16/l703.exe)
 Integral derivatives from FoFJK, PRISM(SPDF).
 Compute integral first derivatives, UseDBF=F ICtDFT=           0.
 Calling FoFJK, ICntrl=      2127 FMM=F ISym2X=0 I1Cent= 0 IOpClX= 0 NMat=1 NMatS=1 NMatT=0.
 FoFJK:  IHMeth= 1 ICntrl=    2127 DoSepK=F KAlg= 0 I1Cent=           0 FoldK=F
 IRaf=         0 NMat=       1 IRICut=       1 DoRegI=T DoRafI=F ISym2E= 0 IDoP0=0 IntGTp=1.
 FoFCou: FMM=F IPFlag=           0 FMFlag=      100000 FMFlg1=         800
         NFxFlg=           0 DoJE=F BraDBF=F KetDBF=F FulRan=T
         wScrn=  0.000000 ICntrl=      2127 IOpCl=  0 I1Cent=           0 NGrid=           0
         NMat0=    1 NMatS0=      1 NMatT0=    0 NMatD0=    1 NMtDS0=    0 NMtDT0=    0
 Symmetry not used in FoFCou.
 Leave Link  703 at Mon Aug 17 22:12:17 2020, MaxMem=  4831838208 cpu:               2.3 elap:               0.3
 (Enter /gpfs/apps/medsci/stacks/noOS/software/gaussian/g16.a03.avx2/g16/l716.exe)
 Dipole        = 3.11899577D-01-5.97532322D-01 4.52741727D-05
 -------------------------------------------------------------------
 Center     Atomic                   Forces (Hartrees/Bohr)
 Number     Number              X              Y              Z
 -------------------------------------------------------------------
      1        6          -0.000060472    0.000014746    0.000000174
      2        8           0.000036477   -0.000016314   -0.000000674
      3        1           0.000014233   -0.000001183   -0.000001322
      4        1           0.000005485   -0.000004982    0.000000180
      5        1           0.000014247   -0.000000959    0.000001107
      6        1          -0.000009970    0.000008694    0.000000534
 -------------------------------------------------------------------
 Cartesian Forces:  Max     0.000060472 RMS     0.000018428
 Leave Link  716 at Mon Aug 17 22:12:17 2020, MaxMem=  4831838208 cpu:               0.2 elap:               0.0
 (Enter /gpfs/apps/medsci/stacks/noOS/software/gaussian/g16.a03.avx2/g16/l103.exe)

 GradGradGradGradGradGradGradGradGradGradGradGradGradGradGradGradGradGrad
 Berny optimization.
 Using GEDIIS/GDIIS optimizer.
 FormGI is forming the generalized inverse of G from B-inverse, IUseBI=4.
 Internal  Forces:  Max     0.000027049 RMS     0.000012206
 Search for a local minimum.
 Step number   4 out of a maximum of   25
 All quantities printed in internal units (Hartrees-Bohrs-Radians)
 RMS Force = .12206D-04 SwitMx=.10000D-02 MixMth= 2
 Mixed Optimization -- En-DIIS/RFO-DIIS
 Swapping is turned off.
 Update second derivatives using D2CorX and points    1    2    3    4
 DE= -1.38D-07 DEPred=-1.34D-07 R= 1.03D+00
 Trust test= 1.03D+00 RLast= 9.95D-04 DXMaxT set to 3.00D-01
 The second derivative matrix:
                          R1        R2        R3        R4        R5
           R1           0.38802
           R2           0.01169   0.33760
           R3           0.00070  -0.00107   0.35222
           R4           0.01176  -0.00638  -0.00105   0.33760
           R5           0.00633  -0.00698  -0.00094  -0.00698   0.55203
           A1           0.00893   0.00256   0.00252   0.00255  -0.00136
           A2           0.01620  -0.00395   0.00616  -0.00393  -0.00106
           A3           0.00885   0.00256   0.00250   0.00256  -0.00135
           A4          -0.00710  -0.00257  -0.00609  -0.00257  -0.00459
           A5          -0.02041   0.00371   0.00042   0.00372   0.01229
           A6          -0.00706  -0.00257  -0.00608  -0.00258  -0.00459
           A7           0.01921   0.00769   0.01490   0.00771   0.00925
           D1          -0.00498   0.00254   0.00627   0.00254   0.01332
           D2           0.00032   0.00001   0.00009   0.00001  -0.00002
           D3           0.00560  -0.00254  -0.00609  -0.00254  -0.01334
                          A1        A2        A3        A4        A5
           A1           0.15894
           A2           0.00245   0.16925
           A3          -0.00105   0.00244   0.15896
           A4           0.00447  -0.01535   0.00448   0.16148
           A5          -0.00829   0.01446  -0.00831   0.00292   0.15736
           A6           0.00446  -0.01534   0.00447   0.00147   0.00293
           A7          -0.00525   0.02696  -0.00526  -0.00964   0.00217
           D1          -0.01113   0.02561  -0.01115  -0.00173   0.00105
           D2          -0.00003   0.00008  -0.00003  -0.00002   0.00003
[...]
         wScrn=  0.000000 ICntrl=       600 IOpCl=  0 I1Cent=           0 NGrid=           0
         NMat0=    1 NMatS0=   5886 NMatT0=    0 NMatD0=    1 NMtDS0=    0 NMtDT0=    0
 Symmetry not used in FoFCou.
 Two-electron integral symmetry not used.
 Closed shell SCF:
 Using DIIS extrapolation, IDIIS=  1040.
 NGot=  4831838208 LenX=  4814483027 LenY=  4814468662
 Requested convergence on RMS density matrix=1.00D-08 within 128 cycles.
 Requested convergence on MAX density matrix=1.00D-06.
 Requested convergence on             energy=1.00D-06.
 No special actions if energy rises.

 Cycle   1  Pass 1  IDiag  1:
 E= -115.079114915225    
 DIIS: error= 1.13D-02 at cycle   1 NSaved=   1.
 NSaved= 1 IEnMin= 1 EnMin= -115.079114915225     IErMin= 1 ErrMin= 1.13D-02
 ErrMax= 1.13D-02  0.00D+00 EMaxC= 1.00D-01 BMatC= 2.12D-02 BMatP= 2.12D-02
 IDIUse=3 WtCom= 8.87D-01 WtEn= 1.13D-01
 Coeff-Com:  0.100D+01
 Coeff-En:   0.100D+01
 Coeff:      0.100D+01
 Gap=     0.690 Goal=   None    Shift=    0.000
 GapD=    0.690 DampG=2.000 DampE=0.500 DampFc=1.0000 IDamp=-1.
 RMSDP=1.61D-03 MaxDP=4.19D-02              OVMax= 1.45D-02

 Cycle   2  Pass 1  IDiag  1:
 E= -115.086619849677     Delta-E=       -0.007504934452 Rises=F Damp=F
 DIIS: error= 7.97D-04 at cycle   2 NSaved=   2.
 NSaved= 2 IEnMin= 2 EnMin= -115.086619849677     IErMin= 2 ErrMin= 7.97D-04
 ErrMax= 7.97D-04  0.00D+00 EMaxC= 1.00D-01 BMatC= 1.46D-04 BMatP= 2.12D-02
 IDIUse=3 WtCom= 9.92D-01 WtEn= 7.97D-03
 Coeff-Com: -0.627D-01 0.106D+01
 Coeff-En:   0.000D+00 0.100D+01
 Coeff:     -0.622D-01 0.106D+01
 Gap=     0.491 Goal=   None    Shift=    0.000
 RMSDP=2.05D-04 MaxDP=5.96D-03 DE=-7.50D-03 OVMax= 2.69D-03

 Cycle   3  Pass 1  IDiag  1:
 E= -115.086725040039     Delta-E=       -0.000105190362 Rises=F Damp=F
 DIIS: error= 3.67D-04 at cycle   3 NSaved=   3.
 NSaved= 3 IEnMin= 3 EnMin= -115.086725040039     IErMin= 3 ErrMin= 3.67D-04
 ErrMax= 3.67D-04  0.00D+00 EMaxC= 1.00D-01 BMatC= 6.22D-06 BMatP= 1.46D-04
 IDIUse=3 WtCom= 9.96D-01 WtEn= 3.67D-03
 Coeff-Com: -0.909D-02 0.103D+00 0.906D+00
 Coeff-En:   0.000D+00 0.000D+00 0.100D+01
 Coeff:     -0.906D-02 0.102D+00 0.907D+00
 Gap=     0.492 Goal=   None    Shift=    0.000
 RMSDP=2.34D-05 MaxDP=4.69D-04 DE=-1.05D-04 OVMax= 7.00D-04

 Cycle   4  Pass 1  IDiag  1:
 E= -115.086731080639     Delta-E=       -0.000006040600 Rises=F Damp=F
 DIIS: error= 7.44D-05 at cycle   4 NSaved=   4.
 NSaved= 4 IEnMin= 4 EnMin= -115.086731080639     IErMin= 4 ErrMin= 7.44D-05
 ErrMax= 7.44D-05  0.00D+00 EMaxC= 1.00D-01 BMatC= 5.32D-07 BMatP= 6.22D-06
 IDIUse=1 WtCom= 1.00D+00 WtEn= 0.00D+00
 Coeff-Com:  0.305D-02-0.583D-01 0.724D-01 0.983D+00
 Coeff:      0.305D-02-0.583D-01 0.724D-01 0.983D+00
 Gap=     0.492 Goal=   None    Shift=    0.000
 RMSDP=8.70D-06 MaxDP=2.05D-04 DE=-6.04D-06 OVMax= 3.52D-04

 Cycle   5  Pass 1  IDiag  1:
 E= -115.086731880944     Delta-E=       -0.000000800305 Rises=F Damp=F
 DIIS: error= 1.94D-05 at cycle   5 NSaved=   5.
 NSaved= 5 IEnMin= 5 EnMin= -115.086731880944     IErMin= 5 ErrMin= 1.94D-05
 ErrMax= 1.94D-05  0.00D+00 EMaxC= 1.00D-01 BMatC= 3.23D-08 BMatP= 5.32D-07
 IDIUse=1 WtCom= 1.00D+00 WtEn= 0.00D+00
 Coeff-Com:  0.185D-03-0.144D-02-0.497D-01-0.516D-01 0.110D+01
 Coeff:      0.185D-03-0.144D-02-0.497D-01-0.516D-01 0.110D+01
 Gap=     0.492 Goal=   None    Shift=    0.000
 RMSDP=2.62D-06 MaxDP=4.34D-05 DE=-8.00D-07 OVMax= 1.19D-04

 Cycle   6  Pass 1  IDiag  1:
 E= -115.086731947174     Delta-E=       -0.000000066229 Rises=F Damp=F
 DIIS: error= 9.04D-06 at cycle   6 NSaved=   6.
 NSaved= 6 IEnMin= 6 EnMin= -115.086731947174     IErMin= 6 ErrMin= 9.04D-06
 ErrMax= 9.04D-06  0.00D+00 EMaxC= 1.00D-01 BMatC= 3.52D-09 BMatP= 3.23D-08
 IDIUse=1 WtCom= 1.00D+00 WtEn= 0.00D+00
 Coeff-Com: -0.159D-03 0.356D-02-0.747D-02-0.758D-01 0.453D-01 0.103D+01
 Coeff:     -0.159D-03 0.356D-02-0.747D-02-0.758D-01 0.453D-01 0.103D+01
 Gap=     0.492 Goal=   None    Shift=    0.000
 RMSDP=7.97D-07 MaxDP=2.12D-05 DE=-6.62D-08 OVMax= 3.28D-05

 Cycle   7  Pass 1  IDiag  1:
 E= -115.086731953630     Delta-E=       -0.000000006456 Rises=F Damp=F
 DIIS: error= 3.82D-06 at cycle   7 NSaved=   7.
 NSaved= 7 IEnMin= 7 EnMin= -115.086731953630     IErMin= 7 ErrMin= 3.82D-06
 ErrMax= 3.82D-06  0.00D+00 EMaxC= 1.00D-01 BMatC= 5.74D-10 BMatP= 3.52D-09
 IDIUse=1 WtCom= 1.00D+00 WtEn= 0.00D+00
 Coeff-Com: -0.692D-04 0.101D-02 0.540D-02-0.784D-02-0.116D+00 0.222D+00
 Coeff-Com:  0.895D+00
 Coeff:     -0.692D-04 0.101D-02 0.540D-02-0.784D-02-0.116D+00 0.222D+00
 Coeff:      0.895D+00
 Gap=     0.492 Goal=   None    Shift=    0.000
 RMSDP=2.74D-07 MaxDP=7.58D-06 DE=-6.46D-09 OVMax= 1.26D-05

 Cycle   8  Pass 1  IDiag  1:
 E= -115.086731954412     Delta-E=       -0.000000000782 Rises=F Damp=F
 DIIS: error= 1.08D-06 at cycle   8 NSaved=   8.
 NSaved= 8 IEnMin= 8 EnMin= -115.086731954412     IErMin= 8 ErrMin= 1.08D-06
 ErrMax= 1.08D-06  0.00D+00 EMaxC= 1.00D-01 BMatC= 4.08D-11 BMatP= 5.74D-10
 IDIUse=1 WtCom= 1.00D+00 WtEn= 0.00D+00
 Coeff-Com:  0.228D-04-0.500D-03 0.127D-02 0.976D-02-0.154D-01-0.127D+00
 Coeff-Com:  0.289D-01 0.110D+01
 Coeff:      0.228D-04-0.500D-03 0.127D-02 0.976D-02-0.154D-01-0.127D+00
 Coeff:      0.289D-01 0.110D+01
 Gap=     0.492 Goal=   None    Shift=    0.000
 RMSDP=1.06D-07 MaxDP=1.81D-06 DE=-7.82D-10 OVMax= 4.97D-06

 Cycle   9  Pass 1  IDiag  1:
 E= -115.086731954496     Delta-E=       -0.000000000085 Rises=F Damp=F
 DIIS: error= 1.14D-07 at cycle   9 NSaved=   9.
 NSaved= 9 IEnMin= 9 EnMin= -115.086731954496     IErMin= 9 ErrMin= 1.14D-07
 ErrMax= 1.14D-07  0.00D+00 EMaxC= 1.00D-01 BMatC= 8.85D-13 BMatP= 4.08D-11
 IDIUse=1 WtCom= 1.00D+00 WtEn= 0.00D+00
 Coeff-Com: -0.327D-05 0.852D-04-0.445D-03-0.188D-02 0.654D-02 0.248D-01
 Coeff-Com: -0.419D-01-0.249D+00 0.126D+01
 Coeff:     -0.327D-05 0.852D-04-0.445D-03-0.188D-02 0.654D-02 0.248D-01
 Coeff:     -0.419D-01-0.249D+00 0.126D+01
 Gap=     0.492 Goal=   None    Shift=    0.000
 RMSDP=2.38D-08 MaxDP=3.37D-07 DE=-8.47D-11 OVMax= 8.10D-07

 Cycle  10  Pass 1  IDiag  1:
 E= -115.086731954499     Delta-E=       -0.000000000002 Rises=F Damp=F
 DIIS: error= 2.06D-08 at cycle  10 NSaved=  10.
 NSaved=10 IEnMin=10 EnMin= -115.086731954499     IErMin=10 ErrMin= 2.06D-08
 ErrMax= 2.06D-08  0.00D+00 EMaxC= 1.00D-01 BMatC= 2.99D-14 BMatP= 8.85D-13
 IDIUse=1 WtCom= 1.00D+00 WtEn= 0.00D+00
 Coeff-Com: -0.294D-06 0.509D-05 0.154D-04-0.740D-04-0.418D-03 0.947D-03
 Coeff-Com:  0.505D-02-0.147D-02-0.197D+00 0.119D+01
 Coeff:     -0.294D-06 0.509D-05 0.154D-04-0.740D-04-0.418D-03 0.947D-03
 Coeff:      0.505D-02-0.147D-02-0.197D+00 0.119D+01
 Gap=     0.492 Goal=   None    Shift=    0.000
 RMSDP=3.32D-09 MaxDP=4.32D-08 DE=-2.42D-12 OVMax= 1.67D-07

 SCF Done:  E(RHF) =  -115.086731954     A.U. after   10 cycles
            NFock= 10  Conv=0.33D-08     -V/T= 2.0013
 KE= 1.149342714723D+02 PE=-3.516551541036D+02 EE= 8.138309918066D+01
 Leave Link  502 at Mon Aug 17 22:12:29 2020, MaxMem=  4831838208 cpu:               2.7 elap:               0.5
 (Enter /gpfs/apps/medsci/stacks/noOS/software/gaussian/g16.a03.avx2/g16/l801.exe)
 ExpMin= 3.60D-02 ExpMax= 8.59D+03 ExpMxC= 1.30D+03 IAcc=3 IRadAn=         5 AccDes= 0.00D+00
 HarFok:  IExCor=  205 AccDes= 0.00D+00 IRadAn=         5 IDoV=-2 UseB2=F ITyADJ=14
 ICtDFT= 12500011 ScaDFX=  1.000000  1.000000  1.000000  1.000000
 Largest valence mixing into a core orbital is  1.29D-04
 Largest core mixing into a valence orbital is  3.33D-05
 Range of M.O.s used for correlation:     3   108
 NBasis=   108 NAE=     9 NBE=     9 NFC=     2 NFV=     0
 NROrb=    106 NOA=     7 NOB=     7 NVA=    99 NVB=    99

 **** Warning!!: The largest alpha MO coefficient is  0.15736016D+02

 Leave Link  801 at Mon Aug 17 22:12:29 2020, MaxMem=  4831838208 cpu:               0.4 elap:               0.1
 (Enter /gpfs/apps/medsci/stacks/noOS/software/gaussian/g16.a03.avx2/g16/l906.exe)
 FulOut=F Deriv=F AODrv=F NAtomX=     6
   MMem=           0  MDisk=           7 MDiskD=           7
  W3Min=       81774 MinDsk=      237020 NBas6D=         118
 NBas2D=        7243    NTT=        7021    LW2=     2000000
    MDV=  4831764721 MDiskM=      204651 NBas2p=        7243
 Disk-based method using OVN memory for  7 occupieds at a time.
 Permanent disk used for amplitudes and <ij||ab> integrals=     1164240 words.
 Estimated scratch disk usage=    17061639 words.
 IMap=   1   2   3   4   5   6   7
 Actual    scratch disk usage=    13298439 words.
 JobTyp=1 Pass  1:  I=   1 to   7 NPSUse=  8 ParTrn=T ParDer=T DoDerP=F.
 (rs|ai) integrals will be sorted in core.
 Spin components of T(2) and E(2):
     alpha-alpha T2 =       0.1346635385D-01 E2=     -0.4890015685D-01
     alpha-beta  T2 =       0.8507205542D-01 E2=     -0.3234875179D+00
     beta-beta   T2 =       0.1346635385D-01 E2=     -0.4890015685D-01
 The integrals were generated   1 times.
 ANorm=    0.1054516365D+01
 E2 =    -0.4212878316D+00 EUMP2 =    -0.11550801978607D+03
 Leave Link  906 at Mon Aug 17 22:12:30 2020, MaxMem=  4831838208 cpu:               3.1 elap:               0.4
 (Enter /gpfs/apps/medsci/stacks/noOS/software/gaussian/g16.a03.avx2/g16/l904.exe)

 Complete Basis Set (CBS) Extrapolation:
 M. R. Nyden and G. A. Petersson, JCP 75, 1843 (1981)
 G. A. Petersson and M. A. Al-Laham, JCP 94, 6081 (1991)
 G. A. Petersson, T. Tensfeldt, and J. A. Montgomery, JCP 94, 6091 (1991)
 J. A. Montgomery, J. W. Ochterski, and G. A. Petersson, JCP 101, 5900 (1994)

 
 Available Memory in CBS = 4831838208
 Minimum Number of PNO for Extrapolation =  10
 Absolute Overlaps: IRadAn =         5
 LocTrn: ILocal=3 LocCor=F DoCore=F.
 LocMO: Using population method
 Initial Trace= 0.70000000D+01 Initial TraceA= 0.27148644D+01
 RMSG= 0.61782960D-08
 There are a total of      137374 grid points.
 ElSum from         orbitals=        9.0000000001
 E2(CBS)=      -0.464412 CBS-Int=       0.013957 OIii=       3.910617
 Leave Link  904 at Mon Aug 17 22:12:30 2020, MaxMem=  4831838208 cpu:               2.1 elap:               0.3
 (Enter /gpfs/apps/medsci/stacks/noOS/software/gaussian/g16.a03.avx2/g16/l601.exe)
 Copying SCF densities to generalized density rwf, IOpCl= 0 IROHF=0.

 **********************************************************************

            Population analysis using the SCF density.

 **********************************************************************

 Alpha  occ. eigenvalues --  -20.55986 -11.27185  -1.35862  -0.92508  -0.69196
 Alpha  occ. eigenvalues --   -0.61937  -0.59373  -0.50451  -0.45236
 Alpha virt. eigenvalues --    0.03921   0.06349   0.07216   0.07965   0.12704
 Alpha virt. eigenvalues --    0.14673   0.15920   0.18208   0.27652   0.28429
 Alpha virt. eigenvalues --    0.28806   0.28999   0.31037   0.32535   0.34034
 Alpha virt. eigenvalues --    0.39179   0.46866   0.55407   0.56809   0.67645
 Alpha virt. eigenvalues --    0.72355   0.73098   0.75180   0.76698   0.77327
 Alpha virt. eigenvalues --    0.79574   0.87839   0.93653   1.02814   1.04901
 Alpha virt. eigenvalues --    1.15057   1.19606   1.21507   1.28183   1.30665
 Alpha virt. eigenvalues --    1.34677   1.35807   1.39538   1.50203   1.51094
 Alpha virt. eigenvalues --    1.54506   1.64442   1.66470   1.68863   1.75480
 Alpha virt. eigenvalues --    1.81404   2.10582   2.24712   2.27094   2.48493
 Alpha virt. eigenvalues --    2.50795   2.68178   2.72642   2.79934   3.11791
 Alpha virt. eigenvalues --    3.24374   3.40204   3.42471   3.42801   3.45246
 Alpha virt. eigenvalues --    3.50272   3.61463   3.69309   3.74874   3.76263
 Alpha virt. eigenvalues --    3.86052   4.04944   4.09848   4.21211   4.22723
 Alpha virt. eigenvalues --    4.25255   4.40177   4.51469   4.52347   4.58825
 Alpha virt. eigenvalues --    4.62975   4.67394   4.71149   4.72818   5.30554
 Alpha virt. eigenvalues --    5.58835   5.60488   5.65402   5.78746   5.96097
 Alpha virt. eigenvalues --    5.98221   6.01772   6.03980   6.24583   6.37853
 Alpha virt. eigenvalues --    6.97475   7.50199   7.69616   7.72842   7.73241
 Alpha virt. eigenvalues --    8.00548   8.17669  25.46547  51.68730
          Condensed to atoms (all electrons):
               1          2          3          4          5          6
     1  C    4.578881   0.173144   0.429816   0.438507   0.429814  -0.030519
     2  O    0.173144   8.089753  -0.038148  -0.061893  -0.038146   0.271970
     3  H    0.429816  -0.038148   0.649982  -0.036003  -0.046224  -0.006276
     4  H    0.438507  -0.061893  -0.036003   0.618153  -0.036001   0.008667
     5  H    0.429814  -0.038146  -0.046224  -0.036001   0.649983  -0.006278
     6  H   -0.030519   0.271970  -0.006276   0.008667  -0.006278   0.508389
 Mulliken charges:
               1
     1  C   -0.019642
     2  O   -0.396680
     3  H    0.046853
     4  H    0.068570
     5  H    0.046852
     6  H    0.254047
 Sum of Mulliken charges =  -0.00000
 Mulliken charges with hydrogens summed into heavy atoms:
               1
     1  C    0.142633
     2  O   -0.142633
 Electronic spatial extent (au):  <R**2>=             84.6229
 Charge=             -0.0000 electrons
 Dipole moment (field-independent basis, Debye):
    X=              0.9653    Y=             -1.5972    Z=              0.0002  Tot=              1.8662
 Quadrupole moment (field-independent basis, Debye-Ang):
   XX=            -12.9833   YY=            -12.1514   ZZ=            -13.7663
   XY=              2.3383   XZ=             -0.0003   YZ=             -0.0001
 Traceless Quadrupole moment (field-independent basis, Debye-Ang):
   XX=             -0.0163   YY=              0.8156   ZZ=             -0.7993
   XY=              2.3383   XZ=             -0.0003   YZ=             -0.0001
 Octapole moment (field-independent basis, Debye-Ang**2):
  XXX=             -3.9406  YYY=             -0.7214  ZZZ=              0.0012  XYY=             -1.7362
  XXY=             -2.5585  XXZ=              0.0005  XZZ=             -0.1438  YZZ=             -0.7611
  YYZ=              0.0000  XYZ=              0.0001
 Hexadecapole moment (field-independent basis, Debye-Ang**3):
 XXXX=            -62.0284 YYYY=            -19.9019 ZZZZ=            -19.8027 XXXY=              4.2618
 XXXZ=             -0.0007 YYYX=              3.3606 YYYZ=             -0.0000 ZZZX=             -0.0001
 ZZZY=              0.0001 XXYY=            -12.5199 XXZZ=            -14.4280 YYZZ=             -6.7820
 XXYZ=             -0.0002 YYXZ=             -0.0006 ZZXY=             -0.1458
 N-N= 4.025105149617D+01 E-N=-3.516551540705D+02  KE= 1.149342714723D+02
 Leave Link  601 at Mon Aug 17 22:12:30 2020, MaxMem=  4831838208 cpu:               0.2 elap:               0.0
 (Enter /gpfs/apps/medsci/stacks/noOS/software/gaussian/g16.a03.avx2/g16/l9999.exe)

 Test job not archived.
 1\1\GINC-C007\SP\RMP2-FC\CBSB3\C1H4O1\RANASD01\17-Aug-2020\0\\#P Geom=
 AllCheck Guess=TCheck SCRF=Check Test MP2/CBSB3 CBSExtrap=(NMin=10,Min
 Pop)\\name\\0,1\C,0,0.6595537104,-0.0213829699,-0.0000109858\O,0,-0.75
 34592396,0.1271679768,-0.0000443729\H,0,1.0282853909,-0.5458076875,0.8
 921648858\H,0,1.0839692367,0.9835576167,-0.0001889487\H,0,1.028295083,
 -0.5461267526,-0.8919948666\H,0,-1.1417489113,-0.7520426235,0.00006151
 82\\Version=ES64L-G16RevA.03\HF=-115.086732\MP2=-115.5080198\E2(CBS)=-
 0.4644118\CBS-Int=-0.4504549\OIii=3.9106166\RMSD=3.315e-09\PG=C01 [X(C
 1H4O1)]\\@


 THE WISE MAN HAS THE POWER TO REASON AWAY
 WHAT A FOOL BELIEVES.
                     - DOOBIE BROTHERS
 Diagonal vibrational polarizability:
        0.0000000       0.0000000       0.0000000

 Complete Basis Set (CBS) Extrapolation:
 M. R. Nyden and G. A. Petersson, JCP 75, 1843 (1981)
 G. A. Petersson and M. A. Al-Laham, JCP 94, 6081 (1991)
 G. A. Petersson, T. Tensfeldt, and J. A. Montgomery, JCP 94, 6091 (1991)
 J. A. Montgomery, J. W. Ochterski, and G. A. Petersson, JCP 101, 5900 (1994)

 Temperature=               298.150000 Pressure=                       1.000000
 E(ZPE)=                      0.050598 E(Thermal)=                     0.053920
 E(SCF)=                   -115.086732 DE(MP2)=                       -0.421288
 DE(CBS)=                    -0.043124 DE(MP34)=                      -0.022739
 DE(CCSD)=                   -0.007971 DE(Int)=                        0.013957
 DE(Empirical)=              -0.022642
 CBS-QB3 (0 K)=            -115.539942 CBS-QB3 Energy=              -115.536620
 CBS-QB3 Enthalpy=         -115.535676 CBS-QB3 Free Energy=         -115.562684

 Test job not archived.
 1\1\GINC-C007\Mixed\CBS-QB3\CBS-QB3\C1H4O1\RANASD01\17-Aug-2020\0\\#P 
 opt=(noeigentest, tight) rocbs-qb3 scf=(tight, direct) integral=(grid=
 ultrafine, Acc2E=12) nosymm iop(2/9=2000)\\name\\0,1\C,0,0.6595537104,
 -0.0213829699,-0.0000109858\O,0,-0.7534592396,0.1271679768,-0.00004437
 29\H,0,1.0282853909,-0.5458076875,0.8921648858\H,0,1.0839692367,0.9835
 576167,-0.0001889487\H,0,1.028295083,-0.5461267526,-0.8919948666\H,0,-
 1.1417489113,-0.7520426235,0.0000615182\\Version=ES64L-G16RevA.03\HF/C
 bsB3=-115.086732\E2(CBS)/CbsB3=-0.4644118\CBS-Int/CbsB3=0.0139569\OIii
 /CbsB3=3.9106166\MP2/CbsB4=-115.4018492\MP4(SDQ)/CbsB4=-115.4245884\MP
 4(SDQ)/6-31+G(d')=-115.38296\QCISD(T)/6-31+G(d')=-115.3909314\CBSQB3=-
 115.5399424\FreqCoord=1.2463758771,-0.0404079568,-0.0000207602,-1.4238
 316089,0.240312648,-0.0000838526,1.9431777667,-1.0314270461,1.68594729
 21,2.0484049847,1.8586545233,-0.0003570614,1.9431960821,-1.0320299917,
 -1.6856260023,-2.1575927454,-1.4211545925,0.0001162526\PG=C01 [X(C1H4O
 1)]\NImag=0\\0.46811398,0.02452828,0.59212366,-0.00000427,-0.00000601,
 0.54737717,-0.23130169,0.03861505,-0.00000648,0.42974445,-0.00754794,-
 0.09490099,0.00000424,0.14496340,0.53398830,-0.00000161,0.00000453,-0.
 06038544,-0.00001311,-0.00005913,0.04463718,-0.06746839,0.02884833,-0.
 05313915,-0.03044947,0.01911310,-0.02818661,0.08534647,0.03156519,-0.1
 0839334,0.09544792,0.00591652,0.00280771,0.00079209,-0.04062983,0.1096
 1059,-0.05465288,0.09652543,-0.21804998,-0.00569183,-0.00270911,0.0086
 7973,0.06614892,-0.10703298,0.23057222,-0.07751351,-0.07808074,0.00001
 404,-0.02736636,-0.03632846,0.00000553,0.00531967,0.00797716,0.0010457
 6,0.10184520,-0.09074266,-0.28346349,0.00004129,-0.00124010,0.00816916
 ,-0.00000137,-0.00420767,-0.01316016,-0.00029921,0.09812060,0.29911037
 ,0.00001623,0.00004154,-0.04993502,-0.00000012,-0.00000160,0.00156930,
 0.00954273,0.02573669,0.00064280,-0.00001707,-0.00004478,0.04652511,-0
 .06747026,0.02886856,0.05313060,-0.03044966,0.01912318,0.02817961,0.00
 561005,-0.00457731,-0.00599705,0.00531976,-0.00421108,-0.00954128,0.08
 534799,0.03158640,-0.10846207,-0.09548707,0.00591801,0.00280803,-0.000
 79010,-0.00457530,0.00847020,0.01354703,0.00797725,-0.01316909,-0.0257
 3154,-0.04065493,0.10968721,0.05464374,-0.09656480,-0.21798048,0.00568
 890,0.00271144,0.00867898,0.00599903,-0.01355812,-0.02212391,-0.001048
 62,0.00030419,0.00065185,-0.06613620,0.10707614,0.23049457,-0.02436013
 ,-0.04277948,0.00000526,-0.11017727,-0.13932327,0.00001619,0.00164167,
 -0.00025173,-0.00085292,-0.00760475,0.00228091,-0.00000049,0.00164212,
 -0.00025143,0.00085315,0.13885836,0.01061073,0.00309622,-0.00000037,-0
 .19417289,-0.45287221,0.00005399,0.00145137,0.00066499,-0.00003116,0.0
 0033418,0.00251320,-0.00000031,0.00145159,0.00066572,0.00003115,0.1803
 2501,0.44593207,-0.00000122,-0.00000068,-0.00102626,0.00002264,0.00005
 416,-0.00317975,-0.00036492,-0.00138561,0.00027913,0.00000036,-0.00000
 012,0.00054596,0.00036432,0.00138554,0.00027899,-0.00002118,-0.0000533
 0,0.00310193\\0.00000016,0.00000019,-0.00000010,0.00000050,0.00000092,
 0.00000036,-0.00000006,-0.00000014,-0.00000013,-0.00000050,-0.00000064
 ,-0.00000009,-0.00000006,-0.00000026,0.00000024,-0.00000004,-0.0000000
 9,-0.00000028\\\@
 Job cpu time:       0 days  0 hours  0 minutes 13.9 seconds.
 Elapsed time:       0 days  0 hours  0 minutes  2.1 seconds.
 File lengths (MBytes):  RWF=    119 Int=      0 D2E=      0 Chk=      2 Scr=      1
 Normal termination of Gaussian 16 at Mon Aug 17 22:12:30 2020.
