      -----------------------------------------------------------      
     |                   =====================                   |     
     |                           x T B                           |     
     |                   =====================                   |     
     |                         S. Grimme                         |     
     |          Mulliken Center for Theoretical Chemistry        |     
     |                    University of Bonn                     |     
      -----------------------------------------------------------      

   * xtb version 6.3.3 (71d3805) compiled by 'conda@b85dec0bf610' on 2021-01-07

   xtb is free software: you can redistribute it and/or modify it under
   the terms of the GNU Lesser General Public License as published by
   the Free Software Foundation, either version 3 of the License, or
   (at your option) any later version.
   
   xtb is distributed in the hope that it will be useful,
   but WITHOUT ANY WARRANTY; without even the implied warranty of
   MERCHANTABILITY or FITNESS FOR A PARTICULAR PURPOSE.  See the
   GNU Lesser General Public License for more details.
   
   Cite this work as:
   * C. Bannwarth, E. Caldeweyher, S. Ehlert, A. Hansen, P. Pracht,
     J. Seibert, S. Spicher, S. Grimme, WIREs Comput. Mol. Sci., 2020,
     e01493. DOI: 10.1002/wcms.1493
   
   for GFN2-xTB:
   * S. Grimme, C. Bannwarth, P. Shushkov, J. Chem. Theory Comput., 2017,
     13, 1989-2009. DOI: 10.1021/acs.jctc.7b00118
   for GFN1-xTB:
   * C. Bannwarth, S. Ehlert and S. Grimme., J. Chem. Theory Comput., 2019,
     15, 1652-1671. DOI: 10.1021/acs.jctc.8b01176
   for GFN0-xTB:
   * P. Pracht, E. Caldeweyher, S. Ehlert, S. Grimme, ChemRxiv, 2019, preprint.
     DOI: 10.26434/chemrxiv.8326202.v1
   for GFN-FF:
   * S. Spicher and S. Grimme, Angew. Chem. Int. Ed., 2020, 59, 15665-15673.
     DOI: 10.1002/anie.202004239
   
   for DFT-D4:
   * E. Caldeweyher, C. Bannwarth and S. Grimme, J. Chem. Phys., 2017,
     147, 034112. DOI: 10.1063/1.4993215
   * E. Caldeweyher, S. Ehlert, A. Hansen, H. Neugebauer, S. Spicher,
     C. Bannwarth and S. Grimme, J. Chem. Phys., 2019, 150, 154122.
     DOI: 10.1063/1.5090222
   * E. Caldeweyher, J.-M. Mewes, S. Ehlert and S. Grimme, Phys. Chem. Chem. Phys.
     2020, 22, 8499-8512. DOI: 10.1039/D0CP00502A
   
   for sTDA-xTB:
   * S. Grimme and C. Bannwarth, J. Chem. Phys., 2016, 145, 054103.
     DOI: 10.1063/1.4959605
   
   in the mass-spec context:
   * V. Asgeirsson, C. Bauer and S. Grimme, Chem. Sci., 2017, 8, 4879.
     DOI: 10.1039/c7sc00601b
   * J. Koopman and S. Grimme, ACS Omega 2019, 4, 12, 15120-15133.
     DOI: 10.1021/acsomega.9b02011
   
   for metadynamics refer to:
   * S. Grimme, J. Chem. Theory Comput., 2019, 155, 2847-2862
     DOI: 10.1021/acs.jctc.9b00143
   
   with help from (in alphabetical order)
   C. Bannwarth, F. Bohle, G. Brandenburg, E. Caldeweyher, M. Checinski,
   S. Dohm, S. Ehlert, S. Ehrlich, F. März, H. Neugebauer, J. Pisarek,
   P. Pracht, P. Shushkov, and S. Spicher.
   
 * started run on 2026/04/05 at 21:13:14.497     

           -------------------------------------------------
          |                Calculation Setup                |
           -------------------------------------------------

          program call               : /home/alon/anaconda3/envs/xtb_env/bin/xtb mol.sdf --hess --gfn2 --parallel --uhf 1 --chrg 0
          coordinate file            : mol.sdf
          omp threads                :                    28
          number of atoms            :                    10
          number of electrons        :                    19
          charge                     :                     0
          spin                       :                   0.5
          first test random number   :      0.65715491998447

   ID    Z sym.   atoms
    1    6 C      1-3
    2    1 H      4-10

           -------------------------------------------------
          |                 G F N 2 - x T B                 |
           -------------------------------------------------

        Reference                      10.1021/acs.jctc.8b01176
      * Hamiltonian:
        H0-scaling (s, p, d)           1.850000    2.230000    2.230000
        zeta-weighting                 0.500000
      * Dispersion:
        s8                             2.700000
        a1                             0.520000
        a2                             5.000000
        s9                             5.000000
      * Repulsion:
        kExp                           1.500000    1.000000
        rExp                           1.000000
      * Coulomb:
        alpha                          2.000000
        third order                    shell-resolved
        anisotropic                    true
        a3                             3.000000
        a5                             4.000000
        cn-shift                       1.200000
        cn-exp                         4.000000
        max-rad                        5.000000


          ...................................................
          :                      SETUP                      :
          :.................................................:
          :  # basis functions                  19          :
          :  # atomic orbitals                  19          :
          :  # shells                           13          :
          :  # electrons                        19          :
          :  max. iterations                   250          :
          :  Hamiltonian                  GFN2-xTB          :
          :  restarted?                      false          :
          :  GBSA solvation                  false          :
          :  PC potential                    false          :
          :  electronic temp.          300.0000000     K    :
          :  accuracy                    1.0000000          :
          :  -> integral cutoff          0.2500000E+02      :
          :  -> integral neglect         0.1000000E-07      :
          :  -> SCF convergence          0.1000000E-05 Eh   :
          :  -> wf. convergence          0.1000000E-03 e    :
          :  Broyden damping             0.4000000          :
          ...................................................

 iter      E             dE          RMSdq      gap      omega  full diag
   1    -10.0416711 -0.100417E+02  0.261E+00   10.94       0.0  T
   2    -10.0633074 -0.216363E-01  0.128E+00   11.04       1.0  T
   3    -10.0636420 -0.334646E-03  0.626E-01   11.05       1.0  T
   4    -10.0637056 -0.635153E-04  0.802E-02   11.02       1.0  T
   5    -10.0637056 -0.179674E-07  0.178E-02   11.02       1.8  T
   6    -10.0637060 -0.424862E-06  0.287E-03   11.02      11.0  T
   7    -10.0637060 -0.813378E-08  0.880E-04   11.02      36.0  T
   8    -10.0637060 -0.139483E-08  0.213E-04   11.02     148.8  T

   *** convergence criteria satisfied after 8 iterations ***

         #    Occupation            Energy/Eh            Energy/eV
      -------------------------------------------------------------
         1        2.0000           -0.6061683             -16.4947
       ...           ...                  ...                  ...
         4        2.0000           -0.4986683             -13.5695
         5        2.0000           -0.4853163             -13.2061
         6        2.0000           -0.4739663             -12.8973
         7        2.0000           -0.4615788             -12.5602
         8        2.0000           -0.4406775             -11.9914
         9        2.0000           -0.4305099             -11.7148
        10        1.0000           -0.2854557              -7.7676 (HOMO)
        11                          0.1195484               3.2531 (LUMO)
        12                          0.1500368               4.0827
        13                          0.1796854               4.8895
        14                          0.1856294               5.0512
        15                          0.1978893               5.3848
       ...                                ...                  ...
        19                          0.3654091               9.9433
      -------------------------------------------------------------
                  HL-Gap            0.4050041 Eh           11.0207 eV
             Fermi-level           -0.2204682 Eh           -5.9992 eV

 SCC (total)                   0 d,  0 h,  0 min,  0.001 sec
 SCC setup                      ...        0 min,  0.000 sec (  4.544%)
 Dispersion                     ...        0 min,  0.000 sec (  3.231%)
 classical contributions        ...        0 min,  0.000 sec (  1.655%)
 integral evaluation            ...        0 min,  0.000 sec ( 17.352%)
 iterations                     ...        0 min,  0.001 sec ( 41.202%)
 molecular gradient             ...        0 min,  0.000 sec ( 27.611%)
 printout                       ...        0 min,  0.000 sec (  3.837%)

         :::::::::::::::::::::::::::::::::::::::::::::::::::::
         ::                     SUMMARY                     ::
         :::::::::::::::::::::::::::::::::::::::::::::::::::::
         :: total energy              -9.907945789900 Eh    ::
         :: gradient norm              0.000167508372 Eh/a0 ::
         :: HOMO-LUMO gap             11.020722679226 eV    ::
         ::.................................................::
         :: SCC energy               -10.063706015090 Eh    ::
         :: -> isotropic ES            0.002969205741 Eh    ::
         :: -> anisotropic ES          0.003814162232 Eh    ::
         :: -> anisotropic XC          0.007249074358 Eh    ::
         :: -> dispersion             -0.003488521930 Eh    ::
         :: repulsion energy           0.155759193674 Eh    ::
         :: add. restraining           0.000000000000 Eh    ::
         :: total charge               0.000000000000 e     ::
         :::::::::::::::::::::::::::::::::::::::::::::::::::::

           ------------------------------------------------- 
          |                Numerical Hessian                |
           ------------------------------------------------- 
step length          :   0.00500
SCC accuracy         :   0.30000
Hessian scale factor :   1.00000
frozen atoms in %    :   0.00000    0
RMS gradient         :   0.00017
estimated CPU  time      0.00 min
estimated wall time      0.00 min

writing file <hessian>.

 projected vibrational frequencies (cm-1)
eigval :       -0.00    -0.00    -0.00     0.00     0.00     0.00
eigval :       63.60    78.48   387.35   421.10   940.62   946.86
eigval :      956.71  1028.72  1167.73  1180.95  1343.10  1393.57
eigval :     1405.68  1465.51  1475.29  1481.36  1484.29  2854.51
eigval :     2860.02  2993.19  2993.57  3004.99  3009.56  3104.88
           -------------------------------------------------
          |                Property Printout                |
           -------------------------------------------------

    * Orbital Energies and Occupations

         #    Occupation            Energy/Eh            Energy/eV
      -------------------------------------------------------------
         1        2.0000           -0.6061685             -16.4947
         2        2.0000           -0.5856626             -15.9367
         3        2.0000           -0.5406394             -14.7115
         4        2.0000           -0.4986683             -13.5695
         5        2.0000           -0.4853160             -13.2061
         6        2.0000           -0.4739665             -12.8973
         7        2.0000           -0.4615787             -12.5602
         8        2.0000           -0.4406776             -11.9914
         9        2.0000           -0.4305100             -11.7148
        10        1.0000           -0.2854551              -7.7676 (HOMO)
        11                          0.1195485               3.2531 (LUMO)
        12                          0.1500364               4.0827
        13                          0.1796854               4.8895
        14                          0.1856298               5.0512
        15                          0.1978891               5.3848
        16                          0.2104543               5.7268
        17                          0.2219295               6.0390
        18                          0.3220796               8.7642
        19                          0.3654094               9.9433
      -------------------------------------------------------------
                  HL-Gap            0.4050036 Eh           11.0207 eV
             Fermi-level           -0.2204679 Eh           -5.9992 eV

     #   Z          covCN         q      C6AA      α(0)
     1   6 C        3.752    -0.096    22.389     6.748
     2   6 C        3.751    -0.096    22.389     6.748
     3   6 C        2.882    -0.072    29.797     8.949
     4   1 H        0.923     0.044     2.396     2.421
     5   1 H        0.924     0.039     2.463     2.454
     6   1 H        0.925     0.039     2.457     2.451
     7   1 H        0.925     0.039     2.458     2.452
     8   1 H        0.924     0.039     2.462     2.454
     9   1 H        0.923     0.044     2.396     2.421
    10   1 H        0.926     0.019     2.751     2.594

 Mol. C6AA /au·bohr⁶  :        671.387425
 Mol. C8AA /au·bohr⁸  :      14020.731634
 Mol. α(0) /au        :         39.690034


Wiberg/Mayer (AO) data.
largest (>0.10) Wiberg bond orders for each atom

 ---------------------------------------------------------------------------
     #   Z sym  total        # sym  WBO       # sym  WBO       # sym  WBO
 ---------------------------------------------------------------------------
     1   6 C    3.988 --     3 C    1.079     6 H    0.978     5 H    0.973
                             4 H    0.940
     2   6 C    3.988 --     3 C    1.079     7 H    0.978     8 H    0.973
                             9 H    0.940
     3   6 C    3.142 --     2 C    1.079     1 C    1.079    10 H    0.976
     4   1 H    0.946 --     1 C    0.940
     5   1 H    0.984 --     1 C    0.973
     6   1 H    0.991 --     1 C    0.978
     7   1 H    0.991 --     2 C    0.978
     8   1 H    0.984 --     2 C    0.973
     9   1 H    0.946 --     2 C    0.940
    10   1 H    0.999 --     3 C    0.976
 ---------------------------------------------------------------------------


molecular dipole:
                 x           y           z       tot (Debye)
 q only:       -0.095      -0.086       0.006
   full:       -0.141      -0.089       0.052       0.444
molecular quadrupole (traceless):
                xx          xy          yy          xz          yz          zz
 q only:        0.060      -0.134       0.180       0.234      -0.555      -0.240
  q+dip:        0.015       0.235       0.399       0.377      -0.497      -0.414
   full:        0.025       0.052       0.231       0.225      -0.555      -0.256

           -------------------------------------------------
          |               Frequency Printout                |
           -------------------------------------------------
 projected vibrational frequencies (cm-1)
eigval :       -0.00    -0.00    -0.00     0.00     0.00     0.00
eigval :       63.60    78.48   387.35   421.10   940.62   946.86
eigval :      956.71  1028.72  1167.73  1180.95  1343.10  1393.57
eigval :     1405.68  1465.51  1475.29  1481.36  1484.29  2854.51
eigval :     2860.02  2993.19  2993.57  3004.99  3009.56  3104.88
 reduced masses (amu)
   1:  9.19   2:  8.92   3:  9.23   4:  9.15   5:  9.42   6:  5.79   7:  1.20   8:  3.43
   9:  6.62  10:  4.08  11:  8.02  12:  2.52  13:  2.96  14:  4.29  15:  6.86  16:  5.59
  17:  6.97  18:  3.32  19:  2.84  20:  1.82  21:  1.73  22:  1.85  23:  1.48  24:  1.74
  25:  1.75  26:  1.57  27:  1.56  28:  1.77  29:  1.76  30:  1.82
 IR intensities (amu)
   1:  0.07   2:  0.09   3:  0.08   4:  0.09   5:  0.11   6:  0.14   7:  0.00   8:  0.15
   9:  0.13  10:  0.22  11:  0.08  12:  0.03  13:  0.04  14:  0.07  15:  0.20  16:  0.31
  17:  0.50  18:  0.22  19:  0.06  20:  0.05  21:  0.05  22:  0.06  23:  0.04  24:  0.12
  25:  0.28  26:  0.19  27:  0.18  28:  0.03  29:  0.27  30:  0.32
 Raman intensities (amu)
   1:  0.00   2:  0.00   3:  0.00   4:  0.00   5:  0.00   6:  0.00   7:  0.00   8:  0.00
   9:  0.00  10:  0.00  11:  0.00  12:  0.00  13:  0.00  14:  0.00  15:  0.00  16:  0.00
  17:  0.00  18:  0.00  19:  0.00  20:  0.00  21:  0.00  22:  0.00  23:  0.00  24:  0.00
  25:  0.00  26:  0.00  27:  0.00  28:  0.00  29:  0.00  30:  0.00
Molecule has the following symmetry elements: (sigma) 
It seems to be the Cs point group
 output can be read by thermo (or use thermo option).
 writing <g98.out> molden fake output.
 recommended (thermochemical) frequency scaling factor: 1.0
           -------------------------------------------------
          |             Thermodynamic Functions             |
           -------------------------------------------------

cs  symmetry found (for desy threshold:  0.10E+00) used in thermo

          ...................................................
          :                      SETUP                      :
          :.................................................:
          :  # frequencies                          24      :
          :  # imaginary freq.                       0      :
          :  linear?                             false      :
          :  only rotor calc.                    false      :
          :  symmetry                               cs      :
          :  rotational number                       1      :
          :  scaling factor                  1.0000000      :
          :  rotor cutoff                   50.0000000 cm⁻¹ :
          :  imag. cutoff                  -20.0000000 cm⁻¹ :
          :.................................................:

    mode    ω/cm⁻¹     T·S(HO)/kcal·mol⁻¹    T·S(FR)/kcal·mol⁻¹   T·S(vib)
   ------------------------------------------------------------------------
       1     63.60    -1.29469 ( 72.35%)    -0.98363 ( 27.65%)    -1.20869
       2     78.48    -1.17128 ( 85.86%)    -0.92163 ( 14.14%)    -1.13597
   ------------------------------------------------------------------------

   temp. (K)  partition function   enthalpy   heat capacity  entropy
                                   cal/mol     cal/K/mol   cal/K/mol   J/K/mol
 298.15  VIB   17.2                 1534.753      9.629     10.395
         ROT  0.176E+05              888.752      2.981     22.409
         INT  0.303E+06             2423.506     12.610     32.805
         TR   0.274E+27             1481.254      4.968     37.192
         TOT                        3904.7597    17.5778    69.9961   292.8635

       T/K    H(0)-H(T)+PV         H(T)/Eh          T*S/Eh         G(T)/Eh
   ------------------------------------------------------------------------
    298.15    0.622263E-02    0.928878E-01    0.332574E-01    0.596304E-01
   ------------------------------------------------------------------------

         :::::::::::::::::::::::::::::::::::::::::::::::::::::
         ::                  THERMODYNAMIC                  ::
         :::::::::::::::::::::::::::::::::::::::::::::::::::::
         :: total free energy          -9.848315378832 Eh   ::
         ::.................................................::
         :: total energy               -9.907945789911 Eh   ::
         :: zero point energy           0.086665171024 Eh   ::
         :: G(RRHO) w/o ZPVE           -0.027034759946 Eh   ::
         :: G(RRHO) contrib.            0.059630411079 Eh   ::
         :::::::::::::::::::::::::::::::::::::::::::::::::::::

           -------------------------------------------------
          | TOTAL ENERGY               -9.907945789911 Eh   |
          | TOTAL ENTHALPY             -9.815057988157 Eh   |
          | TOTAL FREE ENERGY          -9.848315378832 Eh   |
          | GRADIENT NORM               0.000167778724 Eh/α |
          | HOMO-LUMO GAP              11.020709553837 eV   |
           -------------------------------------------------

------------------------------------------------------------------------
 * finished run on 2026/04/05 at 21:13:14.519     
------------------------------------------------------------------------
 total:
 * wall-time:     0 d,  0 h,  0 min,  0.022 sec
 *  cpu-time:     0 d,  0 h,  0 min,  0.125 sec
 * ratio c/w:     5.689 speedup
 SCF:
 * wall-time:     0 d,  0 h,  0 min,  0.001 sec
 *  cpu-time:     0 d,  0 h,  0 min,  0.005 sec
 * ratio c/w:     3.550 speedup
 numerical hessian:
 * wall-time:     0 d,  0 h,  0 min,  0.015 sec
 *  cpu-time:     0 d,  0 h,  0 min,  0.107 sec
 * ratio c/w:     7.094 speedup

