
 Working directory              : /var/lib/condor/execute/dir_208802/molpro.froMtPzv8D/
 Global scratch directory       : /var/lib/condor/execute/dir_208802/molpro.froMtPzv8D/
 Wavefunction directory         : /srv01/technion/alongd/wfu/
 Main file repository           : /var/lib/condor/execute/dir_208802/molpro.froMtPzv8D/

 id        : dana

 Nodes     nprocs
 tech-wn198    9
 Distribution of processes:   nprocs(total)=   10   nprocs(compute)=    9   nprocs(helper)=    1
 GA implementation: MPI file
 GA implementation (serial work in mppx): MPI file

 Using customized tuning parameters: mindgm=1; mindgv=20; mindgc=4; mindgr=1; noblas=0; minvec=7
 default implementation of scratch files=sf  


 Variables initialized (1009), CPU time= 0.01 sec
 ***,C2H5
 memory,90,m;
 file,1,file1.int                                                                !allocate permanent integral file
 file,2,file2.wfu                                                                !allocate permanent wave-function (dump) file
 
 geometry={angstrom;
 C       0.85775200    0.05679700    0.08477300
 C      -0.62003100   -0.03590700   -0.01800600
 H       1.46267500   -0.83107900    0.19060900
 H       1.36743000    0.99314600   -0.08533800
 H      -1.01533800   -0.86221900    0.57440900
 H      -0.94582400   -0.20946700   -1.05287500
 H      -1.10649200    0.88365000    0.31030200}
 
 basis=cc-pvtz-f12
 
 
 
 int;
 {hf;
 maxit,1000;
 wf,spin=1,charge=0;}
 
 uccsd(t)-f12;
 
 
 
 Commands initialized (810), CPU time= 0.01 sec, 661 directives.
 Default parameters read. Elapsed time= 0.24 sec

 Checking input...
 Passed
1


                                         ***  PROGRAM SYSTEM MOLPRO  ***
                                       Copyright, TTI GmbH Stuttgart, 2015
                                    Version 2021.2 linked Jul 16 2021 12:17:16


 **********************************************************************************************************************************
 LABEL *   C2H5                                                                          
  64 bit mpp version                                                                     DATE: 12-Nov-22          TIME: 22:08:40  
 **********************************************************************************************************************************

 SHA1:             dade016a989826d9d859d6207854b99675d53db3
 **********************************************************************************************************************************

 Memory per process:        90 MW
 Total memory per node:    810 MW

 GA preallocation disabled
 GA check disabled

 Variable memory set to 90.0 MW



 Permanent file  1  file1.int        assigned.  Implementation=df  
 Permanent file  2  file2.wfu        assigned.  Implementation=df    Size= 30.47 MB


 PROGRAM * RESTART 


 Reading variables from file 2

 _FNUC           =      0.00000000
 _BASIS          =    CC-PVTZ-F12
 _NELEC          =     18.00000000
 _PROGRAM        =    CCSD(T)-F12
 _DMX_SCF        =     -0.00000019
 _DMY_SCF        =      0.00000032
 _DMZ_SCF        =     -0.00000000
 _HOMO           =      9.10000000
 _EHOMO          =     -0.48664662
 _LUMO           =     10.10000000
 _ELUMO          =      0.05280233
 _EMP2           =    -79.64346800
 _EMP2_SING      =     -0.26396900
 _EMP2_TRIP      =     -0.11395302
 _EMP2_SINGLES   =      0.00000000
 _EMP2_SCS       =    -79.65321288
 _ECSING(1:2)    =     -0.32196197    -0.31593101
 _ECTRIP(1:2)    =     -0.11064475    -0.11033310
 _ECTRIPAB(1:2)  =     -0.06967028    -0.06945639
 _ECTRIPAA(1:2)  =     -0.07416794    -0.07394117
 _ECTRIPBB(1:2)  =     -0.06288469    -0.06268373
 _ECSINGLES      =     -0.00416776
 _EF12           =     -0.03103182
 _EF12_SING      =     -0.02864862
 _EF12_TRIP      =     -0.00238321
 _ECSING_F12(1:2)=     -0.04461845    -0.03638625
 _ECTRIP_F12(1:2)=     -0.00542126    -0.00477963
 _ECTRIPAB_F12(1:2)   =     -0.00180839    -0.00159449
 _ECTRIPAA_F12(1:2)   =     -0.00198828    -0.00176151
 _ECTRIPBB_F12(1:2)   =     -0.00162459    -0.00142363
 _EF12_RHFRELAX  =     -0.00100440
 _EF12_CONVSUPPRS=     -0.00049061
 _EF12_CONVSUPPRT=     -0.00022555
 _EF12_SINGLES   =     -0.00100440
 _EF12_SCS       =     -0.03586122
 _EF12_STRONG    =     -0.03103182
 _EF12_CLOSE     =      0.00000000
 _EF12_WEAK      =      0.00000000
 _EF12_DIST      =      0.00000000
 _EF12S          =     -0.03101062
 _EF12S_SING     =     -0.02866808
 _EF12S_TRIP     =     -0.00234254
 _EF12S_SCS      =     -0.03585927
 _EF12S_STRONG   =     -0.03101062
 _EF12S_CLOSE    =      0.00000000
 _EF12S_WEAK     =      0.00000000
 _EF12S_DIST     =      0.00000000
 _EF12D          =     -0.03161572
 _EF12D_SING     =     -0.02931010
 _EF12D_TRIP     =     -0.00230562
 _EF12D_SCS      =     -0.03660673
 _EF12D_STRONG   =     -0.03161572
 _EF12D_CLOSE    =      0.00000000
 _EF12D_WEAK     =      0.00000000
 _EF12D_DIST     =      0.00000000
 _EF12F          =     -0.05359399
 _EF12F_SING     =     -0.04780458
 _EF12F_TRIP     =     -0.00578941
 _EF12F_SCS      =     -0.06096817
 _ENERGC(1:2)    =    -79.69815282   -79.69181022
 _ENERG_CC(1:2)  =      0.00000000     0.00000000
 _ENERG_CV(1:2)  =      0.00000000     0.00000000
 _ENERG_VV(1:2)  =     -0.43260685    -0.42626425
 _ENERGR         =    -79.26554597
 _ENERGT(1:3)    =    -79.70584649   -79.70624878   -79.70570865
 _ENERGY(1:2)    =    -79.71218909   -79.70584649
 _ENERGY_METHOD  =    CCSD(T)-F12
 _ENERGY_BASIS   =    cc-pVTZ-F12
 _ENUC           =     42.30156643
 _IPROC_MPP      =      0.00000000
 _IPROC_MPPX     =      0.00000000
 _ORBITAL        =   2104.20000000
 _ECDIAG(1:2)    =     -0.08629077    -0.08478374
 _EPDIAG(1:2)    =     -0.08629077    -0.08478374
 _STATUS         =      1.00000000
 _T1DIAG         =      0.00849590
 _D1DIAG         =      0.01460198
 _D2DIAG         =      0.13919970
 !DFBASIS_MP2    =    CC-PVTZ-F12-MP2FIT
 !DFBASIS_F12K   =    VTZ-F12-JKFIT
 !RIBASIS_MP2    =    CC-PVTZ-F12_OPT
 !RIBASIS_EXCH   =     
 _METHODC        =    CCSD-F12a
 _METHODC        =    CCSD-F12b
 _METHODT        =    CCSD(T)-F12b
 _METHODT        =    CCSD[T]-F12b
 _METHODT        =    CCSD-T-F12b
 _OUTPUT         =    /storage/ce_dana/alongd/runs/ARC/arkane_examples/thermo3/calcs/Species/Ethynol/sp_a48600/input.out
 _PGROUP         =    C1  
 _TIME           =    20:17:33
 _ANSATZ         =    F12/3C(FIX)
 _SVDDEL         =      0.00000000
 _SYM_CATION     =      1.00000000

 Geometry written to block  1 of record 703


 **********************************************************************************************************************************
 DATASETS  * FILE   NREC   LENGTH (MB)   RECORD NAMES
              1       2       11.48       500      703   
                                          VAR     GEOM   

              2      20       30.47       500      610      700     1000      520     2100     7360     7350      701     1001   
                                          VAR    BASINP    GEOM     BASIS   MCVARS     RHF    F12ABS    EF12     GEOM     BASIS   
                                         2101      701(1)  1002     2102      702     1003     2103      703     1004     2104   
                                          RHF     GEOM     BASIS     RHF     GEOM     BASIS     RHF     GEOM     BASIS     RHF  

 PROGRAMS   *        TOTAL   RESTART
 CPU TIMES  *         0.72      0.46
 REAL TIME  *         0.91 SEC
 DISK USED  *        41.95 MB (local),      377.57 MB (total)
 **********************************************************************************************************************************

 Geometry recognized as XYZ

 SETTING BASIS          =    CC-PVTZ-F12


 Using spherical harmonics

 Library entry C      S cc-pVTZ-F12          selected for orbital group  1
 Library entry C      P cc-pVTZ-F12          selected for orbital group  1
 Library entry C      D cc-pVTZ-F12          selected for orbital group  1
 Library entry C      F cc-pVTZ-F12          selected for orbital group  1
 Library entry H      S cc-pVTZ-F12          selected for orbital group  2
 Library entry H      P cc-pVTZ-F12          selected for orbital group  2
 Library entry H      D cc-pVTZ-F12          selected for orbital group  2


 PROGRAM * SEWARD (Integral evaluation for generally contracted gaussian basis sets)     Author: Roland Lindh, 1990

 Geometry written to block  1 of record 704


 Point group  C1  



 ATOMIC COORDINATES

 NR  ATOM    CHARGE       X              Y              Z

   1  C       6.00    1.620916363    0.107330775    0.160197753
   2  C       6.00   -1.171688779   -0.067854396   -0.034026409
   3  H       1.00    2.764055159   -1.570511698    0.360198807
   4  H       1.00    2.584068195    1.876773942   -0.161265448
   5  H       1.00   -1.918710744   -1.629357769    1.085475694
   6  H       1.00   -1.787348322   -0.395835262   -1.989645393
   7  H       1.00   -2.090966839    1.669856490    0.586385796

 Bond lengths in Bohr (Angstrom)

 1-2  2.804827329  1-3  2.040078943  1-4  2.040080675  2-5  2.061460540  2-6  2.076307717
     ( 1.484250703)     ( 1.079563285)     ( 1.079564202)     ( 1.090877939)     ( 1.098734727)

 2-7  2.061461273
     ( 1.090878327)

 Bond angles

  1-2-5  111.74655417   1-2-6  111.73485560   1-2-7  111.74660111   2-1-3  120.88516500

  2-1-4  120.88513406   3-1-4  117.66091199   5-2-6  106.52255054   5-2-7  108.26902785

  6-2-7  106.52252164

 NUCLEAR CHARGE:                   17
 NUMBER OF PRIMITIVE AOS:         249
 NUMBER OF SYMMETRY AOS:          226
 NUMBER OF CONTRACTIONS:          196   (  196A   )
 NUMBER OF INNER CORE ORBITALS:     0   (    0A   )
 NUMBER OF OUTER CORE ORBITALS:     2   (    2A   )
 NUMBER OF VALENCE ORBITALS:       13   (   13A   )

 MOLECULE CHANGED: INITIALIZING OCCUPATION AND DUMP RECORDS


 NUCLEAR REPULSION ENERGY   37.03848715

 Eigenvalues of metric

         1 0.699E-04 0.156E-03 0.203E-03 0.231E-03 0.269E-03 0.293E-03 0.336E-03 0.441E-03


 Contracted 2-electron integrals neglected if value below      1.0D-11
 AO integral compression algorithm  1   Integral accuracy      1.0D-11

     902.824 MB (compressed) written to integral file ( 52.5%)

     Node minimum: 88.867 MB, node maximum: 110.887 MB


 NUMBER OF SORTED TWO-ELECTRON INTEGRALS:   20714265.     BUFFER LENGTH:  32768
 NUMBER OF SEGMENTS:   2  SEGMENT LENGTH:   15997995      RECORD LENGTH: 524288

 Memory used in sort:      16.56 MW

 SORT1 READ   214915996. AND WROTE    20448391. INTEGRALS IN     60 RECORDS. CPU TIME:     4.98 SEC, REAL TIME:     5.35 SEC
 SORT2 READ   183954386. AND WROTE   186370471. INTEGRALS IN   3204 RECORDS. CPU TIME:     0.43 SEC, REAL TIME:     1.63 SEC

 Node minimum:    20699250.  Node maximum:    20716411. integrals

 OPERATOR DM      FOR CENTER  0  COORDINATES:    0.000000    0.000000    0.000000


 **********************************************************************************************************************************
 DATASETS  * FILE   NREC   LENGTH (MB)   RECORD NAMES
              1      19       30.32       500      703      610      704      900      950      970     1005      129      960   
                                          VAR     GEOM    BASINP    GEOM    SYMINP    ZMAT    AOBASIS   BASIS     P2S    ABASIS    
                                         1100     1400     1410     1200     1210     1080     1600     1650     1700   
                                           S        T        V       H0       H01     AOSYM     SMH    MOLCAS    OPER   

              2      22       31.30       500      610      700     1000      520     2100     7360     7350      701     1001   
                                          VAR    BASINP    GEOM     BASIS   MCVARS     RHF    F12ABS    EF12     GEOM     BASIS   
                                         2101      701(1)  1002     2102      702     1003     2103      703     1004     2104   
                                          RHF     GEOM     BASIS     RHF     GEOM     BASIS     RHF     GEOM     BASIS     RHF  
                                          704     1005   
                                         GEOM     BASIS   

 PROGRAMS   *        TOTAL       INT   RESTART
 CPU TIMES  *         7.39      6.66      0.46
 REAL TIME  *        10.17 SEC
 DISK USED  *        61.69 MB (local),        3.43 GB (total)
 GA USED    *         0.00 MB       (max)       0.00 MB       (current)
 **********************************************************************************************************************************


 Program * Restricted Hartree-Fock

 Orbital guess generated from atomic densities. Full valence occupancy:   15

 Initial alpha occupancy:   9
 Initial beta  occupancy:   8

 NELEC=   17   SYM=1   MS2= 1   THRE=1.0D-08   THRD=3.2D-06   THRG=3.2D-06  HFMA2=F  DIIS_START=2   DIIS_MAX=10   DIIS_INCORE=F

 Level shifts:    0.00 (CLOSED)    0.00 (OPEN)    0.30 (GAP_MIN)

 ITER           ETOT              DE          GRAD        DDIFF     DIIS  NEXP   TIME(IT)  TIME(TOT)  DIAG
   1      -78.59517985     -78.59517985     0.00D+00     0.43D-01     0     0       0.27      0.50    start
   2      -78.62281766      -0.02763781     0.29D-02     0.33D-02     1     0       0.26      0.76    diag2
   3      -78.62687085      -0.00405319     0.11D-02     0.87D-03     2     0       0.22      0.98    diag2
   4      -78.62780773      -0.00093688     0.40D-03     0.44D-03     3     0       0.27      1.25    diag2
   5      -78.62788094      -0.00007321     0.92D-04     0.14D-03     4     0       0.22      1.47    diag2
   6      -78.62788492      -0.00000398     0.22D-04     0.39D-04     5     0       0.26      1.73    diag2
   7      -78.62788576      -0.00000084     0.10D-04     0.21D-04     6     0       0.25      1.98    diag2
   8      -78.62788596      -0.00000020     0.37D-05     0.13D-04     7     0       0.27      2.25    diag2
   9      -78.62788598      -0.00000002     0.12D-05     0.50D-05     8     0       0.26      2.51    diag2
  10      -78.62788599      -0.00000000     0.36D-06     0.12D-05     9     0       0.27      2.78    diag2/orth
  11      -78.62788599      -0.00000000     0.12D-06     0.24D-06     0     0       0.26      3.04    diag

 Final alpha occupancy:   9
 Final beta  occupancy:   8

 !RHF STATE 1.1 Energy                -78.627885985213
  RHF One-electron energy            -178.043088468324
  RHF Two-electron energy              62.376715332877
  RHF Kinetic energy                   78.579673751319
  RHF Nuclear energy                   37.038487150234
  RHF Virial quotient                  -1.000613545865

 !RHF STATE 1.1 Dipole moment          -0.07081234    -0.01148209    -0.05146201
 Dipole moment /Debye                  -0.17998701    -0.02918455    -0.13080338

 Orbital energies:

           1.1          2.1          3.1          4.1          5.1          6.1          7.1          8.1          9.1         10.1
    -11.218093   -11.217300    -1.010040    -0.815165    -0.614110    -0.555188    -0.537824    -0.502179    -0.349858     0.053015

          11.1
      0.062878


 HOMO      9.1    -0.349858 =      -9.5201eV
 LUMO     10.1     0.053015 =       1.4426eV
 LUMO-HOMO         0.402874 =      10.9628eV

 Orbitals saved in record  2105.2


 **********************************************************************************************************************************
 DATASETS  * FILE   NREC   LENGTH (MB)   RECORD NAMES
              1      19       30.32       500      703      610      704      900      950      970     1005      129      960   
                                          VAR     GEOM    BASINP    GEOM    SYMINP    ZMAT    AOBASIS   BASIS     P2S    ABASIS    
                                         1100     1400     1410     1200     1210     1080     1600     1650     1700   
                                           S        T        V       H0       H01     AOSYM     SMH    MOLCAS    OPER   

              2      23       34.85       500      610      700     1000      520     2100     7360     7350      701     1001   
                                          VAR    BASINP    GEOM     BASIS   MCVARS     RHF    F12ABS    EF12     GEOM     BASIS   
                                         2101      701(1)  1002     2102      702     1003     2103      703     1004     2104   
                                          RHF     GEOM     BASIS     RHF     GEOM     BASIS     RHF     GEOM     BASIS     RHF  
                                          704     1005     2105   
                                         GEOM     BASIS     RHF  

 PROGRAMS   *        TOTAL    HF-SCF       INT   RESTART
 CPU TIMES  *        10.52      3.08      6.66      0.46
 REAL TIME  *        13.68 SEC
 DISK USED  *        70.54 MB (local),        3.51 GB (total)
 GA USED    *         0.00 MB       (max)       0.00 MB       (current)
 **********************************************************************************************************************************


 PROGRAM * CCSD (Unrestricted open-shell coupled cluster)     Authors: C. Hampel, H.-J. Werner, 1991, M. Deegan, P.J. Knowles, 1992

                           UCCSD-F12 implementation by G. Knizia and H.-J. Werner, 2008

                   Density fitting integral evaluation by F.R. Manby, 2003,2007, G. Knizia, 2010


 Basis set VTZ-F12/JKFIT generated.      Number of basis functions:   438 
 Basis set CC-PVTZ-F12/OPTRI generated.  Number of basis functions:   355 
 Basis set CC-PVTZ-F12/MP2FIT generated. Number of basis functions:   442 

 Convergence thresholds:  THRVAR = 1.00D-08  THRDEN = 1.00D-06

 CCSD(T)     terms to be evaluated (factor= 1.000)


 Number of core orbitals:           2 (   2 )
 Number of closed-shell orbitals:   6 (   6 )
 Number of active  orbitals:        1 (   1 )
 Number of external orbitals:     187 ( 187 )

 For full I/O caching in triples, increase memory by 4.94 Mwords to 94.99 Mwords.

 Number of N-1 electron functions:              13
 Number of N-2 electron functions:              78
 Number of singly external CSFs:              2444
 Number of doubly external CSFs:           2117256
 Total number of CSFs:                     2119700

 Molecular orbitals read from record     2105.2  Type=RHF/CANONICAL  

 Integral transformation finished. Total CPU:   4.08 sec, npass=  1  Memory used:  32.91 MW

 Geminal basis:    OPTFULL  GEM_TYPE=SLATER  BETA=1.0  NGEM=6

 Optimizing Gaussian exponents for each gem_beta

 Geminal optimization for beta= 1.0000
 Weight function:   m=0, omega= 1.4646

 Augmented Hessian optimization of geminal fit. Trust ratio= 0.40000
 Convergence reached after   2 iterations. Final gradient= 8.66D-16, Step= 4.23D-06, Delta= 1.28D-09

 Alpha:                 0.19532     0.81920     2.85917     9.50073    35.69989   197.79328
 Coeff:                 0.27070     0.30552     0.18297     0.10986     0.06810     0.04224


 WFN_F12=FIX,EG    DECOUPLE_EXPL=F   HYBRID=0    NOX=F   SEMIINT_F12=T   CORE_SINGLES=F


 AO(A)-basis ORBITAL           loaded. Number of functions:     196
 RI(R)-basis CC-PVTZ-F12/OPTRI loaded. Number of functions:     355
 DF-basis VTZ-F12/JKFIT        loaded. Number of functions:     438

 Screening thresholds:   THRAO=  1.00D-10  THRMO=  1.00D-09  THRPROD=  1.00D-09
                         THRSW=  1.00D-05  THROV=  1.00D-12  THRAOF12= 1.00D-08

 CPU time for one-electron matrices               0.67 sec

 Construction of ABS:
 Pseudo-inverse stability          8.10E-12
 Smallest eigenvalue of S          2.13E-04  (threshold= 1.00E-08)
 Ratio eigmin/eigmax               2.59E-05  (threshold= 1.00E-09)
 Smallest eigenvalue of S kept     2.13E-04  (threshold= 2.13E-04, 0 functions deleted, 355 kept)

 Construction of CABS:
 Pseudo-inverse stability          2.55E-10
 Smallest eigenvalue of S          9.62E-07  (threshold= 1.00E-08)
 Ratio eigmin/eigmax               9.62E-07  (threshold= 1.00E-09)
 Smallest eigenvalue of S kept     9.62E-07  (threshold= 9.62E-07, 0 functions deleted, 355 kept)

 CPU time for basis constructions                 0.07 sec
 Fock operators(MO) rebuilt from dump record.
 CPU time for Fock operator transformation        0.11 sec

                                      TOTAL          ALPHA          BETA    
  Singles Contributions MO        -0.002802644   -0.001416815   -0.001385829
  Singles Contributions CABS      -0.000881848   -0.000476997   -0.000404851
  Pure DF-RHF relaxation          -0.000876365

 CPU time for RHF CABS relaxation                 0.10 sec
 CPU time for singles (tot)                       0.22 sec

 AO(A)-basis ORBITAL           loaded. Number of functions:     196
 RI(R)-basis CC-PVTZ-F12/OPTRI loaded. Number of functions:     355
 DF-basis CC-PVTZ-F12/MP2FIT   loaded. Number of functions:     442

 Screening thresholds:   THRAO=  1.00D-10  THRMO=  1.00D-09  THRPROD=  1.00D-09
                         THRSW=  1.00D-05  THROV=  1.00D-12  THRAOF12= 1.00D-08

 CPU time for transformed integrals               2.19 sec
 CPU time for F12 matrices                        1.44 sec

 Diagonal F12 ansatz with fixed amplitudes:   TS= 0.5000  TT= 0.2500  TN= 0.3750

 ITER.     SQ.NORM      CORR.ENERGY   TOTAL ENERGY  ENERGY CHANGE      VAR         CPU   MICRO    DIIS
   1      1.10694162    -0.37339528   -79.00215763    -3.7427E-01   1.05E-01      0.07  1  1  1   0  0
   2      1.10646286    -0.37271434   -79.00147669     6.8095E-04   4.93E-05      0.28  0  0  0   1  1
   3      1.10656611    -0.37283054   -79.00159289    -1.1621E-04   2.07E-07      0.57  0  0  0   2  2
   4      1.10656676    -0.37283094   -79.00159329    -4.0053E-07   8.73E-10      0.99  0  0  0   3  3

 - - Continuing with F12/conv. amplitude coupling turned on.

   5      1.10650474    -0.37282533   -79.00158768     5.2138E-06   3.10E-05      1.29  1  1  1   1  1
   6      1.10650436    -0.37282539   -79.00158774    -5.6692E-08   1.18E-09      1.66  1  1  1   2  2

 CPU time for iterative RMP2-F12                  1.66 sec


 DF-RMP2-F12 doubles corrections:
 - - - - - - - - - - - - - - - - 
  Approx.                             TOTAL           A-B            A-A            B-B    
  RMP2-F12/3C(FIX)                -0.028405038   -0.026886850   -0.000944425   -0.000573763
  RMP2-F12/3*C(FIX)               -0.028410596   -0.026916661   -0.000930290   -0.000563645
  RMP2-F12/3*C(DX)                -0.028425600   -0.026930211   -0.000931397   -0.000563993
  RMP2-F12/3*C(FIX,DX)            -0.028919640   -0.027448874   -0.000914304   -0.000556462

 DF-RMP2-F12 doubles energies:
 - - - - - - - - - - - - - - -
  Approx.                             TOTAL           A-B            A-A            B-B    
  RMP2                            -0.341617704   -0.271190738   -0.042319521   -0.028107445
  RMP2-F12/3C(FIX)                -0.370022742   -0.298077587   -0.043263946   -0.028681208
  RMP2-F12/3*C(FIX)               -0.370028299   -0.298107398   -0.043249811   -0.028671090
  RMP2-F12/3*C(DX)                -0.370043304   -0.298120948   -0.043250918   -0.028671438
  RMP2-F12/3*C(FIX,DX)            -0.370537344   -0.298639612   -0.043233824   -0.028663907


  Reference energy                    -78.627885985213
  CABS relaxation correction to RHF    -0.000876364613
  New reference energy                -78.628762349826

  RMP2-F12 singles (MO) energy         -0.002802644169
  RMP2-F12 pair energy                 -0.370022741663
  RMP2-F12 correlation energy          -0.372825385832

 !RMP2-F12/3C(FIX) energy             -79.001587735658

 Starting RMP2 calculation, locsing= 0

 ITER.      SQ.NORM     CORR.ENERGY   TOTAL ENERGY   ENERGY CHANGE        DEN1      VAR(S)    VAR(P)  DIIS     TIME
   1      1.10539434    -0.34308974   -78.97097573    -0.34308974    -0.00125635  0.13D-04  0.47D-03  1  1    11.70
   2      1.10654204    -0.34444515   -78.97233113    -0.00135541    -0.00000188  0.20D-06  0.76D-06  2  2    12.00
   3      1.10657053    -0.34446301   -78.97234900    -0.00001786    -0.00000001  0.67D-08  0.26D-08  3  3    12.28
   4      1.10657100    -0.34446302   -78.97234901    -0.00000001    -0.00000000  0.13D-09  0.10D-10  4  4    12.94

 Norm of t1 vector:      0.04229139      S-energy:    -0.00280262      T1 diagnostic:  0.00046525
 Norm of t2 vector:      0.32370116      P-energy:    -0.34166040
                                         Alpha-Beta:  -0.27131715
                                         Alpha-Alpha: -0.04226158
                                         Beta-Beta:   -0.02808168

 Spin contamination <S**2-Sz**2-Sz>     0.00023143
  Reference energy                    -78.627885985213
  CABS singles correction              -0.000876364613
  New reference energy                -78.628762349826
  RHF-RMP2 correlation energy          -0.344463023645
 !RHF-RMP2 energy                     -78.973225373471

  F12/3C(FIX) correction               -0.028405038032
  RHF-RMP2-F12 correlation energy      -0.372868061678
 !RHF-RMP2-F12 total energy           -79.001630411503

 Starting UCCSD calculation

 ITER.      SQ.NORM     CORR.ENERGY   TOTAL ENERGY   ENERGY CHANGE        DEN1      VAR(S)    VAR(P)  DIIS     TIME
   1      1.11750524    -0.35557144   -78.98345742    -0.35557144    -0.00998925  0.11D-02  0.24D-02  1  1    16.09
   2      1.12832860    -0.36615049   -78.99403647    -0.01057905    -0.00064403  0.76D-04  0.19D-03  2  2    18.96
   3      1.13172647    -0.36808670   -78.99597268    -0.00193621    -0.00007831  0.31D-04  0.19D-04  3  3    22.29
   4      1.13296949    -0.36858921   -78.99647519    -0.00050251    -0.00001266  0.45D-05  0.37D-05  4  4    25.36
   5      1.13344953    -0.36866991   -78.99655589    -0.00008070    -0.00000249  0.16D-05  0.51D-06  5  5    28.41
   6      1.13365425    -0.36869640   -78.99658239    -0.00002650    -0.00000032  0.13D-06  0.85D-07  6  6    31.68
   7      1.13370665    -0.36870207   -78.99658806    -0.00000567    -0.00000004  0.18D-07  0.90D-08  6  2    34.99
   8      1.13372350    -0.36870542   -78.99659141    -0.00000335    -0.00000000  0.18D-08  0.13D-08  6  1    37.89
   9      1.13372484    -0.36870485   -78.99659084     0.00000057    -0.00000000  0.21D-09  0.21D-09  6  4    40.83

 Norm of t1 vector:      0.07482213      S-energy:    -0.00322265      T1 diagnostic:  0.01064244
                                                                       D1 diagnostic:  0.02577848
                                                                       D2 diagnostic:  0.14124625 (internal)
 Norm of t2 vector:      0.35794761      P-energy:    -0.36548220
                                         Alpha-Beta:  -0.29757679
                                         Alpha-Alpha: -0.04109733
                                         Beta-Beta:   -0.02680808

 Spin contamination <S**2-Sz**2-Sz>     0.00013605

 For full I/O caching in triples, increase memory by 9.03 Mwords to 99.08 Mwords.


 RESULTS
 =======

  Reference energy                    -78.627885985213
  CABS relaxation correction to RHF    -0.000876364613
  New reference energy                -78.628762349826

  F12 corrections for ansatz 3C(FIX) added to UCCSD energy. Coupling mode: 15

  UCCSD-F12a singles energy            -0.003222652119
  UCCSD-F12a pair energy               -0.393765163907
  UCCSD-F12a correlation energy        -0.396987816025
  Triples (T) contribution             -0.012749708630
  Total correlation energy             -0.409737524655

  RHF-UCCSD-F12a energy               -79.025750165851
  RHF-UCCSD[T]-F12a energy            -79.038826349485
  RHF-UCCSD-T-F12a energy             -79.038382617459
 !RHF-UCCSD(T)-F12a energy            -79.038499874481

  F12 corrections for ansatz 3C(FIX) added to UCCSD energy. Coupling mode: 15

  UCCSD-F12b singles energy            -0.003222652119
  UCCSD-F12b pair energy               -0.387931385128
  UCCSD-F12b correlation energy        -0.391154037246
  Triples (T) contribution             -0.012749708630
  Total correlation energy             -0.403903745876

  RHF-UCCSD-F12b energy               -79.019916387072
  RHF-UCCSD[T]-F12b energy            -79.032992570706
  RHF-UCCSD-T-F12b energy             -79.032548838680
 !RHF-UCCSD(T)-F12b energy            -79.032666095702

 Program statistics:

 Available memory in ccsd:                89998729
 Min. memory needed in ccsd:               6754296
 Max. memory used in ccsd:                 9244848
 Max. memory used in cckext:               6723080 (10 integral passes)
 Max. memory used in cckint:              32913318 ( 1 integral passes)



 **********************************************************************************************************************************
 DATASETS  * FILE   NREC   LENGTH (MB)   RECORD NAMES
              1      19       30.32       500      703      610      704      900      950      970     1005      129      960   
                                          VAR     GEOM    BASINP    GEOM    SYMINP    ZMAT    AOBASIS   BASIS     P2S    ABASIS    
                                         1100     1400     1410     1200     1210     1080     1600     1650     1700   
                                           S        T        V       H0       H01     AOSYM     SMH    MOLCAS    OPER   

              2      23       34.85       500      610      700     1000      520     2100     7360     7350      701     1001   
                                          VAR    BASINP    GEOM     BASIS   MCVARS     RHF    F12ABS    EF12     GEOM     BASIS   
                                         2101      701(1)  1002     2102      702     1003     2103      703     1004     2104   
                                          RHF     GEOM     BASIS     RHF     GEOM     BASIS     RHF     GEOM     BASIS     RHF  
                                          704     1005     2105   
                                         GEOM     BASIS     RHF  

 PROGRAMS   *        TOTAL  UCCSD(T)    HF-SCF       INT   RESTART
 CPU TIMES  *        81.08     70.54      3.08      6.66      0.46
 REAL TIME  *       100.33 SEC
 DISK USED  *       317.87 MB (local),        5.68 GB (total)
 SF USED    *         2.35 GB
 GA USED    *         3.05 MB       (max)       0.00 MB       (current)
 **********************************************************************************************************************************

 UCCSD(T)-F12/cc-pVTZ-F12 energy=    -79.032666095702

    UCCSD(T)-F12          HF-SCF
    -79.03266610    -78.62788599
 **********************************************************************************************************************************
 Molpro calculation terminated
