 Entering Gaussian System, Link 0=g03
 Input=TolueneFreq.com
 Output=TolueneFreq.log
 Initial command:
 /opt/g03/l1.exe /scratch/laitcl/Gau-563.inp -scrdir=/scratch/laitcl/
 Entering Link 1 = /opt/g03/l1.exe PID=       567.
  
 Copyright (c) 1988,1990,1992,1993,1995,1998,2003,2004, Gaussian, Inc.
                  All Rights Reserved.
  
 This is the Gaussian(R) 03 program.  It is based on the
 the Gaussian(R) 98 system (copyright 1998, Gaussian, Inc.),
 the Gaussian(R) 94 system (copyright 1995, Gaussian, Inc.),
 the Gaussian 92(TM) system (copyright 1992, Gaussian, Inc.),
 the Gaussian 90(TM) system (copyright 1990, Gaussian, Inc.),
 the Gaussian 88(TM) system (copyright 1988, Gaussian, Inc.),
 the Gaussian 86(TM) system (copyright 1986, Carnegie Mellon
 University), and the Gaussian 82(TM) system (copyright 1983,
 Carnegie Mellon University). Gaussian is a federally registered
 trademark of Gaussian, Inc.
  
 This software contains proprietary and confidential information,
 including trade secrets, belonging to Gaussian, Inc.
  
 This software is provided under written license and may be
 used, copied, transmitted, or stored only in accord with that
 written license.
  
 The following legend is applicable only to US Government
 contracts under FAR:
  
                    RESTRICTED RIGHTS LEGEND
  
 Use, reproduction and disclosure by the US Government is
 subject to restrictions as set forth in subparagraphs (a)
 and (c) of the Commercial Computer Software - Restricted
 Rights clause in FAR 52.227-19.
  
 Gaussian, Inc.
 340 Quinnipiac St., Bldg. 40, Wallingford CT 06492
  
  
 ---------------------------------------------------------------
 Warning -- This program may not be used in any manner that
 competes with the business of Gaussian, Inc. or will provide
 assistance to any competitor of Gaussian, Inc.  The licensee
 of this program is prohibited from giving any competitor of
 Gaussian, Inc. access to this program.  By using this program,
 the user acknowledges that Gaussian, Inc. is engaged in the
 business of creating and licensing software in the field of
 computational chemistry and represents and warrants to the
 licensee that it is not a competitor of Gaussian, Inc. and that
 it will not use this program in any manner prohibited above.
 ---------------------------------------------------------------
  

 Cite this work as:
 Gaussian 03, Revision D.01,
 M. J. Frisch, G. W. Trucks, H. B. Schlegel, G. E. Scuseria, 
 M. A. Robb, J. R. Cheeseman, J. A. Montgomery, Jr., T. Vreven, 
 K. N. Kudin, J. C. Burant, J. M. Millam, S. S. Iyengar, J. Tomasi, 
 V. Barone, B. Mennucci, M. Cossi, G. Scalmani, N. Rega, 
 G. A. Petersson, H. Nakatsuji, M. Hada, M. Ehara, K. Toyota, 
 R. Fukuda, J. Hasegawa, M. Ishida, T. Nakajima, Y. Honda, O. Kitao, 
 H. Nakai, M. Klene, X. Li, J. E. Knox, H. P. Hratchian, J. B. Cross, 
 V. Bakken, C. Adamo, J. Jaramillo, R. Gomperts, R. E. Stratmann, 
 O. Yazyev, A. J. Austin, R. Cammi, C. Pomelli, J. W. Ochterski, 
 P. Y. Ayala, K. Morokuma, G. A. Voth, P. Salvador, J. J. Dannenberg, 
 V. G. Zakrzewski, S. Dapprich, A. D. Daniels, M. C. Strain, 
 O. Farkas, D. K. Malick, A. D. Rabuck, K. Raghavachari, 
 J. B. Foresman, J. V. Ortiz, Q. Cui, A. G. Baboul, S. Clifford, 
 J. Cioslowski, B. B. Stefanov, G. Liu, A. Liashenko, P. Piskorz, 
 I. Komaromi, R. L. Martin, D. J. Fox, T. Keith, M. A. Al-Laham, 
 C. Y. Peng, A. Nanayakkara, M. Challacombe, P. M. W. Gill, 
 B. Johnson, W. Chen, M. W. Wong, C. Gonzalez, and J. A. Pople, 
 Gaussian, Inc., Wallingford CT, 2004.
 
 ******************************************
 Gaussian 03:  AM64L-G03RevD.01 13-Oct-2005
                 7-Mar-2017 
 ******************************************
 %chk=TolueneFreq.chk
 %mem=1000mb
 %nproc=8
 Will use up to    8 processors via shared memory.
 -------------------------------------
 # freq nosymm b3lyp/cbsb7 iop(7/33=1)
 -------------------------------------
 1/10=4,30=1,38=1/1,3;
 2/15=1,17=6,18=5,40=1/2;
 3/5=4,6=6,7=700,11=2,16=1,25=1,30=1,74=-5/1,2,3;
 4//1;
 5/5=2,38=5/2;
 8/6=4,10=90,11=11/1;
 11/6=1,8=1,9=11,15=111,16=1,31=1/1,2,10;
 10/6=1,31=1/2;
 6/7=2,8=2,9=2,10=2,18=1,28=1/1;
 7/8=1,10=1,25=1,30=1,33=1/1,2,3,16;
 1/10=4,30=1/3;
 99//99;
 ------------
 Toluene Freq
 ------------
 Symbolic Z-matrix:
 Charge =  0 Multiplicity = 1
 C                     0.00827   0.71997   0. 
 C                     0.01111   0.00143   1.20014 
 C                     0.01111  -1.39152   1.20295 
 C                     0.01022  -2.09413   0. 
 C                     0.01111  -1.39152  -1.20295 
 C                     0.01111   0.00143  -1.20014 
 C                    -0.02402   2.22984   0. 
 H                     0.01565   0.53943   2.14306 
 H                     0.01573  -1.92799   2.14555 
 H                     0.0132   -3.1783    0. 
 H                     0.01573  -1.92799  -2.14555 
 H                     0.01565   0.53943  -2.14306 
 H                    -1.05489   2.60106   0. 
 H                     0.46998   2.63941   0.88421 
 H                     0.46998   2.63941  -0.88421 
 

 GradGradGradGradGradGradGradGradGradGradGradGradGradGradGradGradGradGrad
 Berny optimization.
 Initialization pass.
 Trust Radius=3.00D-01 FncErr=1.00D-07 GrdErr=1.00D-07
 Number of steps in this run=   2 maximum allowed number of steps=   2.
 GradGradGradGradGradGradGradGradGradGradGradGradGradGradGradGradGradGrad

                          Input orientation:                          
 ---------------------------------------------------------------------
 Center     Atomic     Atomic              Coordinates (Angstroms)
 Number     Number      Type              X           Y           Z
 ---------------------------------------------------------------------
    1          6             0        0.008270    0.719970    0.000000
    2          6             0        0.011110    0.001430    1.200140
    3          6             0        0.011110   -1.391520    1.202950
    4          6             0        0.010220   -2.094130    0.000000
    5          6             0        0.011110   -1.391520   -1.202950
    6          6             0        0.011110    0.001430   -1.200140
    7          6             0       -0.024020    2.229840    0.000000
    8          1             0        0.015650    0.539430    2.143060
    9          1             0        0.015730   -1.927990    2.145550
   10          1             0        0.013200   -3.178300    0.000000
   11          1             0        0.015730   -1.927990   -2.145550
   12          1             0        0.015650    0.539430   -2.143060
   13          1             0       -1.054890    2.601060    0.000000
   14          1             0        0.469980    2.639410    0.884210
   15          1             0        0.469980    2.639410   -0.884210
 ---------------------------------------------------------------------
                    Distance matrix (angstroms):
                    1          2          3          4          5
     1  C    0.000000
     2  C    1.398801   0.000000
     3  C    2.430121   1.392953   0.000000
     4  C    2.814101   2.414893   1.393108   0.000000
     5  C    2.430121   2.777616   2.405900   1.393108   0.000000
     6  C    1.398801   2.400280   2.777616   2.414893   1.392953
     7  C    1.510215   2.531281   3.816094   4.324106   3.816094
     8  H    2.150664   1.085616   2.147649   3.395346   3.863207
     9  H    3.408098   2.148600   1.084581   2.151980   3.391205
    10  H    3.898273   3.398680   2.153991   1.084174   2.153991
    11  H    3.408098   3.862166   3.391205   2.151980   1.084581
    12  H    2.150664   3.386215   3.863207   3.395346   2.147649
    13  H    2.160743   3.055285   4.303968   4.814485   4.303968
    14  H    2.163158   2.696166   4.069466   4.837314   4.562367
    15  H    2.163158   3.393231   4.562367   4.837314   4.069466
                    6          7          8          9         10
     6  C    0.000000
     7  C    2.531281   0.000000
     8  H    3.386215   2.729792   0.000000
     9  H    3.862166   4.678944   2.467421   0.000000
    10  H    3.398680   5.408268   4.291180   2.483277   0.000000
    11  H    2.148600   4.678944   4.947761   4.291100   2.483277
    12  H    1.085616   2.729792   4.286120   4.947761   4.291180
    13  H    3.055285   1.095672   3.160551   5.124637   5.877229
    14  H    3.393231   1.092525   2.490188   4.760091   5.902222
    15  H    2.696166   1.092525   3.712236   5.499721   5.902222
                   11         12         13         14         15
    11  H    0.000000
    12  H    2.467421   0.000000
    13  H    5.124637   3.160551   0.000000
    14  H    5.499721   3.712236   1.763101   0.000000
    15  H    4.760091   2.490188   1.763101   1.768420   0.000000
 Symmetry turned off by external request.
 Stoichiometry    C7H8
 Framework group  CS[SG(C3H2),X(C4H6)]
 Deg. of freedom    22
 Full point group                 CS
 Rotational constants (GHZ):      5.5548152      2.5165401      1.7507580
 Standard basis: CBSB7 (5D, 7F)
 Integral buffers will be    131072 words long.
 Raffenetti 2 integral format.
 Two-electron integral symmetry is turned off.
   174 basis functions,   288 primitive gaussians,   181 cartesian basis functions
    25 alpha electrons       25 beta electrons
       nuclear repulsion energy       269.1308028349 Hartrees.
 NAtoms=   15 NActive=   15 NUniq=   15 SFac= 7.50D-01 NAtFMM=   80 NAOKFM=F Big=F
 One-electron integrals computed using PRISM.
 NBasis=   174 RedAO= T  NBF=   174
 NBsUse=   174 1.00D-06 NBFU=   174
 Harris functional with IExCor=  402 diagonalized for initial guess.
 ExpMin= 1.03D-01 ExpMax= 4.56D+03 ExpMxC= 6.82D+02 IAcc=1 IRadAn=         1 AccDes= 1.00D-06
 HarFok:  IExCor= 402 AccDes= 1.00D-06 IRadAn=         1 IDoV=1
 ScaDFX=  1.000000  1.000000  1.000000  1.000000
 Requested convergence on RMS density matrix=1.00D-08 within 128 cycles.
 Requested convergence on MAX density matrix=1.00D-06.
 Requested convergence on             energy=1.00D-06.
 No special actions if energy rises.
 Integral accuracy reduced to 1.0D-05 until final iterations.
 Initial convergence to 1.0D-05 achieved.  Increase integral accuracy.
 SCF Done:  E(RB+HF-LYP) =  -271.636052740     A.U. after   14 cycles
             Convg  =    0.1734D-08             -V/T =  2.0046
             S**2   =   0.0000
 Range of M.O.s used for correlation:     1   174
 NBasis=   174 NAE=    25 NBE=    25 NFC=     0 NFV=     0
 NROrb=    174 NOA=    25 NOB=    25 NVA=   149 NVB=   149

 **** Warning!!: The largest alpha MO coefficient is  0.18959677D+02

 Symmetrizing basis deriv contribution to polar:
 IMax=3 JMax=2 DiffMx= 0.00D+00
 G2DrvN: will do   16 centers at a time, making    1 passes doing MaxLOS=2.
 FoFDir/FoFCou used for L=0 through L=2.
 DoAtom=TTTTTTTTTTTTTTT
          Differentiating once with respect to electric field.
                with respect to dipole field.
          Differentiating once with respect to nuclear coordinates.
 Symmetry not used in FoFDir.
 MinBra= 0 MaxBra= 2 Meth= 1.
 IRaf=       0 NMat=  48 IRICut=      48 DoRegI=T DoRafI=T ISym2E= 0 JSym2E=0.
          There are  48 degrees of freedom in the 1st order CPHF.
    45 vectors were produced by pass  0.
 AX will form  45 AO Fock derivatives at one time.
    45 vectors were produced by pass  1.
    45 vectors were produced by pass  2.
    45 vectors were produced by pass  3.
    45 vectors were produced by pass  4.
    29 vectors were produced by pass  5.
     6 vectors were produced by pass  6.
     2 vectors were produced by pass  7.
 Inv2:  IOpt= 1 Iter= 1 AM= 2.43D-15 Conv= 1.00D-12.
 Inverted reduced A of dimension  262 with in-core refinement.
 Isotropic polarizability for W=    0.000000       72.38 Bohr**3.
 End of Minotr Frequency-dependent properties file   721 does not exist.

 **********************************************************************

            Population analysis using the SCF density.

 **********************************************************************

 Alpha  occ. eigenvalues --  -10.18118 -10.17130 -10.17124 -10.16919 -10.16880
 Alpha  occ. eigenvalues --  -10.16877 -10.16776  -0.85703  -0.77241  -0.74475
 Alpha  occ. eigenvalues --   -0.68652  -0.60548  -0.58481  -0.51253  -0.46159
 Alpha  occ. eigenvalues --   -0.45491  -0.42228  -0.42063  -0.40982  -0.38747
 Alpha  occ. eigenvalues --   -0.35673  -0.34366  -0.34055  -0.25336  -0.24458
 Alpha virt. eigenvalues --   -0.00774  -0.00571   0.04543   0.06214   0.07503
 Alpha virt. eigenvalues --    0.09869   0.10865   0.11029   0.13654   0.13858
 Alpha virt. eigenvalues --    0.16612   0.20541   0.27002   0.27488   0.28470
 Alpha virt. eigenvalues --    0.29468   0.30841   0.31781   0.33720   0.39978
 Alpha virt. eigenvalues --    0.40612   0.40840   0.41226   0.43265   0.44419
 Alpha virt. eigenvalues --    0.44993   0.46870   0.47092   0.48219   0.50212
 Alpha virt. eigenvalues --    0.54458   0.54620   0.55486   0.58592   0.60412
 Alpha virt. eigenvalues --    0.60508   0.61176   0.62477   0.62588   0.62851
 Alpha virt. eigenvalues --    0.65559   0.68823   0.73638   0.73793   0.76333
 Alpha virt. eigenvalues --    0.79051   0.81419   0.85302   0.85341   0.89737
 Alpha virt. eigenvalues --    0.93898   0.95521   1.00873   1.01792   1.03213
 Alpha virt. eigenvalues --    1.05268   1.08562   1.13136   1.14345   1.24586
 Alpha virt. eigenvalues --    1.32216   1.33101   1.34796   1.41335   1.45155
 Alpha virt. eigenvalues --    1.46712   1.46735   1.48400   1.51362   1.54024
 Alpha virt. eigenvalues --    1.55564   1.57180   1.57825   1.58355   1.59075
 Alpha virt. eigenvalues --    1.63952   1.67437   1.68563   1.73197   1.74440
 Alpha virt. eigenvalues --    1.77844   1.80186   1.80622   1.83266   1.89720
 Alpha virt. eigenvalues --    1.90667   1.91295   1.91840   1.92900   1.95726
 Alpha virt. eigenvalues --    1.98295   2.02163   2.02179   2.08080   2.10840
 Alpha virt. eigenvalues --    2.20526   2.22336   2.23973   2.30077   2.31938
 Alpha virt. eigenvalues --    2.34688   2.35276   2.38258   2.40613   2.47678
 Alpha virt. eigenvalues --    2.50613   2.52780   2.53330   2.57563   2.60109
 Alpha virt. eigenvalues --    2.61273   2.62178   2.64288   2.65603   2.67828
 Alpha virt. eigenvalues --    2.68159   2.69270   2.72884   2.76072   2.81545
 Alpha virt. eigenvalues --    2.85680   2.85723   2.88423   2.91933   2.93695
 Alpha virt. eigenvalues --    3.06215   3.11798   3.18706   3.32912   3.34662
 Alpha virt. eigenvalues --    3.47090   3.47582   3.59187   3.64475   3.78989
 Alpha virt. eigenvalues --    3.81090   3.96736   4.02796   4.11702   4.12087
 Alpha virt. eigenvalues --    4.32426   4.83940  23.52127  23.89773  23.94491
 Alpha virt. eigenvalues --   23.94746  24.08234  24.10266  24.19702
          Condensed to atoms (all electrons):
              1          2          3          4          5          6
     1  C    5.026081   0.525486  -0.051282  -0.040822  -0.051282   0.525486
     2  C    0.525486   4.841300   0.532546  -0.060205  -0.037858  -0.054317
     3  C   -0.051282   0.532546   4.840813   0.521308  -0.057484  -0.037858
     4  C   -0.040822  -0.060205   0.521308   4.867283   0.521308  -0.060205
     5  C   -0.051282  -0.037858  -0.057484   0.521308   4.840813   0.532546
     6  C    0.525486  -0.054317  -0.037858  -0.060205   0.532546   4.841300
     7  C    0.359774  -0.057184   0.005608   0.000141   0.005608  -0.057184
     8  H   -0.049328   0.417275  -0.039401   0.008003  -0.000587   0.007684
     9  H    0.008280  -0.042058   0.414264  -0.043481   0.007588  -0.000404
    10  H   -0.000425   0.007660  -0.042507   0.415718  -0.042507   0.007660
    11  H    0.008280  -0.000404   0.007588  -0.043481   0.414264  -0.042058
    12  H   -0.049328   0.007684  -0.000587   0.008003  -0.039401   0.417275
    13  H   -0.035012  -0.002972  -0.000211   0.000103  -0.000211  -0.002972
    14  H   -0.036621  -0.006859   0.000506   0.000012  -0.000342   0.005394
    15  H   -0.036621   0.005394  -0.000342   0.000012   0.000506  -0.006859
              7          8          9         10         11         12
     1  C    0.359774  -0.049328   0.008280  -0.000425   0.008280  -0.049328
     2  C   -0.057184   0.417275  -0.042058   0.007660  -0.000404   0.007684
     3  C    0.005608  -0.039401   0.414264  -0.042507   0.007588  -0.000587
     4  C    0.000141   0.008003  -0.043481   0.415718  -0.043481   0.008003
     5  C    0.005608  -0.000587   0.007588  -0.042507   0.414264  -0.039401
     6  C   -0.057184   0.007684  -0.000404   0.007660  -0.042058   0.417275
     7  C    4.806246  -0.007511  -0.000345   0.000044  -0.000345  -0.007511
     8  H   -0.007511   0.586762  -0.008745  -0.000364   0.000082  -0.000390
     9  H   -0.000345  -0.008745   0.581521  -0.008072  -0.000395   0.000082
    10  H    0.000044  -0.000364  -0.008072   0.579515  -0.008072  -0.000364
    11  H   -0.000345   0.000082  -0.000395  -0.008072   0.581521  -0.008745
    12  H   -0.007511  -0.000390   0.000082  -0.000364  -0.008745   0.586762
    13  H    0.397709   0.000450   0.000014  -0.000002   0.000014   0.000450
    14  H    0.406911   0.002893  -0.000026  -0.000003   0.000023  -0.000005
    15  H    0.406911  -0.000005   0.000023  -0.000003  -0.000026   0.002893
             13         14         15
     1  C   -0.035012  -0.036621  -0.036621
     2  C   -0.002972  -0.006859   0.005394
     3  C   -0.000211   0.000506  -0.000342
     4  C    0.000103   0.000012   0.000012
     5  C   -0.000211  -0.000342   0.000506
     6  C   -0.002972   0.005394  -0.006859
     7  C    0.397709   0.406911   0.406911
     8  H    0.000450   0.002893  -0.000005
     9  H    0.000014  -0.000026   0.000023
    10  H   -0.000002  -0.000003  -0.000003
    11  H    0.000014   0.000023  -0.000026
    12  H    0.000450  -0.000005   0.002893
    13  H    0.574025  -0.028902  -0.028902
    14  H   -0.028902   0.572775  -0.027825
    15  H   -0.028902  -0.027825   0.572775
 Mulliken atomic charges:
              1
     1  C   -0.102666
     2  C   -0.075489
     3  C   -0.092963
     4  C   -0.093699
     5  C   -0.092963
     6  C   -0.075489
     7  C   -0.258872
     8  H    0.083181
     9  H    0.091753
    10  H    0.091720
    11  H    0.091753
    12  H    0.083181
    13  H    0.126418
    14  H    0.112068
    15  H    0.112068
 Sum of Mulliken charges=   0.00000
 Atomic charges with hydrogens summed into heavy atoms:
              1
     1  C   -0.102666
     2  C    0.007692
     3  C   -0.001210
     4  C   -0.001979
     5  C   -0.001210
     6  C    0.007692
     7  C    0.091682
     8  H    0.000000
     9  H    0.000000
    10  H    0.000000
    11  H    0.000000
    12  H    0.000000
    13  H    0.000000
    14  H    0.000000
    15  H    0.000000
 Sum of Mulliken charges=   0.00000
 APT atomic charges:
              1
     1  C    0.073214
     2  C   -0.068138
     3  C   -0.006390
     4  C   -0.059709
     5  C   -0.006390
     6  C   -0.068138
     7  C    0.080183
     8  H    0.022010
     9  H    0.022480
    10  H    0.026549
    11  H    0.022480
    12  H    0.022010
    13  H   -0.030027
    14  H   -0.015067
    15  H   -0.015067
 Sum of APT charges=   0.00000
 APT Atomic charges with hydrogens summed into heavy atoms:
              1
     1  C    0.073214
     2  C   -0.046128
     3  C    0.016089
     4  C   -0.033160
     5  C    0.016089
     6  C   -0.046128
     7  C    0.020023
     8  H    0.000000
     9  H    0.000000
    10  H    0.000000
    11  H    0.000000
    12  H    0.000000
    13  H    0.000000
    14  H    0.000000
    15  H    0.000000
 Sum of APT charges=   0.00000
 Electronic spatial extent (au):  <R**2>=   725.3956
 Charge=     0.0000 electrons
 Dipole moment (field-independent basis, Debye):
    X=    -0.0382    Y=     0.3497    Z=     0.0000  Tot=     0.3517
 Quadrupole moment (field-independent basis, Debye-Ang):
   XX=   -45.9590   YY=   -38.5152   ZZ=   -38.7545
   XY=    -0.0915   XZ=     0.0000   YZ=     0.0000
 Traceless Quadrupole moment (field-independent basis, Debye-Ang):
   XX=    -4.8828   YY=     2.5610   ZZ=     2.3218
   XY=    -0.0915   XZ=     0.0000   YZ=     0.0000
 Octapole moment (field-independent basis, Debye-Ang**2):
  XXX=    -1.3137  YYY=    17.7422  ZZZ=     0.0000  XYY=    -0.1751
  XXY=    12.2947  XXZ=     0.0000  XZZ=     0.4759  YZZ=     6.3613
  YYZ=     0.0000  XYZ=     0.0000
 Hexadecapole moment (field-independent basis, Debye-Ang**3):
 XXXX=   -58.5510 YYYY=  -617.9963 ZZZZ=  -288.0343 XXXY=     0.6721
 XXXZ=     0.0000 YYYX=     2.1926 YYYZ=     0.0000 ZZZX=     0.0000
 ZZZY=     0.0000 XXYY=  -123.1907 XXZZ=   -67.5317 YYZZ=  -148.3034
 XXYZ=     0.0000 YYXZ=     0.0000 ZZXY=     2.2572
 N-N= 2.691308028349D+02 E-N=-1.167923115532D+03  KE= 2.703859608054D+02
  Exact polarizability:  38.239  -0.615  95.973   0.000   0.000  82.940
 Approx polarizability:  58.128  -0.822 145.277   0.000   0.000 138.432
 Use density number 0.
 Entering OneElI...
 Calculate overlap and kinetic energy integrals
    NBasis = 181  MinDer = 2  MaxDer = 2
 Requested accuracy = 0.1000D-12
 PrsmSu:  NPrtUS=   1 ThrOK=F
 PRISM was handed   130782886 working-precision words and  2273 shell-pairs
 Entering OneElI...
 Calculate potential energy integrals
    NBasis = 181  MinDer = 2  MaxDer = 2
 Requested accuracy = 0.1000D-12
 PrsmSu:  NPrtUS=   8 ThrOK=T
 PRISM was handed    16307008 working-precision words and  2107 shell-pairs
 PRISM was handed    16307008 working-precision words and  2107 shell-pairs
 PRISM was handed    16307008 working-precision words and  2107 shell-pairs
 PRISM was handed    16307008 working-precision words and  2107 shell-pairs
 PRISM was handed    16307008 working-precision words and  2107 shell-pairs
 PRISM was handed    16307008 working-precision words and  2107 shell-pairs
 PRISM was handed    16307008 working-precision words and  2107 shell-pairs
 PRISM was handed    16307008 working-precision words and  2107 shell-pairs
 Polarizability after L701:
                1             2             3
      1  0.382391D+02
      2 -0.615072D+00  0.959727D+02
      3  0.000000D+00  0.000000D+00  0.829400D+02
 Dipole Derivatives after L701:
               1            2            3            4            5
      1-0.760074D-01-0.229974D-01 0.000000D+00-0.127509D+00 0.317062D-02
      2-0.824839D-01 0.378541D+00 0.000000D+00 0.496611D-02-0.146901D+00
      3 0.000000D+00 0.000000D+00-0.828914D-01-0.264867D-02 0.707099D-01
               6            7            8            9           10
      1-0.294962D-02-0.129016D+00-0.135668D-02 0.467427D-02-0.141930D+00
      2 0.127624D+00 0.437883D-02 0.121237D-01-0.719885D-01 0.268805D-02
      3 0.699964D-01 0.458670D-02-0.538516D-01 0.977217D-01 0.000000D+00
              11           12           13           14           15
      1 0.229929D-02 0.000000D+00-0.129016D+00-0.135667D-02-0.467428D-02
      2 0.705212D-01 0.000000D+00 0.437883D-02 0.121237D-01 0.719885D-01
      3 0.000000D+00-0.107718D+00-0.458669D-02 0.538516D-01 0.977217D-01
              16           17           18           19           20
      1-0.127509D+00 0.317062D-02 0.294962D-02 0.130760D+00 0.588310D-02
      2 0.496610D-02-0.146901D+00-0.127624D+00 0.111013D+00-0.168560D-01
      3 0.264867D-02-0.707099D-01 0.699964D-01 0.000000D+00 0.000000D+00
              21           22           23           24           25
      1 0.000000D+00 0.122426D+00-0.179319D-02-0.272149D-03 0.128841D+00
      2 0.000000D+00-0.380198D-02 0.104721D-01-0.820803D-01-0.170199D-02
      3 0.126644D+00-0.293910D-02-0.956194D-01-0.668687D-01-0.308995D-02
              26           27           28           29           30
      1 0.245471D-04-0.987061D-03 0.133794D+00 0.485796D-03 0.000000D+00
      2 0.133320D-01 0.873755D-01-0.169554D-03-0.122860D+00 0.000000D+00
      3 0.804741D-01-0.747347D-01 0.000000D+00 0.000000D+00 0.687134D-01
              31           32           33           34           35
      1 0.128841D+00 0.245471D-04 0.987062D-03 0.122426D+00-0.179319D-02
      2-0.170199D-02 0.133320D-01-0.873755D-01-0.380198D-02 0.104720D-01
      3 0.308994D-02-0.804741D-01-0.747347D-01 0.293910D-02 0.956194D-01
              36           37           38           39           40
      1 0.272149D-03-0.106532D+00 0.443515D-01 0.000000D+00 0.352144D-01
      2 0.820803D-01 0.887095D-01-0.659610D-01 0.000000D+00-0.637194D-01
      3-0.668687D-01 0.000000D+00 0.000000D+00 0.824120D-01-0.723281D-01
              41           42           43           44           45
      1-0.150565D-01-0.821163D-01 0.352144D-01-0.150565D-01 0.821163D-01
      2-0.107194D-01-0.891494D-01-0.637194D-01-0.107194D-01 0.891494D-01
      3-0.158717D-01-0.696946D-01 0.723281D-01 0.158717D-01-0.696946D-01
 Hessian after L701:
                1             2             3             4             5
      1  0.257081D+02
      2  0.336873D+00  0.116466D+02
      3  0.000000D+00  0.000000D+00  0.111726D+02
      4 -0.102833D+02 -0.661834D-01  0.188386D-02  0.243355D+02
      5 -0.523985D-01 -0.613606D+01 -0.353433D+01 -0.265072D-02  0.963834D+01
      6  0.192022D-01 -0.386453D+01 -0.282765D+01  0.298506D-02  0.230225D+01
      7 -0.682922D-02 -0.318935D-01  0.772799D-03 -0.996417D+01  0.395621D-01
      8 -0.391979D-01  0.360333D+00 -0.340901D+00  0.409114D-01 -0.456562D+00
      9  0.660165D-02 -0.298671D+00  0.133405D+00 -0.248730D-02 -0.201821D+00
     10  0.100030D+00  0.517080D-03  0.000000D+00  0.758322D-01  0.235442D-02
     11 -0.746059D-02 -0.125352D+00  0.000000D+00  0.660741D-02  0.441330D+00
     12  0.000000D+00  0.000000D+00 -0.128392D+00  0.666033D-02  0.315418D+00
     13 -0.682922D-02 -0.318935D-01 -0.772799D-03  0.101069D+00 -0.201148D-01
     14 -0.391979D-01  0.360333D+00  0.340901D+00 -0.191760D-01 -0.172085D+00
     15 -0.660165D-02  0.298671D+00  0.133405D+00 -0.212633D-01  0.544109D-02
     16 -0.102833D+02 -0.661834D-01 -0.188386D-02  0.111939D-01 -0.358331D-02
     17 -0.523985D-01 -0.613606D+01  0.353433D+01 -0.358331D-02 -0.953510D-01
     18 -0.192022D-01  0.386453D+01 -0.282765D+01  0.672280D-02 -0.489725D-01
     19 -0.570175D+01 -0.137244D+00  0.000000D+00 -0.291997D-01  0.153849D-01
     20 -0.136617D+00 -0.579977D+00  0.000000D+00  0.269104D-01  0.263095D+00
     21  0.000000D+00  0.000000D+00 -0.576357D+01 -0.162986D-02 -0.181613D+00
     22  0.121683D+00  0.138938D-04 -0.111615D-02 -0.422658D+01  0.825727D-02
     23  0.101465D-02  0.150942D+00  0.145712D-01  0.855692D-02 -0.363503D+01
     24 -0.846324D-04 -0.495953D-01 -0.104512D+00  0.146468D-01  0.131550D+01
     25 -0.439229D-01 -0.326743D-04  0.297363D-03  0.831548D-01  0.164922D-02
     26 -0.152573D-02  0.120281D+00 -0.122685D+00  0.256111D-02 -0.624811D-01
     27  0.193285D-02 -0.156593D+00  0.561196D-01 -0.156616D-02  0.511878D-01
     28 -0.144048D-01 -0.286110D-04  0.000000D+00 -0.418486D-01 -0.319165D-03
     29 -0.158261D-02  0.620151D-01  0.000000D+00  0.326932D-03  0.182509D+00
     30  0.000000D+00  0.000000D+00 -0.146853D-01  0.560035D-04  0.730263D-01
     31 -0.439229D-01 -0.326744D-04 -0.297363D-03 -0.147657D-01 -0.239424D-03
     32 -0.152573D-02  0.120281D+00  0.122685D+00 -0.284856D-03  0.197860D-02
     33 -0.193285D-02  0.156593D+00  0.561196D-01 -0.291183D-03  0.294692D-01
     34  0.121683D+00  0.138938D-04  0.111615D-02 -0.452209D-01  0.598169D-04
     35  0.101465D-02  0.150942D+00 -0.145712D-01 -0.128265D-03 -0.454415D-01
     36  0.846323D-04  0.495953D-01 -0.104512D+00  0.645560D-03 -0.460144D-01
     37  0.174219D+00 -0.738416D-01  0.000000D+00  0.291486D-01 -0.707049D-01
     38 -0.307221D-01 -0.818638D-02  0.000000D+00 -0.465638D-01  0.952976D-02
     39  0.000000D+00  0.000000D+00  0.485873D-01  0.192903D-01 -0.794065D-02
     40  0.792675D-01  0.349579D-01  0.308393D-01 -0.352539D-02  0.387105D-01
     41  0.118624D-01  0.693447D-02 -0.376120D-01  0.173269D-01 -0.981837D-03
     42  0.334881D-01  0.167611D-01  0.853460D-01  0.493048D-02  0.300677D-01
     43  0.792675D-01  0.349579D-01 -0.308393D-01 -0.272830D-01  0.440325D-01
     44  0.118624D-01  0.693447D-02  0.376120D-01  0.353692D-01  0.672171D-01
     45 -0.334881D-01 -0.167611D-01  0.853460D-01 -0.305834D-01 -0.101676D+00
                6             7             8             9            10
      6  0.123439D+02
      7 -0.124668D-02  0.236901D+02
      8  0.161225D+00  0.189685D-01  0.977509D+01
      9 -0.841869D+01 -0.297309D-01 -0.155852D+01  0.119483D+02
     10  0.732910D-02 -0.977735D+01 -0.630900D-02 -0.842681D-03  0.233016D+02
     11  0.225387D+00 -0.803343D-02 -0.624578D+01  0.360865D+01  0.196146D-01
     12  0.100719D+00  0.215333D-02  0.320297D+01 -0.240244D+01  0.000000D+00
     13 -0.229239D-01  0.250677D-01  0.108258D-02  0.831355D-03 -0.977735D+01
     14 -0.771849D-02  0.108258D-02 -0.713755D-01 -0.355017D-01 -0.630900D-02
     15 -0.137874D+00 -0.831355D-03  0.355017D-01  0.606891D+00  0.842681D-03
     16 -0.672279D-02  0.101069D+00 -0.191760D-01  0.212633D-01  0.758322D-01
     17  0.489725D-01 -0.201148D-01 -0.172085D+00 -0.544109D-02  0.235442D-02
     18  0.654286D+00  0.229239D-01  0.771849D-02 -0.137874D+00 -0.732910D-02
     19 -0.258637D-02 -0.119429D+00  0.199598D-02 -0.111042D-02 -0.746297D-01
     20 -0.125601D+00  0.503678D-03  0.267317D+00 -0.131888D+00 -0.479259D-02
     21 -0.234718D-01 -0.870091D-03 -0.137197D+00 -0.903405D-01  0.000000D+00
     22  0.140906D-01  0.785502D-01  0.257155D-02  0.760856D-03 -0.435466D-01
     23  0.123377D+01  0.214557D-02 -0.587393D-01 -0.758828D-01  0.226572D-03
     24 -0.202270D+01  0.142347D-02 -0.514892D-01  0.856711D-01  0.133010D-03
     25 -0.365689D-03 -0.403341D+01 -0.295269D-02  0.470212D-02  0.880475D-01
     26  0.783326D-01 -0.228486D-02 -0.343214D+01 -0.123105D+01 -0.172356D-03
     27  0.914534D-01  0.400683D-02 -0.120777D+01 -0.197427D+01 -0.188192D-02
     28  0.467258D-05  0.834063D-01  0.285551D-03  0.474796D-04 -0.399740D+01
     29  0.922610D-01  0.389348D-03 -0.150188D-03 -0.831274D-01 -0.654577D-02
     30 -0.214521D-01  0.357711D-03 -0.107817D+00  0.353132D-01  0.000000D+00
     31 -0.555402D-05 -0.417761D-01 -0.425570D-04 -0.966441D-03  0.880475D-01
     32  0.293805D-01 -0.201077D-03 -0.423772D-01  0.578100D-01 -0.172356D-03
     33  0.342123D-01 -0.116722D-02  0.358727D-01  0.202963D+00  0.188192D-02
     34 -0.882418D-04 -0.141349D-01 -0.822408D-04 -0.837710D-04 -0.435466D-01
     35 -0.557034D-01 -0.402109D-03  0.595956D-03 -0.262454D-01  0.226572D-03
     36  0.216878D+00  0.631042D-03 -0.273413D-01  0.321706D-01 -0.133010D-03
     37  0.314701D-01 -0.277405D-02 -0.239825D-01  0.596232D-02 -0.295652D-02
     38 -0.109855D-01 -0.626309D-02  0.182365D-01 -0.714067D-02 -0.353089D-02
     39 -0.174152D-01  0.148453D-02 -0.811568D-02 -0.875792D-02  0.000000D+00
     40 -0.377257D-02 -0.122127D-01  0.156795D-01 -0.238258D-03 -0.632042D-02
     41 -0.888856D-02  0.343867D-02  0.458168D-01 -0.363957D-02  0.126913D-02
     42 -0.172273D-01  0.284929D-02  0.166270D-01 -0.143820D-01  0.172601D-02
     43 -0.373700D-01 -0.610672D-02  0.102478D-01 -0.470932D-02 -0.632042D-02
     44 -0.981516D-01  0.310238D-02  0.118166D-01 -0.753077D-02  0.126913D-02
     45  0.450494D-01 -0.275670D-02 -0.207603D-01  0.199698D-02 -0.172601D-02
               11            12            13            14            15
     11  0.123725D+02
     12  0.000000D+00  0.892354D+01
     13 -0.803343D-02 -0.215333D-02  0.236901D+02
     14 -0.624578D+01 -0.320297D+01  0.189685D-01  0.977509D+01
     15 -0.360865D+01 -0.240244D+01  0.297309D-01  0.155852D+01  0.119483D+02
     16  0.660741D-02 -0.666033D-02 -0.996417D+01  0.409114D-01  0.248730D-02
     17  0.441330D+00 -0.315418D+00  0.395621D-01 -0.456562D+00  0.201821D+00
     18 -0.225387D+00  0.100719D+00  0.124668D-02 -0.161225D+00 -0.841869D+01
     19 -0.188991D-02  0.000000D+00 -0.119429D+00  0.199598D-02  0.111042D-02
     20  0.123490D+00  0.000000D+00  0.503678D-03  0.267317D+00  0.131888D+00
     21  0.000000D+00 -0.790751D-01  0.870091D-03  0.137197D+00 -0.903405D-01
     22  0.886994D-03  0.705845D-03 -0.141349D-01 -0.822408D-04  0.837710D-04
     23  0.105865D+00  0.123058D+00 -0.402109D-03  0.595956D-03  0.262454D-01
     24  0.146619D+00  0.613783D-01 -0.631042D-03  0.273413D-01  0.321706D-01
     25 -0.366489D-03 -0.171912D-02 -0.417761D-01 -0.425570D-04  0.966442D-03
     26  0.113502D+00 -0.474802D-01 -0.201077D-03 -0.423772D-01 -0.578100D-01
     27 -0.271583D-01 -0.693078D-01  0.116722D-02 -0.358727D-01  0.202963D+00
     28 -0.649846D-02  0.000000D+00  0.834063D-01  0.285551D-03 -0.474795D-04
     29 -0.126008D+01  0.000000D+00  0.389348D-03 -0.150189D-03  0.831274D-01
     30  0.000000D+00 -0.408258D+01 -0.357711D-03  0.107817D+00  0.353132D-01
     31 -0.366489D-03  0.171912D-02 -0.403341D+01 -0.295269D-02 -0.470212D-02
     32  0.113502D+00  0.474802D-01 -0.228486D-02 -0.343214D+01  0.123105D+01
     33  0.271583D-01 -0.693078D-01 -0.400683D-02  0.120777D+01 -0.197427D+01
     34  0.886994D-03 -0.705845D-03  0.785502D-01  0.257155D-02 -0.760856D-03
     35  0.105865D+00 -0.123058D+00  0.214557D-02 -0.587393D-01  0.758828D-01
     36 -0.146619D+00  0.613783D-01 -0.142347D-02  0.514892D-01  0.856711D-01
     37 -0.194148D-01  0.000000D+00 -0.277405D-02 -0.239825D-01 -0.596232D-02
     38  0.201098D-01  0.000000D+00 -0.626309D-02  0.182365D-01  0.714067D-02
     39  0.000000D+00 -0.691184D-02 -0.148453D-02  0.811568D-02 -0.875792D-02
     40  0.873006D-02  0.269329D-02 -0.610672D-02  0.102478D-01  0.470932D-02
     41  0.197631D-01  0.571264D-02  0.310238D-02  0.118166D-01  0.753077D-02
     42  0.168838D-01 -0.363498D-02  0.275670D-02  0.207603D-01  0.199698D-02
     43  0.873006D-02 -0.269329D-02 -0.122127D-01  0.156795D-01  0.238258D-03
     44  0.197631D-01 -0.571264D-02  0.343867D-02  0.458168D-01  0.363957D-02
     45 -0.168838D-01 -0.363499D-02 -0.284929D-02 -0.166270D-01 -0.143820D-01
               16            17            18            19            20
     16  0.243355D+02
     17 -0.265072D-02  0.963834D+01
     18 -0.298506D-02 -0.230225D+01  0.123439D+02
     19 -0.291997D-01  0.153849D-01  0.258637D-02  0.142913D+02
     20  0.269104D-01  0.263095D+00  0.125601D+00  0.492586D-01  0.961348D+01
     21  0.162986D-02  0.181613D+00 -0.234718D-01  0.000000D+00  0.000000D+00
     22 -0.452209D-01  0.598168D-04  0.882418D-04 -0.199238D-01 -0.407229D-02
     23 -0.128265D-03 -0.454415D-01  0.557034D-01 -0.437403D-02 -0.152021D-01
     24 -0.645560D-03  0.460144D-01  0.216878D+00  0.563031D-02 -0.678237D-02
     25 -0.147657D-01 -0.239424D-03  0.555405D-05 -0.842327D-02 -0.710473D-04
     26 -0.284856D-03  0.197860D-02 -0.293805D-01 -0.270119D-03  0.795440D-02
     27  0.291183D-03 -0.294692D-01  0.342123D-01 -0.879690D-05 -0.153969D-01
     28 -0.418486D-01 -0.319165D-03 -0.467273D-05 -0.732962D-02  0.000000D+00
     29  0.326932D-03  0.182509D+00 -0.922610D-01 -0.127046D-04  0.207622D-01
     30 -0.560035D-04 -0.730263D-01 -0.214521D-01  0.000000D+00  0.000000D+00
     31  0.831548D-01  0.164922D-02  0.365689D-03 -0.842327D-02 -0.710473D-04
     32  0.256111D-02 -0.624811D-01 -0.783326D-01 -0.270119D-03  0.795440D-02
     33  0.156616D-02 -0.511878D-01  0.914534D-01  0.879689D-05  0.153969D-01
     34 -0.422658D+01  0.825727D-02 -0.140906D-01 -0.199238D-01 -0.407229D-02
     35  0.855692D-02 -0.363503D+01 -0.123377D+01 -0.437403D-02 -0.152021D-01
     36 -0.146468D-01 -0.131550D+01 -0.202270D+01 -0.563031D-02  0.678237D-02
     37  0.291486D-01 -0.707049D-01 -0.314701D-01 -0.154934D+01 -0.817352D+00
     38 -0.465638D-01  0.952976D-02  0.109855D-01 -0.972807D+00 -0.341205D+01
     39 -0.192903D-01  0.794065D-02 -0.174152D-01  0.000000D+00  0.000000D+00
     40 -0.272830D-01  0.440325D-01  0.373700D-01 -0.330216D+01  0.431481D+00
     41  0.353692D-01  0.672171D-01  0.981516D-01  0.518611D+00 -0.340602D+01
     42  0.305834D-01  0.101676D+00  0.450494D-01  0.909871D+00  0.784488D+00
     43 -0.352539D-02  0.387105D-01  0.377257D-02 -0.330216D+01  0.431481D+00
     44  0.173269D-01 -0.981837D-03  0.888856D-02  0.518611D+00 -0.340602D+01
     45 -0.493048D-02 -0.300677D-01 -0.172273D-01 -0.909871D+00 -0.784488D+00
               21            22            23            24            25
     21  0.141490D+02
     22  0.427144D-02  0.415592D+01
     23  0.166357D-01 -0.119003D-01  0.353359D+01
     24  0.376704D-02 -0.184099D-01 -0.138038D+01  0.168635D+01
     25  0.569192D-04  0.136102D-01  0.507202D-04  0.564586D-04  0.395162D+01
     26 -0.949169D-02  0.143263D-03 -0.572712D-01  0.474549D-02  0.211605D-02
     27  0.456548D-02 -0.134956D-03 -0.448532D-02  0.104184D-01 -0.390930D-02
     28  0.000000D+00 -0.628620D-03 -0.690418D-04 -0.378892D-04  0.112229D-01
     29  0.000000D+00  0.138393D-03  0.436646D-02  0.104142D-01 -0.112742D-03
     30 -0.533310D-02  0.992558D-05 -0.215546D-02  0.317317D-04 -0.839086D-04
     31 -0.569192D-04 -0.259611D-02  0.104967D-05  0.233758D-04 -0.601145D-03
     32  0.949169D-02  0.525460D-04  0.325346D-02  0.799861D-02 -0.192226D-05
     33  0.456548D-02  0.978874D-04  0.760946D-02  0.128785D-01 -0.304739D-04
     34 -0.427144D-02 -0.570500D-03 -0.721196D-05 -0.100464D-03 -0.259611D-02
     35 -0.166357D-01 -0.721195D-05 -0.169242D-02 -0.587009D-02  0.104967D-05
     36  0.376704D-02  0.100464D-03  0.587009D-02  0.662152D-02 -0.233758D-04
     37  0.000000D+00 -0.797725D-03 -0.215731D-02  0.189883D-01 -0.299152D-03
     38  0.000000D+00 -0.420267D-02  0.575897D-03 -0.159962D-01 -0.676558D-03
     39 -0.374805D+01  0.393180D-02 -0.562091D-02  0.715491D-02  0.215739D-03
     40  0.922579D+00 -0.135129D-01  0.766199D-02 -0.147892D-01 -0.103999D-02
     41  0.951013D+00  0.765019D-02  0.161336D-01 -0.379239D-01  0.362464D-03
     42 -0.217101D+01 -0.312317D-02 -0.146063D-01 -0.116618D-01  0.141136D-03
     43 -0.922579D+00 -0.224997D-02 -0.619224D-03 -0.620302D-02 -0.815262D-03
     44 -0.951013D+00  0.490767D-03 -0.194294D-02 -0.105967D-01  0.316596D-03
     45 -0.217101D+01 -0.135669D-02 -0.333822D-03  0.155555D-01 -0.309863D-03
               26            27            28            29            30
     26  0.334378D+01
     27  0.146301D+01  0.165877D+01
     28 -0.396200D-04 -0.394238D-04  0.391626D+01
     29 -0.685940D-02 -0.198810D-01  0.681112D-02  0.800968D+00
     30 -0.306767D-01 -0.355079D-01  0.000000D+00  0.000000D+00  0.414690D+01
     31 -0.192222D-05  0.304738D-04  0.112229D-01 -0.112742D-03  0.839086D-04
     32 -0.216913D-02  0.613536D-02 -0.396200D-04 -0.685940D-02  0.306767D-01
     33 -0.613536D-02  0.654355D-02  0.394238D-04  0.198810D-01 -0.355079D-01
     34  0.525460D-04 -0.978873D-04 -0.628620D-03  0.138393D-03 -0.992558D-05
     35  0.325346D-02 -0.760946D-02 -0.690418D-04  0.436646D-02  0.215546D-02
     36 -0.799861D-02  0.128785D-01  0.378892D-04 -0.104142D-01  0.317318D-04
     37 -0.560558D-02  0.689593D-02 -0.302387D-03 -0.748530D-02  0.000000D+00
     38  0.396221D-02 -0.495019D-02 -0.226452D-03  0.507133D-02  0.000000D+00
     39 -0.159810D-02  0.533997D-03  0.000000D+00  0.000000D+00 -0.558607D-03
     40  0.312818D-02 -0.347270D-02 -0.563221D-03  0.366570D-02  0.179085D-03
     41  0.512745D-02 -0.576125D-02  0.113499D-03  0.576495D-02  0.425146D-03
     42  0.364527D-02 -0.559179D-02 -0.398763D-05  0.632485D-02 -0.257290D-03
     43  0.238496D-02 -0.321335D-02 -0.563221D-03  0.366570D-02 -0.179085D-03
     44  0.345606D-02 -0.538800D-02  0.113499D-03  0.576495D-02 -0.425146D-03
     45 -0.542542D-02  0.621543D-02  0.398767D-05 -0.632485D-02 -0.257290D-03
               31            32            33            34            35
     31  0.395162D+01
     32  0.211605D-02  0.334378D+01
     33  0.390930D-02 -0.146301D+01  0.165877D+01
     34  0.136102D-01  0.143263D-03  0.134956D-03  0.415592D+01
     35  0.507202D-04 -0.572712D-01  0.448532D-02 -0.119003D-01  0.353359D+01
     36 -0.564586D-04 -0.474549D-02  0.104184D-01  0.184099D-01  0.138038D+01
     37 -0.299152D-03 -0.560558D-02 -0.689593D-02 -0.797725D-03 -0.215731D-02
     38 -0.676558D-03  0.396221D-02  0.495019D-02 -0.420267D-02  0.575897D-03
     39 -0.215739D-03  0.159810D-02  0.533997D-03 -0.393180D-02  0.562091D-02
     40 -0.815262D-03  0.238496D-02  0.321335D-02 -0.224997D-02 -0.619224D-03
     41  0.316596D-03  0.345606D-02  0.538800D-02  0.490767D-03 -0.194294D-02
     42  0.309863D-03  0.542542D-02  0.621543D-02  0.135669D-02  0.333822D-03
     43 -0.103999D-02  0.312818D-02  0.347270D-02 -0.135129D-01  0.766199D-02
     44  0.362464D-03  0.512745D-02  0.576125D-02  0.765019D-02  0.161336D-01
     45 -0.141136D-03 -0.364527D-02 -0.559179D-02  0.312317D-02  0.146063D-01
               36            37            38            39            40
     36  0.168635D+01
     37 -0.189883D-01  0.141204D+01
     38  0.159962D-01  0.113751D+01  0.317805D+01
     39  0.715491D-02  0.000000D+00  0.000000D+00  0.366820D+01
     40  0.620302D-02 -0.421100D-01 -0.740539D-02 -0.875590D-01  0.326764D+01
     41  0.105967D-01 -0.725769D-02  0.761987D-01  0.473406D-02 -0.601534D+00
     42  0.155555D-01 -0.508346D-01  0.580933D-02  0.378509D-01 -0.916003D+00
     43  0.147892D-01 -0.421100D-01 -0.740539D-02  0.875590D-01  0.709953D-01
     44  0.379239D-01 -0.725769D-02  0.761987D-01 -0.473406D-02  0.887879D-02
     45 -0.116618D-01  0.508346D-01 -0.580933D-02  0.378509D-01  0.180478D-01
               41            42            43            44            45
     41  0.307972D+01
     42 -0.991961D+00  0.209775D+01
     43  0.887879D-02 -0.180478D-01  0.326764D+01
     44  0.709915D-01 -0.223498D-02 -0.601534D+00  0.307972D+01
     45  0.223498D-02 -0.659930D-01  0.916003D+00  0.991961D+00  0.209775D+01
 ReadGW:  IGet=0 IStart=         108 Next=        6776 LGW=        6668.
 ICntrl=12127.
 Symmetry not used in FoFDir.
 MinBra= 0 MaxBra= 2 Meth= 1.
 IRaf=       0 NMat=   1 IRICut=       1 DoRegI=T DoRafI=F ISym2E= 0 JSym2E=0.
 PrsmSu:  NPrtUS=   8 ThrOK=T
 PRISM was handed    16299059 working-precision words and  2174 shell-pairs
 PRISM was handed    16299059 working-precision words and  2174 shell-pairs
 PRISM was handed    16299059 working-precision words and  2174 shell-pairs
 PRISM was handed    16299059 working-precision words and  2174 shell-pairs
 PRISM was handed    16299059 working-precision words and  2174 shell-pairs
 PRISM was handed    16299059 working-precision words and  2174 shell-pairs
 PRISM was handed    16299059 working-precision words and  2174 shell-pairs
 PRISM was handed    16299059 working-precision words and  2174 shell-pairs
 Pruned (  75, 302) grid will be used in CalDFT.
 CkSvGd:  ISavGI=        -1 IRadAn=       4 IRASav=       4 ISavGd=        -1.
 CalDSu:  NPrtUS=   8 ThrOK=T
 IPart= 0 IRanGd=          0 ScrnBf=T ScrnGd=T RCrit=4.00D+00 DoMicB=T.
 IPart= 5 IRanGd=          0 ScrnBf=T ScrnGd=T RCrit=4.00D+00 DoMicB=T.
 IPart= 6 IRanGd=          0 ScrnBf=T ScrnGd=T RCrit=4.00D+00 DoMicB=T.
 IPart= 3 IRanGd=          0 ScrnBf=T ScrnGd=T RCrit=4.00D+00 DoMicB=T.
 IPart= 1 IRanGd=          0 ScrnBf=T ScrnGd=T RCrit=4.00D+00 DoMicB=T.
 CutRad = 1000.00    CtRdIn =    0.00    XCrit =  15.00   ICut = 0
 IPart= 2 IRanGd=          0 ScrnBf=T ScrnGd=T RCrit=4.00D+00 DoMicB=T.
 CutRad = 1000.00    CtRdIn =    0.00    XCrit =  15.00   ICut = 0
 CutRad = 1000.00    CtRdIn =    0.00    XCrit =  15.00   ICut = 0
 CutRad = 1000.00    CtRdIn =    0.00    XCrit =  15.00   ICut = 0
 IPart= 7 IRanGd=          0 ScrnBf=T ScrnGd=T RCrit=4.00D+00 DoMicB=T.
 IPart= 4 IRanGd=          0 ScrnBf=T ScrnGd=T RCrit=4.00D+00 DoMicB=T.
 CutRad = 1000.00    CtRdIn =    0.00    XCrit =  15.00   ICut = 0
 CutRad = 1000.00    CtRdIn =    0.00    XCrit =  15.00   ICut = 0
 CutRad = 1000.00    CtRdIn =    0.00    XCrit =  15.00   ICut = 0
 CutRad = 1000.00    CtRdIn =    0.00    XCrit =  15.00   ICut = 0
 IPart= 2        13830 of        15826 points in      34 batches and       97 microbatches, Max-NSigAt=      15 Max-NSgAt2=      15
 IPart= 5        13566 of        15260 points in      30 batches and       99 microbatches, Max-NSigAt=      15 Max-NSgAt2=      15
 IPart= 0        12507 of        14106 points in      29 batches and       83 microbatches, Max-NSigAt=      15 Max-NSgAt2=      15
 IPart= 1        13265 of        15236 points in      31 batches and       92 microbatches, Max-NSigAt=      15 Max-NSgAt2=      15
 IPart= 4        14013 of        16132 points in      34 batches and       93 microbatches, Max-NSigAt=      15 Max-NSgAt2=      15
 IPart= 6        12927 of        14254 points in      29 batches and       94 microbatches, Max-NSigAt=      15 Max-NSgAt2=      15
 IPart= 3        13639 of        15062 points in      31 batches and      106 microbatches, Max-NSigAt=      15 Max-NSgAt2=      15
 IPart= 7        11908 of        13600 points in      29 batches and       76 microbatches, Max-NSigAt=      15 Max-NSgAt2=      15
 Polarizability after L703:
                1             2             3
      1  0.382391D+02
      2 -0.615072D+00  0.959727D+02
      3  0.000000D+00  0.000000D+00  0.829400D+02
 Dipole Derivatives after L703:
               1            2            3            4            5
      1-0.760074D-01-0.229974D-01 0.000000D+00-0.127509D+00 0.317062D-02
      2-0.824839D-01 0.378541D+00 0.000000D+00 0.496611D-02-0.146901D+00
      3 0.000000D+00 0.000000D+00-0.828914D-01-0.264867D-02 0.707099D-01
               6            7            8            9           10
      1-0.294962D-02-0.129016D+00-0.135668D-02 0.467427D-02-0.141930D+00
      2 0.127624D+00 0.437883D-02 0.121237D-01-0.719885D-01 0.268805D-02
      3 0.699964D-01 0.458670D-02-0.538516D-01 0.977217D-01 0.000000D+00
              11           12           13           14           15
      1 0.229929D-02 0.000000D+00-0.129016D+00-0.135667D-02-0.467428D-02
      2 0.705212D-01 0.000000D+00 0.437883D-02 0.121237D-01 0.719885D-01
      3 0.000000D+00-0.107718D+00-0.458669D-02 0.538516D-01 0.977217D-01
              16           17           18           19           20
      1-0.127509D+00 0.317062D-02 0.294962D-02 0.130760D+00 0.588310D-02
      2 0.496610D-02-0.146901D+00-0.127624D+00 0.111013D+00-0.168560D-01
      3 0.264867D-02-0.707099D-01 0.699964D-01 0.000000D+00 0.000000D+00
              21           22           23           24           25
      1 0.000000D+00 0.122426D+00-0.179319D-02-0.272149D-03 0.128841D+00
      2 0.000000D+00-0.380198D-02 0.104721D-01-0.820803D-01-0.170199D-02
      3 0.126644D+00-0.293910D-02-0.956194D-01-0.668687D-01-0.308995D-02
              26           27           28           29           30
      1 0.245471D-04-0.987061D-03 0.133794D+00 0.485796D-03 0.000000D+00
      2 0.133320D-01 0.873755D-01-0.169554D-03-0.122860D+00 0.000000D+00
      3 0.804741D-01-0.747347D-01 0.000000D+00 0.000000D+00 0.687134D-01
              31           32           33           34           35
      1 0.128841D+00 0.245471D-04 0.987062D-03 0.122426D+00-0.179319D-02
      2-0.170199D-02 0.133320D-01-0.873755D-01-0.380198D-02 0.104720D-01
      3 0.308994D-02-0.804741D-01-0.747347D-01 0.293910D-02 0.956194D-01
              36           37           38           39           40
      1 0.272149D-03-0.106532D+00 0.443515D-01 0.000000D+00 0.352144D-01
      2 0.820803D-01 0.887095D-01-0.659610D-01 0.000000D+00-0.637194D-01
      3-0.668687D-01 0.000000D+00 0.000000D+00 0.824120D-01-0.723281D-01
              41           42           43           44           45
      1-0.150565D-01-0.821163D-01 0.352144D-01-0.150565D-01 0.821163D-01
      2-0.107194D-01-0.891494D-01-0.637194D-01-0.107194D-01 0.891494D-01
      3-0.158717D-01-0.696946D-01 0.723281D-01 0.158717D-01-0.696946D-01
 Hessian after L703:
                1             2             3             4             5
      1  0.174105D+00
      2 -0.594931D-02  0.636101D+00
      3  0.000000D+00  0.000000D+00  0.657702D+00
      4 -0.680842D-01  0.519235D-03 -0.170195D-02  0.133536D+00
      5  0.655945D-03 -0.172342D+00  0.459478D-01 -0.750317D-03  0.686135D+00
      6 -0.493313D-03  0.114338D+00 -0.265544D+00  0.258307D-02  0.352213D-01
      7  0.696180D-02  0.441399D-03  0.662949D-04 -0.618451D-01  0.325847D-03
      8 -0.125677D-03 -0.272344D-01  0.791214D-01  0.645636D-03 -0.333538D+00
      9 -0.772942D-03  0.291555D-01  0.358102D-01  0.163356D-03  0.332612D-01
     10 -0.735415D-02  0.294447D-03  0.000000D+00  0.850029D-02 -0.211252D-03
     11 -0.423012D-03  0.209669D-02  0.000000D+00 -0.503596D-04 -0.284338D-01
     12  0.000000D+00  0.000000D+00 -0.725590D-01 -0.630946D-03 -0.779412D-01
     13  0.696180D-02  0.441399D-03 -0.662949D-04 -0.725533D-02  0.485300D-05
     14 -0.125677D-03 -0.272344D-01 -0.791214D-01 -0.568875D-03 -0.522103D-01
     15  0.772942D-03 -0.291555D-01  0.358102D-01  0.284759D-03  0.302692D-01
     16 -0.680842D-01  0.519235D-03  0.170195D-02  0.950061D-02  0.774495D-03
     17  0.655945D-03 -0.172342D+00 -0.459478D-01  0.774495D-03  0.630286D-01
     18  0.493313D-03 -0.114338D+00 -0.265544D+00  0.394947D-03  0.229196D-01
     19 -0.693385D-01 -0.124999D-02  0.000000D+00  0.421311D-02 -0.277881D-03
     20  0.345489D-02 -0.207739D+00  0.000000D+00  0.341284D-03 -0.225030D-01
     21  0.000000D+00  0.000000D+00 -0.889024D-01 -0.156996D-02  0.294430D-01
     22  0.352187D-02 -0.663986D-03 -0.124851D-03 -0.359275D-01 -0.635214D-03
     23 -0.682005D-04  0.981775D-02  0.137745D-01 -0.783828D-03 -0.124684D+00
     24 -0.166026D-03 -0.162282D-01 -0.199337D-01 -0.112743D-02 -0.116068D+00
     25  0.737527D-02 -0.181761D-03  0.135534D-03  0.300491D-02  0.464654D-04
     26  0.143955D-03 -0.537506D-02 -0.141561D-02  0.148507D-03 -0.105804D-01
     27  0.000000D+00 -0.595385D-03  0.196028D-02  0.188119D-04 -0.215378D-02
     28 -0.736921D-03 -0.141968D-03  0.000000D+00  0.705316D-02  0.631796D-04
     29  0.886384D-05  0.648663D-03  0.000000D+00  0.991528D-05  0.818572D-03
     30  0.000000D+00  0.000000D+00 -0.134619D-02 -0.167465D-04 -0.211934D-02
     31  0.737527D-02 -0.181762D-03 -0.135534D-03 -0.677148D-03 -0.683066D-04
     32  0.143955D-03 -0.537506D-02  0.141561D-02 -0.166282D-04 -0.767615D-03
     33  0.000000D+00  0.595385D-03  0.196028D-02  0.140534D-04  0.853534D-03
     34  0.352187D-02 -0.663986D-03  0.124851D-03  0.637294D-02  0.995738D-04
     35 -0.682004D-04  0.981775D-02 -0.137745D-01 -0.147364D-04 -0.884207D-03
     36  0.166026D-03  0.162282D-01 -0.199337D-01  0.876253D-04 -0.411819D-02
     37  0.341492D-02  0.194846D-02  0.000000D+00  0.399333D-03 -0.341982D-03
     38  0.306488D-01 -0.150648D-01  0.000000D+00 -0.407110D-03 -0.322146D-03
     39  0.000000D+00  0.000000D+00 -0.629050D-04  0.464101D-03  0.196201D-02
     40  0.180080D-03  0.243429D-02  0.278220D-02  0.589874D-03  0.232991D-03
     41 -0.144761D-01 -0.128880D-01 -0.281397D-01  0.619714D-03  0.185996D-02
     42  0.184406D-02 -0.285620D-03  0.291119D-03  0.476352D-03  0.200672D-02
     43  0.180080D-03  0.243429D-02 -0.278220D-02  0.619299D-03  0.816029D-04
     44 -0.144761D-01 -0.128880D-01  0.281397D-01 -0.466930D-03 -0.557702D-02
     45 -0.184406D-02  0.285619D-03  0.291119D-03  0.559973D-03  0.515584D-03
                6             7             8             9            10
      6  0.700799D+00
      7 -0.860781D-04  0.134461D+00
      8 -0.326445D-01 -0.645707D-03  0.677001D+00
      9 -0.128570D+00  0.171058D-02 -0.312775D-01  0.717834D+00
     10  0.141917D-03 -0.630429D-01  0.351407D-03 -0.944701D-04  0.131894D+00
     11 -0.289118D-01  0.948942D-04 -0.180267D+00 -0.121775D+00 -0.984910D-03
     12  0.340047D-01 -0.438453D-03 -0.564829D-01 -0.280185D+00  0.000000D+00
     13  0.556173D-04  0.865035D-02 -0.168770D-03  0.394571D-04 -0.630429D-01
     14  0.286555D-01 -0.168770D-03  0.647903D-01  0.245863D-01  0.351407D-03
     15 -0.183864D-01 -0.394571D-04 -0.245863D-01 -0.598310D-01  0.944700D-04
     16 -0.394947D-03 -0.725533D-02 -0.568875D-03 -0.284759D-03  0.850029D-02
     17 -0.229196D-01  0.485300D-05 -0.522103D-01 -0.302692D-01 -0.211252D-03
     18 -0.586391D-01 -0.556173D-04 -0.286555D-01 -0.183864D-01 -0.141917D-03
     19 -0.252929D-03  0.661253D-02 -0.106319D-02  0.429953D-03 -0.944944D-03
     20  0.436565D-02 -0.487562D-03  0.257136D-02  0.137213D-02 -0.172118D-03
     21  0.344595D-02 -0.110997D-02  0.177213D-02 -0.452571D-02  0.000000D+00
     22 -0.143905D-02  0.279064D-02  0.695862D-04 -0.641032D-05  0.721601D-02
     23 -0.116465D+00  0.187228D-04 -0.109762D-01 -0.293366D-01  0.223290D-04
     24 -0.263500D+00  0.359589D-04  0.216567D-02  0.313761D-02 -0.555082D-04
     25 -0.120334D-03 -0.362904D-01  0.508511D-03 -0.124120D-02  0.311390D-02
     26  0.292430D-01  0.512047D-03 -0.126323D+00  0.117766D+00 -0.679551D-04
     27  0.318843D-02 -0.111992D-02  0.117840D+00 -0.266471D+00 -0.129605D-03
     28 -0.489090D-04  0.252756D-02 -0.644766D-04 -0.116637D-03 -0.352075D-01
     29 -0.319123D-02  0.610369D-04 -0.116654D-01  0.299394D-02  0.768168D-03
     30 -0.443003D-02  0.910281D-04 -0.284498D-01  0.465763D-02  0.000000D+00
     31  0.185810D-04  0.699486D-02  0.570320D-04  0.411265D-04  0.311390D-02
     32  0.900420D-03  0.139182D-04 -0.769950D-03  0.320601D-02 -0.679551D-04
     33  0.323350D-03  0.113125D-04  0.417686D-02 -0.307082D-02  0.129605D-03
     34 -0.153504D-03 -0.649299D-03 -0.507078D-04 -0.224729D-04  0.721601D-02
     35 -0.342416D-02  0.000000D+00 -0.678138D-03 -0.744099D-03  0.223290D-04
     36 -0.305162D-02  0.000000D+00 -0.946547D-03  0.183875D-03  0.555082D-04
     37  0.685817D-03  0.919675D-04  0.485283D-03  0.367810D-04 -0.463264D-05
     38 -0.133967D-02 -0.146221D-02 -0.439277D-03 -0.226756D-03  0.182724D-03
     39 -0.351083D-03  0.405297D-03 -0.115479D-02 -0.610776D-03  0.000000D+00
     40 -0.382427D-03 -0.846793D-04 -0.292458D-03  0.851411D-05  0.214251D-04
     41 -0.188005D-02  0.397048D-03 -0.162896D-03 -0.735117D-04 -0.138685D-03
     42  0.309208D-03  0.561183D-03 -0.646030D-03  0.128913D-03  0.643589D-04
     43 -0.113507D-03  0.773006D-04  0.862410D-03  0.109125D-03  0.214251D-04
     44 -0.194726D-02  0.894360D-03 -0.982627D-04  0.136144D-02 -0.138685D-03
     45  0.401452D-03 -0.321575D-04 -0.232477D-03 -0.102031D-03 -0.643589D-04
               11            12            13            14            15
     11  0.739090D+00
     12  0.000000D+00  0.655819D+00
     13  0.948941D-04  0.438453D-03  0.134461D+00
     14 -0.180267D+00  0.564829D-01 -0.645707D-03  0.677001D+00
     15  0.121775D+00 -0.280185D+00 -0.171058D-02  0.312775D-01  0.717834D+00
     16 -0.503596D-04  0.630946D-03 -0.618451D-01  0.645636D-03 -0.163356D-03
     17 -0.284338D-01  0.779412D-01  0.325847D-03 -0.333538D+00 -0.332612D-01
     18  0.289118D-01  0.340047D-01  0.860781D-04  0.326445D-01 -0.128570D+00
     19  0.896479D-03  0.000000D+00  0.661253D-02 -0.106319D-02 -0.429952D-03
     20 -0.122021D-02  0.000000D+00 -0.487562D-03  0.257136D-02 -0.137213D-02
     21  0.000000D+00 -0.583466D-03  0.110997D-02 -0.177213D-02 -0.452571D-02
     22 -0.158366D-04 -0.395955D-04 -0.649299D-03 -0.507078D-04  0.224730D-04
     23 -0.550908D-02  0.152552D-02  0.000000D+00 -0.678138D-03  0.744100D-03
     24  0.380655D-03  0.199474D-02  0.000000D+00  0.946547D-03  0.183876D-03
     25  0.634854D-04  0.649593D-04  0.699486D-02  0.570320D-04 -0.411265D-04
     26  0.116591D-01 -0.150154D-01  0.139181D-04 -0.769950D-03 -0.320601D-02
     27  0.163369D-01 -0.185714D-01 -0.113124D-04 -0.417686D-02 -0.307082D-02
     28  0.860906D-03  0.000000D+00  0.252756D-02 -0.644766D-04  0.116637D-03
     29 -0.334470D+00  0.000000D+00  0.610369D-04 -0.116654D-01 -0.299394D-02
     30  0.000000D+00 -0.590945D-01 -0.910281D-04  0.284498D-01  0.465763D-02
     31  0.634854D-04 -0.649594D-04 -0.362904D-01  0.508511D-03  0.124120D-02
     32  0.116591D-01  0.150154D-01  0.512047D-03 -0.126323D+00 -0.117766D+00
     33 -0.163369D-01 -0.185714D-01  0.111992D-02 -0.117840D+00 -0.266471D+00
     34 -0.158367D-04  0.395953D-04  0.279064D-02  0.695861D-04  0.641030D-05
     35 -0.550908D-02 -0.152552D-02  0.187227D-04 -0.109762D-01  0.293366D-01
     36 -0.380655D-03  0.199474D-02 -0.359588D-04 -0.216567D-02  0.313761D-02
     37 -0.277146D-03  0.000000D+00  0.919675D-04  0.485283D-03 -0.367810D-04
     38 -0.350507D-03  0.000000D+00 -0.146221D-02 -0.439277D-03  0.226756D-03
     39  0.000000D+00  0.120293D-02 -0.405297D-03  0.115479D-02 -0.610776D-03
     40 -0.128342D-03  0.500800D-03  0.773006D-04  0.862411D-03 -0.109125D-03
     41 -0.218395D-04  0.204723D-03  0.894360D-03 -0.982624D-04 -0.136144D-02
     42  0.177409D-03  0.364530D-03  0.321576D-04  0.232477D-03 -0.102031D-03
     43 -0.128342D-03 -0.500800D-03 -0.846792D-04 -0.292458D-03 -0.851432D-05
     44 -0.218395D-04 -0.204723D-03  0.397048D-03 -0.162895D-03  0.735113D-04
     45 -0.177409D-03  0.364529D-03 -0.561183D-03  0.646029D-03  0.128913D-03
               16            17            18            19            20
     16  0.133536D+00
     17 -0.750317D-03  0.686135D+00
     18 -0.258307D-02 -0.352213D-01  0.700799D+00
     19  0.421311D-02 -0.277881D-03  0.252929D-03  0.530202D+00
     20  0.341284D-03 -0.225030D-01 -0.436565D-02  0.106558D-01  0.478414D+00
     21  0.156996D-02 -0.294430D-01  0.344595D-02  0.000000D+00  0.000000D+00
     22  0.637294D-02  0.995737D-04  0.153504D-03 -0.336513D-02  0.503430D-03
     23 -0.147364D-04 -0.884208D-03  0.342416D-02  0.245855D-03  0.117395D-02
     24 -0.876252D-04  0.411819D-02 -0.305162D-02 -0.563536D-03 -0.166944D-02
     25 -0.677148D-03 -0.683065D-04 -0.185809D-04  0.141845D-03  0.137944D-03
     26 -0.166281D-04 -0.767615D-03 -0.900420D-03 -0.136440D-03 -0.135164D-03
     27 -0.140535D-04 -0.853534D-03  0.323350D-03 -0.166690D-05 -0.175603D-03
     28  0.705316D-02  0.631796D-04  0.489089D-04 -0.940364D-03  0.193620D-03
     29  0.991526D-05  0.818573D-03  0.319123D-02 -0.610569D-04  0.132135D-04
     30  0.167465D-04  0.211934D-02 -0.443003D-02  0.000000D+00  0.000000D+00
     31  0.300491D-02  0.464654D-04  0.120334D-03  0.141845D-03  0.137944D-03
     32  0.148507D-03 -0.105804D-01 -0.292430D-01 -0.136440D-03 -0.135164D-03
     33 -0.188119D-04  0.215378D-02  0.318843D-02  0.166689D-05  0.175603D-03
     34 -0.359275D-01 -0.635214D-03  0.143905D-02 -0.336513D-02  0.503430D-03
     35 -0.783828D-03 -0.124684D+00  0.116465D+00  0.245855D-03  0.117395D-02
     36  0.112743D-02  0.116068D+00 -0.263500D+00  0.563536D-03  0.166944D-02
     37  0.399333D-03 -0.341982D-03 -0.685817D-03 -0.273734D+00  0.764273D-01
     38 -0.407110D-03 -0.322146D-03  0.133967D-02  0.802929D-01 -0.701460D-01
     39 -0.464101D-03 -0.196201D-02 -0.351083D-03  0.000000D+00  0.000000D+00
     40  0.619299D-03  0.816030D-04  0.113508D-03 -0.100225D+00 -0.457749D-01
     41 -0.466930D-03 -0.557702D-02  0.194726D-02 -0.440354D-01 -0.807685D-01
     42 -0.559973D-03 -0.515583D-03  0.401452D-03 -0.969268D-01 -0.769066D-01
     43  0.589874D-03  0.232991D-03  0.382427D-03 -0.100225D+00 -0.457749D-01
     44  0.619714D-03  0.185996D-02  0.188005D-02 -0.440354D-01 -0.807685D-01
     45 -0.476351D-03 -0.200672D-02  0.309208D-03  0.969268D-01  0.769066D-01
               21            22            23            24            25
     21  0.576210D+00
     22  0.873808D-03  0.249256D-01
     23  0.916288D-03  0.697463D-03  0.130737D+00
     24  0.905330D-03  0.134535D-02  0.125986D+00  0.279929D+00
     25  0.563012D-04 -0.405526D-02  0.821849D-05  0.375130D-04  0.253310D-01
     26  0.135837D-02 -0.149042D-04  0.977540D-03 -0.414818D-03 -0.626021D-03
     27 -0.289269D-04  0.187472D-04  0.410198D-03  0.815608D-03  0.122064D-02
     28  0.000000D+00  0.307583D-03 -0.393810D-04 -0.100518D-04 -0.394882D-02
     29  0.000000D+00 -0.490024D-05 -0.707816D-03  0.165482D-03 -0.134774D-04
     30  0.178026D-03 -0.113898D-04 -0.140440D-02 -0.530531D-05  0.996463D-05
     31 -0.563011D-04 -0.115541D-02 -0.174417D-05  0.133564D-04  0.253837D-03
     32 -0.135837D-02 -0.419168D-05  0.468042D-04 -0.107504D-03  0.755537D-05
     33 -0.289269D-04 -0.595164D-05 -0.101473D-03 -0.358716D-04 -0.841832D-05
     34 -0.873808D-03  0.284074D-03  0.420269D-04  0.258320D-04 -0.115541D-02
     35 -0.916288D-03  0.420269D-04  0.531839D-03 -0.775225D-03 -0.174417D-05
     36  0.905330D-03 -0.258321D-04  0.775225D-03 -0.114617D-02 -0.133563D-04
     37  0.000000D+00 -0.282609D-03  0.528732D-04  0.261323D-04  0.186024D-04
     38  0.000000D+00  0.668745D-03  0.725568D-04  0.327791D-03  0.159505D-04
     39 -0.448617D-01 -0.286712D-03  0.552190D-04 -0.102948D-03 -0.508742D-04
     40 -0.974046D-01  0.458342D-04 -0.211397D-03  0.379090D-03 -0.297274D-04
     41 -0.747011D-01 -0.397249D-03  0.452892D-04  0.112477D-02 -0.127691D-05
     42 -0.220817D+00 -0.548448D-03 -0.134129D-03  0.385882D-03 -0.403566D-04
     43  0.974046D-01 -0.293375D-04  0.316733D-04  0.146940D-03 -0.775151D-04
     44  0.747011D-01 -0.293836D-03  0.370757D-04  0.472567D-04  0.474254D-04
     45 -0.220817D+00  0.743547D-04 -0.169634D-03  0.424236D-03  0.933186D-05
               26            27            28            29            30
     26  0.130643D+00
     27 -0.127303D+00  0.282021D+00
     28 -0.869684D-05  0.211985D-04  0.251011D-01
     29  0.797200D-03 -0.333818D-03 -0.872447D-03  0.355321D+00
     30  0.572618D-03  0.948938D-03  0.000000D+00  0.000000D+00  0.578143D-01
     31  0.755542D-05  0.841820D-05 -0.394882D-02 -0.134775D-04 -0.996462D-05
     32  0.374350D-03  0.799017D-03 -0.869688D-05  0.797200D-03 -0.572618D-03
     33 -0.799017D-03 -0.106141D-02 -0.211986D-04  0.333819D-03  0.948938D-03
     34 -0.419174D-05  0.595174D-05  0.307583D-03 -0.490021D-05  0.113898D-04
     35  0.468042D-04  0.101473D-03 -0.393810D-04 -0.707816D-03  0.140440D-02
     36  0.107504D-03 -0.358716D-04  0.100519D-04 -0.165482D-03 -0.530526D-05
     37  0.452174D-04 -0.711763D-05 -0.101412D-03  0.249013D-04  0.000000D+00
     38 -0.115354D-03  0.557369D-04  0.183166D-03 -0.581207D-05  0.000000D+00
     39  0.112888D-04 -0.204685D-04  0.000000D+00  0.000000D+00  0.103351D-04
     40 -0.273356D-04 -0.211665D-05  0.308261D-05  0.132111D-04  0.223968D-04
     41  0.270962D-04  0.204729D-04 -0.622640D-04  0.419029D-05  0.872902D-04
     42 -0.657418D-04  0.100867D-04 -0.151605D-03 -0.428595D-04  0.478112D-04
     43  0.309734D-04 -0.816232D-05  0.308260D-05  0.132111D-04 -0.223968D-04
     44 -0.458665D-03  0.278391D-04 -0.622640D-04  0.419028D-05 -0.872902D-04
     45  0.606926D-04 -0.801032D-05  0.151605D-03  0.428594D-04  0.478111D-04
               31            32            33            34            35
     31  0.253310D-01
     32 -0.626021D-03  0.130643D+00
     33 -0.122064D-02  0.127303D+00  0.282021D+00
     34 -0.405526D-02 -0.149042D-04 -0.187472D-04  0.249256D-01
     35  0.821850D-05  0.977540D-03 -0.410198D-03  0.697463D-03  0.130737D+00
     36 -0.375130D-04  0.414817D-03  0.815608D-03 -0.134535D-02 -0.125986D+00
     37  0.186024D-04  0.452174D-04  0.711763D-05 -0.282609D-03  0.528732D-04
     38  0.159505D-04 -0.115354D-03 -0.557369D-04  0.668745D-03  0.725568D-04
     39  0.508742D-04 -0.112887D-04 -0.204685D-04  0.286712D-03 -0.552190D-04
     40 -0.775151D-04  0.309733D-04  0.816228D-05 -0.293376D-04  0.316734D-04
     41  0.474254D-04 -0.458666D-03 -0.278393D-04 -0.293836D-03  0.370757D-04
     42 -0.933190D-05 -0.606927D-04 -0.801044D-05 -0.743547D-04  0.169634D-03
     43 -0.297274D-04 -0.273356D-04  0.211665D-05  0.458342D-04 -0.211397D-03
     44 -0.127692D-05  0.270961D-04 -0.204731D-04 -0.397249D-03  0.452891D-04
     45  0.403566D-04  0.657419D-04  0.100868D-04  0.548448D-03  0.134129D-03
               36            37            38            39            40
     36  0.279929D+00
     37 -0.261323D-04  0.297979D+00
     38 -0.327791D-03 -0.864355D-01  0.799862D-01
     39 -0.102948D-03  0.000000D+00  0.000000D+00  0.447312D-01
     40 -0.146940D-03 -0.140045D-01 -0.112514D-01 -0.260999D-01  0.105335D+00
     41 -0.472565D-04  0.391457D-02  0.359469D-02  0.908400D-02  0.470999D-01
     42  0.424236D-03  0.274486D-03  0.962173D-03  0.575356D-03  0.107694D+00
     43 -0.379090D-03 -0.140045D-01 -0.112514D-01  0.260999D-01  0.757828D-02
     44 -0.112477D-02  0.391457D-02  0.359469D-02 -0.908400D-02  0.689872D-02
     45  0.385881D-03 -0.274486D-03 -0.962173D-03  0.575356D-03  0.126360D-01
               41            42            43            44            45
     41  0.902211D-01
     42  0.844356D-01  0.237854D+00
     43  0.689872D-02 -0.126360D-01  0.105335D+00
     44  0.418583D-02 -0.932679D-02  0.470999D-01  0.902211D-01
     45  0.932679D-02 -0.198654D-01 -0.107694D+00 -0.844356D-01  0.237854D+00
 FrcOut:
 IF    =  1170 IFX   =  1215 IFXYZ =  1260
 IFFX  =  1305 IFFFX =  2340 IFLen =    45
 IFFLen=  1035 IFFFLn=     0 IEDerv=  2340
 LEDerv=  2213 IFroze=  4557 ICStrt= 65616
 DipoleDeriv   =-7.60074130D-02-8.24838856D-02-1.79451297D-12
                -2.29973654D-02 3.78541200D-01 1.45450464D-10
                -1.42956295D-09-6.44231017D-09-8.28914427D-02
                -1.27508880D-01 4.96610622D-03-2.64866666D-03
                 3.17061545D-03-1.46901120D-01 7.07099057D-02
                -2.94962162D-03 1.27624349D-01 6.99963646D-02
                -1.29015754D-01 4.37882775D-03 4.58669640D-03
                -1.35667627D-03 1.21237104D-02-5.38516466D-02
                 4.67427402D-03-7.19884952D-02 9.77217452D-02
                -1.41930425D-01 2.68804893D-03-6.54807424D-10
                 2.29929351D-03 7.05211637D-02 6.01914700D-10
                 2.18105023D-09 5.23525785D-09-1.07717782D-01
                -1.29015754D-01 4.37882846D-03-4.58669481D-03
                -1.35667371D-03 1.21237158D-02 5.38516476D-02
                -4.67427543D-03 7.19884899D-02 9.77217437D-02
                -1.27508881D-01 4.96610408D-03 2.64866639D-03
                 3.17061586D-03-1.46901118D-01-7.07099082D-02
                 2.94962320D-03-1.27624344D-01 6.99963679D-02
                 1.30760329D-01 1.11012720D-01-8.90893071D-10
                 5.88310391D-03-1.68559635D-02-3.03654437D-10
                -2.16925315D-10 1.31061525D-09 1.26643549D-01
                 1.22426472D-01-3.80198266D-03-2.93909614D-03
                -1.79318732D-03 1.04720508D-02-9.56194086D-02
                -2.72149073D-04-8.20803144D-02-6.68686825D-02
                 1.28841439D-01-1.70199369D-03-3.08994506D-03
                 2.45470918D-05 1.33319953D-02 8.04741060D-02
                -9.87061239D-04 8.73755003D-02-7.47347303D-02
                 1.33793729D-01-1.69554201D-04 1.75876571D-10
                 4.85796308D-04-1.22859824D-01 1.10048007D-09
                -2.54484872D-10 3.77536877D-10 6.87134379D-02
                 1.28841440D-01-1.70199374D-03 3.08994415D-03
                 2.45471092D-05 1.33319946D-02-8.04741070D-02
                 9.87061504D-04-8.73755014D-02-7.47347315D-02
                 1.22426473D-01-3.80198025D-03 2.93909694D-03
                -1.79318720D-03 1.04720498D-02 9.56194085D-02
                 2.72148555D-04 8.20803170D-02-6.68686826D-02
                -1.06531614D-01 8.87094968D-02-2.64760947D-10
                 4.43515016D-02-6.59609696D-02 5.50885288D-10
                 2.91211290D-10 2.60573621D-10 8.24119621D-02
                 3.52144197D-02-6.37193721D-02-7.23280600D-02
                -1.50564659D-02-1.07194428D-02-1.58717398D-02
                -8.21163367D-02-8.91493822D-02-6.96945590D-02
                 3.52144201D-02-6.37193699D-02 7.23280604D-02
                -1.50564650D-02-1.07194418D-02 1.58717402D-02
                 8.21163362D-02 8.91493800D-02-6.96945593D-02
 Full mass-weighted force constant matrix:
 Low frequencies ---   -3.7134   -0.0007   -0.0007   -0.0003    9.6655   20.3992
 Low frequencies ---   29.4565  208.9848  343.4191
 Dipole derivatives wrt mode   1:  4.21051D-09  6.99065D-09 -5.02339D-01
 Vibrational polarizability contributions from mode   1       0.0000000       0.0000000       8.0648005
 Vibrational hyperpolarizability contributions from mode   1       0.0000000       0.0000000       0.0000000
 Dipole derivatives wrt mode   2: -1.51009D+00 -7.85327D-02  8.61709D-09
 Vibrational polarizability contributions from mode   2       1.4051164       0.0038002       0.0000000
 Vibrational hyperpolarizability contributions from mode   2       0.0000000       0.0000000       0.0000000
 Dipole derivatives wrt mode   3: -1.50482D-08  4.53863D-09 -5.84504D-01
 Vibrational polarizability contributions from mode   3       0.0000000       0.0000000       0.0779584
 Vibrational hyperpolarizability contributions from mode   3       0.0000000       0.0000000       0.0000000
 Dipole derivatives wrt mode   4:  2.70308D-08 -7.09127D-09 -7.94558D-02
 Vibrational polarizability contributions from mode   4       0.0000000       0.0000000       0.0009874
 Vibrational hyperpolarizability contributions from mode   4       0.0000000       0.0000000       0.0000000
 Dipole derivatives wrt mode   5: -3.02541D+00  1.37144D-02 -5.34429D-09
 Vibrational polarizability contributions from mode   5       1.0845857       0.0000223       0.0000000
 Vibrational hyperpolarizability contributions from mode   5       0.0000000       0.0000000       0.0000000
 Dipole derivatives wrt mode   6:  4.23776D-01 -6.72483D-01  5.77031D-09
 Vibrational polarizability contributions from mode   6       0.0172472       0.0434320       0.0000000
 Vibrational hyperpolarizability contributions from mode   6       0.0000000       0.0000000       0.0000000
 Dipole derivatives wrt mode   7:  2.19915D-09  6.18892D-09  3.17412D-01
 Vibrational polarizability contributions from mode   7       0.0000000       0.0000000       0.0066666
 Vibrational hyperpolarizability contributions from mode   7       0.0000000       0.0000000       0.0000000
 Dipole derivatives wrt mode   8: -5.22795D+00  7.71324D-02 -3.57877D-09
 Vibrational polarizability contributions from mode   8       1.4447847       0.0003145       0.0000000
 Vibrational hyperpolarizability contributions from mode   8       0.0000000       0.0000000       0.0000000
 Dipole derivatives wrt mode   9: -6.66342D+00 -2.14034D-01  9.59308D-09
 Vibrational polarizability contributions from mode   9       2.1556631       0.0022241       0.0000000
 Vibrational hyperpolarizability contributions from mode   9       0.0000000       0.0000000       0.0000000
 Dipole derivatives wrt mode  10:  5.93323D-01 -6.79209D-01  9.10841D-09
 Vibrational polarizability contributions from mode  10       0.0148364       0.0194425       0.0000000
 Vibrational hyperpolarizability contributions from mode  10       0.0000000       0.0000000       0.0000000
 Dipole derivatives wrt mode  11: -7.80000D-08 -4.00414D-08 -1.24257D-01
 Vibrational polarizability contributions from mode  11       0.0000000       0.0000000       0.0005696
 Vibrational hyperpolarizability contributions from mode  11       0.0000000       0.0000000       0.0000000
 Dipole derivatives wrt mode  12:  5.77482D-01  3.58955D-01  1.00296D-08
 Vibrational polarizability contributions from mode  12       0.0108199       0.0041805       0.0000000
 Vibrational hyperpolarizability contributions from mode  12       0.0000000       0.0000000       0.0000000
 Dipole derivatives wrt mode  13: -7.10528D-08 -6.15708D-08  6.04886D-02
 Vibrational polarizability contributions from mode  13       0.0000000       0.0000000       0.0001035
 Vibrational hyperpolarizability contributions from mode  13       0.0000000       0.0000000       0.0000000
 Dipole derivatives wrt mode  14: -7.83652D-02 -1.82474D-01 -6.27630D-09
 Vibrational polarizability contributions from mode  14       0.0001655       0.0008974       0.0000000
 Vibrational hyperpolarizability contributions from mode  14       0.0000000       0.0000000       0.0000000
 Dipole derivatives wrt mode  15: -1.06937D-08  3.87339D-09  2.02886D-01
 Vibrational polarizability contributions from mode  15       0.0000000       0.0000000       0.0011072
 Vibrational hyperpolarizability contributions from mode  15       0.0000000       0.0000000       0.0000000
 Dipole derivatives wrt mode  16:  2.25284D-01 -6.11953D-02  1.88849D-08
 Vibrational polarizability contributions from mode  16       0.0013180       0.0000972       0.0000000
 Vibrational hyperpolarizability contributions from mode  16       0.0000000       0.0000000       0.0000000
 Dipole derivatives wrt mode  17:  1.04931D-01  1.68474D+00  7.26555D-10
 Vibrational polarizability contributions from mode  17       0.0002679       0.0690541       0.0000000
 Vibrational hyperpolarizability contributions from mode  17       0.0000000       0.0000000       0.0000000
 Dipole derivatives wrt mode  18: -1.99048D+00  2.10170D+00 -2.97913D-08
 Vibrational polarizability contributions from mode  18       0.0943744       0.1052149       0.0000000
 Vibrational hyperpolarizability contributions from mode  18       0.0000000       0.0000000       0.0000000
 Dipole derivatives wrt mode  19:  1.68662D-08 -3.20453D-08 -2.36712D+00
 Vibrational polarizability contributions from mode  19       0.0000000       0.0000000       0.1220919
 Vibrational hyperpolarizability contributions from mode  19       0.0000000       0.0000000       0.0000000
 Dipole derivatives wrt mode  20:  1.63882D-09  1.70691D-08 -2.64181D-01
 Vibrational polarizability contributions from mode  20       0.0000000       0.0000000       0.0013463
 Vibrational hyperpolarizability contributions from mode  20       0.0000000       0.0000000       0.0000000
 Dipole derivatives wrt mode  21: -7.11271D-03 -6.17327D-01 -4.63984D-09
 Vibrational polarizability contributions from mode  21       0.0000009       0.0070836       0.0000000
 Vibrational hyperpolarizability contributions from mode  21       0.0000000       0.0000000       0.0000000
 Dipole derivatives wrt mode  22: -2.87485D-01  9.06768D-01  4.01721D-09
 Vibrational polarizability contributions from mode  22       0.0014724       0.0146480       0.0000000
 Vibrational hyperpolarizability contributions from mode  22       0.0000000       0.0000000       0.0000000
 Dipole derivatives wrt mode  23:  6.70559D-09 -5.32801D-09 -2.50856D-01
 Vibrational polarizability contributions from mode  23       0.0000000       0.0000000       0.0009603
 Vibrational hyperpolarizability contributions from mode  23       0.0000000       0.0000000       0.0000000
 Dipole derivatives wrt mode  24:  6.23872D-10  1.94578D-08  1.02919D-01
 Vibrational polarizability contributions from mode  24       0.0000000       0.0000000       0.0001550
 Vibrational hyperpolarizability contributions from mode  24       0.0000000       0.0000000       0.0000000
 Dipole derivatives wrt mode  25:  1.60427D-01 -9.90450D-01 -2.95977D-09
 Vibrational polarizability contributions from mode  25       0.0003460       0.0131869       0.0000000
 Vibrational hyperpolarizability contributions from mode  25       0.0000000       0.0000000       0.0000000
 Dipole derivatives wrt mode  26:  9.29475D-09 -4.58009D-08 -1.27397D-01
 Vibrational polarizability contributions from mode  26       0.0000000       0.0000000       0.0002020
 Vibrational hyperpolarizability contributions from mode  26       0.0000000       0.0000000       0.0000000
 Dipole derivatives wrt mode  27: -2.59150D+00 -2.60759D-01  2.04703D-09
 Vibrational polarizability contributions from mode  27       0.0812713       0.0008228       0.0000000
 Vibrational hyperpolarizability contributions from mode  27       0.0000000       0.0000000       0.0000000
 Dipole derivatives wrt mode  28:  6.17729D-09  4.35640D-08  3.76839D+00
 Vibrational polarizability contributions from mode  28       0.0000000       0.0000000       0.1688762
 Vibrational hyperpolarizability contributions from mode  28       0.0000000       0.0000000       0.0000000
 Dipole derivatives wrt mode  29:  1.07807D-01 -3.93557D+00  2.92444D-08
 Vibrational polarizability contributions from mode  29       0.0001336       0.1780569       0.0000000
 Vibrational hyperpolarizability contributions from mode  29       0.0000000       0.0000000       0.0000000
 Dipole derivatives wrt mode  30:  2.66399D-08  9.08470D-09 -6.30649D-01
 Vibrational polarizability contributions from mode  30       0.0000000       0.0000000       0.0040436
 Vibrational hyperpolarizability contributions from mode  30       0.0000000       0.0000000       0.0000000
 Dipole derivatives wrt mode  31: -6.24335D-02  2.74266D+00 -6.22754D-09
 Vibrational polarizability contributions from mode  31       0.0000386       0.0744530       0.0000000
 Vibrational hyperpolarizability contributions from mode  31       0.0000000       0.0000000       0.0000000
 Dipole derivatives wrt mode  32: -1.43537D+00  5.19616D+00  1.45439D-08
 Vibrational polarizability contributions from mode  32       0.0060762       0.0796277       0.0000000
 Vibrational hyperpolarizability contributions from mode  32       0.0000000       0.0000000       0.0000000
 Dipole derivatives wrt mode  33: -4.37037D+00 -1.86976D+00 -1.27542D-08
 Vibrational polarizability contributions from mode  33       0.0543567       0.0099492       0.0000000
 Vibrational hyperpolarizability contributions from mode  33       0.0000000       0.0000000       0.0000000
 Dipole derivatives wrt mode  34:  1.32633D-08  3.39539D-08  4.22924D+00
 Vibrational polarizability contributions from mode  34       0.0000000       0.0000000       0.0500446
 Vibrational hyperpolarizability contributions from mode  34       0.0000000       0.0000000       0.0000000
 Dipole derivatives wrt mode  35: -4.37515D-02 -3.09081D+00 -1.80042D-06
 Vibrational polarizability contributions from mode  35       0.0000052       0.0258752       0.0000000
 Vibrational hyperpolarizability contributions from mode  35       0.0000000       0.0000000       0.0000000
 Dipole derivatives wrt mode  36:  1.67325D-08 -2.23625D-06  2.51833D+00
 Vibrational polarizability contributions from mode  36       0.0000000       0.0000000       0.0171601
 Vibrational hyperpolarizability contributions from mode  36       0.0000000       0.0000000       0.0000000
 Dipole derivatives wrt mode  37: -5.82842D-02 -2.89825D+00  1.00644D-07
 Vibrational polarizability contributions from mode  37       0.0000091       0.0225476       0.0000000
 Vibrational hyperpolarizability contributions from mode  37       0.0000000       0.0000000       0.0000000
 Dipole derivatives wrt mode  38:  1.11255D-08  3.10416D-07 -6.47458D+00
 Vibrational polarizability contributions from mode  38       0.0000000       0.0000000       0.1119303
 Vibrational hyperpolarizability contributions from mode  38       0.0000000       0.0000000       0.0000000
[...]
 -6.70680320D-12-1.08685775D-05 3.70471625D-06 6.99002267D-13
 -3.70468527D-06 1.08685730D-05 1.48807322D-11 1.43720724D-06
 -1.43721528D-06

 GradGradGradGradGradGradGradGradGradGradGradGradGradGradGradGradGradGrad
 Berny optimization.
 Search for a local minimum.
 Step number   1 out of a maximum of   2
 All quantities printed in internal units (Hartrees-Bohrs-Radians)
 Second derivative matrix not updated -- analytic derivatives used.
     Eigenvalues ---    0.00003   0.00498   0.01092   0.01473   0.01996
     Eigenvalues ---    0.03021   0.03797   0.04525   0.05229   0.05350
     Eigenvalues ---    0.05764   0.06870   0.07110   0.07690   0.09353
     Eigenvalues ---    0.10234   0.11083   0.11673   0.12626   0.18124
     Eigenvalues ---    0.19255   0.19527   0.21504   0.22105   0.29993
     Eigenvalues ---    0.32253   0.39691   0.52435   0.67180   0.67668
     Eigenvalues ---    0.73276   0.77478   0.79988   0.90843   0.98937
     Eigenvalues ---    1.07752   1.09341   1.25386   1.25630
 Angle between quadratic step and forces=  71.75 degrees.
 Linear search not attempted -- first point.
 TrRot=  0.000029 -0.000015  0.000000 -0.000003  0.000000 -0.000003
 Variable       Old X    -DE/DX   Delta X   Delta X   Delta X     New X
                                 (Linear)    (Quad)   (Total)
    X1        0.01563   0.00001   0.00000   0.00030   0.00034   0.01596
    Y1        1.36055  -0.00006   0.00000  -0.00013  -0.00015   1.36040
    Z1        0.00000   0.00000   0.00000   0.00000   0.00000   0.00000
    X2        0.02099  -0.00001   0.00000   0.00017   0.00019   0.02119
    Y2        0.00270  -0.00003   0.00000  -0.00004  -0.00005   0.00265
    Z2        2.26794  -0.00001   0.00000  -0.00001  -0.00001   2.26793
    X3        0.02099   0.00000   0.00000  -0.00005  -0.00004   0.02096
    Y3       -2.62959   0.00004   0.00000   0.00003   0.00001  -2.62958
    Z3        2.27325  -0.00003   0.00000  -0.00002  -0.00002   2.27322
    X4        0.01931   0.00000   0.00000  -0.00014  -0.00014   0.01918
    Y4       -3.95733  -0.00002   0.00000  -0.00001  -0.00003  -3.95736
    Z4        0.00000   0.00000   0.00000   0.00000   0.00000   0.00000
    X5        0.02099   0.00000   0.00000  -0.00005  -0.00004   0.02096
    Y5       -2.62959   0.00004   0.00000   0.00003   0.00001  -2.62958
    Z5       -2.27325   0.00003   0.00000   0.00002   0.00002  -2.27322
    X6        0.02099  -0.00001   0.00000   0.00017   0.00019   0.02119
    Y6        0.00270  -0.00003   0.00000  -0.00004  -0.00005   0.00265
    Z6       -2.26794   0.00001   0.00000   0.00001   0.00001  -2.26793
    X7       -0.04539  -0.00002   0.00000  -0.00010  -0.00004  -0.04543
    Y7        4.21379   0.00004   0.00000   0.00002   0.00000   4.21379
    Z7        0.00000   0.00000   0.00000   0.00000   0.00000   0.00000
    X8        0.02957   0.00000   0.00000   0.00028   0.00032   0.02989
    Y8        1.01937   0.00002   0.00000   0.00035   0.00033   1.01970
    Z8        4.04980  -0.00001   0.00000  -0.00022  -0.00022   4.04957
    X9        0.02973   0.00000   0.00000  -0.00010  -0.00010   0.02963
    Y9       -3.64337  -0.00001   0.00000  -0.00011  -0.00013  -3.64350
    Z9        4.05450   0.00000   0.00000  -0.00007  -0.00007   4.05444
   X10        0.02494   0.00000   0.00000  -0.00033  -0.00034   0.02461
   Y10       -6.00612   0.00000   0.00000   0.00000  -0.00002  -6.00614
   Z10        0.00000   0.00000   0.00000   0.00000   0.00000   0.00000
   X11        0.02973   0.00000   0.00000  -0.00010  -0.00010   0.02963
   Y11       -3.64337  -0.00001   0.00000  -0.00011  -0.00013  -3.64350
   Z11       -4.05450   0.00000   0.00000   0.00007   0.00007  -4.05444
   X12        0.02957   0.00000   0.00000   0.00028   0.00032   0.02989
   Y12        1.01937   0.00002   0.00000   0.00035   0.00033   1.01970
   Z12       -4.04980   0.00001   0.00000   0.00022   0.00022  -4.04957
   X13       -1.99345   0.00001   0.00000  -0.00024  -0.00018  -1.99364
   Y13        4.91529  -0.00001   0.00000  -0.00055  -0.00056   4.91473
   Z13        0.00000   0.00000   0.00000   0.00000   0.00000   0.00000
   X14        0.88813   0.00000   0.00000  -0.00026  -0.00020   0.88793
   Y14        4.98776   0.00001   0.00000   0.00024   0.00022   4.98798
   Z14        1.67091   0.00000   0.00000   0.00000   0.00000   1.67092
   X15        0.88813   0.00000   0.00000  -0.00026  -0.00020   0.88793
   Y15        4.98776   0.00001   0.00000   0.00024   0.00022   4.98798
   Z15       -1.67091   0.00000   0.00000   0.00000   0.00000  -1.67092
         Item               Value     Threshold  Converged?
 Maximum Force            0.000064     0.000450     YES
 RMS     Force            0.000019     0.000300     YES
 Maximum Displacement     0.000557     0.001800     YES
 RMS     Displacement     0.000179     0.001200     YES
 Predicted change in Energy=-2.407325D-08
 Optimization completed.
    -- Stationary point found.
 GradGradGradGradGradGradGradGradGradGradGradGradGradGradGradGradGradGrad


 Test job not archived.
 1\1\GINC-NODE33\Freq\RB3LYP\CBSB7\C7H8\LAITCL\07-Mar-2017\0\\# freq no
 symm b3lyp/cbsb7 iop(7/33=1)\\Toluene Freq\\0,1\C,0.00827,0.71997,0.\C
 ,0.01111,0.00143,1.20014\C,0.01111,-1.39152,1.20295\C,0.01022,-2.09413
 ,0.\C,0.01111,-1.39152,-1.20295\C,0.01111,0.00143,-1.20014\C,-0.02402,
 2.22984,0.\H,0.01565,0.53943,2.14306\H,0.01573,-1.92799,2.14555\H,0.01
 32,-3.1783,0.\H,0.01573,-1.92799,-2.14555\H,0.01565,0.53943,-2.14306\H
 ,-1.05489,2.60106,0.\H,0.46998,2.63941,0.88421\H,0.46998,2.63941,-0.88
 421\\Version=AM64L-G03RevD.01\HF=-271.6360527\RMSD=1.734e-09\RMSF=1.89
 7e-05\ZeroPoint=0.1273413\Thermal=0.13358\Dipole=-0.0150147,0.1375633,
 0.\DipoleDeriv=-0.0760074,-0.0824839,0.,-0.0229974,0.3785412,0.,0.,0.,
 -0.0828914,-0.1275089,0.0049661,-0.0026487,0.0031706,-0.1469011,0.0707
 099,-0.0029496,0.1276243,0.0699964,-0.1290158,0.0043788,0.0045867,-0.0
 013567,0.0121237,-0.0538516,0.0046743,-0.0719885,0.0977217,-0.1419304,
 0.002688,0.,0.0022993,0.0705212,0.,0.,0.,-0.1077178,-0.1290158,0.00437
 88,-0.0045867,-0.0013567,0.0121237,0.0538516,-0.0046743,0.0719885,0.09
 77217,-0.1275089,0.0049661,0.0026487,0.0031706,-0.1469011,-0.0707099,0
 .0029496,-0.1276243,0.0699964,0.1307603,0.1110127,0.,0.0058831,-0.0168
 56,0.,0.,0.,0.1266435,0.1224265,-0.003802,-0.0029391,-0.0017932,0.0104
 721,-0.0956194,-0.0002721,-0.0820803,-0.0668687,0.1288414,-0.001702,-0
 .0030899,0.0000245,0.013332,0.0804741,-0.0009871,0.0873755,-0.0747347,
 0.1337937,-0.0001696,0.,0.0004858,-0.1228598,0.,0.,0.,0.0687134,0.1288
 414,-0.001702,0.0030899,0.0000245,0.013332,-0.0804741,0.0009871,-0.087
 3755,-0.0747347,0.1224265,-0.003802,0.0029391,-0.0017932,0.010472,0.09
 56194,0.0002721,0.0820803,-0.0668687,-0.1065316,0.0887095,0.,0.0443515
 ,-0.065961,0.,0.,0.,0.082412,0.0352144,-0.0637194,-0.0723281,-0.015056
 5,-0.0107194,-0.0158717,-0.0821163,-0.0891494,-0.0696946,0.0352144,-0.
 0637194,0.0723281,-0.0150565,-0.0107194,0.0158717,0.0821163,0.0891494,
 -0.0696946\Polar=38.239096,-0.6150723,95.9727096,0.,0.,82.9400284\PG=C
 S [SG(C3H2),X(C4H6)]\NImag=0\\0.17410502,-0.00594931,0.63610111,0.,0.,
 0.65770227,-0.06808423,0.00051923,-0.00170195,0.13353573,0.00065595,-0
 .17234185,0.04594779,-0.00075032,0.68613483,-0.00049331,0.11433791,-0.
 26554382,0.00258307,0.03522130,0.70079903,0.00696180,0.00044140,0.0000
 6629,-0.06184506,0.00032585,-0.00008608,0.13446063,-0.00012568,-0.0272
 3440,0.07912138,0.00064564,-0.33353770,-0.03264454,-0.00064571,0.67700
 122,-0.00077294,0.02915548,0.03581021,0.00016336,0.03326122,-0.1285696
 3,0.00171058,-0.03127745,0.71783385,-0.00735415,0.00029445,0.,0.008500
 29,-0.00021125,0.00014192,-0.06304291,0.00035141,-0.00009447,0.1318938
 0,-0.00042301,0.00209669,0.,-0.00005036,-0.02843379,-0.02891179,0.0000
 9489,-0.18026726,-0.12177526,-0.00098491,0.73909016,0.,0.,-0.07255901,
 -0.00063095,-0.07794118,0.03400474,-0.00043845,-0.05648289,-0.28018493
 ,0.,0.,0.65581866,0.00696180,0.00044140,-0.00006629,-0.00725533,0.0000
 0485,0.00005562,0.00865035,-0.00016877,0.00003946,-0.06304291,0.000094
 89,0.00043845,0.13446063,-0.00012568,-0.02723440,-0.07912138,-0.000568
 87,-0.05221027,0.02865546,-0.00016877,0.06479033,0.02458626,0.00035141
 ,-0.18026726,0.05648289,-0.00064571,0.67700122,0.00077294,-0.02915548,
 0.03581021,0.00028476,0.03026923,-0.01838643,-0.00003946,-0.02458626,-
 0.05983102,0.00009447,0.12177526,-0.28018493,-0.00171058,0.03127745,0.
 71783385,-0.06808423,0.00051923,0.00170195,0.00950061,0.00077449,-0.00
 039495,-0.00725533,-0.00056887,-0.00028476,0.00850029,-0.00005036,0.00
 063095,-0.06184506,0.00064564,-0.00016336,0.13353573,0.00065594,-0.172
 34185,-0.04594779,0.00077449,0.06302857,-0.02291965,0.00000485,-0.0522
 1027,-0.03026923,-0.00021125,-0.02843379,0.07794118,0.00032585,-0.3335
 3770,-0.03326122,-0.00075032,0.68613483,0.00049331,-0.11433791,-0.2655
 4382,0.00039495,0.02291965,-0.05863913,-0.00005562,-0.02865546,-0.0183
 8643,-0.00014192,0.02891179,0.03400474,0.00008608,0.03264454,-0.128569
 63,-0.00258307,-0.03522130,0.70079903,-0.06933845,-0.00124999,0.,0.004
 21311,-0.00027788,-0.00025293,0.00661253,-0.00106319,0.00042995,-0.000
 94494,0.00089648,0.,0.00661253,-0.00106319,-0.00042995,0.00421311,-0.0
 0027788,0.00025293,0.53020226,0.00345489,-0.20773855,0.,0.00034128,-0.
 02250301,0.00436565,-0.00048756,0.00257136,0.00137213,-0.00017212,-0.0
 0122021,0.,-0.00048756,0.00257136,-0.00137213,0.00034128,-0.02250301,-
 0.00436565,0.01065580,0.47841430,0.,0.,-0.08890243,-0.00156996,0.02944
 304,0.00344595,-0.00110997,0.00177213,-0.00452571,0.,0.,-0.00058347,0.
 00110997,-0.00177213,-0.00452571,0.00156996,-0.02944304,0.00344595,0.,
 0.,0.57621022,0.00352187,-0.00066399,-0.00012485,-0.03592748,-0.000635
 21,-0.00143905,0.00279064,0.00006959,-0.00000641,0.00721601,-0.0000158
 4,-0.00003960,-0.00064930,-0.00005071,0.00002247,0.00637294,0.00009957
 ,0.00015350,-0.00336513,0.00050343,0.00087381,0.02492558,-0.00006820,0
 .00981775,0.01377446,-0.00078383,-0.12468392,-0.11646534,0.00001872,-0
 .01097619,-0.02933659,0.00002233,-0.00550908,0.00152552,0.00000013,-0.
 00067814,0.00074410,-0.00001474,-0.00088421,0.00342416,0.00024586,0.00
 117395,0.00091629,0.00069746,0.13073655,-0.00016603,-0.01622816,-0.019
 93366,-0.00112743,-0.11606760,-0.26350040,0.00003596,0.00216567,0.0031
 3761,-0.00005551,0.00038066,0.00199474,0.,0.00094655,0.00018388,-0.000
 08763,0.00411819,-0.00305162,-0.00056354,-0.00166944,0.00090533,0.0013
 4535,0.12598640,0.27992869,0.00737527,-0.00018176,0.00013553,0.0030049
 1,0.00004647,-0.00012033,-0.03629036,0.00050851,-0.00124120,0.00311390
 ,0.00006349,0.00006496,0.00699486,0.00005703,-0.00004113,-0.00067715,-
 0.00006831,-0.00001858,0.00014185,0.00013794,0.00005630,-0.00405526,0.
 00000822,0.00003751,0.02533103,0.00014396,-0.00537506,-0.00141561,0.00
 014851,-0.01058040,0.02924296,0.00051205,-0.12632314,0.11776640,-0.000
 06796,0.01165907,-0.01501536,0.00001392,-0.00076995,-0.00320601,-0.000
 01663,-0.00076762,-0.00090042,-0.00013644,-0.00013516,0.00135837,-0.00
 001490,0.00097754,-0.00041482,-0.00062602,0.13064328,0.00000018,-0.000
 59538,0.00196028,0.00001881,-0.00215378,0.00318843,-0.00111992,0.11784
 018,-0.26647073,-0.00012960,0.01633691,-0.01857136,-0.00001131,-0.0041
 7686,-0.00307082,-0.00001405,-0.00085353,0.00032335,-0.00000167,-0.000
 17560,-0.00002893,0.00001875,0.00041020,0.00081561,0.00122064,-0.12730
 285,0.28202090,-0.00073692,-0.00014197,0.,0.00705316,0.00006318,-0.000
 04891,0.00252756,-0.00006448,-0.00011664,-0.03520750,0.00086091,0.,0.0
 0252756,-0.00006448,0.00011664,0.00705316,0.00006318,0.00004891,-0.000
 94036,0.00019362,0.,0.00030758,-0.00003938,-0.00001005,-0.00394882,-0.
 00000870,0.00002120,0.02510107,0.00000886,0.00064866,0.,0.00000992,0.0
 0081857,-0.00319123,0.00006104,-0.01166544,0.00299394,0.00076817,-0.33
 447034,0.,0.00006104,-0.01166544,-0.00299394,0.00000992,0.00081857,0.0
 0319123,-0.00006106,0.00001321,0.,-0.00000490,-0.00070782,0.00016548,-
 0.00001348,0.00079720,-0.00033382,-0.00087245,0.35532086,0.,0.,-0.0013
 4619,-0.00001675,-0.00211934,-0.00443003,0.00009103,-0.02844978,0.0046
 5763,0.,0.,-0.05909455,-0.00009103,0.02844978,0.00465763,0.00001675,0.
 00211934,-0.00443003,0.,0.,0.00017803,-0.00001139,-0.00140440,-0.00000
 531,0.00000996,0.00057262,0.00094894,0.,0.,0.05781430,0.00737527,-0.00
 018176,-0.00013553,-0.00067715,-0.00006831,0.00001858,0.00699486,0.000
 05703,0.00004113,0.00311390,0.00006349,-0.00006496,-0.03629036,0.00050
 851,0.00124120,0.00300491,0.00004647,0.00012033,0.00014185,0.00013794,
 -0.00005630,-0.00115541,-0.00000174,0.00001336,0.00025384,0.00000756,0
 .00000842,-0.00394882,-0.00001348,-0.00000996,0.02533103,0.00014396,-0
 .00537506,0.00141561,-0.00001663,-0.00076761,0.00090042,0.00001392,-0.
 00076995,0.00320601,-0.00006796,0.01165907,0.01501536,0.00051205,-0.12
 632314,-0.11776640,0.00014851,-0.01058040,-0.02924296,-0.00013644,-0.0
 0013516,-0.00135837,-0.00000419,0.00004680,-0.00010750,0.00000756,0.00
 037435,0.00079902,-0.00000870,0.00079720,-0.00057262,-0.00062602,0.130
 64328,-0.00000018,0.00059538,0.00196028,0.00001405,0.00085353,0.000323
 35,0.00001131,0.00417686,-0.00307082,0.00012960,-0.01633691,-0.0185713
 6,0.00111992,-0.11784019,-0.26647073,-0.00001881,0.00215378,0.00318843
 ,0.00000167,0.00017560,-0.00002893,-0.00000595,-0.00010147,-0.00003587
 ,-0.00000842,-0.00079902,-0.00106141,-0.00002120,0.00033382,0.00094894
 ,-0.00122064,0.12730285,0.28202090,0.00352187,-0.00066399,0.00012485,0
 .00637294,0.00009957,-0.00015350,-0.00064930,-0.00005071,-0.00002247,0
 .00721601,-0.00001584,0.00003960,0.00279064,0.00006959,0.00000641,-0.0
 3592748,-0.00063521,0.00143905,-0.00336513,0.00050343,-0.00087381,0.00
 028407,0.00004203,0.00002583,-0.00115541,-0.00000419,0.00000595,0.0003
 0758,-0.00000490,0.00001139,-0.00405526,-0.00001490,-0.00001875,0.0249
 2558,-0.00006820,0.00981775,-0.01377446,-0.00001474,-0.00088421,-0.003
 42416,0.00000013,-0.00067814,-0.00074410,0.00002233,-0.00550908,-0.001
 52552,0.00001872,-0.01097619,0.02933659,-0.00078383,-0.12468392,0.1164
 6534,0.00024586,0.00117395,-0.00091629,0.00004203,0.00053184,-0.000775
 23,-0.00000174,0.00004680,0.00010147,-0.00003938,-0.00070782,0.0014044
 0,0.00000822,0.00097754,-0.00041020,0.00069746,0.13073656,0.00016603,0
 .01622816,-0.01993366,0.00008763,-0.00411819,-0.00305162,0.,-0.0009465
 5,0.00018388,0.00005551,-0.00038065,0.00199474,-0.00003596,-0.00216567
 ,0.00313761,0.00112743,0.11606760,-0.26350040,0.00056354,0.00166944,0.
 00090533,-0.00002583,0.00077523,-0.00114617,-0.00001336,0.00010750,-0.
 00003587,0.00001005,-0.00016548,-0.00000531,-0.00003751,0.00041482,0.0
 0081561,-0.00134535,-0.12598640,0.27992869,0.00341492,0.00194846,0.,0.
 00039933,-0.00034198,0.00068582,0.00009197,0.00048528,0.00003678,-0.00
 000463,-0.00027715,0.,0.00009197,0.00048528,-0.00003678,0.00039933,-0.
 00034198,-0.00068582,-0.27373390,0.07642735,0.,-0.00028261,0.00005287,
 0.00002613,0.00001860,0.00004522,-0.00000712,-0.00010141,0.00002490,0.
 ,0.00001860,0.00004522,0.00000712,-0.00028261,0.00005287,-0.00002613,0
 .29797938,0.03064879,-0.01506482,0.,-0.00040711,-0.00032215,-0.0013396
 7,-0.00146221,-0.00043928,-0.00022676,0.00018272,-0.00035051,0.,-0.001
 46221,-0.00043928,0.00022676,-0.00040711,-0.00032215,0.00133967,0.0802
 9286,-0.07014597,0.,0.00066874,0.00007256,0.00032779,0.00001595,-0.000
 11535,0.00005574,0.00018317,-0.00000581,0.,0.00001595,-0.00011535,-0.0
 0005574,0.00066875,0.00007256,-0.00032779,-0.08643549,0.07998618,0.,0.
 ,-0.00006291,0.00046410,0.00196201,-0.00035108,0.00040530,-0.00115479,
 -0.00061078,0.,0.,0.00120293,-0.00040530,0.00115479,-0.00061078,-0.000
 46410,-0.00196201,-0.00035108,0.,0.,-0.04486174,-0.00028671,0.00005522
 ,-0.00010295,-0.00005087,0.00001129,-0.00002047,0.,0.,0.00001034,0.000
 05087,-0.00001129,-0.00002047,0.00028671,-0.00005522,-0.00010295,0.,0.
 ,0.04473122,0.00018008,0.00243429,0.00278220,0.00058987,0.00023299,-0.
 00038243,-0.00008468,-0.00029246,0.00000851,0.00002143,-0.00012834,0.0
 0050080,0.00007730,0.00086241,-0.00010913,0.00061930,0.00008160,0.0001
 1351,-0.10022466,-0.04577487,-0.09740455,0.00004583,-0.00021140,0.0003
 7909,-0.00002973,-0.00002734,-0.00000212,0.00000308,0.00001321,0.00002
 240,-0.00007752,0.00003097,0.00000816,-0.00002934,0.00003167,-0.000146
 94,-0.01400447,-0.01125140,-0.02609989,0.10533522,-0.01447613,-0.01288
 799,-0.02813971,0.00061971,0.00185996,-0.00188005,0.00039705,-0.000162
 90,-0.00007351,-0.00013868,-0.00002184,0.00020472,0.00089436,-0.000098
 26,-0.00136144,-0.00046693,-0.00557702,0.00194726,-0.04403538,-0.08076
 852,-0.07470108,-0.00039725,0.00004529,0.00112477,-0.00000128,0.000027
 10,0.00002047,-0.00006226,0.00000419,0.00008729,0.00004743,-0.00045867
 ,-0.00002784,-0.00029384,0.00003708,-0.00004726,0.00391457,0.00359469,
 0.00908400,0.04709992,0.09022107,0.00184406,-0.00028562,0.00029112,0.0
 0047635,0.00200672,0.00030921,0.00056118,-0.00064603,0.00012891,0.0000
 6436,0.00017741,0.00036453,0.00003216,0.00023248,-0.00010203,-0.000559
 97,-0.00051558,0.00040145,-0.09692684,-0.07690656,-0.22081695,-0.00054
 845,-0.00013413,0.00038588,-0.00004036,-0.00006574,0.00001009,-0.00015
 161,-0.00004286,0.00004781,-0.00000933,-0.00006069,-0.00000801,-0.0000
 7435,0.00016963,0.00042424,0.00027449,0.00096217,0.00057536,0.10769435
 ,0.08443559,0.23785376,0.00018008,0.00243429,-0.00278220,0.00061930,0.
 00008160,-0.00011351,0.00007730,0.00086241,0.00010913,0.00002143,-0.00
 012834,-0.00050080,-0.00008468,-0.00029246,-0.00000851,0.00058987,0.00
 023299,0.00038243,-0.10022466,-0.04577487,0.09740455,-0.00002934,0.000
 03167,0.00014694,-0.00007752,0.00003097,-0.00000816,0.00000308,0.00001
 321,-0.00002240,-0.00002973,-0.00002734,0.00000212,0.00004583,-0.00021
 140,-0.00037909,-0.01400447,-0.01125140,0.02609989,0.00757828,0.006898
 72,-0.01263604,0.10533522,-0.01447613,-0.01288799,0.02813971,-0.000466
 93,-0.00557702,-0.00194726,0.00089436,-0.00009826,0.00136144,-0.000138
 68,-0.00002184,-0.00020472,0.00039705,-0.00016290,0.00007351,0.0006197
 1,0.00185996,0.00188005,-0.04403538,-0.08076852,0.07470108,-0.00029384
 ,0.00003708,0.00004726,0.00004743,-0.00045867,0.00002784,-0.00006226,0
 .00000419,-0.00008729,-0.00000128,0.00002710,-0.00002047,-0.00039725,0
 .00004529,-0.00112477,0.00391457,0.00359469,-0.00908400,0.00689872,0.0
 0418583,-0.00932679,0.04709992,0.09022107,-0.00184406,0.00028562,0.000
 29112,0.00055997,0.00051558,0.00040145,-0.00003216,-0.00023248,-0.0001
 0203,-0.00006436,-0.00017741,0.00036453,-0.00056118,0.00064603,0.00012
 891,-0.00047635,-0.00200672,0.00030921,0.09692684,0.07690656,-0.220816
 95,0.00007435,-0.00016963,0.00042424,0.00000933,0.00006069,-0.00000801
 ,0.00015161,0.00004286,0.00004781,0.00004036,0.00006574,0.00001009,0.0
 0054845,0.00013413,0.00038588,-0.00027449,-0.00096217,0.00057536,0.012
 63604,0.00932679,-0.01986536,-0.10769435,-0.08443559,0.23785376\\-0.00
 001282,0.00006379,0.,0.00000597,0.00003460,0.00000542,0.00000400,-0.00
 004220,0.00002538,-0.00000391,0.00001851,0.,0.00000400,-0.00004220,-0.
 00002538,0.00000597,0.00003460,-0.00000542,0.00001912,-0.00004408,0.,-
 0.00000245,-0.00002228,0.00001087,-0.00000104,0.00001059,-0.00000370,0
 .00000004,-0.00000158,0.,-0.00000104,0.00001059,0.00000370,-0.00000245
 ,-0.00002228,-0.00001087,-0.00001222,0.00001323,0.,-0.00000158,-0.0000
 0564,-0.00000144,-0.00000158,-0.00000564,0.00000144\\\@


 Life may have no meaning.  Or even worse, it may have a
 meaning of which I disapprove.
                                 -- Ashleigh Brilliant
 Job cpu time:  0 days  0 hours 31 minutes 13.0 seconds.
 File lengths (MBytes):  RWF=     49 Int=      0 D2E=      0 Chk=      8 Scr=      1
 Normal termination of Gaussian 03 at Tue Mar  7 14:14:59 2017.
