 Entering Gaussian System, Link 0=g16
 Initial command:
 /usr/common/software/g16/a03/g16/l1.exe "/global/cscratch1/sd/laitcl/Gau-3651.inp" -scrdir="/global/cscratch1/sd/laitcl/"
 Entering Link 1 = /usr/common/software/g16/a03/g16/l1.exe PID=      3652.
  
 Copyright (c) 1988,1990,1992,1993,1995,1998,2003,2009,2016,
            Gaussian, Inc.  All Rights Reserved.
  
 This is part of the Gaussian(R) 16 program.  It is based on
 the Gaussian(R) 09 system (copyright 2009, Gaussian, Inc.),
 the Gaussian(R) 03 system (copyright 2003, Gaussian, Inc.),
 the Gaussian(R) 98 system (copyright 1998, Gaussian, Inc.),
 the Gaussian(R) 94 system (copyright 1995, Gaussian, Inc.),
 the Gaussian 92(TM) system (copyright 1992, Gaussian, Inc.),
 the Gaussian 90(TM) system (copyright 1990, Gaussian, Inc.),
 the Gaussian 88(TM) system (copyright 1988, Gaussian, Inc.),
 the Gaussian 86(TM) system (copyright 1986, Carnegie Mellon
 University), and the Gaussian 82(TM) system (copyright 1983,
 Carnegie Mellon University). Gaussian is a federally registered
 trademark of Gaussian, Inc.
  
 This software contains proprietary and confidential information,
 including trade secrets, belonging to Gaussian, Inc.
  
 This software is provided under written license and may be
 used, copied, transmitted, or stored only in accord with that
 written license.
  
 The following legend is applicable only to US Government
 contracts under FAR:
  
                    RESTRICTED RIGHTS LEGEND
  
 Use, reproduction and disclosure by the US Government is
 subject to restrictions as set forth in subparagraphs (a)
 and (c) of the Commercial Computer Software - Restricted
 Rights clause in FAR 52.227-19.
  
 Gaussian, Inc.
 340 Quinnipiac St., Bldg. 40, Wallingford CT 06492
  
  
 ---------------------------------------------------------------
 Warning -- This program may not be used in any manner that
 competes with the business of Gaussian, Inc. or will provide
 assistance to any competitor of Gaussian, Inc.  The licensee
 of this program is prohibited from giving any competitor of
 Gaussian, Inc. access to this program.  By using this program,
 the user acknowledges that Gaussian, Inc. is engaged in the
 business of creating and licensing software in the field of
 computational chemistry and represents and warrants to the
 licensee that it is not a competitor of Gaussian, Inc. and that
 it will not use this program in any manner prohibited above.
 ---------------------------------------------------------------
  

 Cite this work as:
 Gaussian 16, Revision A.03,
 M. J. Frisch, G. W. Trucks, H. B. Schlegel, G. E. Scuseria, 
 M. A. Robb, J. R. Cheeseman, G. Scalmani, V. Barone, 
 G. A. Petersson, H. Nakatsuji, X. Li, M. Caricato, A. V. Marenich, 
 J. Bloino, B. G. Janesko, R. Gomperts, B. Mennucci, H. P. Hratchian, 
 J. V. Ortiz, A. F. Izmaylov, J. L. Sonnenberg, D. Williams-Young, 
 F. Ding, F. Lipparini, F. Egidi, J. Goings, B. Peng, A. Petrone, 
 T. Henderson, D. Ranasinghe, V. G. Zakrzewski, J. Gao, N. Rega, 
 G. Zheng, W. Liang, M. Hada, M. Ehara, K. Toyota, R. Fukuda, 
 J. Hasegawa, M. Ishida, T. Nakajima, Y. Honda, O. Kitao, H. Nakai, 
 T. Vreven, K. Throssell, J. A. Montgomery, Jr., J. E. Peralta, 
 F. Ogliaro, M. J. Bearpark, J. J. Heyd, E. N. Brothers, K. N. Kudin, 
 V. N. Staroverov, T. A. Keith, R. Kobayashi, J. Normand, 
 K. Raghavachari, A. P. Rendell, J. C. Burant, S. S. Iyengar, 
 J. Tomasi, M. Cossi, J. M. Millam, M. Klene, C. Adamo, R. Cammi, 
 J. W. Ochterski, R. L. Martin, K. Morokuma, O. Farkas, 
 J. B. Foresman, and D. J. Fox, Gaussian, Inc., Wallingford CT, 2016.
 
 ******************************************
 Gaussian 16:  ES64L-G16RevA.03 25-Dec-2016
                23-Feb-2017 
 ******************************************
 %chk=TolueneEnergy.chk
 %mem=1000mb
 %nprocshared=8
 Will use up to    8 processors via shared memory.
 ---------
 # cbs-qb3
 ---------
 1/18=20,19=15,26=3,38=1/1,3;
 2/9=110,12=2,17=6,18=5,40=1/2;
 3/5=4,6=6,7=700,11=2,25=1,30=1,71=1,74=-5/1,2,3;
 4//1;
 5/5=2,38=5/2;
 6/7=2,8=2,9=2,10=2,28=1/1;
 7//1,2,3,16;
 1/18=20,19=15,26=3/3(2);
 2/9=110/2;
 99//99;
 2/9=110/2;
 3/5=4,6=6,7=700,11=2,25=1,30=1,71=1,74=-5/1,2,3;
 4/5=5,16=3,69=1/1;
 5/5=2,38=5/2;
 7//1,2,3,16;
 1/18=20,19=15,26=3/3(-5);
 2/9=110/2;
 6/7=2,8=2,9=2,10=2,19=2,28=1/1;
 99/9=1/99;
 --------------
 Toluene Energy
 --------------
 Symbolic Z-matrix:
 Charge =  0 Multiplicity = 1
 C                     0.00438   0.91242   0. 
 C                     0.00722   0.19388   1.20014 
 C                     0.00722  -1.19907   1.20295 
 C                     0.00633  -1.90168   0. 
 C                     0.00722  -1.19907  -1.20295 
 C                     0.00722   0.19388  -1.20014 
 C                    -0.02791   2.42229   0. 
 H                     0.01176   0.73188   2.14306 
 H                     0.01184  -1.73554   2.14555 
 H                     0.00931  -2.98585   0. 
 H                     0.01184  -1.73554  -2.14555 
 H                     0.01176   0.73188  -2.14306 
 H                    -1.05878   2.79351   0. 
 H                     0.46609   2.83186   0.88421 
 H                     0.46609   2.83186  -0.88421 
 

 GradGradGradGradGradGradGradGradGradGradGradGradGradGradGradGradGradGrad
 Berny optimization.
 Initialization pass.
                           ----------------------------
                           !    Initial Parameters    !
                           ! (Angstroms and Degrees)  !
 --------------------------                            --------------------------
 ! Name  Definition              Value          Derivative Info.                !
 --------------------------------------------------------------------------------
 ! R1    R(1,2)                  1.3988         estimate D2E/DX2                !
 ! R2    R(1,6)                  1.3988         estimate D2E/DX2                !
 ! R3    R(1,7)                  1.5102         estimate D2E/DX2                !
 ! R4    R(2,3)                  1.393          estimate D2E/DX2                !
 ! R5    R(2,8)                  1.0856         estimate D2E/DX2                !
 ! R6    R(3,4)                  1.3931         estimate D2E/DX2                !
 ! R7    R(3,9)                  1.0846         estimate D2E/DX2                !
 ! R8    R(4,5)                  1.3931         estimate D2E/DX2                !
 ! R9    R(4,10)                 1.0842         estimate D2E/DX2                !
 ! R10   R(5,6)                  1.393          estimate D2E/DX2                !
 ! R11   R(5,11)                 1.0846         estimate D2E/DX2                !
 ! R12   R(6,12)                 1.0856         estimate D2E/DX2                !
 ! R13   R(7,13)                 1.0957         estimate D2E/DX2                !
 ! R14   R(7,14)                 1.0925         estimate D2E/DX2                !
 ! R15   R(7,15)                 1.0925         estimate D2E/DX2                !
 ! A1    A(2,1,6)              118.1806         estimate D2E/DX2                !
 ! A2    A(2,1,7)              120.9045         estimate D2E/DX2                !
 ! A3    A(6,1,7)              120.9045         estimate D2E/DX2                !
 ! A4    A(1,2,3)              121.025          estimate D2E/DX2                !
 ! A5    A(1,2,8)              119.383          estimate D2E/DX2                !
 ! A6    A(3,2,8)              119.5918         estimate D2E/DX2                !
 ! A7    A(2,3,4)              120.1724         estimate D2E/DX2                !
 ! A8    A(2,3,9)              119.7612         estimate D2E/DX2                !
 ! A9    A(4,3,9)              120.066          estimate D2E/DX2                !
 ! A10   A(3,4,5)              119.4239         estimate D2E/DX2                !
 ! A11   A(3,4,10)             120.2878         estimate D2E/DX2                !
 ! A12   A(5,4,10)             120.2878         estimate D2E/DX2                !
 ! A13   A(4,5,6)              120.1724         estimate D2E/DX2                !
 ! A14   A(4,5,11)             120.066          estimate D2E/DX2                !
 ! A15   A(6,5,11)             119.7612         estimate D2E/DX2                !
 ! A16   A(1,6,5)              121.025          estimate D2E/DX2                !
 ! A17   A(1,6,12)             119.383          estimate D2E/DX2                !
 ! A18   A(5,6,12)             119.5918         estimate D2E/DX2                !
 ! A19   A(1,7,13)             111.0293         estimate D2E/DX2                !
 ! A20   A(1,7,14)             111.4156         estimate D2E/DX2                !
 ! A21   A(1,7,15)             111.4156         estimate D2E/DX2                !
 ! A22   A(13,7,14)            107.362          estimate D2E/DX2                !
 ! A23   A(13,7,15)            107.362          estimate D2E/DX2                !
 ! A24   A(14,7,15)            108.0605         estimate D2E/DX2                !
 ! D1    D(6,1,2,3)             -0.2643         estimate D2E/DX2                !
 ! D2    D(6,1,2,8)            179.5962         estimate D2E/DX2                !
 ! D3    D(7,1,2,3)            178.5718         estimate D2E/DX2                !
 ! D4    D(7,1,2,8)             -1.5677         estimate D2E/DX2                !
 ! D5    D(2,1,6,5)              0.2643         estimate D2E/DX2                !
 ! D6    D(2,1,6,12)          -179.5962         estimate D2E/DX2                !
 ! D7    D(7,1,6,5)           -178.5718         estimate D2E/DX2                !
 ! D8    D(7,1,6,12)             1.5677         estimate D2E/DX2                !
 ! D9    D(2,1,7,13)           -89.4021         estimate D2E/DX2                !
 ! D10   D(2,1,7,14)            30.2147         estimate D2E/DX2                !
 ! D11   D(2,1,7,15)           150.9811         estimate D2E/DX2                !
 ! D12   D(6,1,7,13)            89.4021         estimate D2E/DX2                !
 ! D13   D(6,1,7,14)          -150.9811         estimate D2E/DX2                !
 ! D14   D(6,1,7,15)           -30.2147         estimate D2E/DX2                !
 ! D15   D(1,2,3,4)              0.0934         estimate D2E/DX2                !
 ! D16   D(1,2,3,9)            179.8546         estimate D2E/DX2                !
 ! D17   D(8,2,3,4)           -179.7668         estimate D2E/DX2                !
 ! D18   D(8,2,3,9)             -0.0056         estimate D2E/DX2                !
 ! D19   D(2,3,4,5)              0.084          estimate D2E/DX2                !
 ! D20   D(2,3,4,10)           179.8175         estimate D2E/DX2                !
 ! D21   D(9,3,4,5)           -179.6765         estimate D2E/DX2                !
 ! D22   D(9,3,4,10)             0.0571         estimate D2E/DX2                !
 ! D23   D(3,4,5,6)             -0.084          estimate D2E/DX2                !
 ! D24   D(3,4,5,11)           179.6765         estimate D2E/DX2                !
 ! D25   D(10,4,5,6)          -179.8175         estimate D2E/DX2                !
 ! D26   D(10,4,5,11)           -0.0571         estimate D2E/DX2                !
 ! D27   D(4,5,6,1)             -0.0934         estimate D2E/DX2                !
 ! D28   D(4,5,6,12)           179.7668         estimate D2E/DX2                !
 ! D29   D(11,5,6,1)          -179.8546         estimate D2E/DX2                !
 ! D30   D(11,5,6,12)            0.0056         estimate D2E/DX2                !
 --------------------------------------------------------------------------------
 Trust Radius=3.00D-01 FncErr=1.00D-07 GrdErr=1.00D-06 EigMax=2.50D+02 EigMin=1.00D-04
 Number of steps in this run=     79 maximum allowed number of steps=    100.
 GradGradGradGradGradGradGradGradGradGradGradGradGradGradGradGradGradGrad

                          Input orientation:                          
 ---------------------------------------------------------------------
 Center     Atomic      Atomic             Coordinates (Angstroms)
 Number     Number       Type             X           Y           Z
 ---------------------------------------------------------------------
      1          6           0        0.004380    0.912420    0.000000
      2          6           0        0.007220    0.193880    1.200140
      3          6           0        0.007220   -1.199070    1.202950
      4          6           0        0.006330   -1.901680    0.000000
      5          6           0        0.007220   -1.199070   -1.202950
      6          6           0        0.007220    0.193880   -1.200140
      7          6           0       -0.027910    2.422290    0.000000
      8          1           0        0.011760    0.731880    2.143060
      9          1           0        0.011840   -1.735540    2.145550
     10          1           0        0.009310   -2.985850    0.000000
     11          1           0        0.011840   -1.735540   -2.145550
     12          1           0        0.011760    0.731880   -2.143060
     13          1           0       -1.058780    2.793510    0.000000
     14          1           0        0.466090    2.831860    0.884210
     15          1           0        0.466090    2.831860   -0.884210
 ---------------------------------------------------------------------
                    Distance matrix (angstroms):
                    1          2          3          4          5
     1  C    0.000000
     2  C    1.398801   0.000000
     3  C    2.430121   1.392953   0.000000
     4  C    2.814101   2.414893   1.393108   0.000000
     5  C    2.430121   2.777616   2.405900   1.393108   0.000000
     6  C    1.398801   2.400280   2.777616   2.414893   1.392953
     7  C    1.510215   2.531281   3.816094   4.324106   3.816094
     8  H    2.150664   1.085616   2.147649   3.395346   3.863207
     9  H    3.408098   2.148600   1.084581   2.151980   3.391205
    10  H    3.898273   3.398680   2.153991   1.084174   2.153991
    11  H    3.408098   3.862166   3.391205   2.151980   1.084581
    12  H    2.150664   3.386215   3.863207   3.395346   2.147649
    13  H    2.160743   3.055285   4.303968   4.814485   4.303968
    14  H    2.163158   2.696166   4.069466   4.837314   4.562367
    15  H    2.163158   3.393231   4.562367   4.837314   4.069466
                    6          7          8          9         10
     6  C    0.000000
     7  C    2.531281   0.000000
     8  H    3.386215   2.729792   0.000000
     9  H    3.862166   4.678944   2.467421   0.000000
    10  H    3.398680   5.408268   4.291180   2.483277   0.000000
    11  H    2.148600   4.678944   4.947761   4.291100   2.483277
    12  H    1.085616   2.729792   4.286120   4.947761   4.291180
    13  H    3.055285   1.095672   3.160551   5.124637   5.877229
    14  H    3.393231   1.092525   2.490188   4.760091   5.902222
    15  H    2.696166   1.092525   3.712236   5.499721   5.902222
                   11         12         13         14         15
    11  H    0.000000
    12  H    2.467421   0.000000
    13  H    5.124637   3.160551   0.000000
    14  H    5.499721   3.712236   1.763101   0.000000
    15  H    4.760091   2.490188   1.763101   1.768420   0.000000
 Stoichiometry    C7H8
 Framework group  CS[SG(C3H2),X(C4H6)]
 Deg. of freedom    22
 Full point group                 CS      NOp   2
 Largest Abelian subgroup         CS      NOp   2
 Largest concise Abelian subgroup CS      NOp   2
                         Standard orientation:                         
 ---------------------------------------------------------------------
 Center     Atomic      Atomic             Coordinates (Angstroms)
 Number     Number       Type             X           Y           Z
 ---------------------------------------------------------------------
      1          6           0        0.004380    0.912421    0.000000
      2          6           0        0.007220    0.193881    1.200140
      3          6           0        0.007220   -1.199069    1.202950
      4          6           0        0.006330   -1.901679   -0.000000
      5          6           0        0.007220   -1.199069   -1.202950
      6          6           0        0.007220    0.193881   -1.200140
      7          6           0       -0.027910    2.422291    0.000000
      8          1           0        0.011760    0.731881    2.143060
      9          1           0        0.011840   -1.735539    2.145550
     10          1           0        0.009310   -2.985849   -0.000000
     11          1           0        0.011840   -1.735539   -2.145550
     12          1           0        0.011760    0.731881   -2.143060
     13          1           0       -1.058780    2.793511    0.000000
     14          1           0        0.466090    2.831861    0.884210
     15          1           0        0.466090    2.831861   -0.884210
 ---------------------------------------------------------------------
 Rotational constants (GHZ):           5.5548152           2.5165402           1.7507580
 Standard basis: 6-311G(2d,d,p) (5D, 7F)
 There are   108 symmetry adapted cartesian basis functions of A'  symmetry.
 There are    73 symmetry adapted cartesian basis functions of A"  symmetry.
 There are   103 symmetry adapted basis functions of A'  symmetry.
 There are    71 symmetry adapted basis functions of A"  symmetry.
   174 basis functions,   288 primitive gaussians,   181 cartesian basis functions
    25 alpha electrons       25 beta electrons
       nuclear repulsion energy       269.1308041674 Hartrees.
 NAtoms=   15 NActive=   15 NUniq=   10 SFac= 2.25D+00 NAtFMM=   60 NAOKFM=F Big=F
 Integral buffers will be    131072 words long.
 Raffenetti 2 integral format.
 Two-electron integral symmetry is turned on.
 One-electron integrals computed using PRISM.
 NBasis=   174 RedAO= T EigKep=  1.85D-04  NBF=   103    71
 NBsUse=   174 1.00D-06 EigRej= -1.00D+00 NBFU=   103    71
 ExpMin= 1.03D-01 ExpMax= 4.56D+03 ExpMxC= 6.82D+02 IAcc=3 IRadAn=         5 AccDes= 0.00D+00
 Harris functional with IExCor=  402 and IRadAn=       5 diagonalized for initial guess.
 HarFok:  IExCor=  402 AccDes= 0.00D+00 IRadAn=         5 IDoV= 1 UseB2=F ITyADJ=14
 ICtDFT=  3500011 ScaDFX=  1.000000  1.000000  1.000000  1.000000
 FoFCou: FMM=F IPFlag=           0 FMFlag=      100000 FMFlg1=           0
         NFxFlg=           0 DoJE=T BraDBF=F KetDBF=T FulRan=T
         wScrn=  0.000000 ICntrl=       500 IOpCl=  0 I1Cent=   200000004 NGrid=           0
         NMat0=    1 NMatS0=      1 NMatT0=    0 NMatD0=    1 NMtDS0=    0 NMtDT0=    0
 Petite list used in FoFCou.
 Initial guess orbital symmetries:
       Occupied  (A') (A') (A") (A') (A") (A') (A') (A') (A') (A")
                 (A') (A") (A') (A') (A") (A') (A") (A') (A') (A")
                 (A') (A") (A') (A") (A')
       Virtual   (A") (A') (A') (A') (A') (A") (A') (A") (A') (A")
                 (A') (A') (A") (A') (A') (A") (A') (A") (A') (A")
                 (A') (A') (A") (A') (A') (A') (A") (A") (A") (A')
                 (A') (A") (A') (A') (A") (A") (A') (A') (A") (A')
                 (A') (A') (A') (A") (A') (A") (A') (A") (A') (A")
                 (A') (A') (A") (A') (A") (A") (A') (A') (A") (A')
                 (A") (A') (A') (A") (A") (A') (A') (A") (A') (A")
                 (A') (A") (A") (A') (A') (A') (A") (A') (A") (A')
                 (A") (A") (A') (A') (A') (A") (A") (A') (A") (A')
                 (A') (A') (A") (A") (A') (A") (A') (A') (A") (A")
                 (A') (A') (A") (A') (A') (A") (A') (A") (A') (A')
                 (A') (A") (A') (A") (A') (A") (A") (A') (A') (A')
                 (A") (A') (A') (A") (A") (A') (A") (A') (A") (A')
                 (A') (A") (A') (A') (A') (A") (A") (A') (A") (A')
                 (A') (A") (A') (A') (A") (A') (A') (A") (A')
 The electronic state of the initial guess is 1-A'.
 Requested convergence on RMS density matrix=1.00D-08 within 128 cycles.
 Requested convergence on MAX density matrix=1.00D-06.
 Requested convergence on             energy=1.00D-06.
 No special actions if energy rises.
 Integral accuracy reduced to 1.0D-05 until final iterations.
 Initial convergence to 1.0D-05 achieved.  Increase integral accuracy.
 SCF Done:  E(RB3LYP) =  -271.636042406     A.U. after   13 cycles
            NFock= 13  Conv=0.36D-08     -V/T= 2.0046

 **********************************************************************

            Population analysis using the SCF density.

 **********************************************************************

 Orbital symmetries:
       Occupied  (A') (A') (A") (A') (A") (A') (A') (A') (A') (A")
                 (A') (A") (A') (A') (A") (A') (A') (A") (A') (A")
                 (A') (A') (A") (A") (A')
       Virtual   (A") (A') (A') (A') (A") (A') (A") (A') (A') (A")
                 (A') (A') (A') (A") (A') (A") (A") (A') (A') (A')
                 (A") (A") (A') (A') (A') (A") (A') (A") (A') (A")
                 (A') (A") (A') (A') (A') (A") (A") (A') (A") (A')
                 (A') (A') (A") (A') (A') (A") (A') (A') (A") (A")
                 (A') (A') (A") (A") (A') (A') (A") (A') (A") (A')
                 (A") (A') (A') (A") (A") (A') (A") (A') (A') (A")
                 (A') (A") (A") (A') (A') (A') (A") (A') (A') (A")
                 (A") (A") (A') (A') (A') (A") (A") (A") (A') (A')
                 (A') (A") (A') (A") (A') (A") (A') (A') (A") (A")
                 (A') (A') (A") (A') (A") (A') (A') (A") (A') (A')
                 (A') (A") (A') (A") (A') (A') (A") (A") (A') (A')
                 (A') (A") (A') (A") (A") (A') (A") (A') (A") (A')
                 (A') (A") (A') (A') (A') (A") (A") (A') (A") (A')
                 (A') (A") (A') (A') (A") (A') (A') (A") (A')
 The electronic state is 1-A'.
 Alpha  occ. eigenvalues --  -10.18118 -10.17130 -10.17124 -10.16919 -10.16880
 Alpha  occ. eigenvalues --  -10.16877 -10.16776  -0.85703  -0.77241  -0.74475
 Alpha  occ. eigenvalues --   -0.68652  -0.60548  -0.58481  -0.51253  -0.46159
 Alpha  occ. eigenvalues --   -0.45491  -0.42227  -0.42063  -0.40982  -0.38747
 Alpha  occ. eigenvalues --   -0.35673  -0.34366  -0.34055  -0.25337  -0.24458
 Alpha virt. eigenvalues --   -0.00774  -0.00571   0.04543   0.06214   0.07503
 Alpha virt. eigenvalues --    0.09869   0.10865   0.11029   0.13654   0.13858
 Alpha virt. eigenvalues --    0.16612   0.20541   0.27002   0.27489   0.28470
 Alpha virt. eigenvalues --    0.29468   0.30842   0.31781   0.33719   0.39980
 Alpha virt. eigenvalues --    0.40611   0.40840   0.41227   0.43265   0.44421
 Alpha virt. eigenvalues --    0.44992   0.46872   0.47091   0.48221   0.50212
 Alpha virt. eigenvalues --    0.54459   0.54619   0.55486   0.58592   0.60411
 Alpha virt. eigenvalues --    0.60508   0.61175   0.62477   0.62588   0.62850
 Alpha virt. eigenvalues --    0.65561   0.68824   0.73639   0.73792   0.76334
 Alpha virt. eigenvalues --    0.79052   0.81419   0.85302   0.85338   0.89737
 Alpha virt. eigenvalues --    0.93899   0.95521   1.00875   1.01792   1.03211
 Alpha virt. eigenvalues --    1.05267   1.08562   1.13136   1.14345   1.24584
 Alpha virt. eigenvalues --    1.32216   1.33104   1.34797   1.41336   1.45155
 Alpha virt. eigenvalues --    1.46713   1.46735   1.48402   1.51363   1.54024
 Alpha virt. eigenvalues --    1.55564   1.57181   1.57825   1.58355   1.59075
 Alpha virt. eigenvalues --    1.63952   1.67436   1.68562   1.73197   1.74440
 Alpha virt. eigenvalues --    1.77844   1.80186   1.80621   1.83266   1.89720
 Alpha virt. eigenvalues --    1.90667   1.91295   1.91840   1.92901   1.95726
 Alpha virt. eigenvalues --    1.98295   2.02163   2.02179   2.08080   2.10841
 Alpha virt. eigenvalues --    2.20527   2.22336   2.23974   2.30078   2.31939
 Alpha virt. eigenvalues --    2.34688   2.35276   2.38258   2.40613   2.47678
 Alpha virt. eigenvalues --    2.50613   2.52781   2.53330   2.57563   2.60110
 Alpha virt. eigenvalues --    2.61273   2.62178   2.64288   2.65604   2.67827
 Alpha virt. eigenvalues --    2.68159   2.69270   2.72883   2.76073   2.81546
 Alpha virt. eigenvalues --    2.85681   2.85723   2.88423   2.91931   2.93696
 Alpha virt. eigenvalues --    3.06215   3.11798   3.18707   3.32912   3.34661
 Alpha virt. eigenvalues --    3.47091   3.47581   3.59187   3.64475   3.78989
 Alpha virt. eigenvalues --    3.81090   3.96737   4.02796   4.11702   4.12087
 Alpha virt. eigenvalues --    4.32426   4.83940  23.52127  23.89773  23.94491
 Alpha virt. eigenvalues --   23.94746  24.08234  24.10266  24.19702
          Condensed to atoms (all electrons):
               1          2          3          4          5          6
     1  C    5.025939   0.525465  -0.051275  -0.040838  -0.051275   0.525465
     2  C    0.525465   4.841385   0.532606  -0.060204  -0.037853  -0.054327
     3  C   -0.051275   0.532606   4.840767   0.521296  -0.057496  -0.037853
     4  C   -0.040838  -0.060204   0.521296   4.867271   0.521296  -0.060204
     5  C   -0.051275  -0.037853  -0.057496   0.521296   4.840767   0.532606
     6  C    0.525465  -0.054327  -0.037853  -0.060204   0.532606   4.841385
     7  C    0.359756  -0.057183   0.005608   0.000141   0.005608  -0.057183
     8  H   -0.049334   0.417271  -0.039392   0.008003  -0.000587   0.007685
     9  H    0.008281  -0.042059   0.414266  -0.043483   0.007588  -0.000405
    10  H   -0.000425   0.007659  -0.042501   0.415720  -0.042501   0.007659
    11  H    0.008281  -0.000405   0.007588  -0.043483   0.414266  -0.042059
    12  H   -0.049334   0.007685  -0.000587   0.008003  -0.039392   0.417271
    13  H   -0.034997  -0.002972  -0.000212   0.000103  -0.000212  -0.002972
    14  H   -0.036633  -0.006852   0.000506   0.000012  -0.000342   0.005392
    15  H   -0.036633   0.005392  -0.000342   0.000012   0.000506  -0.006852
               7          8          9         10         11         12
     1  C    0.359756  -0.049334   0.008281  -0.000425   0.008281  -0.049334
     2  C   -0.057183   0.417271  -0.042059   0.007659  -0.000405   0.007685
     3  C    0.005608  -0.039392   0.414266  -0.042501   0.007588  -0.000587
     4  C    0.000141   0.008003  -0.043483   0.415720  -0.043483   0.008003
     5  C    0.005608  -0.000587   0.007588  -0.042501   0.414266  -0.039392
     6  C   -0.057183   0.007685  -0.000405   0.007659  -0.042059   0.417271
     7  C    4.806296  -0.007514  -0.000345   0.000044  -0.000345  -0.007514
     8  H   -0.007514   0.586747  -0.008746  -0.000364   0.000082  -0.000390
     9  H   -0.000345  -0.008746   0.581522  -0.008072  -0.000395   0.000082
    10  H    0.000044  -0.000364  -0.008072   0.579510  -0.008072  -0.000364
    11  H   -0.000345   0.000082  -0.000395  -0.008072   0.581522  -0.008746
    12  H   -0.007514  -0.000390   0.000082  -0.000364  -0.008746   0.586747
    13  H    0.397705   0.000450   0.000014  -0.000002   0.000014   0.000450
    14  H    0.406918   0.002892  -0.000026  -0.000003   0.000023  -0.000005
    15  H    0.406918  -0.000005   0.000023  -0.000003  -0.000026   0.002892
              13         14         15
     1  C   -0.034997  -0.036633  -0.036633
     2  C   -0.002972  -0.006852   0.005392
     3  C   -0.000212   0.000506  -0.000342
     4  C    0.000103   0.000012   0.000012
     5  C   -0.000212  -0.000342   0.000506
     6  C   -0.002972   0.005392  -0.006852
     7  C    0.397705   0.406918   0.406918
     8  H    0.000450   0.002892  -0.000005
     9  H    0.000014  -0.000026   0.000023
    10  H   -0.000002  -0.000003  -0.000003
    11  H    0.000014   0.000023  -0.000026
    12  H    0.000450  -0.000005   0.002892
    13  H    0.574015  -0.028900  -0.028900
    14  H   -0.028900   0.572774  -0.027826
    15  H   -0.028900  -0.027826   0.572774
 Mulliken charges:
               1
     1  C   -0.102442
     2  C   -0.075610
     3  C   -0.092981
     4  C   -0.093646
     5  C   -0.092981
     6  C   -0.075610
     7  C   -0.258907
     8  H    0.083200
     9  H    0.091755
    10  H    0.091714
    11  H    0.091755
    12  H    0.083200
    13  H    0.126414
    14  H    0.112069
    15  H    0.112069
 Sum of Mulliken charges =  -0.00000
 Mulliken charges with hydrogens summed into heavy atoms:
               1
     1  C   -0.102442
     2  C    0.007590
     3  C   -0.001226
     4  C   -0.001932
     5  C   -0.001226
     6  C    0.007590
     7  C    0.091645
 Electronic spatial extent (au):  <R**2>=            718.6796
 Charge=             -0.0000 electrons
 Dipole moment (field-independent basis, Debye):
    X=             -0.0382    Y=              0.3496    Z=             -0.0000  Tot=              0.3517
 Quadrupole moment (field-independent basis, Debye-Ang):
   XX=            -45.9586   YY=            -38.3806   ZZ=            -38.7547
   XY=             -0.1003   XZ=             -0.0000   YZ=              0.0000
 Traceless Quadrupole moment (field-independent basis, Debye-Ang):
   XX=             -4.9273   YY=              2.6507   ZZ=              2.2766
   XY=             -0.1003   XZ=             -0.0000   YZ=              0.0000
 Octapole moment (field-independent basis, Debye-Ang**2):
  XXX=             -0.7775  YYY=             -4.4570  ZZZ=              0.0000  XYY=             -0.0626
  XXY=              3.4505  XXZ=              0.0000  XZZ=              0.6266  YZZ=             -1.0971
  YYZ=             -0.0000  XYZ=             -0.0000
 Hexadecapole moment (field-independent basis, Debye-Ang**3):
 XXXX=            -58.5344 YYYY=           -612.8883 ZZZZ=           -288.0351 XXXY=              0.3789
 XXXZ=              0.0000 YYYX=              2.0980 YYYZ=             -0.0000 ZZZX=             -0.0000
 ZZZY=             -0.0000 XXYY=           -120.1587 XXZZ=            -67.5366 YYZZ=           -147.2907
 XXYZ=             -0.0000 YYXZ=             -0.0000 ZZXY=              2.3529
 N-N= 2.691308041674D+02 E-N=-1.167923146041D+03  KE= 2.703859771453D+02
 Symmetry A'   KE= 1.878583712986D+02
 Symmetry A"   KE= 8.252760584670D+01
 Calling FoFJK, ICntrl=      2127 FMM=F ISym2X=1 I1Cent= 0 IOpClX= 0 NMat=1 NMatS=1 NMatT=0.
 ***** Axes restored to original set *****
 -------------------------------------------------------------------
 Center     Atomic                   Forces (Hartrees/Bohr)
 Number     Number              X              Y              Z
 -------------------------------------------------------------------
      1        6          -0.000000550   -0.000018301    0.000000000
      2        6           0.000003297   -0.000008806    0.000013022
      3        6          -0.000003064    0.000010195   -0.000009862
      4        6           0.000003115   -0.000005283    0.000000000
      5        6          -0.000003064    0.000010195    0.000009862
      6        6           0.000003297   -0.000008806   -0.000013022
      7        6          -0.000011683    0.000013241   -0.000000000
      8        1          -0.000001427    0.000003589   -0.000011196
      9        1           0.000000447   -0.000006956   -0.000000411
     10        1           0.000000415    0.000004613   -0.000000000
     11        1           0.000000447   -0.000006956    0.000000411
     12        1          -0.000001427    0.000003589    0.000011196
     13        1           0.000009094    0.000002447   -0.000000000
     14        1           0.000000551    0.000003619   -0.000005382
     15        1           0.000000551    0.000003619    0.000005382
 -------------------------------------------------------------------
 Cartesian Forces:  Max     0.000018301 RMS     0.000006984

 GradGradGradGradGradGradGradGradGradGradGradGradGradGradGradGradGradGrad
 Berny optimization.
 FormGI is forming the generalized inverse of G from B-inverse, IUseBI=4.
 Internal  Forces:  Max     0.000022949 RMS     0.000004746
 Search for a local minimum.
 Step number   1 out of a maximum of   79
 All quantities printed in internal units (Hartrees-Bohrs-Radians)
 Mixed Optimization -- En-DIIS/RFO-DIIS
 Second derivative matrix not updated -- first step.
 ITU=  0
     Eigenvalues ---    0.00631   0.01503   0.02114   0.02140   0.02146
     Eigenvalues ---    0.02166   0.02180   0.02180   0.02181   0.02181
     Eigenvalues ---    0.07057   0.07145   0.16000   0.16000   0.16000
     Eigenvalues ---    0.16000   0.16000   0.16000   0.16000   0.16000
     Eigenvalues ---    0.22000   0.22000   0.23470   0.24994   0.31329
     Eigenvalues ---    0.34165   0.34522   0.34522   0.35324   0.35324
     Eigenvalues ---    0.35446   0.35446   0.35495   0.42147   0.42213
     Eigenvalues ---    0.46020   0.46345   0.46787   0.46809
 RFO step:  Lambda= 0.00000000D+00 EMin= 6.30819529D-03
 Linear search not attempted -- first point.
 Iteration  1 RMS(Cart)=  0.00004381 RMS(Int)=  0.00000000
 Iteration  2 RMS(Cart)=  0.00000000 RMS(Int)=  0.00000000
 ClnCor:  largest displacement from symmetrization is 6.79D-13 for atom    15.
 Variable       Old X    -DE/DX   Delta X   Delta X   Delta X     New X
                                 (Linear)    (Quad)   (Total)
    R1        2.64335   0.00000   0.00000   0.00000   0.00000   2.64335
    R2        2.64335   0.00000   0.00000   0.00000   0.00000   2.64335
    R3        2.85389   0.00002   0.00000   0.00007   0.00007   2.85397
    R4        2.63230  -0.00000   0.00000  -0.00001  -0.00001   2.63229
    R5        2.05152  -0.00001   0.00000  -0.00002  -0.00002   2.05149
    R6        2.63259  -0.00001   0.00000  -0.00001  -0.00001   2.63258
    R7        2.04956   0.00000   0.00000   0.00001   0.00001   2.04957
    R8        2.63259  -0.00001   0.00000  -0.00001  -0.00001   2.63258
    R9        2.04879  -0.00000   0.00000  -0.00001  -0.00001   2.04878
   R10        2.63230  -0.00000   0.00000  -0.00001  -0.00001   2.63229
   R11        2.04956   0.00000   0.00000   0.00001   0.00001   2.04957
   R12        2.05152  -0.00001   0.00000  -0.00002  -0.00002   2.05149
   R13        2.07052  -0.00001   0.00000  -0.00002  -0.00002   2.07050
   R14        2.06457  -0.00000   0.00000  -0.00001  -0.00001   2.06457
   R15        2.06457  -0.00000   0.00000  -0.00001  -0.00001   2.06457
    A1        2.06264  -0.00000   0.00000   0.00000   0.00000   2.06264
    A2        2.11018   0.00000   0.00000  -0.00000  -0.00000   2.11018
    A3        2.11018   0.00000   0.00000  -0.00000  -0.00000   2.11018
    A4        2.11229  -0.00000   0.00000  -0.00001  -0.00001   2.11228
    A5        2.08363  -0.00001   0.00000  -0.00005  -0.00005   2.08357
    A6        2.08727   0.00001   0.00000   0.00006   0.00006   2.08733
    A7        2.09740   0.00000   0.00000   0.00001   0.00001   2.09741
    A8        2.09023   0.00001   0.00000   0.00004   0.00004   2.09026
    A9        2.09555  -0.00001   0.00000  -0.00004  -0.00004   2.09550
   A10        2.08434  -0.00000   0.00000  -0.00000  -0.00000   2.08434
   A11        2.09942   0.00000   0.00000   0.00000   0.00000   2.09942
   A12        2.09942   0.00000   0.00000   0.00000   0.00000   2.09942
   A13        2.09740   0.00000   0.00000   0.00001   0.00001   2.09741
   A14        2.09555  -0.00001   0.00000  -0.00004  -0.00004   2.09550
   A15        2.09023   0.00001   0.00000   0.00004   0.00004   2.09026
   A16        2.11229  -0.00000   0.00000  -0.00001  -0.00001   2.11228
   A17        2.08363  -0.00001   0.00000  -0.00005  -0.00005   2.08357
   A18        2.08727   0.00001   0.00000   0.00006   0.00006   2.08733
   A19        1.93783   0.00001   0.00000   0.00005   0.00005   1.93788
   A20        1.94457   0.00000   0.00000   0.00002   0.00002   1.94459
   A21        1.94457   0.00000   0.00000   0.00002   0.00002   1.94459
   A22        1.87382  -0.00000   0.00000  -0.00002  -0.00002   1.87380
   A23        1.87382  -0.00000   0.00000  -0.00002  -0.00002   1.87380
   A24        1.88601  -0.00001   0.00000  -0.00006  -0.00006   1.88595
    D1       -0.00461  -0.00000   0.00000  -0.00000  -0.00000  -0.00462
    D2        3.13455   0.00000   0.00000   0.00003   0.00003   3.13457
    D3        3.11667   0.00000   0.00000   0.00003   0.00003   3.11669
    D4       -0.02736   0.00000   0.00000   0.00006   0.00006  -0.02731
    D5        0.00461   0.00000   0.00000   0.00000   0.00000   0.00462
    D6       -3.13455  -0.00000   0.00000  -0.00003  -0.00003  -3.13457
    D7       -3.11667  -0.00000   0.00000  -0.00003  -0.00003  -3.11669
    D8        0.02736  -0.00000   0.00000  -0.00006  -0.00006   0.02731
    D9       -1.56036  -0.00000   0.00000  -0.00002  -0.00002  -1.56038
   D10        0.52735   0.00000   0.00000   0.00001   0.00001   0.52736
   D11        2.63512  -0.00000   0.00000  -0.00004  -0.00004   2.63507
   D12        1.56036   0.00000   0.00000   0.00002   0.00002   1.56038
   D13       -2.63512   0.00000   0.00000   0.00004   0.00004  -2.63507
   D14       -0.52735  -0.00000   0.00000  -0.00001  -0.00001  -0.52736
   D15        0.00163   0.00000   0.00000   0.00003   0.00003   0.00166
   D16        3.13905  -0.00000   0.00000  -0.00000  -0.00000   3.13905
   D17       -3.13752  -0.00000   0.00000  -0.00000  -0.00000  -3.13752
   D18       -0.00010  -0.00000   0.00000  -0.00003  -0.00003  -0.00013
   D19        0.00147  -0.00000   0.00000  -0.00005  -0.00005   0.00141
   D20        3.13841  -0.00000   0.00000  -0.00002  -0.00002   3.13839
   D21       -3.13595  -0.00000   0.00000  -0.00002  -0.00002  -3.13597
   D22        0.00100   0.00000   0.00000   0.00001   0.00001   0.00101
   D23       -0.00147   0.00000   0.00000   0.00005   0.00005  -0.00141
   D24        3.13595   0.00000   0.00000   0.00002   0.00002   3.13597
   D25       -3.13841   0.00000   0.00000   0.00002   0.00002  -3.13839
   D26       -0.00100  -0.00000   0.00000  -0.00001  -0.00001  -0.00101
   D27       -0.00163  -0.00000   0.00000  -0.00003  -0.00003  -0.00166
   D28        3.13752   0.00000   0.00000   0.00000   0.00000   3.13752
   D29       -3.13905   0.00000   0.00000   0.00000   0.00000  -3.13905
   D30        0.00010   0.00000   0.00000   0.00003   0.00003   0.00013
         Item               Value     Threshold  Converged?
 Maximum Force            0.000023     0.000450     YES
 RMS     Force            0.000005     0.000300     YES
 Maximum Displacement     0.000166     0.001800     YES
 RMS     Displacement     0.000044     0.001200     YES
 Predicted change in Energy=-3.735837D-09
 Optimization completed.
    -- Stationary point found.
                           ----------------------------
                           !   Optimized Parameters   !
                           ! (Angstroms and Degrees)  !
 --------------------------                            --------------------------
 ! Name  Definition              Value          Derivative Info.                !
 --------------------------------------------------------------------------------
 ! R1    R(1,2)                  1.3988         -DE/DX =    0.0                 !
 ! R2    R(1,6)                  1.3988         -DE/DX =    0.0                 !
 ! R3    R(1,7)                  1.5102         -DE/DX =    0.0                 !
 ! R4    R(2,3)                  1.393          -DE/DX =    0.0                 !
 ! R5    R(2,8)                  1.0856         -DE/DX =    0.0                 !
 ! R6    R(3,4)                  1.3931         -DE/DX =    0.0                 !
 ! R7    R(3,9)                  1.0846         -DE/DX =    0.0                 !
 ! R8    R(4,5)                  1.3931         -DE/DX =    0.0                 !
 ! R9    R(4,10)                 1.0842         -DE/DX =    0.0                 !
 ! R10   R(5,6)                  1.393          -DE/DX =    0.0                 !
 ! R11   R(5,11)                 1.0846         -DE/DX =    0.0                 !
 ! R12   R(6,12)                 1.0856         -DE/DX =    0.0                 !
 ! R13   R(7,13)                 1.0957         -DE/DX =    0.0                 !
 ! R14   R(7,14)                 1.0925         -DE/DX =    0.0                 !
 ! R15   R(7,15)                 1.0925         -DE/DX =    0.0                 !
 ! A1    A(2,1,6)              118.1806         -DE/DX =    0.0                 !
 ! A2    A(2,1,7)              120.9045         -DE/DX =    0.0                 !
 ! A3    A(6,1,7)              120.9045         -DE/DX =    0.0                 !
 ! A4    A(1,2,3)              121.025          -DE/DX =    0.0                 !
 ! A5    A(1,2,8)              119.383          -DE/DX =    0.0                 !
 ! A6    A(3,2,8)              119.5918         -DE/DX =    0.0                 !
 ! A7    A(2,3,4)              120.1724         -DE/DX =    0.0                 !
 ! A8    A(2,3,9)              119.7612         -DE/DX =    0.0                 !
 ! A9    A(4,3,9)              120.066          -DE/DX =    0.0                 !
 ! A10   A(3,4,5)              119.4239         -DE/DX =    0.0                 !
 ! A11   A(3,4,10)             120.2878         -DE/DX =    0.0                 !
 ! A12   A(5,4,10)             120.2878         -DE/DX =    0.0                 !
 ! A13   A(4,5,6)              120.1724         -DE/DX =    0.0                 !
 ! A14   A(4,5,11)             120.066          -DE/DX =    0.0                 !
 ! A15   A(6,5,11)             119.7612         -DE/DX =    0.0                 !
 ! A16   A(1,6,5)              121.025          -DE/DX =    0.0                 !
 ! A17   A(1,6,12)             119.383          -DE/DX =    0.0                 !
 ! A18   A(5,6,12)             119.5918         -DE/DX =    0.0                 !
 ! A19   A(1,7,13)             111.0293         -DE/DX =    0.0                 !
 ! A20   A(1,7,14)             111.4156         -DE/DX =    0.0                 !
 ! A21   A(1,7,15)             111.4156         -DE/DX =    0.0                 !
 ! A22   A(13,7,14)            107.362          -DE/DX =    0.0                 !
 ! A23   A(13,7,15)            107.362          -DE/DX =    0.0                 !
 ! A24   A(14,7,15)            108.0605         -DE/DX =    0.0                 !
 ! D1    D(6,1,2,3)             -0.2643         -DE/DX =    0.0                 !
 ! D2    D(6,1,2,8)            179.5962         -DE/DX =    0.0                 !
 ! D3    D(7,1,2,3)            178.5718         -DE/DX =    0.0                 !
 ! D4    D(7,1,2,8)             -1.5677         -DE/DX =    0.0                 !
 ! D5    D(2,1,6,5)              0.2643         -DE/DX =    0.0                 !
 ! D6    D(2,1,6,12)          -179.5962         -DE/DX =    0.0                 !
 ! D7    D(7,1,6,5)           -178.5718         -DE/DX =    0.0                 !
 ! D8    D(7,1,6,12)             1.5677         -DE/DX =    0.0                 !
 ! D9    D(2,1,7,13)           -89.4021         -DE/DX =    0.0                 !
 ! D10   D(2,1,7,14)            30.2147         -DE/DX =    0.0                 !
 ! D11   D(2,1,7,15)           150.9811         -DE/DX =    0.0                 !
 ! D12   D(6,1,7,13)            89.4021         -DE/DX =    0.0                 !
 ! D13   D(6,1,7,14)          -150.9811         -DE/DX =    0.0                 !
 ! D14   D(6,1,7,15)           -30.2147         -DE/DX =    0.0                 !
 ! D15   D(1,2,3,4)              0.0934         -DE/DX =    0.0                 !
 ! D16   D(1,2,3,9)            179.8546         -DE/DX =    0.0                 !
 ! D17   D(8,2,3,4)           -179.7668         -DE/DX =    0.0                 !
 ! D18   D(8,2,3,9)             -0.0056         -DE/DX =    0.0                 !
 ! D19   D(2,3,4,5)              0.084          -DE/DX =    0.0                 !
 ! D20   D(2,3,4,10)           179.8175         -DE/DX =    0.0                 !
 ! D21   D(9,3,4,5)           -179.6765         -DE/DX =    0.0                 !
 ! D22   D(9,3,4,10)             0.0571         -DE/DX =    0.0                 !
 ! D23   D(3,4,5,6)             -0.084          -DE/DX =    0.0                 !
 ! D24   D(3,4,5,11)           179.6765         -DE/DX =    0.0                 !
 ! D25   D(10,4,5,6)          -179.8175         -DE/DX =    0.0                 !
 ! D26   D(10,4,5,11)           -0.0571         -DE/DX =    0.0                 !
 ! D27   D(4,5,6,1)             -0.0934         -DE/DX =    0.0                 !
 ! D28   D(4,5,6,12)           179.7668         -DE/DX =    0.0                 !
 ! D29   D(11,5,6,1)          -179.8546         -DE/DX =    0.0                 !
 ! D30   D(11,5,6,12)            0.0056         -DE/DX =    0.0                 !
 --------------------------------------------------------------------------------
 GradGradGradGradGradGradGradGradGradGradGradGradGradGradGradGradGradGrad

                          Input orientation:                          
 ---------------------------------------------------------------------
 Center     Atomic      Atomic             Coordinates (Angstroms)
 Number     Number       Type             X           Y           Z
 ---------------------------------------------------------------------
      1          6           0        0.004380    0.912420   -0.000000
      2          6           0        0.007220    0.193880    1.200140
      3          6           0        0.007220   -1.199070    1.202950
      4          6           0        0.006330   -1.901680    0.000000
      5          6           0        0.007220   -1.199070   -1.202950
      6          6           0        0.007220    0.193880   -1.200140
      7          6           0       -0.027910    2.422290   -0.000000
      8          1           0        0.011760    0.731880    2.143060
      9          1           0        0.011840   -1.735540    2.145550
     10          1           0        0.009310   -2.985850    0.000000
     11          1           0        0.011840   -1.735540   -2.145550
     12          1           0        0.011760    0.731880   -2.143060
     13          1           0       -1.058780    2.793510   -0.000000
     14          1           0        0.466090    2.831860    0.884210
     15          1           0        0.466090    2.831860   -0.884210
 ---------------------------------------------------------------------
                    Distance matrix (angstroms):
                    1          2          3          4          5
     1  C    0.000000
     2  C    1.398801   0.000000
     3  C    2.430121   1.392953   0.000000
     4  C    2.814101   2.414893   1.393108   0.000000
     5  C    2.430121   2.777616   2.405900   1.393108   0.000000
     6  C    1.398801   2.400280   2.777616   2.414893   1.392953
     7  C    1.510215   2.531281   3.816094   4.324106   3.816094
     8  H    2.150664   1.085616   2.147649   3.395346   3.863207
     9  H    3.408098   2.148600   1.084581   2.151980   3.391205
    10  H    3.898273   3.398680   2.153991   1.084174   2.153991
    11  H    3.408098   3.862166   3.391205   2.151980   1.084581
    12  H    2.150664   3.386215   3.863207   3.395346   2.147649
    13  H    2.160743   3.055285   4.303968   4.814485   4.303968
    14  H    2.163158   2.696166   4.069466   4.837314   4.562367
    15  H    2.163158   3.393231   4.562367   4.837314   4.069466
                    6          7          8          9         10
     6  C    0.000000
     7  C    2.531281   0.000000
     8  H    3.386215   2.729792   0.000000
     9  H    3.862166   4.678944   2.467421   0.000000
    10  H    3.398680   5.408268   4.291180   2.483277   0.000000
    11  H    2.148600   4.678944   4.947761   4.291100   2.483277
    12  H    1.085616   2.729792   4.286120   4.947761   4.291180
    13  H    3.055285   1.095672   3.160551   5.124637   5.877229
    14  H    3.393231   1.092525   2.490188   4.760091   5.902222
    15  H    2.696166   1.092525   3.712236   5.499721   5.902222
                   11         12         13         14         15
    11  H    0.000000
    12  H    2.467421   0.000000
    13  H    5.124637   3.160551   0.000000
    14  H    5.499721   3.712236   1.763101   0.000000
    15  H    4.760091   2.490188   1.763101   1.768420   0.000000
 Stoichiometry    C7H8
 Framework group  CS[SG(C3H2),X(C4H6)]
 Deg. of freedom    22
 Full point group                 CS      NOp   2
 Largest Abelian subgroup         CS      NOp   2
 Largest concise Abelian subgroup CS      NOp   2
                         Standard orientation:                         
 ---------------------------------------------------------------------
 Center     Atomic      Atomic             Coordinates (Angstroms)
 Number     Number       Type             X           Y           Z
 ---------------------------------------------------------------------
      1          6           0        0.004380    0.912421    0.000000
      2          6           0        0.007220    0.193881    1.200140
      3          6           0        0.007220   -1.199069    1.202950
      4          6           0        0.006330   -1.901679   -0.000000
      5          6           0        0.007220   -1.199069   -1.202950
      6          6           0        0.007220    0.193881   -1.200140
      7          6           0       -0.027910    2.422291    0.000000
      8          1           0        0.011760    0.731881    2.143060
      9          1           0        0.011840   -1.735539    2.145550
     10          1           0        0.009310   -2.985849   -0.000000
     11          1           0        0.011840   -1.735539   -2.145550
     12          1           0        0.011760    0.731881   -2.143060
     13          1           0       -1.058780    2.793511    0.000000
     14          1           0        0.466090    2.831861    0.884210
     15          1           0        0.466090    2.831861   -0.884210
 ---------------------------------------------------------------------
 Rotational constants (GHZ):           5.5548152           2.5165402           1.7507580
 1\1\GINC-NID00118\FOpt\RB3LYP\6-311G(2d,d,p)\C7H8\LAITCL\23-Feb-2017\0
 \\# cbs-qb3\\Toluene Energy\\0,1\C,0.00438,0.91242,0.\C,0.00722,0.1938
 8,1.20014\C,0.00722,-1.19907,1.20295\C,0.00633,-1.90168,0.\C,0.00722,-
 1.19907,-1.20295\C,0.00722,0.19388,-1.20014\C,-0.02791,2.42229,0.\H,0.
 01176,0.73188,2.14306\H,0.01184,-1.73554,2.14555\H,0.00931,-2.98585,0.
 \H,0.01184,-1.73554,-2.14555\H,0.01176,0.73188,-2.14306\H,-1.05878,2.7
 9351,0.\H,0.46609,2.83186,0.88421\H,0.46609,2.83186,-0.88421\\Version=
 ES64L-G16RevA.03\State=1-A'\HF=-271.6360424\RMSD=3.558e-09\RMSF=6.984e
 -06\Dipole=-0.0150256,0.1375352,0.\Quadrupole=-3.6633377,1.9707602,1.6
 925774,-0.0745804,0.,0.\PG=CS [SG(C3H2),X(C4H6)]\\@


 Just remember, when you're over the hill, you begin to pick up speed.
 -- Charles Schulz
 Job cpu time:       0 days  0 hours  1 minutes 18.7 seconds.
 Elapsed time:       0 days  0 hours  0 minutes 10.0 seconds.
 File lengths (MBytes):  RWF=     21 Int=      0 D2E=      0 Chk=      3 Scr=      1
 Normal termination of Gaussian 16 at Thu Feb 23 14:01:33 2017.
 Link1:  Proceeding to internal job step number  2.
 ---------------------------------------------------------
 #N Geom=AllCheck Guess=TCheck SCRF=Check B3LYP/CBSB7 Freq
 ---------------------------------------------------------
 1/10=4,29=7,30=1,38=1,40=1/1,3;
 2/12=2,40=1/2;
 3/5=4,6=6,7=700,11=2,14=-4,25=1,30=1,70=2,71=2,74=-5,116=-2,140=1/1,2,3;
 4/5=101/1;
 5/5=2,38=6,98=1/2;
 8/6=4,10=90,11=11/1;
 11/6=1,8=1,9=11,15=111,16=1/1,2,10;
 10/6=1/2;
 6/7=2,8=2,9=2,10=2,28=1/1;
 7/8=1,10=1,25=1/1,2,3,16;
 1/10=4,30=1/3;
 99//99;
 Structure from the checkpoint file:  "TolueneEnergy.chk"
 --------------
 Toluene Energy
 --------------
 Charge =  0 Multiplicity = 1
 Redundant internal coordinates found in file.  (old form).
 C,0,0.00438,0.91242,0.
 C,0,0.00722,0.19388,1.20014
 C,0,0.00722,-1.19907,1.20295
 C,0,0.00633,-1.90168,0.
 C,0,0.00722,-1.19907,-1.20295
 C,0,0.00722,0.19388,-1.20014
 C,0,-0.02791,2.42229,0.
 H,0,0.01176,0.73188,2.14306
 H,0,0.01184,-1.73554,2.14555
 H,0,0.00931,-2.98585,0.
 H,0,0.01184,-1.73554,-2.14555
 H,0,0.01176,0.73188,-2.14306
 H,0,-1.05878,2.79351,0.
 H,0,0.46609,2.83186,0.88421
 H,0,0.46609,2.83186,-0.88421
 Recover connectivity data from disk.

 GradGradGradGradGradGradGradGradGradGradGradGradGradGradGradGradGradGrad
 Berny optimization.
 Initialization pass.
                           ----------------------------
                           !    Initial Parameters    !
                           ! (Angstroms and Degrees)  !
 --------------------------                            --------------------------
 ! Name  Definition              Value          Derivative Info.                !
 --------------------------------------------------------------------------------
 ! R1    R(1,2)                  1.3988         calculate D2E/DX2 analytically  !
 ! R2    R(1,6)                  1.3988         calculate D2E/DX2 analytically  !
 ! R3    R(1,7)                  1.5102         calculate D2E/DX2 analytically  !
 ! R4    R(2,3)                  1.393          calculate D2E/DX2 analytically  !
 ! R5    R(2,8)                  1.0856         calculate D2E/DX2 analytically  !
 ! R6    R(3,4)                  1.3931         calculate D2E/DX2 analytically  !
 ! R7    R(3,9)                  1.0846         calculate D2E/DX2 analytically  !
 ! R8    R(4,5)                  1.3931         calculate D2E/DX2 analytically  !
 ! R9    R(4,10)                 1.0842         calculate D2E/DX2 analytically  !
 ! R10   R(5,6)                  1.393          calculate D2E/DX2 analytically  !
 ! R11   R(5,11)                 1.0846         calculate D2E/DX2 analytically  !
 ! R12   R(6,12)                 1.0856         calculate D2E/DX2 analytically  !
 ! R13   R(7,13)                 1.0957         calculate D2E/DX2 analytically  !
 ! R14   R(7,14)                 1.0925         calculate D2E/DX2 analytically  !
 ! R15   R(7,15)                 1.0925         calculate D2E/DX2 analytically  !
 ! A1    A(2,1,6)              118.1806         calculate D2E/DX2 analytically  !
 ! A2    A(2,1,7)              120.9045         calculate D2E/DX2 analytically  !
 ! A3    A(6,1,7)              120.9045         calculate D2E/DX2 analytically  !
 ! A4    A(1,2,3)              121.025          calculate D2E/DX2 analytically  !
 ! A5    A(1,2,8)              119.383          calculate D2E/DX2 analytically  !
 ! A6    A(3,2,8)              119.5918         calculate D2E/DX2 analytically  !
 ! A7    A(2,3,4)              120.1724         calculate D2E/DX2 analytically  !
 ! A8    A(2,3,9)              119.7612         calculate D2E/DX2 analytically  !
 ! A9    A(4,3,9)              120.066          calculate D2E/DX2 analytically  !
 ! A10   A(3,4,5)              119.4239         calculate D2E/DX2 analytically  !
 ! A11   A(3,4,10)             120.2878         calculate D2E/DX2 analytically  !
 ! A12   A(5,4,10)             120.2878         calculate D2E/DX2 analytically  !
 ! A13   A(4,5,6)              120.1724         calculate D2E/DX2 analytically  !
 ! A14   A(4,5,11)             120.066          calculate D2E/DX2 analytically  !
 ! A15   A(6,5,11)             119.7612         calculate D2E/DX2 analytically  !
 ! A16   A(1,6,5)              121.025          calculate D2E/DX2 analytically  !
 ! A17   A(1,6,12)             119.383          calculate D2E/DX2 analytically  !
 ! A18   A(5,6,12)             119.5918         calculate D2E/DX2 analytically  !
 ! A19   A(1,7,13)             111.0293         calculate D2E/DX2 analytically  !
 ! A20   A(1,7,14)             111.4156         calculate D2E/DX2 analytically  !
 ! A21   A(1,7,15)             111.4156         calculate D2E/DX2 analytically  !
 ! A22   A(13,7,14)            107.362          calculate D2E/DX2 analytically  !
 ! A23   A(13,7,15)            107.362          calculate D2E/DX2 analytically  !
 ! A24   A(14,7,15)            108.0605         calculate D2E/DX2 analytically  !
 ! D1    D(6,1,2,3)             -0.2643         calculate D2E/DX2 analytically  !
 ! D2    D(6,1,2,8)            179.5962         calculate D2E/DX2 analytically  !
 ! D3    D(7,1,2,3)            178.5718         calculate D2E/DX2 analytically  !
 ! D4    D(7,1,2,8)             -1.5677         calculate D2E/DX2 analytically  !
 ! D5    D(2,1,6,5)              0.2643         calculate D2E/DX2 analytically  !
 ! D6    D(2,1,6,12)          -179.5962         calculate D2E/DX2 analytically  !
 ! D7    D(7,1,6,5)           -178.5718         calculate D2E/DX2 analytically  !
 ! D8    D(7,1,6,12)             1.5677         calculate D2E/DX2 analytically  !
 ! D9    D(2,1,7,13)           -89.4021         calculate D2E/DX2 analytically  !
 ! D10   D(2,1,7,14)            30.2147         calculate D2E/DX2 analytically  !
 ! D11   D(2,1,7,15)           150.9811         calculate D2E/DX2 analytically  !
 ! D12   D(6,1,7,13)            89.4021         calculate D2E/DX2 analytically  !
 ! D13   D(6,1,7,14)          -150.9811         calculate D2E/DX2 analytically  !
 ! D14   D(6,1,7,15)           -30.2147         calculate D2E/DX2 analytically  !
 ! D15   D(1,2,3,4)              0.0934         calculate D2E/DX2 analytically  !
 ! D16   D(1,2,3,9)            179.8546         calculate D2E/DX2 analytically  !
 ! D17   D(8,2,3,4)           -179.7668         calculate D2E/DX2 analytically  !
 ! D18   D(8,2,3,9)             -0.0056         calculate D2E/DX2 analytically  !
 ! D19   D(2,3,4,5)              0.084          calculate D2E/DX2 analytically  !
 ! D20   D(2,3,4,10)           179.8175         calculate D2E/DX2 analytically  !
 ! D21   D(9,3,4,5)           -179.6765         calculate D2E/DX2 analytically  !
 ! D22   D(9,3,4,10)             0.0571         calculate D2E/DX2 analytically  !
 ! D23   D(3,4,5,6)             -0.084          calculate D2E/DX2 analytically  !
 ! D24   D(3,4,5,11)           179.6765         calculate D2E/DX2 analytically  !
 ! D25   D(10,4,5,6)          -179.8175         calculate D2E/DX2 analytically  !
 ! D26   D(10,4,5,11)           -0.0571         calculate D2E/DX2 analytically  !
 ! D27   D(4,5,6,1)             -0.0934         calculate D2E/DX2 analytically  !
 ! D28   D(4,5,6,12)           179.7668         calculate D2E/DX2 analytically  !
 ! D29   D(11,5,6,1)          -179.8546         calculate D2E/DX2 analytically  !
 ! D30   D(11,5,6,12)            0.0056         calculate D2E/DX2 analytically  !
 --------------------------------------------------------------------------------
 Trust Radius=3.00D-01 FncErr=1.00D-07 GrdErr=1.00D-07 EigMax=2.50D+02 EigMin=1.00D-04
 Number of steps in this run=      2 maximum allowed number of steps=      2.
 GradGradGradGradGradGradGradGradGradGradGradGradGradGradGradGradGradGrad

                          Input orientation:                          
 ---------------------------------------------------------------------
 Center     Atomic      Atomic             Coordinates (Angstroms)
 Number     Number       Type             X           Y           Z
 ---------------------------------------------------------------------
      1          6           0        0.004380    0.912420   -0.000000
      2          6           0        0.007220    0.193880    1.200140
      3          6           0        0.007220   -1.199070    1.202950
      4          6           0        0.006330   -1.901680   -0.000000
      5          6           0        0.007220   -1.199070   -1.202950
      6          6           0        0.007220    0.193880   -1.200140
      7          6           0       -0.027910    2.422290    0.000000
      8          1           0        0.011760    0.731880    2.143060
      9          1           0        0.011840   -1.735540    2.145550
     10          1           0        0.009310   -2.985850   -0.000000
     11          1           0        0.011840   -1.735540   -2.145550
     12          1           0        0.011760    0.731880   -2.143060
     13          1           0       -1.058780    2.793510    0.000000
     14          1           0        0.466090    2.831860    0.884210
     15          1           0        0.466090    2.831860   -0.884210
 ---------------------------------------------------------------------
                    Distance matrix (angstroms):
                    1          2          3          4          5
     1  C    0.000000
     2  C    1.398801   0.000000
     3  C    2.430121   1.392953   0.000000
     4  C    2.814101   2.414893   1.393108   0.000000
     5  C    2.430121   2.777616   2.405900   1.393108   0.000000
     6  C    1.398801   2.400280   2.777616   2.414893   1.392953
     7  C    1.510215   2.531281   3.816094   4.324106   3.816094
     8  H    2.150664   1.085616   2.147649   3.395346   3.863207
     9  H    3.408098   2.148600   1.084581   2.151980   3.391205
    10  H    3.898273   3.398680   2.153991   1.084174   2.153991
    11  H    3.408098   3.862166   3.391205   2.151980   1.084581
    12  H    2.150664   3.386215   3.863207   3.395346   2.147649
    13  H    2.160743   3.055285   4.303968   4.814485   4.303968
    14  H    2.163158   2.696166   4.069466   4.837314   4.562367
    15  H    2.163158   3.393231   4.562367   4.837314   4.069466
                    6          7          8          9         10
     6  C    0.000000
     7  C    2.531281   0.000000
     8  H    3.386215   2.729792   0.000000
     9  H    3.862166   4.678944   2.467421   0.000000
    10  H    3.398680   5.408268   4.291180   2.483277   0.000000
    11  H    2.148600   4.678944   4.947761   4.291100   2.483277
    12  H    1.085616   2.729792   4.286120   4.947761   4.291180
    13  H    3.055285   1.095672   3.160551   5.124637   5.877229
    14  H    3.393231   1.092525   2.490188   4.760091   5.902222
    15  H    2.696166   1.092525   3.712236   5.499721   5.902222
                   11         12         13         14         15
    11  H    0.000000
    12  H    2.467421   0.000000
    13  H    5.124637   3.160551   0.000000
    14  H    5.499721   3.712236   1.763101   0.000000
    15  H    4.760091   2.490188   1.763101   1.768420   0.000000
 Stoichiometry    C7H8
 Framework group  CS[SG(C3H2),X(C4H6)]
 Deg. of freedom    22
 Full point group                 CS      NOp   2
 Largest Abelian subgroup         CS      NOp   2
 Largest concise Abelian subgroup CS      NOp   2
                         Standard orientation:                         
 ---------------------------------------------------------------------
 Center     Atomic      Atomic             Coordinates (Angstroms)
 Number     Number       Type             X           Y           Z
 ---------------------------------------------------------------------
      1          6           0        0.004380    0.912421    0.000000
      2          6           0        0.007220    0.193881    1.200140
      3          6           0        0.007220   -1.199069    1.202950
      4          6           0        0.006330   -1.901679   -0.000000
      5          6           0        0.007220   -1.199069   -1.202950
      6          6           0        0.007220    0.193881   -1.200140
      7          6           0       -0.027910    2.422291    0.000000
      8          1           0        0.011760    0.731881    2.143060
      9          1           0        0.011840   -1.735539    2.145550
     10          1           0        0.009310   -2.985849   -0.000000
     11          1           0        0.011840   -1.735539   -2.145550
     12          1           0        0.011760    0.731881   -2.143060
     13          1           0       -1.058780    2.793511    0.000000
     14          1           0        0.466090    2.831861    0.884210
     15          1           0        0.466090    2.831861   -0.884210
 ---------------------------------------------------------------------
 Rotational constants (GHZ):           5.5548152           2.5165402           1.7507580
 Standard basis: 6-311G(2d,d,p) (5D, 7F)
 There are   108 symmetry adapted cartesian basis functions of A'  symmetry.
 There are    73 symmetry adapted cartesian basis functions of A"  symmetry.
 There are   103 symmetry adapted basis functions of A'  symmetry.
 There are    71 symmetry adapted basis functions of A"  symmetry.
   174 basis functions,   288 primitive gaussians,   181 cartesian basis functions
    25 alpha electrons       25 beta electrons
       nuclear repulsion energy       269.1308041674 Hartrees.
 NAtoms=   15 NActive=   15 NUniq=   10 SFac= 2.25D+00 NAtFMM=   60 NAOKFM=F Big=F
 Integral buffers will be    131072 words long.
 Raffenetti 2 integral format.
 Two-electron integral symmetry is turned on.
 One-electron integrals computed using PRISM.
 NBasis=   174 RedAO= T EigKep=  1.85D-04  NBF=   103    71
 NBsUse=   174 1.00D-06 EigRej= -1.00D+00 NBFU=   103    71
 Initial guess from the checkpoint file:  "TolueneEnergy.chk"
 B after Tr=    -0.000000    0.000000   -0.000000
         Rot=    1.000000    0.000000    0.000000    0.000000 Ang=   0.00 deg.
 Initial guess orbital symmetries:
       Occupied  (A') (A') (A") (A') (A") (A') (A') (A') (A') (A")
                 (A') (A") (A') (A') (A") (A') (A') (A") (A') (A")
                 (A') (A') (A") (A") (A')
       Virtual   (A") (A') (A') (A') (A") (A') (A") (A') (A') (A")
                 (A') (A') (A') (A") (A') (A") (A") (A') (A') (A')
                 (A") (A") (A') (A') (A') (A") (A') (A") (A') (A")
                 (A') (A") (A') (A') (A') (A") (A") (A') (A") (A')
                 (A') (A') (A") (A') (A') (A") (A') (A') (A") (A")
                 (A') (A') (A") (A") (A') (A') (A") (A') (A") (A')
                 (A") (A') (A') (A") (A") (A') (A") (A') (A') (A")
                 (A') (A") (A") (A') (A') (A') (A") (A') (A') (A")
                 (A") (A") (A') (A') (A') (A") (A") (A") (A') (A')
                 (A') (A") (A') (A") (A') (A") (A') (A') (A") (A")
                 (A') (A') (A") (A') (A") (A') (A') (A") (A') (A')
                 (A') (A") (A') (A") (A') (A') (A") (A") (A') (A')
                 (A') (A") (A') (A") (A") (A') (A") (A') (A") (A')
                 (A') (A") (A') (A') (A') (A") (A") (A') (A") (A')
                 (A') (A") (A') (A') (A") (A') (A') (A") (A')
 Requested convergence on RMS density matrix=1.00D-08 within 128 cycles.
 Requested convergence on MAX density matrix=1.00D-06.
 Requested convergence on             energy=1.00D-06.
 No special actions if energy rises.
 SCF Done:  E(RB3LYP) =  -271.636042406     A.U. after    1 cycles
            NFock=  1  Conv=0.64D-09     -V/T= 2.0046
 DoSCS=F DFT=T ScalE2(SS,OS)=  1.000000  1.000000
 Range of M.O.s used for correlation:     1   174
 NBasis=   174 NAE=    25 NBE=    25 NFC=     0 NFV=     0
 NROrb=    174 NOA=    25 NOB=    25 NVA=   149 NVB=   149

 **** Warning!!: The largest alpha MO coefficient is  0.18959599D+02

 Symmetrizing basis deriv contribution to polar:
 IMax=3 JMax=2 DiffMx= 0.00D+00
 G2DrvN: will do    16 centers at a time, making    1 passes.
 Calling FoFCou, ICntrl=  3107 FMM=F I1Cent=   0 AccDes= 0.00D+00.
 End of G2Drv F.D. properties file   721 does not exist.
 End of G2Drv F.D. properties file   722 does not exist.
 End of G2Drv F.D. properties file   788 does not exist.
          IDoAtm=111111111111111
          Differentiating once with respect to electric field.
                with respect to dipole field.
          Differentiating once with respect to nuclear coordinates.
 CalDSu exits because no D1Ps are significant.
          There are    33 degrees of freedom in the 1st order CPHF.  IDoFFX=4 NUNeed=    33.
     33 vectors produced by pass  0 Test12= 1.13D-14 3.03D-09 XBig12= 1.07D+02 6.63D+00.
 AX will form    33 AO Fock derivatives at one time.
     33 vectors produced by pass  1 Test12= 1.13D-14 3.03D-09 XBig12= 2.56D+01 1.19D+00.
     33 vectors produced by pass  2 Test12= 1.13D-14 3.03D-09 XBig12= 5.25D-01 1.34D-01.
     33 vectors produced by pass  3 Test12= 1.13D-14 3.03D-09 XBig12= 2.56D-03 7.83D-03.
     33 vectors produced by pass  4 Test12= 1.13D-14 3.03D-09 XBig12= 9.35D-06 4.45D-04.
     30 vectors produced by pass  5 Test12= 1.13D-14 3.03D-09 XBig12= 1.28D-08 1.17D-05.
     10 vectors produced by pass  6 Test12= 1.13D-14 3.03D-09 XBig12= 1.42D-11 5.06D-07.
      2 vectors produced by pass  7 Test12= 1.13D-14 3.03D-09 XBig12= 1.08D-14 1.46D-08.
 InvSVY:  IOpt=1 It=  1 EMax= 1.07D-14
 Solved reduced A of dimension   207 with    33 vectors.
 Isotropic polarizability for W=    0.000000       72.38 Bohr**3.
 End of Minotr F.D. properties file   721 does not exist.
 End of Minotr F.D. properties file   722 does not exist.
 End of Minotr F.D. properties file   788 does not exist.

 **********************************************************************

            Population analysis using the SCF density.

 **********************************************************************

 Orbital symmetries:
       Occupied  (A') (A') (A") (A') (A") (A') (A') (A') (A') (A")
                 (A') (A") (A') (A') (A") (A') (A') (A") (A') (A")
                 (A') (A') (A") (A") (A')
       Virtual   (A") (A') (A') (A') (A") (A') (A") (A') (A') (A")
                 (A') (A') (A') (A") (A') (A") (A") (A') (A') (A')
                 (A") (A") (A') (A') (A') (A") (A') (A") (A') (A")
                 (A') (A") (A') (A') (A') (A") (A") (A') (A") (A')
                 (A') (A') (A") (A') (A') (A") (A') (A') (A") (A")
                 (A') (A') (A") (A") (A') (A') (A") (A') (A") (A')
                 (A") (A') (A') (A") (A") (A') (A") (A') (A') (A")
                 (A') (A") (A") (A') (A') (A') (A") (A') (A') (A")
                 (A") (A") (A') (A') (A') (A") (A") (A") (A') (A')
                 (A') (A") (A') (A") (A') (A") (A') (A') (A") (A")
                 (A') (A') (A") (A') (A") (A') (A') (A") (A') (A')
                 (A') (A") (A') (A") (A') (A') (A") (A") (A') (A')
                 (A') (A") (A') (A") (A") (A') (A") (A') (A") (A')
                 (A') (A") (A') (A') (A') (A") (A") (A') (A") (A')
                 (A') (A") (A') (A') (A") (A') (A') (A") (A')
 The electronic state is 1-A'.
 Alpha  occ. eigenvalues --  -10.18118 -10.17130 -10.17124 -10.16919 -10.16880
 Alpha  occ. eigenvalues --  -10.16877 -10.16776  -0.85703  -0.77241  -0.74475
 Alpha  occ. eigenvalues --   -0.68652  -0.60548  -0.58481  -0.51253  -0.46159
 Alpha  occ. eigenvalues --   -0.45491  -0.42227  -0.42063  -0.40982  -0.38747
 Alpha  occ. eigenvalues --   -0.35673  -0.34366  -0.34055  -0.25337  -0.24458
 Alpha virt. eigenvalues --   -0.00774  -0.00571   0.04543   0.06214   0.07503
 Alpha virt. eigenvalues --    0.09869   0.10865   0.11029   0.13654   0.13858
 Alpha virt. eigenvalues --    0.16612   0.20541   0.27002   0.27489   0.28470
 Alpha virt. eigenvalues --    0.29468   0.30842   0.31781   0.33719   0.39980
 Alpha virt. eigenvalues --    0.40611   0.40840   0.41227   0.43265   0.44421
 Alpha virt. eigenvalues --    0.44992   0.46872   0.47091   0.48221   0.50212
 Alpha virt. eigenvalues --    0.54459   0.54619   0.55486   0.58592   0.60411
 Alpha virt. eigenvalues --    0.60508   0.61175   0.62477   0.62588   0.62850
 Alpha virt. eigenvalues --    0.65561   0.68824   0.73639   0.73792   0.76334
 Alpha virt. eigenvalues --    0.79052   0.81419   0.85302   0.85338   0.89737
 Alpha virt. eigenvalues --    0.93899   0.95521   1.00875   1.01792   1.03211
 Alpha virt. eigenvalues --    1.05267   1.08562   1.13136   1.14345   1.24584
 Alpha virt. eigenvalues --    1.32216   1.33104   1.34797   1.41336   1.45155
 Alpha virt. eigenvalues --    1.46713   1.46735   1.48402   1.51363   1.54024
 Alpha virt. eigenvalues --    1.55564   1.57181   1.57825   1.58355   1.59075
 Alpha virt. eigenvalues --    1.63952   1.67436   1.68562   1.73197   1.74440
 Alpha virt. eigenvalues --    1.77844   1.80186   1.80621   1.83266   1.89720
 Alpha virt. eigenvalues --    1.90667   1.91295   1.91840   1.92901   1.95726
 Alpha virt. eigenvalues --    1.98295   2.02163   2.02179   2.08080   2.10841
 Alpha virt. eigenvalues --    2.20527   2.22336   2.23974   2.30078   2.31939
 Alpha virt. eigenvalues --    2.34688   2.35276   2.38258   2.40613   2.47678
 Alpha virt. eigenvalues --    2.50613   2.52781   2.53330   2.57563   2.60110
 Alpha virt. eigenvalues --    2.61273   2.62178   2.64288   2.65604   2.67827
 Alpha virt. eigenvalues --    2.68159   2.69270   2.72883   2.76073   2.81546
 Alpha virt. eigenvalues --    2.85681   2.85723   2.88423   2.91931   2.93696
 Alpha virt. eigenvalues --    3.06215   3.11798   3.18707   3.32912   3.34661
 Alpha virt. eigenvalues --    3.47091   3.47581   3.59187   3.64475   3.78989
 Alpha virt. eigenvalues --    3.81090   3.96737   4.02796   4.11702   4.12087
 Alpha virt. eigenvalues --    4.32426   4.83940  23.52127  23.89773  23.94491
 Alpha virt. eigenvalues --   23.94746  24.08234  24.10266  24.19702
          Condensed to atoms (all electrons):
               1          2          3          4          5          6
     1  C    5.025940   0.525465  -0.051275  -0.040838  -0.051275   0.525465
     2  C    0.525465   4.841385   0.532606  -0.060204  -0.037853  -0.054327
     3  C   -0.051275   0.532606   4.840767   0.521296  -0.057496  -0.037853
     4  C   -0.040838  -0.060204   0.521296   4.867271   0.521296  -0.060204
     5  C   -0.051275  -0.037853  -0.057496   0.521296   4.840767   0.532606
     6  C    0.525465  -0.054327  -0.037853  -0.060204   0.532606   4.841385
     7  C    0.359756  -0.057183   0.005608   0.000141   0.005608  -0.057183
     8  H   -0.049334   0.417271  -0.039392   0.008003  -0.000587   0.007685
     9  H    0.008281  -0.042059   0.414266  -0.043483   0.007588  -0.000405
    10  H   -0.000425   0.007659  -0.042501   0.415720  -0.042501   0.007659
    11  H    0.008281  -0.000405   0.007588  -0.043483   0.414266  -0.042059
    12  H   -0.049334   0.007685  -0.000587   0.008003  -0.039392   0.417271
    13  H   -0.034997  -0.002972  -0.000212   0.000103  -0.000212  -0.002972
    14  H   -0.036633  -0.006852   0.000506   0.000012  -0.000342   0.005392
    15  H   -0.036633   0.005392  -0.000342   0.000012   0.000506  -0.006852
               7          8          9         10         11         12
     1  C    0.359756  -0.049334   0.008281  -0.000425   0.008281  -0.049334
     2  C   -0.057183   0.417271  -0.042059   0.007659  -0.000405   0.007685
     3  C    0.005608  -0.039392   0.414266  -0.042501   0.007588  -0.000587
     4  C    0.000141   0.008003  -0.043483   0.415720  -0.043483   0.008003
     5  C    0.005608  -0.000587   0.007588  -0.042501   0.414266  -0.039392
     6  C   -0.057183   0.007685  -0.000405   0.007659  -0.042059   0.417271
     7  C    4.806296  -0.007514  -0.000345   0.000044  -0.000345  -0.007514
     8  H   -0.007514   0.586747  -0.008746  -0.000364   0.000082  -0.000390
     9  H   -0.000345  -0.008746   0.581522  -0.008072  -0.000395   0.000082
    10  H    0.000044  -0.000364  -0.008072   0.579510  -0.008072  -0.000364
    11  H   -0.000345   0.000082  -0.000395  -0.008072   0.581522  -0.008746
    12  H   -0.007514  -0.000390   0.000082  -0.000364  -0.008746   0.586747
    13  H    0.397705   0.000450   0.000014  -0.000002   0.000014   0.000450
    14  H    0.406918   0.002892  -0.000026  -0.000003   0.000023  -0.000005
    15  H    0.406918  -0.000005   0.000023  -0.000003  -0.000026   0.002892
              13         14         15
     1  C   -0.034997  -0.036633  -0.036633
     2  C   -0.002972  -0.006852   0.005392
     3  C   -0.000212   0.000506  -0.000342
     4  C    0.000103   0.000012   0.000012
     5  C   -0.000212  -0.000342   0.000506
     6  C   -0.002972   0.005392  -0.006852
     7  C    0.397705   0.406918   0.406918
     8  H    0.000450   0.002892  -0.000005
     9  H    0.000014  -0.000026   0.000023
    10  H   -0.000002  -0.000003  -0.000003
    11  H    0.000014   0.000023  -0.000026
    12  H    0.000450  -0.000005   0.002892
    13  H    0.574015  -0.028900  -0.028900
    14  H   -0.028900   0.572774  -0.027826
    15  H   -0.028900  -0.027826   0.572774
 Mulliken charges:
               1
     1  C   -0.102442
     2  C   -0.075610
     3  C   -0.092981
     4  C   -0.093646
     5  C   -0.092981
     6  C   -0.075610
     7  C   -0.258907
     8  H    0.083200
     9  H    0.091755
    10  H    0.091714
    11  H    0.091755
    12  H    0.083200
    13  H    0.126414
    14  H    0.112069
    15  H    0.112069
 Sum of Mulliken charges =  -0.00000
 Mulliken charges with hydrogens summed into heavy atoms:
               1
     1  C   -0.102442
     2  C    0.007590
     3  C   -0.001226
     4  C   -0.001932
     5  C   -0.001226
     6  C    0.007590
     7  C    0.091645
 APT charges:
               1
     1  C    0.073037
     2  C   -0.068085
     3  C   -0.006356
     4  C   -0.059787
     5  C   -0.006356
     6  C   -0.068085
     7  C    0.080172
     8  H    0.022036
     9  H    0.022496
    10  H    0.026525
    11  H    0.022496
    12  H    0.022036
    13  H   -0.030022
    14  H   -0.015053
    15  H   -0.015053
 Sum of APT charges =  -0.00000
 APT charges with hydrogens summed into heavy atoms:
               1
     1  C    0.073037
     2  C   -0.046049
     3  C    0.016139
     4  C   -0.033262
     5  C    0.016139
     6  C   -0.046049
     7  C    0.020043
 Electronic spatial extent (au):  <R**2>=            718.6796
 Charge=             -0.0000 electrons
 Dipole moment (field-independent basis, Debye):
    X=             -0.0382    Y=              0.3496    Z=             -0.0000  Tot=              0.3517
 Quadrupole moment (field-independent basis, Debye-Ang):
   XX=            -45.9586   YY=            -38.3806   ZZ=            -38.7547
   XY=             -0.1003   XZ=             -0.0000   YZ=              0.0000
 Traceless Quadrupole moment (field-independent basis, Debye-Ang):
   XX=             -4.9273   YY=              2.6507   ZZ=              2.2766
   XY=             -0.1003   XZ=             -0.0000   YZ=              0.0000
 Octapole moment (field-independent basis, Debye-Ang**2):
  XXX=             -0.7775  YYY=             -4.4570  ZZZ=             -0.0000  XYY=             -0.0626
  XXY=              3.4505  XXZ=              0.0000  XZZ=              0.6266  YZZ=             -1.0971
  YYZ=             -0.0000  XYZ=             -0.0000
 Hexadecapole moment (field-independent basis, Debye-Ang**3):
 XXXX=            -58.5344 YYYY=           -612.8883 ZZZZ=           -288.0351 XXXY=              0.3789
 XXXZ=              0.0000 YYYX=              2.0980 YYYZ=             -0.0000 ZZZX=             -0.0000
 ZZZY=             -0.0000 XXYY=           -120.1587 XXZZ=            -67.5366 YYZZ=           -147.2907
 XXYZ=             -0.0000 YYXZ=             -0.0000 ZZXY=              2.3529
 N-N= 2.691308041674D+02 E-N=-1.167923146826D+03  KE= 2.703859772574D+02
 Symmetry A'   KE= 1.878583713742D+02
 Symmetry A"   KE= 8.252760588322D+01
  Exact polarizability:  38.240  -0.615  95.971  -0.000   0.000  82.939
[...]
     5  C   -0.016657  -0.017694   0.025396  -0.035477   0.390762  -0.011031
     6  C   -0.134851   0.033207  -0.022608   0.007907  -0.019439   0.358511
     7  C    5.768920  -0.002262   0.011559  -0.002875   0.011559  -0.002262
     8  H   -0.002262   0.493901  -0.008700   0.001857  -0.001130   0.001189
     9  H    0.011559  -0.008700   0.481587  -0.009354   0.002396  -0.001130
    10  H   -0.002875   0.001857  -0.009354   0.486338  -0.009354   0.001857
    11  H    0.011559  -0.001130   0.002396  -0.009354   0.481587  -0.008700
    12  H   -0.002262   0.001189  -0.001130   0.001857  -0.008700   0.493901
    13  H    0.418509   0.000177  -0.000141   0.000083  -0.000141   0.000177
    14  H    0.431999   0.000434  -0.000143  -0.000023   0.000025  -0.000059
    15  H    0.431999  -0.000059   0.000025  -0.000023  -0.000143   0.000434
              13         14         15
     1  C   -0.050127  -0.063277  -0.063277
     2  C    0.001541   0.067670  -0.057361
     3  C    0.004061   0.010066  -0.010664
     4  C    0.005216   0.001801   0.001801
     5  C    0.004061  -0.010664   0.010066
     6  C    0.001541  -0.057361   0.067670
     7  C    0.418509   0.431999   0.431999
     8  H    0.000177   0.000434  -0.000059
     9  H   -0.000141  -0.000143   0.000025
    10  H    0.000083  -0.000023  -0.000023
    11  H   -0.000141   0.000025  -0.000143
    12  H    0.000177  -0.000059   0.000434
    13  H    0.653460  -0.046245  -0.046245
    14  H   -0.046245   0.614937  -0.020332
    15  H   -0.046245  -0.020332   0.614937
 Mulliken charges:
               1
     1  C    0.743453
     2  C   -0.365815
     3  C   -0.301732
     4  C   -0.129057
     5  C   -0.301732
     6  C   -0.365815
     7  C   -0.223242
     8  H    0.137367
     9  H    0.157217
    10  H    0.158350
    11  H    0.157217
    12  H    0.137367
    13  H    0.054074
    14  H    0.071173
    15  H    0.071173
 Sum of Mulliken charges =  -0.00000
 Mulliken charges with hydrogens summed into heavy atoms:
               1
     1  C    0.743453
     2  C   -0.228448
     3  C   -0.144514
     4  C    0.029293
     5  C   -0.144514
     6  C   -0.228448
     7  C   -0.026821
 Electronic spatial extent (au):  <R**2>=            719.9084
 Charge=             -0.0000 electrons
 Dipole moment (field-independent basis, Debye):
    X=             -0.0331    Y=              0.4032    Z=             -0.0000  Tot=              0.4045
 Quadrupole moment (field-independent basis, Debye-Ang):
   XX=            -47.2862   YY=            -38.5733   ZZ=            -38.8871
   XY=             -0.0667   XZ=             -0.0000   YZ=              0.0000
 Traceless Quadrupole moment (field-independent basis, Debye-Ang):
   XX=             -5.7040   YY=              3.0089   ZZ=              2.6951
   XY=             -0.0667   XZ=             -0.0000   YZ=              0.0000
 Octapole moment (field-independent basis, Debye-Ang**2):
  XXX=             -0.8381  YYY=             -4.0299  ZZZ=             -0.0000  XYY=              0.0905
  XXY=              4.6115  XXZ=              0.0000  XZZ=              0.6571  YZZ=             -0.9608
  YYZ=             -0.0000  XYZ=             -0.0000
 Hexadecapole moment (field-independent basis, Debye-Ang**3):
 XXXX=            -64.5907 YYYY=           -613.0514 ZZZZ=           -287.0534 XXXY=              0.3681
 XXXZ=              0.0000 YYYX=              2.5748 YYYZ=             -0.0000 ZZZX=              0.0000
 ZZZY=             -0.0000 XXYY=           -122.9434 XXZZ=            -70.3821 YYZZ=           -146.4507
 XXYZ=             -0.0000 YYXZ=             -0.0000 ZZXY=              2.4525
 N-N= 2.691308041674D+02 E-N=-1.165994961293D+03  KE= 2.695068882871D+02
 Symmetry A'   KE= 1.873768108904D+02
 Symmetry A"   KE= 8.213007739675D+01
 1\1\GINC-NID00118\SP\RMP2-FC\CBSB3\C7H8\LAITCL\23-Feb-2017\0\\#N Geom=
 AllCheck Guess=TCheck SCRF=Check MP2/CBSB3 CBSExtrap=(NMin=10,MinPop)\
 \Toluene Energy\\0,1\C,0,0.00438,0.91242,0.\C,0,0.00722,0.19388,1.2001
 4\C,0,0.00722,-1.19907,1.20295\C,0,0.00633,-1.90168,0.\C,0,0.00722,-1.
 19907,-1.20295\C,0,0.00722,0.19388,-1.20014\C,0,-0.02791,2.42229,0.\H,
 0,0.01176,0.73188,2.14306\H,0,0.01184,-1.73554,2.14555\H,0,0.00931,-2.
 98585,0.\H,0,0.01184,-1.73554,-2.14555\H,0,0.01176,0.73188,-2.14306\H,
 0,-1.05878,2.79351,0.\H,0,0.46609,2.83186,0.88421\H,0,0.46609,2.83186,
 -0.88421\\Version=ES64L-G16RevA.03\State=1-A'\HF=-269.8222771\MP2=-270
 .9355615\E2(CBS)=-1.2195036\CBS-Int=-1.1824196\OIii=8.9687781\RMSD=6.3
 38e-09\PG=CS [SG(C3H2),X(C4H6)]\\@


 I DON'T PRETEND TO UNDERSTAND THE UNIVERSE --
 IT'S A GREAT DEAL BIGGER THAN I AM.
       -- ATTR. TO WILLIAM ALLINGHAM (1828-89)
 Diagonal vibrational polarizability:
        0.0000000       0.0000000       0.0000000

 Complete Basis Set (CBS) Extrapolation:
 M. R. Nyden and G. A. Petersson, JCP 75, 1843 (1981)
 G. A. Petersson and M. A. Al-Laham, JCP 94, 6081 (1991)
 G. A. Petersson, T. Tensfeldt, and J. A. Montgomery, JCP 94, 6091 (1991)
 J. A. Montgomery, J. W. Ochterski, and G. A. Petersson, JCP 101, 5900 (1994)

 Temperature=               298.150000 Pressure=                       1.000000
 E(ZPE)=                      0.126047 E(Thermal)=                     0.132338
 E(SCF)=                   -269.822277 DE(MP2)=                       -1.113284
 DE(CBS)=                    -0.106219 DE(MP34)=                      -0.046409
 DE(CCSD)=                   -0.043468 DE(Int)=                        0.037084
 DE(Empirical)=              -0.051929
 CBS-QB3 (0 K)=            -271.020456 CBS-QB3 Energy=              -271.014165
 CBS-QB3 Enthalpy=         -271.013221 CBS-QB3 Free Energy=         -271.051420
 1\1\GINC-NID00118\Mixed\CBS-QB3\CBS-QB3\C7H8\LAITCL\23-Feb-2017\0\\# c
 bs-qb3\\Toluene Energy\\0,1\C,0,0.00438,0.91242,0.\C,0,0.00722,0.19388
 ,1.20014\C,0,0.00722,-1.19907,1.20295\C,0,0.00633,-1.90168,0.\C,0,0.00
 722,-1.19907,-1.20295\C,0,0.00722,0.19388,-1.20014\C,0,-0.02791,2.4222
 9,0.\H,0,0.01176,0.73188,2.14306\H,0,0.01184,-1.73554,2.14555\H,0,0.00
 931,-2.98585,0.\H,0,0.01184,-1.73554,-2.14555\H,0,0.01176,0.73188,-2.1
 4306\H,0,-1.05878,2.79351,0.\H,0,0.46609,2.83186,0.88421\H,0,0.46609,2
 .83186,-0.88421\\Version=ES64L-G16RevA.03\State=1-A'\HF/CbsB3=-269.822
 2771\E2(CBS)/CbsB3=-1.2195036\CBS-Int/CbsB3=0.037084\OIii/CbsB3=8.9687
 781\MP2/CbsB4=-270.7106086\MP4(SDQ)/CbsB4=-270.7570175\MP4(SDQ)/6-31+G
 (d')=-270.6923007\QCISD(T)/6-31+G(d')=-270.7357688\CBSQB3=-271.0204563
 \FreqCoord=0.0082770004,1.7242239106,0.,0.0136438226,0.366380101,2.267
 9359111,0.0136438226,-2.2659139042,2.2732460415,0.0119619664,-3.593654
 3766,0.,0.0136438226,-2.2659139042,-2.2732460415,0.0136438226,0.366380
 101,-2.2679359111,-0.0527422561,4.5774646943,0.,0.0222231792,1.3830527
 56,4.0497964685,0.0223743573,-3.2796952782,4.0545018866,0.0175933502,-
 5.642438749,0.,0.0223743573,-3.2796952782,-4.0545018866,0.0222231792,1
 .383052756,-4.0497964685,-2.0008042262,5.2789688262,0.,0.8807824494,5.
 3514398231,1.6709147366,0.8807824494,5.3514398231,-1.6709147366\PG=CS 
 [SG(C3H2),X(C4H6)]\NImag=0\\0.17403071,-0.00574935,0.63595390,0.,0.,0.
 65755484,-0.06803314,0.00047644,-0.00166782,0.13356537,0.00064686,-0.1
 7235214,0.04597288,-0.00077520,0.68606246,-0.00048619,0.11429785,-0.26
 558028,0.00257082,0.03520117,0.70034575,0.00697493,0.00044348,0.000062
 95,-0.06196769,0.00032458,-0.00008632,0.13448613,-0.00012717,-0.027160
 51,0.07909353,0.00064980,-0.33346676,-0.03257757,-0.00064745,0.6768895
 7,-0.00077284,0.02922639,0.03579699,0.00016471,0.03322572,-0.12838971,
 0.00171083,-0.03131144,0.71737087,-0.00733998,0.00029533,0.,0.00852304
 ,-0.00021081,0.00014225,-0.06299943,0.00035047,-0.00009514,0.13166113,
 -0.00042315,0.00202781,0.,-0.00004978,-0.02837234,-0.02895900,0.000095
 21,-0.18026301,-0.12173966,-0.00098782,0.73877045,0.,0.,-0.07255252,-0
 .00063241,-0.07792073,0.03399339,-0.00043915,-0.05649931,-0.28021973,0
 .,0.,0.65590677,0.00697493,0.00044348,-0.00006295,-0.00723565,0.000004
 44,0.00005551,0.00872109,-0.00016957,0.00003921,-0.06299943,0.00009521
 ,0.00043915,0.13448613,-0.00012717,-0.02716051,-0.07909353,-0.00057002
 ,-0.05230165,0.02858997,-0.00016957,0.06478254,0.02457560,0.00035047,-
 0.18026301,0.05649931,-0.00064745,0.67688957,0.00077284,-0.02922639,0.
 03579699,0.00028603,0.03021180,-0.01827561,-0.00003921,-0.02457560,-0.
 05983268,0.00009514,0.12173966,-0.28021973,-0.00171083,0.03131144,0.71
 737087,-0.06803314,0.00047644,0.00166782,0.00957689,0.00077338,-0.0003
 9478,-0.00723565,-0.00057002,-0.00028603,0.00852304,-0.00004978,0.0006
 3241,-0.06196769,0.00064980,-0.00016471,0.13356537,0.00064686,-0.17235
 214,-0.04597288,0.00077338,0.06301183,-0.02291293,0.00000444,-0.052301
 65,-0.03021180,-0.00021081,-0.02837234,0.07792073,0.00032458,-0.333466
 76,-0.03322572,-0.00077520,0.68606246,0.00048619,-0.11429785,-0.265580
 28,0.00039478,0.02291293,-0.05865156,-0.00005551,-0.02858997,-0.018275
 61,-0.00014225,0.02895900,0.03399339,0.00008632,0.03257757,-0.12838971
 ,-0.00257082,-0.03520117,0.70034575,-0.06936782,-0.00119042,0.,0.00421
 947,-0.00028680,-0.00025324,0.00661289,-0.00106349,0.00043202,-0.00094
 770,0.00089606,0.,0.00661289,-0.00106349,-0.00043202,0.00421947,-0.000
 28680,0.00025324,0.52998731,0.00346731,-0.20757185,0.,0.00034117,-0.02
 249859,0.00436245,-0.00048740,0.00256934,0.00137211,-0.00017198,-0.001
 21809,0.,-0.00048740,0.00256934,-0.00137211,0.00034117,-0.02249859,-0.
 00436245,0.01069220,0.47820929,0.,0.,-0.08879500,-0.00156866,0.0294319
 9,0.00344067,-0.00110853,0.00177913,-0.00452304,0.,0.,-0.00058667,0.00
 110853,-0.00177913,-0.00452304,0.00156866,-0.02943199,0.00344067,0.,0.
 ,0.57601983,0.00350865,-0.00075230,-0.00004917,-0.03598292,-0.00059852
 ,-0.00143512,0.00276631,0.00007069,-0.00000689,0.00721291,-0.00001549,
 -0.00003903,-0.00064910,-0.00005022,0.00002251,0.00637675,0.00009940,0
 .00015351,-0.00335016,0.00051171,0.00085683,0.02498928,-0.00006250,0.0
 0980321,0.01370331,-0.00075703,-0.12463387,-0.11637996,0.00002064,-0.0
 1096399,-0.02933903,0.00002273,-0.00550835,0.00152905,0.00000012,-0.00
 067580,0.00074293,-0.00001366,-0.00088500,0.00342184,0.00023707,0.0011
 4638,0.00097403,0.00069012,0.13070239,-0.00012724,-0.01621661,-0.01989
 031,-0.00113447,-0.11598709,-0.26327882,0.00003707,0.00216669,0.003143
 49,-0.00005582,0.00038186,0.00199472,0.00000022,0.00094696,0.00018115,
 -0.00008648,0.00411773,-0.00305222,-0.00054508,-0.00166406,0.00087057,
 0.00129954,0.12588805,0.27971686,0.00737267,-0.00018282,0.00013591,0.0
 0297945,0.00004693,-0.00012077,-0.03632463,0.00050882,-0.00124036,0.00
 311342,0.00006332,0.00006531,0.00699753,0.00005702,-0.00004110,-0.0006
 7725,-0.00006829,-0.00001839,0.00014211,0.00013820,0.00005620,-0.00404
 472,0.00000900,0.00003739,0.02538240,0.00014363,-0.00537592,-0.0014168
 9,0.00014784,-0.01056709,0.02924212,0.00051336,-0.12626802,0.11768631,
 -0.00006809,0.01165779,-0.01501478,0.00001396,-0.00076972,-0.00320346,
 -0.00001658,-0.00076744,-0.00089951,-0.00013671,-0.00013481,0.00135825
 ,-0.00001454,0.00097126,-0.00041309,-0.00062672,0.13058009,0.00000031,
 -0.00059611,0.00196173,0.00001870,-0.00215219,0.00319159,-0.00111880,0
 .11776927,-0.26624659,-0.00012937,0.01633341,-0.01856699,-0.00001128,-
 0.00417668,-0.00307285,-0.00001415,-0.00085510,0.00032055,-0.00000163,
 -0.00017576,-0.00002896,0.00001874,0.00040838,0.00081475,0.00121942,-0
 .12722966,0.28178952,-0.00073874,-0.00014266,0.,0.00705264,0.00006358,
 -0.00004904,0.00253469,-0.00006437,-0.00011648,-0.03511115,0.00086264,
 0.,0.00253469,-0.00006437,0.00011648,0.00705264,0.00006358,0.00004904,
 -0.00093981,0.00019374,0.,0.00030788,-0.00003942,-0.00001018,-0.003950
 38,-0.00000866,0.00002120,0.02499516,0.00000874,0.00064961,0.,0.000009
 92,0.00081645,-0.00319282,0.00006101,-0.01166682,0.00299188,0.00077040
 ,-0.33421322,0.,0.00006101,-0.01166682,-0.00299188,0.00000992,0.000816
 45,0.00319282,-0.00006101,0.00001329,0.,-0.00000485,-0.00070736,0.0001
 6544,-0.00001340,0.00079938,-0.00033042,-0.00087484,0.35506502,0.,0.,-
 0.00134781,-0.00001690,-0.00212390,-0.00442893,0.00009102,-0.02845288,
 0.00465303,0.,0.,-0.05910198,-0.00009102,0.02845288,0.00465303,0.00001
 690,0.00212390,-0.00442893,0.,0.,0.00017815,-0.00001138,-0.00140432,-0
 .00000524,0.00001017,0.00057595,0.00095279,0.,0.,0.05782263,0.00737267
 ,-0.00018282,-0.00013591,-0.00067725,-0.00006829,0.00001839,0.00699753
 ,0.00005702,0.00004110,0.00311342,0.00006332,-0.00006531,-0.03632463,0
 .00050882,0.00124036,0.00297945,0.00004693,0.00012077,0.00014211,0.000
 13820,-0.00005620,-0.00115523,-0.00000177,0.00001330,0.00025352,0.0000
 0754,0.00000841,-0.00395038,-0.00001340,-0.00001017,0.02538240,0.00014
 363,-0.00537592,0.00141689,-0.00001658,-0.00076744,0.00089951,0.000013
 96,-0.00076972,0.00320346,-0.00006809,0.01165779,0.01501478,0.00051336
 ,-0.12626802,-0.11768631,0.00014784,-0.01056709,-0.02924212,-0.0001367
 1,-0.00013481,-0.00135825,-0.00000415,0.00004686,-0.00010756,0.0000075
 4,0.00037442,0.00079895,-0.00000866,0.00079938,-0.00057595,-0.00062672
 ,0.13058009,-0.00000031,0.00059611,0.00196173,0.00001415,0.00085510,0.
 00032055,0.00001128,0.00417668,-0.00307285,0.00012937,-0.01633341,-0.0
 1856699,0.00111880,-0.11776927,-0.26624659,-0.00001870,0.00215219,0.00
 319159,0.00000163,0.00017576,-0.00002896,-0.00000593,-0.00010136,-0.00
 003592,-0.00000841,-0.00079895,-0.00106126,-0.00002120,0.00033042,0.00
 095279,-0.00121942,0.12722966,0.28178952,0.00350865,-0.00075230,0.0000
 4917,0.00637675,0.00009940,-0.00015351,-0.00064910,-0.00005022,-0.0000
 2251,0.00721291,-0.00001549,0.00003903,0.00276631,0.00007069,0.0000068
 9,-0.03598292,-0.00059852,0.00143512,-0.00335016,0.00051171,-0.0008568
 3,0.00028366,0.00004203,0.00002593,-0.00115523,-0.00000415,0.00000593,
 0.00030788,-0.00000485,0.00001138,-0.00404472,-0.00001454,-0.00001874,
 0.02498928,-0.00006250,0.00980321,-0.01370331,-0.00001366,-0.00088500,
 -0.00342184,0.00000012,-0.00067580,-0.00074293,0.00002273,-0.00550835,
 -0.00152905,0.00002064,-0.01096399,0.02933903,-0.00075703,-0.12463387,
 0.11637996,0.00023707,0.00114638,-0.00097403,0.00004203,0.00053201,-0.
 00077574,-0.00000177,0.00004686,0.00010136,-0.00003942,-0.00070736,0.0
 0140432,0.00000900,0.00097126,-0.00040838,0.00069012,0.13070239,0.0001
 2724,0.01621661,-0.01989031,0.00008648,-0.00411773,-0.00305222,-0.0000
 0022,-0.00094696,0.00018115,0.00005582,-0.00038186,0.00199472,-0.00003
 707,-0.00216669,0.00314349,0.00113447,0.11598709,-0.26327882,0.0005450
 8,0.00166406,0.00087057,-0.00002593,0.00077574,-0.00114599,-0.00001330
 ,0.00010756,-0.00003592,0.00001018,-0.00016544,-0.00000524,-0.00003739
 ,0.00041309,0.00081475,-0.00129954,-0.12588805,0.27971686,0.00338369,0
 .00194481,0.,0.00039497,-0.00033967,0.00068748,0.00009056,0.00048531,0
 .00003602,-0.00000518,-0.00027686,0.,0.00009056,0.00048531,-0.00003602
 ,0.00039497,-0.00033967,-0.00068748,-0.27361325,0.07635126,0.,-0.00028
 299,0.00005655,0.00002357,0.00001836,0.00004553,-0.00000729,-0.0001014
 0,0.00002505,0.,0.00001836,0.00004553,0.00000729,-0.00028299,0.0000565
 5,-0.00002357,0.29788461,0.03059152,-0.01493527,0.,-0.00038030,-0.0003
 4334,-0.00133365,-0.00146283,-0.00044220,-0.00022584,0.00018378,-0.000
 35140,0.,-0.00146283,-0.00044220,0.00022584,-0.00038030,-0.00034334,0.
 00133365,0.08019217,-0.07010867,0.,0.00068471,0.00005756,0.00034510,0.
 00001609,-0.00011560,0.00005607,0.00018331,-0.00000606,0.,0.00001609,-
 0.00011560,-0.00005607,0.00068471,0.00005756,-0.00034510,-0.08636782,0
 .07989617,0.,0.,0.00002557,0.00045753,0.00197093,-0.00035211,0.0004059
 9,-0.00115141,-0.00061015,0.,0.,0.00120110,-0.00040599,0.00115141,-0.0
 0061015,-0.00045753,-0.00197093,-0.00035211,0.,0.,-0.04490749,-0.00030
 593,0.00007120,-0.00011881,-0.00005091,0.00001127,-0.00002048,0.,0.,0.
 00001025,0.00005091,-0.00001127,-0.00002048,0.00030593,-0.00007120,-0.
 00011881,0.,0.,0.04471978,0.00019296,0.00243633,0.00278018,0.00058713,
 0.00023663,-0.00038183,-0.00008501,-0.00029142,0.00000812,0.00002151,-
 0.00012869,0.00049995,0.00007739,0.00086159,-0.00010825,0.00062094,0.0
 0008348,0.00011362,-0.10018368,-0.04576994,-0.09735286,0.00004778,-0.0
 0023632,0.00037640,-0.00002975,-0.00002742,-0.00000206,0.00000313,0.00
 001315,0.00002235,-0.00007750,0.00003100,0.00000813,-0.00002812,0.0000
 3243,-0.00014584,-0.01399513,-0.01124915,-0.02609292,0.10527621,-0.014
 54836,-0.01297675,-0.02810355,0.00063302,0.00187654,-0.00187041,0.0003
 9662,-0.00016498,-0.00007406,-0.00013916,-0.00002188,0.00020643,0.0008
 9382,-0.00009800,-0.00136327,-0.00046899,-0.00557908,0.00194490,-0.044
 01458,-0.08074431,-0.07464179,-0.00036382,0.00007897,0.00110354,-0.000
 00131,0.00002743,0.00002050,-0.00006222,0.00000403,0.00008723,0.000047
 39,-0.00045862,-0.00002799,-0.00029479,0.00003572,-0.00004878,0.003914
 05,0.00359620,0.00908516,0.04710326,0.09024624,0.00183543,-0.00026001,
 0.00026933,0.00046729,0.00200242,0.00031551,0.00056078,-0.00064732,0.0
 0012784,0.00006427,0.00017733,0.00036525,0.00003217,0.00023282,-0.0001
 0299,-0.00055977,-0.00051670,0.00040177,-0.09686017,-0.07684933,-0.220
 71364,-0.00054646,-0.00012167,0.00038350,-0.00004048,-0.00006576,0.000
 01017,-0.00015163,-0.00004291,0.00004774,-0.00000931,-0.00006065,-0.00
 000804,-0.00007472,0.00016820,0.00042227,0.00027800,0.00095909,0.00057
 694,0.10763980,0.08435329,0.23776702,0.00019296,0.00243633,-0.00278018
 ,0.00062094,0.00008348,-0.00011362,0.00007739,0.00086159,0.00010825,0.
 00002151,-0.00012869,-0.00049995,-0.00008501,-0.00029142,-0.00000812,0
 .00058713,0.00023663,0.00038183,-0.10018368,-0.04576994,0.09735286,-0.
 00002812,0.00003243,0.00014584,-0.00007750,0.00003100,-0.00000813,0.00
 000313,0.00001315,-0.00002235,-0.00002975,-0.00002742,0.00000206,0.000
 04778,-0.00023632,-0.00037640,-0.01399513,-0.01124915,0.02609292,0.007
 57213,0.00690508,-0.01263520,0.10527621,-0.01454836,-0.01297675,0.0281
 0355,-0.00046899,-0.00557908,-0.00194490,0.00089382,-0.00009800,0.0013
 6327,-0.00013916,-0.00002188,-0.00020643,0.00039662,-0.00016498,0.0000
 7406,0.00063302,0.00187654,0.00187041,-0.04401458,-0.08074431,0.074641
 79,-0.00029479,0.00003572,0.00004878,0.00004739,-0.00045862,0.00002799
 ,-0.00006222,0.00000403,-0.00008723,-0.00000131,0.00002743,-0.00002050
 ,-0.00036382,0.00007897,-0.00110354,0.00391405,0.00359620,-0.00908516,
 0.00690508,0.00417848,-0.00932881,0.04710326,0.09024624,-0.00183543,0.
 00026001,0.00026933,0.00055977,0.00051670,0.00040177,-0.00003217,-0.00
 023282,-0.00010299,-0.00006427,-0.00017733,0.00036525,-0.00056078,0.00
 064732,0.00012784,-0.00046729,-0.00200242,0.00031551,0.09686017,0.0768
 4933,-0.22071364,0.00007472,-0.00016820,0.00042227,0.00000931,0.000060
 65,-0.00000804,0.00015163,0.00004291,0.00004774,0.00004048,0.00006576,
 0.00001017,0.00054646,0.00012167,0.00038350,-0.00027800,-0.00095909,0.
 00057694,0.01263520,0.00932881,-0.01986265,-0.10763980,-0.08435329,0.2
 3776702\\0.00000055,0.00001830,0.,-0.00000330,0.00000881,-0.00001303,0
 .00000306,-0.00001020,0.00000986,-0.00000312,0.00000529,0.,0.00000306,
 -0.00001020,-0.00000986,-0.00000330,0.00000881,0.00001303,0.00001169,-
 0.00001327,0.,0.00000143,-0.00000359,0.00001119,-0.00000045,0.00000696
 ,0.00000041,-0.00000041,-0.00000461,0.,-0.00000045,0.00000696,-0.00000
 041,0.00000143,-0.00000359,-0.00001119,-0.00000910,-0.00000244,0.,-0.0
 0000055,-0.00000362,0.00000539,-0.00000055,-0.00000362,-0.00000539\\\@
 Job cpu time:       0 days  0 hours  9 minutes 36.7 seconds.
 Elapsed time:       0 days  0 hours  1 minutes 12.7 seconds.
 File lengths (MBytes):  RWF=   4155 Int=      0 D2E=      0 Chk=      9 Scr=      1
 Normal termination of Gaussian 16 at Thu Feb 23 14:06:39 2017.
