 Entering Gaussian System, Link 0=g03
 Input=QMfiles//AAEJEUDDZIPTTB-UHFFFAOYAL.gjf
 Output=QMfiles//AAEJEUDDZIPTTB-UHFFFAOYAL.log
 Initial command:
 /opt/g03/l1.exe /scratch/nickv/Gau-9833.inp -scrdir=/scratch/nickv/
 Entering Link 1 = /opt/g03/l1.exe PID=      9835.
  
 Copyright (c) 1988,1990,1992,1993,1995,1998,2003,2004, Gaussian, Inc.
                  All Rights Reserved.
  
 This is the Gaussian(R) 03 program.  It is based on the
 the Gaussian(R) 98 system (copyright 1998, Gaussian, Inc.),
 the Gaussian(R) 94 system (copyright 1995, Gaussian, Inc.),
 the Gaussian 92(TM) system (copyright 1992, Gaussian, Inc.),
 the Gaussian 90(TM) system (copyright 1990, Gaussian, Inc.),
 the Gaussian 88(TM) system (copyright 1988, Gaussian, Inc.),
 the Gaussian 86(TM) system (copyright 1986, Carnegie Mellon
 University), and the Gaussian 82(TM) system (copyright 1983,
 Carnegie Mellon University). Gaussian is a federally registered
 trademark of Gaussian, Inc.
  
 This software contains proprietary and confidential information,
 including trade secrets, belonging to Gaussian, Inc.
  
 This software is provided under written license and may be
 used, copied, transmitted, or stored only in accord with that
 written license.
  
 The following legend is applicable only to US Government
 contracts under FAR:
  
                    RESTRICTED RIGHTS LEGEND
  
 Use, reproduction and disclosure by the US Government is
 subject to restrictions as set forth in subparagraphs (a)
 and (c) of the Commercial Computer Software - Restricted
 Rights clause in FAR 52.227-19.
  
 Gaussian, Inc.
 340 Quinnipiac St., Bldg. 40, Wallingford CT 06492
  
  
 ---------------------------------------------------------------
 Warning -- This program may not be used in any manner that
 competes with the business of Gaussian, Inc. or will provide
 assistance to any competitor of Gaussian, Inc.  The licensee
 of this program is prohibited from giving any competitor of
 Gaussian, Inc. access to this program.  By using this program,
 the user acknowledges that Gaussian, Inc. is engaged in the
 business of creating and licensing software in the field of
 computational chemistry and represents and warrants to the
 licensee that it is not a competitor of Gaussian, Inc. and that
 it will not use this program in any manner prohibited above.
 ---------------------------------------------------------------
  

 Cite this work as:
 Gaussian 03, Revision D.01,
 M. J. Frisch, G. W. Trucks, H. B. Schlegel, G. E. Scuseria, 
 M. A. Robb, J. R. Cheeseman, J. A. Montgomery, Jr., T. Vreven, 
 K. N. Kudin, J. C. Burant, J. M. Millam, S. S. Iyengar, J. Tomasi, 
 V. Barone, B. Mennucci, M. Cossi, G. Scalmani, N. Rega, 
 G. A. Petersson, H. Nakatsuji, M. Hada, M. Ehara, K. Toyota, 
 R. Fukuda, J. Hasegawa, M. Ishida, T. Nakajima, Y. Honda, O. Kitao, 
 H. Nakai, M. Klene, X. Li, J. E. Knox, H. P. Hratchian, J. B. Cross, 
 V. Bakken, C. Adamo, J. Jaramillo, R. Gomperts, R. E. Stratmann, 
 O. Yazyev, A. J. Austin, R. Cammi, C. Pomelli, J. W. Ochterski, 
 P. Y. Ayala, K. Morokuma, G. A. Voth, P. Salvador, J. J. Dannenberg, 
 V. G. Zakrzewski, S. Dapprich, A. D. Daniels, M. C. Strain, 
 O. Farkas, D. K. Malick, A. D. Rabuck, K. Raghavachari, 
 J. B. Foresman, J. V. Ortiz, Q. Cui, A. G. Baboul, S. Clifford, 
 J. Cioslowski, B. B. Stefanov, G. Liu, A. Liashenko, P. Piskorz, 
 I. Komaromi, R. L. Martin, D. J. Fox, T. Keith, M. A. Al-Laham, 
 C. Y. Peng, A. Nanayakkara, M. Challacombe, P. M. W. Gill, 
 B. Johnson, W. Chen, M. W. Wong, C. Gonzalez, and J. A. Pople, 
 Gaussian, Inc., Wallingford CT, 2004.
 
 ******************************************
 Gaussian 03:  AM64L-G03RevD.01 13-Oct-2005
                 2-Jun-2011 
 ******************************************
 %chk=/home/nickv/JP10_pyrolysis/JP10SeedMechQM/QMfiles/RMGrunCHKfile.chk
 %mem=6MW
 %nproc=1
 Will use up to    1 processors via shared memory.
 --------------------------------------------
 # pm3 opt=(verytight,gdiis) freq IOP(2/16=3)
 --------------------------------------------
 1/7=1,14=-1,18=50,19=11,26=3,38=1/1,3;
 2/9=110,16=3,17=6,18=5,40=1/2;
 3/5=2,11=9,12=1,16=1,25=1,30=1/1;
 4/5=3,11=1,20=7,22=1,24=3,35=1,68=1/1,2;
 6/7=2,8=2,9=2,10=2/1;
 7//16;
 1/14=-1,18=50,19=11/3(3);
 2/9=110,16=3/2;
 6/7=2,8=2,9=2,10=2/1;
 99//99;
 2/9=110,16=3/2;
 3/5=2,11=9,12=1,16=1,25=1,30=1/1;
 4/5=5,11=1,16=3,20=7,22=1,24=3,35=1,68=1/1,2;
 7//16;
 1/14=-1,18=50,19=11/3(-4);
 2/9=110,16=3/2;
 6/7=2,8=2,9=2,10=2/1;
 99//99;
 ------------------------------------------------------------
 InChI=1/C10H12O/c1-7(2)9-5-4-6-10(9)8(3)11/h4-6,9H,1H2,2-3H3
 ------------------------------------------------------------
 Symbolic Z-matrix:
 Charge =  0 Multiplicity = 1
 C                     1.8407    0.4533    0.9267 
 O                     2.664     0.1839    1.8997 
 C                    -1.2233    0.2954   -0.2472 
 C                    -0.0113   -0.4741   -0.7362 
 C                    -0.3355   -1.9061   -1.0305 
 C                     0.3987   -2.7202   -0.2926 
 C                     1.2834   -1.9285    0.5397 
 C                     1.0735   -0.6401    0.2953 
 C                     1.5522    1.8884    0.6212 
 C                    -1.8864   -0.0671    0.8631 
 C                    -1.7       1.5012   -1.01 
 H                    -1.6672    2.4042   -0.3588 
 H                     0.4301   -0.0242   -1.6553 
 H                    -1.0719   -2.2418   -1.7538 
 H                     0.635     2.2098    1.1636 
 H                     0.3521   -3.8037   -0.3223 
 H                    -2.7541    0.4909    1.2127 
 H                    -1.0794    1.7195   -1.9079 
 H                     2.0156   -2.3377    1.2288 
 H                     2.3978    2.538     0.9423 
 H                     1.4112    2.0441   -0.4718 
 H                    -1.5794   -0.9295    1.4524 
 H                    -2.7459    1.3445   -1.3592 
 

 GradGradGradGradGradGradGradGradGradGradGradGradGradGradGradGradGradGrad
 Berny optimization.
 Initialization pass.
                           ----------------------------
                           !    Initial Parameters    !
                           ! (Angstroms and Degrees)  !
 --------------------------                            --------------------------
 ! Name  Definition              Value          Derivative Info.                !
 --------------------------------------------------------------------------------
 ! R1    R(1,2)                  1.3027         estimate D2E/DX2                !
 ! R2    R(1,8)                  1.4774         estimate D2E/DX2                !
 ! R3    R(1,9)                  1.4954         estimate D2E/DX2                !
 ! R4    R(3,4)                  1.5166         estimate D2E/DX2                !
 ! R5    R(3,10)                 1.3431         estimate D2E/DX2                !
 ! R6    R(3,11)                 1.5043         estimate D2E/DX2                !
 ! R7    R(4,5)                  1.4974         estimate D2E/DX2                !
 ! R8    R(4,8)                  1.5061         estimate D2E/DX2                !
 ! R9    R(4,13)                 1.1144         estimate D2E/DX2                !
 ! R10   R(5,6)                  1.3215         estimate D2E/DX2                !
 ! R11   R(5,14)                 1.0854         estimate D2E/DX2                !
 ! R12   R(6,7)                  1.4499         estimate D2E/DX2                !
 ! R13   R(6,16)                 1.0849         estimate D2E/DX2                !
 ! R14   R(7,8)                  1.3281         estimate D2E/DX2                !
 ! R15   R(7,19)                 1.0856         estimate D2E/DX2                !
 ! R16   R(9,15)                 1.113          estimate D2E/DX2                !
 ! R17   R(9,20)                 1.1136         estimate D2E/DX2                !
 ! R18   R(9,21)                 1.113          estimate D2E/DX2                !
 ! R19   R(10,17)                1.0893         estimate D2E/DX2                !
 ! R20   R(10,22)                1.0887         estimate D2E/DX2                !
 ! R21   R(11,12)                1.1138         estimate D2E/DX2                !
 ! R22   R(11,18)                1.1131         estimate D2E/DX2                !
 ! R23   R(11,23)                1.1137         estimate D2E/DX2                !
 ! A1    A(2,1,8)              119.6252         estimate D2E/DX2                !
 ! A2    A(2,1,9)              118.2279         estimate D2E/DX2                !
 ! A3    A(8,1,9)              121.5173         estimate D2E/DX2                !
 ! A4    A(4,3,10)             121.6107         estimate D2E/DX2                !
 ! A5    A(4,3,11)             119.7636         estimate D2E/DX2                !
 ! A6    A(10,3,11)            118.6245         estimate D2E/DX2                !
 ! A7    A(3,4,5)              112.0583         estimate D2E/DX2                !
 ! A8    A(3,4,8)              114.2484         estimate D2E/DX2                !
 ! A9    A(3,4,13)             112.1849         estimate D2E/DX2                !
 ! A10   A(5,4,8)              100.6694         estimate D2E/DX2                !
 ! A11   A(5,4,13)             108.0424         estimate D2E/DX2                !
 ! A12   A(8,4,13)             108.9079         estimate D2E/DX2                !
 ! A13   A(4,5,6)              111.0449         estimate D2E/DX2                !
 ! A14   A(4,5,14)             125.0027         estimate D2E/DX2                !
 ! A15   A(6,5,14)             123.9523         estimate D2E/DX2                !
 ! A16   A(5,6,7)              108.8541         estimate D2E/DX2                !
 ! A17   A(5,6,16)             125.1769         estimate D2E/DX2                !
 ! A18   A(7,6,16)             125.9623         estimate D2E/DX2                !
 ! A19   A(6,7,8)              109.1263         estimate D2E/DX2                !
 ! A20   A(6,7,19)             124.7594         estimate D2E/DX2                !
 ! A21   A(8,7,19)             126.0942         estimate D2E/DX2                !
 ! A22   A(1,8,4)              125.8135         estimate D2E/DX2                !
 ! A23   A(1,8,7)              123.8657         estimate D2E/DX2                !
 ! A24   A(4,8,7)              110.2918         estimate D2E/DX2                !
 ! A25   A(1,9,15)             109.6677         estimate D2E/DX2                !
 ! A26   A(1,9,20)             110.7578         estimate D2E/DX2                !
 ! A27   A(1,9,21)             111.0588         estimate D2E/DX2                !
 ! A28   A(15,9,20)            108.4687         estimate D2E/DX2                !
 ! A29   A(15,9,21)            109.4985         estimate D2E/DX2                !
 ! A30   A(20,9,21)            107.3227         estimate D2E/DX2                !
 ! A31   A(3,10,17)            121.3559         estimate D2E/DX2                !
 ! A32   A(3,10,22)            121.47           estimate D2E/DX2                !
 ! A33   A(17,10,22)           117.1742         estimate D2E/DX2                !
 ! A34   A(3,11,12)            110.1237         estimate D2E/DX2                !
 ! A35   A(3,11,18)            112.9265         estimate D2E/DX2                !
 ! A36   A(3,11,23)            110.108          estimate D2E/DX2                !
 ! A37   A(12,11,18)           107.2299         estimate D2E/DX2                !
 ! A38   A(12,11,23)           108.968          estimate D2E/DX2                !
 ! A39   A(18,11,23)           107.3526         estimate D2E/DX2                !
 ! D1    D(2,1,8,4)            173.4104         estimate D2E/DX2                !
 ! D2    D(2,1,8,7)             -8.745          estimate D2E/DX2                !
 ! D3    D(9,1,8,4)              2.6683         estimate D2E/DX2                !
 ! D4    D(2,1,9,15)           -93.9633         estimate D2E/DX2                !
 ! D5    D(2,1,9,20)            25.722          estimate D2E/DX2                !
 ! D6    D(8,1,9,15)            76.9038         estimate D2E/DX2                !
 ! D7    D(10,3,4,5)            59.6034         estimate D2E/DX2                !
 ! D8    D(10,3,4,8)           -54.0757         estimate D2E/DX2                !
 ! D9    D(11,3,4,5)          -120.7885         estimate D2E/DX2                !
 ! D10   D(4,3,10,17)          179.759          estimate D2E/DX2                !
 ! D11   D(4,3,10,22)           -0.1623         estimate D2E/DX2                !
 ! D12   D(11,3,10,17)           0.1466         estimate D2E/DX2                !
 ! D13   D(4,3,11,12)         -119.8367         estimate D2E/DX2                !
 ! D14   D(4,3,11,18)           -0.0018         estimate D2E/DX2                !
 ! D15   D(10,3,11,12)          59.7831         estimate D2E/DX2                !
 ! D16   D(3,4,5,6)           -120.7039         estimate D2E/DX2                !
 ! D17   D(3,4,5,14)            59.4554         estimate D2E/DX2                !
 ! D18   D(8,4,5,6)              1.1171         estimate D2E/DX2                !
 ! D19   D(3,4,8,1)            -62.743          estimate D2E/DX2                !
 ! D20   D(3,4,8,7)            119.1651         estimate D2E/DX2                !
 ! D21   D(5,4,8,1)            176.9922         estimate D2E/DX2                !
 ! D22   D(4,5,6,7)             -0.763          estimate D2E/DX2                !
 ! D23   D(4,5,6,16)          -179.869          estimate D2E/DX2                !
 ! D24   D(14,5,6,7)           179.0797         estimate D2E/DX2                !
 ! D25   D(5,6,7,8)              0.0137         estimate D2E/DX2                !
 ! D26   D(5,6,7,19)          -178.4377         estimate D2E/DX2                !
 ! D27   D(16,6,7,8)           179.1109         estimate D2E/DX2                !
 ! D28   D(6,7,8,1)           -177.4032         estimate D2E/DX2                !
 ! D29   D(6,7,8,4)              0.7334         estimate D2E/DX2                !
 ! D30   D(19,7,8,1)             1.0224         estimate D2E/DX2                !
 --------------------------------------------------------------------------------
 Trust Radius=3.00D-01 FncErr=1.00D-07 GrdErr=1.00D-06
 Number of steps in this run= 102 maximum allowed number of steps= 138.
 GradGradGradGradGradGradGradGradGradGradGradGradGradGradGradGradGradGrad

                          Input orientation:                          
 ---------------------------------------------------------------------
 Center     Atomic     Atomic              Coordinates (Angstroms)
 Number     Number      Type              X           Y           Z
 ---------------------------------------------------------------------
    1          6             0        1.840700    0.453300    0.926700
    2          8             0        2.664000    0.183900    1.899700
    3          6             0       -1.223300    0.295400   -0.247200
    4          6             0       -0.011300   -0.474100   -0.736200
    5          6             0       -0.335500   -1.906100   -1.030500
    6          6             0        0.398700   -2.720200   -0.292600
    7          6             0        1.283400   -1.928500    0.539700
    8          6             0        1.073500   -0.640100    0.295300
    9          6             0        1.552200    1.888400    0.621200
   10          6             0       -1.886400   -0.067100    0.863100
   11          6             0       -1.700000    1.501200   -1.010000
   12          1             0       -1.667200    2.404200   -0.358800
   13          1             0        0.430100   -0.024200   -1.655300
   14          1             0       -1.071900   -2.241800   -1.753800
   15          1             0        0.635000    2.209800    1.163600
   16          1             0        0.352100   -3.803700   -0.322300
   17          1             0       -2.754100    0.490900    1.212700
   18          1             0       -1.079400    1.719500   -1.907900
   19          1             0        2.015600   -2.337700    1.228800
   20          1             0        2.397800    2.538000    0.942300
   21          1             0        1.411200    2.044100   -0.471800
   22          1             0       -1.579400   -0.929500    1.452400
   23          1             0       -2.745900    1.344500   -1.359200
 ---------------------------------------------------------------------
                    Distance matrix (angstroms):
                    1          2          3          4          5
     1  C    0.000000
     2  O    1.302739   0.000000
     3  C    3.284976   4.442152   0.000000
     4  C    2.656165   3.812894   1.516639   0.000000
     5  C    3.759421   4.685208   2.499670   1.497445   0.000000
     6  C    3.692852   4.286206   3.424440   2.325908   1.321478
     7  C    2.476555   2.866686   3.442163   2.327971   2.255408
     8  C    1.477425   2.404738   2.538653   1.506101   2.312095
     9  C    1.495351   2.403327   3.315896   3.141413   4.548599
    10  C    3.763793   4.673722   1.343084   2.497881   3.061525
    11  C    4.169587   5.407969   1.504347   2.613137   3.670419
    12  H    4.214722   5.365617   2.157902   3.342012   4.561063
    13  H    2.980692   4.203765   2.195136   1.114446   2.125574
    14  H    4.788725   5.760992   2.954683   2.298944   1.085423
    15  H    2.143625   2.960229   3.018040   3.351158   4.764093
    16  H    4.679528   5.116944   4.392055   3.374849   2.138978
    17  H    4.603846   5.470103   2.124353   3.500341   4.077644
    18  H    4.262066   5.555981   2.192417   2.706584   3.803708
    19  H    2.812745   2.688679   4.427445   3.382684   3.289132
    20  H    2.157911   2.555242   4.422277   4.206408   5.577893
    21  H    2.161230   3.264026   3.170014   2.904263   4.355133
    22  H    3.726336   4.409782   2.125048   2.730622   2.943778
    23  H    5.201584   6.421405   2.157653   3.342674   4.060107
                    6          7          8          9         10
     6  C    0.000000
     7  C    1.449899   0.000000
     8  C    2.264464   1.328068   0.000000
     9  C    4.837849   3.827221   2.593969   0.000000
    10  C    3.687311   3.690126   3.067855   3.963138   0.000000
    11  C    4.768587   4.802613   3.739154   3.658899   2.450064
    12  H    5.525559   5.318424   4.148138   3.404554   2.765576
    13  H    3.020985   3.028614   2.144327   3.177987   3.422039
    14  H    2.127589   3.302384   3.371497   5.439217   3.498699
    15  H    5.145994   4.234997   3.011338   1.112992   3.410576
    16  H    1.084908   2.264230   3.303061   5.893253   4.514226
    17  H    4.745233   4.754769   4.095278   4.565862   1.089260
    18  H    4.950243   4.988133   3.880307   3.653792   3.394353
    19  H    2.252849   1.085551   2.154256   4.294629   4.529345
    20  H    5.759344   4.620995   3.503241   1.113609   5.014697
    21  H    4.873995   4.101343   2.812012   1.113002   4.136821
    22  H    3.188183   3.166488   2.908696   4.293993   1.088695
    23  H    5.248612   5.527532   4.611271   4.763557   2.769471
                   11         12         13         14         15
    11  C    0.000000
    12  H    1.113798   0.000000
    13  H    2.698256   3.460738   0.000000
    14  H    3.867531   4.887302   2.680197   0.000000
    15  H    3.267855   2.766879   3.602629   5.589407   0.000000
    16  H    5.729399   6.528164   4.008440   2.552744   6.200816
    17  H    2.659366   2.704012   4.316235   4.370076   3.800398
    18  H    1.113114   1.792773   2.320105   3.964303   3.551573
    19  H    5.792673   6.210403   4.022950   4.293921   4.752901
    20  H    4.656006   4.270245   4.145388   6.492631   1.806697
    21  H    3.203742   3.101449   2.577032   5.116468   1.817822
    22  H    3.462118   3.794958   3.809916   3.501343   3.852555
    23  H    1.113734   1.813107   3.471022   3.977378   4.306245
                   16         17         18         19         20
    16  H    0.000000
    17  H    5.517997   0.000000
    18  H    5.921913   3.748629   0.000000
    19  H    2.705975   5.545383   5.989890   0.000000
    20  H    6.782423   5.550298   4.569956   4.899042   0.000000
    21  H    5.944814   4.753914   2.893240   4.738936   1.793599
    22  H    3.891180   1.858739   4.307995   3.867434   5.301120
    23  H    6.097272   2.709865   1.794135   6.551963   5.760121
                   21         22         23
    21  H    0.000000
    22  H    4.635572   0.000000
    23  H    4.307946   3.799591   0.000000
 Stoichiometry    C10H12O
 Framework group  C1[X(C10H12O)]
 Deg. of freedom    63
 Full point group                 C1
 Largest Abelian subgroup         C1      NOp   1
 Largest concise Abelian subgroup C1      NOp   1
                         Standard orientation:                         
 ---------------------------------------------------------------------
 Center     Atomic     Atomic              Coordinates (Angstroms)
 Number     Number      Type              X           Y           Z
 ---------------------------------------------------------------------
    1          6             0       -1.695165   -0.729913   -0.076860
    2          8             0       -2.868259   -0.581683    0.469955
    3          6             0        1.565837   -0.473719    0.225303
    4          6             0        0.652590    0.381467   -0.631921
    5          6             0        1.011850    1.833451   -0.561091
    6          6             0       -0.002268    2.551859   -0.111914
    7          6             0       -1.125578    1.670464    0.140126
    8          6             0       -0.777063    0.424616   -0.160147
    9          6             0       -1.243317   -2.114117   -0.417283
   10          6             0        1.668967   -0.283373    1.550824
   11          6             0        2.375055   -1.571092   -0.410307
   12          1             0        2.102203   -2.555157    0.034342
   13          1             0        0.670362    0.073334   -1.702774
   14          1             0        1.973556    2.251290   -0.841581
   15          1             0       -0.637502   -2.526984    0.420142
   16          1             0        0.007222    3.627718    0.027601
   17          1             0        2.323289   -0.902580    2.163142
   18          1             0        2.212515   -1.649163   -1.508719
   19          1             0       -2.099895    1.994772    0.492192
   20          1             0       -2.116698   -2.784397   -0.584782
   21          1             0       -0.637999   -2.118864   -1.351274
   22          1             0        1.101911    0.494676    2.059100
   23          1             0        3.461668   -1.389044   -0.247421
 ---------------------------------------------------------------------
 Rotational constants (GHZ):      1.3605736      1.0956772      0.7170593
 Standard basis: VSTO-3G (5D, 7F)
 There are    56 symmetry adapted basis functions of A   symmetry.
 Integral buffers will be    131072 words long.
 Raffenetti 1 integral format.
 Two-electron integral symmetry is turned on.
    56 basis functions,   168 primitive gaussians,    56 cartesian basis functions
    29 alpha electrons       29 beta electrons
       nuclear repulsion energy       305.0106727474 Hartrees.
 NAtoms=   23 NActive=   23 NUniq=   23 SFac= 7.50D-01 NAtFMM=   80 NAOKFM=F Big=F
 Simple Huckel Guess.
 Initial guess orbital symmetries:
       Occupied  (A) (A) (A) (A) (A) (A) (A) (A) (A) (A) (A) (A)
                 (A) (A) (A) (A) (A) (A) (A) (A) (A) (A) (A) (A)
                 (A) (A) (A) (A) (A)
       Virtual   (A) (A) (A) (A) (A) (A) (A) (A) (A) (A) (A) (A)
                 (A) (A) (A) (A) (A) (A) (A) (A) (A) (A) (A) (A)
                 (A) (A) (A)
 The electronic state of the initial guess is 1-A.
 RHF-PM3 calculation of energy and first derivatives.
 MO and density RWFs will be updated without deorthogonalization.
 Closed-shell calculation:      29 occupied levels.
 NNHCO=    0.
 References:
  H: (PM3): J. J. P. STEWART, J. COMP. CHEM.     10, 209 (1989).
  C: (PM3): J. J. P. STEWART, J. COMP. CHEM.     10, 209 (1989).
  O: (PM3): J. J. P. STEWART, J. COMP. CHEM.     10, 209 (1989).
 Ext34=T Pulay=F Camp-King=F BShift= 0.00D+00
 It=  1 PL= 0.103D+01 DiagD=T ESCF=     12.170962 Diff= 0.783D+01 RMSDP= 0.192D+00.
 It=  2 PL= 0.683D-01 DiagD=T ESCF=      1.428285 Diff=-0.107D+02 RMSDP= 0.554D-02.
 It=  3 PL= 0.235D-01 DiagD=F ESCF=      0.727219 Diff=-0.701D+00 RMSDP= 0.296D-02.
 It=  4 PL= 0.398D-02 DiagD=F ESCF=      0.589763 Diff=-0.137D+00 RMSDP= 0.443D-03.
 It=  5 PL= 0.194D-02 DiagD=F ESCF=      0.627453 Diff= 0.377D-01 RMSDP= 0.226D-03.
 It=  6 PL= 0.115D-02 DiagD=F ESCF=      0.626616 Diff=-0.837D-03 RMSDP= 0.274D-03.
 It=  7 PL= 0.185D-03 DiagD=F ESCF=      0.625834 Diff=-0.782D-03 RMSDP= 0.146D-04.
 It=  8 PL= 0.781D-04 DiagD=F ESCF=      0.626270 Diff= 0.436D-03 RMSDP= 0.723D-05.
 It=  9 PL= 0.380D-04 DiagD=F ESCF=      0.626269 Diff=-0.987D-06 RMSDP= 0.864D-05.
 It= 10 PL= 0.773D-05 DiagD=F ESCF=      0.626268 Diff=-0.904D-06 RMSDP= 0.992D-06.
 It= 11 PL= 0.501D-05 DiagD=F ESCF=      0.626268 Diff= 0.472D-06 RMSDP= 0.622D-06.
 It= 12 PL= 0.337D-05 DiagD=F ESCF=      0.626268 Diff=-0.608D-08 RMSDP= 0.109D-05.
 It= 13 PL= 0.991D-06 DiagD=F ESCF=      0.626268 Diff=-0.119D-07 RMSDP= 0.155D-06.
 It= 14 PL= 0.639D-06 DiagD=F ESCF=      0.626268 Diff= 0.626D-08 RMSDP= 0.101D-06.
 It= 15 PL= 0.493D-06 DiagD=F ESCF=      0.626268 Diff=-0.155D-09 RMSDP= 0.219D-06.
 It= 16 PL= 0.149D-06 DiagD=F ESCF=      0.626268 Diff=-0.469D-09 RMSDP= 0.228D-07.
 Energy=    0.023015390795 NIter=  17.
 Dipole moment=       1.306047      -0.018983      -0.518345

 **********************************************************************

            Population analysis using the SCF density.

 **********************************************************************

 Orbital symmetries:
       Occupied  (A) (A) (A) (A) (A) (A) (A) (A) (A) (A) (A) (A)
                 (A) (A) (A) (A) (A) (A) (A) (A) (A) (A) (A) (A)
                 (A) (A) (A) (A) (A)
       Virtual   (A) (A) (A) (A) (A) (A) (A) (A) (A) (A) (A) (A)
                 (A) (A) (A) (A) (A) (A) (A) (A) (A) (A) (A) (A)
                 (A) (A) (A)
 The electronic state is 1-A.
 Alpha  occ. eigenvalues --   -1.53555  -1.32318  -1.28104  -1.11700  -1.01776
 Alpha  occ. eigenvalues --   -0.99414  -0.97559  -0.79173  -0.73185  -0.69751
 Alpha  occ. eigenvalues --   -0.66131  -0.64786  -0.60830  -0.57815  -0.55590
 Alpha  occ. eigenvalues --   -0.55388  -0.55176  -0.53508  -0.51396  -0.50713
 Alpha  occ. eigenvalues --   -0.48963  -0.48426  -0.47970  -0.46054  -0.45562
 Alpha  occ. eigenvalues --   -0.42332  -0.39393  -0.37524  -0.35592
 Alpha virt. eigenvalues --   -0.02224   0.02580   0.03246   0.07123   0.08920
 Alpha virt. eigenvalues --    0.10293   0.11353   0.12261   0.12438   0.12746
 Alpha virt. eigenvalues --    0.13210   0.13700   0.13844   0.14373   0.14589
 Alpha virt. eigenvalues --    0.14938   0.15202   0.15422   0.15477   0.15797
 Alpha virt. eigenvalues --    0.17094   0.19107   0.19761   0.20113   0.20731
 Alpha virt. eigenvalues --    0.20812   0.24522
          Condensed to atoms (all electrons):
              1          2          3          4          5          6
     1  C    3.683267   0.000000   0.000000   0.000000   0.000000   0.000000
     2  O    0.000000   6.362529   0.000000   0.000000   0.000000   0.000000
     3  C    0.000000   0.000000   4.111407   0.000000   0.000000   0.000000
     4  C    0.000000   0.000000   0.000000   3.958081   0.000000   0.000000
     5  C    0.000000   0.000000   0.000000   0.000000   4.128815   0.000000
     6  C    0.000000   0.000000   0.000000   0.000000   0.000000   4.144468
     7  C    0.000000   0.000000   0.000000   0.000000   0.000000   0.000000
     8  C    0.000000   0.000000   0.000000   0.000000   0.000000   0.000000
     9  C    0.000000   0.000000   0.000000   0.000000   0.000000   0.000000
    10  C    0.000000   0.000000   0.000000   0.000000   0.000000   0.000000
    11  C    0.000000   0.000000   0.000000   0.000000   0.000000   0.000000
    12  H    0.000000   0.000000   0.000000   0.000000   0.000000   0.000000
    13  H    0.000000   0.000000   0.000000   0.000000   0.000000   0.000000
    14  H    0.000000   0.000000   0.000000   0.000000   0.000000   0.000000
    15  H    0.000000   0.000000   0.000000   0.000000   0.000000   0.000000
    16  H    0.000000   0.000000   0.000000   0.000000   0.000000   0.000000
    17  H    0.000000   0.000000   0.000000   0.000000   0.000000   0.000000
    18  H    0.000000   0.000000   0.000000   0.000000   0.000000   0.000000
    19  H    0.000000   0.000000   0.000000   0.000000   0.000000   0.000000
    20  H    0.000000   0.000000   0.000000   0.000000   0.000000   0.000000
    21  H    0.000000   0.000000   0.000000   0.000000   0.000000   0.000000
    22  H    0.000000   0.000000   0.000000   0.000000   0.000000   0.000000
    23  H    0.000000   0.000000   0.000000   0.000000   0.000000   0.000000
              7          8          9         10         11         12
     1  C    0.000000   0.000000   0.000000   0.000000   0.000000   0.000000
     2  O    0.000000   0.000000   0.000000   0.000000   0.000000   0.000000
     3  C    0.000000   0.000000   0.000000   0.000000   0.000000   0.000000
     4  C    0.000000   0.000000   0.000000   0.000000   0.000000   0.000000
     5  C    0.000000   0.000000   0.000000   0.000000   0.000000   0.000000
     6  C    0.000000   0.000000   0.000000   0.000000   0.000000   0.000000
     7  C    4.009105   0.000000   0.000000   0.000000   0.000000   0.000000
     8  C    0.000000   4.217992   0.000000   0.000000   0.000000   0.000000
     9  C    0.000000   0.000000   4.149164   0.000000   0.000000   0.000000
    10  C    0.000000   0.000000   0.000000   4.154275   0.000000   0.000000
    11  C    0.000000   0.000000   0.000000   0.000000   4.071046   0.000000
    12  H    0.000000   0.000000   0.000000   0.000000   0.000000   0.951603
    13  H    0.000000   0.000000   0.000000   0.000000   0.000000   0.000000
    14  H    0.000000   0.000000   0.000000   0.000000   0.000000   0.000000
    15  H    0.000000   0.000000   0.000000   0.000000   0.000000   0.000000
    16  H    0.000000   0.000000   0.000000   0.000000   0.000000   0.000000
    17  H    0.000000   0.000000   0.000000   0.000000   0.000000   0.000000
    18  H    0.000000   0.000000   0.000000   0.000000   0.000000   0.000000
    19  H    0.000000   0.000000   0.000000   0.000000   0.000000   0.000000
    20  H    0.000000   0.000000   0.000000   0.000000   0.000000   0.000000
    21  H    0.000000   0.000000   0.000000   0.000000   0.000000   0.000000
    22  H    0.000000   0.000000   0.000000   0.000000   0.000000   0.000000
    23  H    0.000000   0.000000   0.000000   0.000000   0.000000   0.000000
             13         14         15         16         17         18
     1  C    0.000000   0.000000   0.000000   0.000000   0.000000   0.000000
     2  O    0.000000   0.000000   0.000000   0.000000   0.000000   0.000000
     3  C    0.000000   0.000000   0.000000   0.000000   0.000000   0.000000
     4  C    0.000000   0.000000   0.000000   0.000000   0.000000   0.000000
     5  C    0.000000   0.000000   0.000000   0.000000   0.000000   0.000000
     6  C    0.000000   0.000000   0.000000   0.000000   0.000000   0.000000
     7  C    0.000000   0.000000   0.000000   0.000000   0.000000   0.000000
     8  C    0.000000   0.000000   0.000000   0.000000   0.000000   0.000000
     9  C    0.000000   0.000000   0.000000   0.000000   0.000000   0.000000
    10  C    0.000000   0.000000   0.000000   0.000000   0.000000   0.000000
    11  C    0.000000   0.000000   0.000000   0.000000   0.000000   0.000000
    12  H    0.000000   0.000000   0.000000   0.000000   0.000000   0.000000
    13  H    0.904360   0.000000   0.000000   0.000000   0.000000   0.000000
    14  H    0.000000   0.882730   0.000000   0.000000   0.000000   0.000000
    15  H    0.000000   0.000000   0.924158   0.000000   0.000000   0.000000
    16  H    0.000000   0.000000   0.000000   0.878931   0.000000   0.000000
    17  H    0.000000   0.000000   0.000000   0.000000   0.912126   0.000000
    18  H    0.000000   0.000000   0.000000   0.000000   0.000000   0.958219
    19  H    0.000000   0.000000   0.000000   0.000000   0.000000   0.000000
    20  H    0.000000   0.000000   0.000000   0.000000   0.000000   0.000000
    21  H    0.000000   0.000000   0.000000   0.000000   0.000000   0.000000
    22  H    0.000000   0.000000   0.000000   0.000000   0.000000   0.000000
    23  H    0.000000   0.000000   0.000000   0.000000   0.000000   0.000000
             19         20         21         22         23
     1  C    0.000000   0.000000   0.000000   0.000000   0.000000
     2  O    0.000000   0.000000   0.000000   0.000000   0.000000
     3  C    0.000000   0.000000   0.000000   0.000000   0.000000
     4  C    0.000000   0.000000   0.000000   0.000000   0.000000
     5  C    0.000000   0.000000   0.000000   0.000000   0.000000
     6  C    0.000000   0.000000   0.000000   0.000000   0.000000
     7  C    0.000000   0.000000   0.000000   0.000000   0.000000
     8  C    0.000000   0.000000   0.000000   0.000000   0.000000
     9  C    0.000000   0.000000   0.000000   0.000000   0.000000
    10  C    0.000000   0.000000   0.000000   0.000000   0.000000
    11  C    0.000000   0.000000   0.000000   0.000000   0.000000
    12  H    0.000000   0.000000   0.000000   0.000000   0.000000
    13  H    0.000000   0.000000   0.000000   0.000000   0.000000
    14  H    0.000000   0.000000   0.000000   0.000000   0.000000
    15  H    0.000000   0.000000   0.000000   0.000000   0.000000
    16  H    0.000000   0.000000   0.000000   0.000000   0.000000
    17  H    0.000000   0.000000   0.000000   0.000000   0.000000
    18  H    0.000000   0.000000   0.000000   0.000000   0.000000
    19  H    0.868818   0.000000   0.000000   0.000000   0.000000
    20  H    0.000000   0.929528   0.000000   0.000000   0.000000
    21  H    0.000000   0.000000   0.943829   0.000000   0.000000
    22  H    0.000000   0.000000   0.000000   0.905905   0.000000
    23  H    0.000000   0.000000   0.000000   0.000000   0.949646
 Mulliken atomic charges:
              1
     1  C    0.316733
     2  O   -0.362529
     3  C   -0.111407
     4  C    0.041919
     5  C   -0.128815
     6  C   -0.144468
     7  C   -0.009105
     8  C   -0.217992
     9  C   -0.149164
    10  C   -0.154275
    11  C   -0.071046
    12  H    0.048397
    13  H    0.095640
    14  H    0.117270
    15  H    0.075842
    16  H    0.121069
    17  H    0.087874
    18  H    0.041781
    19  H    0.131182
    20  H    0.070472
    21  H    0.056171
    22  H    0.094095
    23  H    0.050354
 Sum of Mulliken charges=   0.00000
 Atomic charges with hydrogens summed into heavy atoms:
              1
     1  C    0.316733
     2  O   -0.362529
     3  C   -0.111407
     4  C    0.137559
     5  C   -0.011545
     6  C   -0.023398
     7  C    0.122077
     8  C   -0.217992
     9  C    0.053321
    10  C    0.027694
    11  C    0.069486
    12  H    0.000000
    13  H    0.000000
    14  H    0.000000
    15  H    0.000000
    16  H    0.000000
    17  H    0.000000
    18  H    0.000000
    19  H    0.000000
    20  H    0.000000
    21  H    0.000000
    22  H    0.000000
    23  H    0.000000
 Sum of Mulliken charges=   0.00000
 ***** Axes restored to original set *****
 -------------------------------------------------------------------
 Center     Atomic                   Forces (Hartrees/Bohr)
 Number     Number              X              Y              Z
 -------------------------------------------------------------------
    1          6           0.055601811   -0.024689184    0.096261052
    2          8          -0.069054145    0.021211863   -0.090996739
    3          6          -0.002652380    0.001628897    0.004103441
    4          6          -0.013115021    0.016730603   -0.002553208
    5          6          -0.032665766    0.009849996   -0.030291077
    6          6           0.014284251   -0.034013876    0.014753231
    7          6           0.015873173   -0.037393744    0.015224353
    8          6           0.013917211    0.058572664    0.005186798
    9          6           0.005690324    0.003239019   -0.008062516
   10          6           0.007804967    0.001697955   -0.011082022
   11          6           0.004968019   -0.004098026   -0.002566813
   12          1          -0.001563960   -0.008179457   -0.006920570
   13          1          -0.001351647    0.003847395   -0.000589187
   14          1          -0.003916460    0.004749127   -0.002878427
   15          1           0.007715022   -0.002332015   -0.006867589
   16          1           0.003077557   -0.003529066    0.003002918
   17          1           0.001810805   -0.002881340    0.000947242
   18          1          -0.005376247   -0.002440485    0.008523291
   19          1           0.002392482   -0.003326934    0.002496358
   20          1          -0.009426697   -0.003825943   -0.002476369
   21          1          -0.001572551   -0.000343138    0.010466271
   22          1          -0.002497295    0.002103387    0.000624896
   23          1           0.010056549    0.003422303    0.003694667
 -------------------------------------------------------------------
 Cartesian Forces:  Max     0.096261052 RMS     0.023254446

 GradGradGradGradGradGradGradGradGradGradGradGradGradGradGradGradGradGrad
 Berny optimization.
 Internal  Forces:  Max     0.115991468 RMS     0.015314510
 Search for a local minimum.
 Step number   1 out of a maximum of 102
 All quantities printed in internal units (Hartrees-Bohrs-Radians)
 Swaping is turned off.
 Second derivative matrix not updated -- first step.
 RFO step:  Lambda= 5.37570713D-03.
 Linear search not attempted -- option 19 set.
 Iteration  1 RMS(Cart)=  0.06340755 RMS(Int)=  0.01874702
 Iteration  2 RMS(Cart)=  0.02793249 RMS(Int)=  0.00704063
 Iteration  3 RMS(Cart)=  0.00126889 RMS(Int)=  0.00701081
 Iteration  4 RMS(Cart)=  0.00003958 RMS(Int)=  0.00701080
 Iteration  5 RMS(Cart)=  0.00000120 RMS(Int)=  0.00701080
 Iteration  6 RMS(Cart)=  0.00000004 RMS(Int)=  0.00701080
 Variable       Old X    -DE/DX   Delta X   Delta X   Delta X     New X
                                 (Linear)    (Quad)   (Total)
    R1        2.46182  -0.11599   0.00000  -0.17368  -0.17368   2.28814
    R2        2.79193  -0.01144   0.00000  -0.03234  -0.03234   2.75959
    R3        2.82580  -0.00218   0.00000  -0.00815  -0.00815   2.81765
    R4        2.86603  -0.01533   0.00000  -0.04559  -0.04559   2.82044
    R5        2.53806  -0.01162   0.00000  -0.02119  -0.02119   2.51687
    R6        2.84280  -0.01300   0.00000  -0.03714  -0.03714   2.80567
    R7        2.82976   0.01664   0.00000   0.04798   0.04778   2.87754
    R8        2.84612   0.01414   0.00000   0.04257   0.04241   2.88853
    R9        2.10600   0.00150   0.00000   0.00529   0.00529   2.11128
   R10        2.49723   0.04968   0.00000   0.08084   0.08090   2.57813
   R11        2.05115   0.00311   0.00000   0.00777   0.00777   2.05892
   R12        2.73991   0.01747   0.00000   0.04868   0.04891   2.78882
   R13        2.05018   0.00331   0.00000   0.00845   0.00845   2.05863
   R14        2.50968   0.05004   0.00000   0.08245   0.08254   2.59223
   R15        2.05139   0.00445   0.00000   0.01150   0.01150   2.06289
   R16        2.10325  -0.01038   0.00000  -0.03185  -0.03185   2.07140
   R17        2.10442  -0.01010   0.00000  -0.03083  -0.03083   2.07359
   R18        2.10327  -0.01013   0.00000  -0.03094  -0.03094   2.07233
   R19        2.05840  -0.00261   0.00000  -0.00746  -0.00746   2.05095
   R20        2.05734  -0.00203   0.00000  -0.00584  -0.00584   2.05149
   R21        2.10477  -0.01072   0.00000  -0.03224  -0.03224   2.07254
   R22        2.10348  -0.01035   0.00000  -0.03187  -0.03187   2.07161
   R23        2.10465  -0.01108   0.00000  -0.03309  -0.03309   2.07156
    A1        2.08785   0.00131   0.00000   0.02253  -0.01563   2.07223
    A2        2.06347   0.00740   0.00000   0.04818   0.00910   2.07257
    A3        2.12088  -0.00730   0.00000   0.00084  -0.03654   2.08433
    A4        2.12251   0.00228   0.00000   0.00251   0.00249   2.12499
    A5        2.09027  -0.01058   0.00000  -0.02890  -0.02892   2.06134
    A6        2.07039   0.00829   0.00000   0.02647   0.02644   2.09683
    A7        1.95579  -0.00324   0.00000  -0.00464  -0.00451   1.95128
    A8        1.99401  -0.00430   0.00000  -0.01247  -0.01231   1.98170
    A9        1.95800  -0.00498   0.00000  -0.02667  -0.02693   1.93107
   A10        1.75701   0.00954   0.00000   0.02720   0.02668   1.78369
   A11        1.88570   0.00377   0.00000   0.01548   0.01526   1.90096
   A12        1.90080   0.00109   0.00000   0.00834   0.00811   1.90891
   A13        1.93810  -0.00345   0.00000  -0.01804  -0.01836   1.91974
   A14        2.18171  -0.00442   0.00000  -0.02434  -0.02418   2.15752
   A15        2.16338   0.00788   0.00000   0.04239   0.04254   2.20592
   A16        1.89986  -0.00151   0.00000   0.00480   0.00479   1.90465
   A17        2.18475   0.00533   0.00000   0.02586   0.02572   2.21046
   A18        2.19846  -0.00382   0.00000  -0.03029  -0.03043   2.16803
   A19        1.90461  -0.00227   0.00000   0.00244   0.00158   1.90620
   A20        2.17746  -0.00070   0.00000  -0.00876  -0.00981   2.16765
   A21        2.20076   0.00298   0.00000   0.00835   0.00731   2.20807
   A22        2.19586  -0.00611   0.00000  -0.00709  -0.00711   2.18875
   A23        2.16186   0.00833   0.00000   0.02316   0.02315   2.18501
   A24        1.92495  -0.00227   0.00000  -0.01509  -0.01553   1.90943
   A25        1.91406  -0.00062   0.00000  -0.02040  -0.02082   1.89324
   A26        1.93309   0.00527   0.00000   0.03003   0.02965   1.96274
   A27        1.93834   0.00063   0.00000   0.01983   0.01994   1.95829
   A28        1.89314  -0.00022   0.00000  -0.00662  -0.00752   1.88562
   A29        1.91111  -0.00587   0.00000  -0.02971  -0.02960   1.88151
   A30        1.87313   0.00068   0.00000   0.00630   0.00642   1.87955
   A31        2.11806   0.00145   0.00000   0.00845   0.00844   2.12650
   A32        2.12005   0.00198   0.00000   0.01156   0.01156   2.13161
   A33        2.04507  -0.00343   0.00000  -0.02001  -0.02001   2.02506
   A34        1.92202   0.00119   0.00000   0.00577   0.00576   1.92779
   A35        1.97094  -0.00125   0.00000   0.00057   0.00056   1.97150
   A36        1.92175   0.00227   0.00000   0.01134   0.01131   1.93306
   A37        1.87151  -0.00027   0.00000  -0.00064  -0.00064   1.87088
   A38        1.90185  -0.00235   0.00000  -0.01876  -0.01878   1.88307
   A39        1.87366   0.00024   0.00000   0.00038   0.00035   1.87401
    D1        3.02658   0.00422   0.00000   0.25364   0.24818  -3.00843
    D2       -0.15263   0.00209   0.00000   0.28945   0.28664   0.13401
    D3        0.04657  -0.00679   0.00000  -0.27305  -0.26478  -0.21821
    D4       -1.63997  -0.00460   0.00000  -0.29243  -0.28957  -1.92954
    D5        0.44893  -0.00195   0.00000  -0.29485  -0.29404   0.15490
    D6        1.34222   0.00574   0.00000   0.22494   0.22127   1.56350
    D7        1.04028   0.00257   0.00000   0.02614   0.02598   1.06626
    D8       -0.94380  -0.00462   0.00000   0.00269   0.00307  -0.94073
    D9       -2.10816   0.00135   0.00000   0.03868   0.03846  -2.06970
   D10        3.13739  -0.00056   0.00000   0.00418   0.00434  -3.14146
   D11       -0.00283   0.00015   0.00000   0.00782   0.00782   0.00499
   D12        0.00256   0.00072   0.00000  -0.00802  -0.00818  -0.00562
   D13       -2.09154   0.00057   0.00000  -0.00019  -0.00023  -2.09177
   D14       -0.00003   0.00023   0.00000   0.00340   0.00338   0.00335
   D15        1.04341  -0.00063   0.00000   0.01189   0.01195   1.05536
   D16       -2.10668  -0.00030   0.00000  -0.04472  -0.04455  -2.15123
   D17        1.03769  -0.00053   0.00000  -0.04690  -0.04697   0.99072
   D18        0.01950  -0.00124   0.00000  -0.04546  -0.04534  -0.02584
   D19       -1.09507   0.00002   0.00000   0.09990   0.10069  -0.99438
   D20        2.07982   0.00169   0.00000   0.06750   0.06666   2.14648
   D21        3.08910  -0.00005   0.00000   0.09428   0.09532  -3.09877
   D22       -0.01332   0.00056   0.00000   0.01569   0.01528   0.00196
   D23       -3.13931   0.00068   0.00000  -0.00900  -0.00992   3.13396
   D24        3.12553   0.00076   0.00000   0.01772   0.01765  -3.14000
   D25        0.00024   0.00064   0.00000   0.02662   0.02617   0.02641
   D26       -3.11433   0.00039   0.00000  -0.05170  -0.05197   3.11689
   D27        3.12607   0.00062   0.00000   0.05218   0.05123  -3.10588
   D28       -3.09627   0.00042   0.00000  -0.08811  -0.08921   3.09770
   D29        0.01280  -0.00154   0.00000  -0.05714  -0.05596  -0.04316
   D30        0.01784   0.00060   0.00000  -0.00882  -0.00913   0.00871
         Item               Value     Threshold  Converged?
 Maximum Force            0.115991     0.000002     NO 
 RMS     Force            0.015315     0.000001     NO 
 Maximum Displacement     0.303939     0.000006     NO 
 RMS     Displacement     0.072475     0.000004     NO 
 Predicted change in Energy=-2.359927D-02
 GradGradGradGradGradGradGradGradGradGradGradGradGradGradGradGradGradGrad

                          Input orientation:                          
 ---------------------------------------------------------------------
 Center     Atomic     Atomic              Coordinates (Angstroms)
 Number     Number      Type              X           Y           Z
 ---------------------------------------------------------------------
    1          6             0        1.710575    0.471932    1.087537
    2          8             0        2.649887    0.212312    1.806146
    3          6             0       -1.220475    0.302695   -0.223707
    4          6             0       -0.022301   -0.446647   -0.703767
    5          6             0       -0.359979   -1.890196   -1.051400
    6          6             0        0.426561   -2.739975   -0.329931
    7          6             0        1.324982   -1.950651    0.534788
    8          6             0        1.059662   -0.615866    0.362612
    9          6             0        1.535899    1.875081    0.614411
   10          6             0       -1.886504   -0.066287    0.869057
   11          6             0       -1.666838    1.483143   -1.005768
   12          1             0       -1.639808    2.386778   -0.384841
   13          1             0        0.417984    0.048999   -1.603053
   14          1             0       -1.123360   -2.173594   -1.775290
   15          1             0        0.651106    2.298901    1.103328
   16          1             0        0.407330   -3.828722   -0.361665
   17          1             0       -2.758004    0.477501    1.219331
   18          1             0       -1.040793    1.675231   -1.884932
   19          1             0        2.043409   -2.385390    1.232305
   20          1             0        2.396477    2.510236    0.859447
   21          1             0        1.378813    1.930376   -0.469500
   22          1             0       -1.589146   -0.923982    1.464430
   23          1             0       -2.695579    1.348325   -1.359639
 ---------------------------------------------------------------------
                    Distance matrix (angstroms):
                    1          2          3          4          5
     1  C    0.000000
     2  O    1.210829   0.000000
     3  C    3.215441   4.371290   0.000000
     4  C    2.656203   3.724846   1.492512   0.000000
     5  C    3.800249   4.652462   2.496858   1.522731   0.000000
     6  C    3.738215   4.268724   3.461481   2.366555   1.364289
     7  C    2.514582   2.837276   3.483136   2.368800   2.314895
     8  C    1.460311   2.301843   2.527163   1.528543   2.374600
     9  C    1.491036   2.329378   3.282139   3.091278   4.532834
    10  C    3.643678   4.640538   1.331869   2.468543   3.056972
    11  C    4.100171   5.306222   1.484695   2.553390   3.617926
    12  H    4.130327   5.284903   2.131949   3.278161   4.513842
    13  H    3.014787   4.078076   2.156735   1.117243   2.161025
    14  H    4.819312   5.723340   2.923842   2.311458   1.089533
    15  H    2.112000   2.973707   3.041164   3.355161   4.818058
    16  H    4.721680   5.104745   4.442678   3.426375   2.195991
    17  H    4.470525   5.446095   2.115871   3.469355   4.063586
    18  H    4.225344   5.420822   2.162362   2.633410   3.724320
    19  H    2.880281   2.728583   4.471992   3.431363   3.352133
    20  H    2.162677   2.498181   4.373648   4.127624   5.532918
    21  H    2.159049   3.121849   3.076696   2.769158   4.237779
    22  H    3.602608   4.401969   2.119071   2.717339   2.962063
    23  H    5.115754   6.315594   2.135326   3.286109   4.004755
                    6          7          8          9         10
     6  C    0.000000
     7  C    1.475781   0.000000
     8  C    2.322127   1.371747   0.000000
     9  C    4.839540   3.832368   2.548533   0.000000
    10  C    3.733156   3.738477   3.039477   3.942917   0.000000
    11  C    4.761702   4.807832   3.702987   3.610557   2.442121
    12  H    5.527792   5.333759   4.106299   3.368301   2.765980
    13  H    3.065826   3.064573   2.172012   3.082443   3.381610
    14  H    2.193650   3.373505   3.429683   5.401305   3.466368
    15  H    5.243560   4.340051   3.035036   1.096140   3.476846
    16  H    1.089379   2.274393   3.357463   5.895741   4.575180
    17  H    4.784748   4.799510   4.062511   4.555958   1.085315
    18  H    4.905630   4.959734   3.835687   3.595274   3.366388
    19  H    2.276074   1.091635   2.203483   4.334855   4.577598
    20  H    5.732356   4.599241   3.436049   1.097296   4.998248
    21  H    4.768484   4.009222   2.697705   1.096630   4.054712
    22  H    3.252789   3.226519   2.885329   4.280560   1.085602
    23  H    5.246166   5.535071   4.574498   4.698910   2.760945
                   11         12         13         14         15
    11  C    0.000000
    12  H    1.096739   0.000000
    13  H    2.600001   3.344212   0.000000
    14  H    3.776144   4.795525   2.710227   0.000000
    15  H    3.238304   2.733250   3.527167   5.606994   0.000000
    16  H    5.738724   6.543985   4.071594   2.660975   6.305029
    17  H    2.674514   2.732960   4.270406   4.320662   3.866909
    18  H    1.096248   1.765046   2.202752   3.851272   3.490155
    19  H    5.808654   6.241380   4.075232   4.372517   4.888530
    20  H    4.587426   4.225528   4.004501   6.424122   1.774953
    21  H    3.124674   3.054102   2.397439   4.980816   1.771767
    22  H    3.449952   3.792559   3.792719   3.503465   3.941586
    23  H    1.096225   1.772927   3.382570   3.879247   4.262641
                   16         17         18         19         20
    16  H    0.000000
    17  H    5.573369   0.000000
    18  H    5.891596   3.744305   0.000000
    19  H    2.701982   5.590159   5.976463   0.000000
    20  H    6.755013   5.552494   4.477016   4.922482   0.000000
    21  H    5.841456   4.698537   2.814789   4.686540   1.771434
    22  H    3.969641   1.841319   4.274907   3.922378   5.295757
    23  H    6.117664   2.722741   1.766669   6.566339   5.674805
                   21         22         23
    21  H    0.000000
    22  H    4.549310   0.000000
    23  H    4.210915   3.789847   0.000000
 Stoichiometry    C10H12O
 Framework group  C1[X(C10H12O)]
 Deg. of freedom    63
 Full point group                 C1
 Largest Abelian subgroup         C1      NOp   1
 Largest concise Abelian subgroup C1      NOp   1
                         Standard orientation:                         
 ---------------------------------------------------------------------
 Center     Atomic     Atomic              Coordinates (Angstroms)
 Number     Number      Type              X           Y           Z
 ---------------------------------------------------------------------
    1          6             0       -1.644844   -0.781376    0.106946
    2          8             0       -2.813433   -0.615400    0.377057
    3          6             0        1.553047   -0.470203    0.232329
    4          6             0        0.643120    0.363613   -0.606942
    5          6             0        1.026568    1.836672   -0.564822
    6          6             0       -0.034388    2.582948   -0.142060
    7          6             0       -1.177759    1.689366    0.126538
    8          6             0       -0.799306    0.390790   -0.101855
    9          6             0       -1.215221   -2.100963   -0.438308
   10          6             0        1.664999   -0.280522    1.545860
   11          6             0        2.349631   -1.528290   -0.438657
   12          1             0        2.102171   -2.513931   -0.026212
   13          1             0        0.657550    0.015792   -1.668566
   14          1             0        2.012331    2.211445   -0.838500
   15          1             0       -0.607465   -2.608721    0.319542
   16          1             0       -0.056589    3.663701   -0.007046
   17          1             0        2.326306   -0.885931    2.157466
   18          1             0        2.173141   -1.575717   -1.519565
   19          1             0       -2.146739    2.027697    0.498394
   20          1             0       -2.065305   -2.750215   -0.683026
   21          1             0       -0.604422   -1.996469   -1.343075
   22          1             0        1.098834    0.483735    2.069216
   23          1             0        3.422571   -1.360404   -0.289246
 ---------------------------------------------------------------------
 Rotational constants (GHZ):      1.3621827      1.1185335      0.7244739
 Standard basis: VSTO-3G (5D, 7F)
 There are    56 symmetry adapted basis functions of A   symmetry.
 Integral buffers will be    131072 words long.
 Raffenetti 1 integral format.
 Two-electron integral symmetry is turned on.
    56 basis functions,   168 primitive gaussians,    56 cartesian basis functions
    29 alpha electrons       29 beta electrons
       nuclear repulsion energy       306.5385381548 Hartrees.
 NAtoms=   23 NActive=   23 NUniq=   23 SFac= 7.50D-01 NAtFMM=   80 NAOKFM=F Big=F
 Initial guess read from the read-write file:
 Initial guess orbital symmetries:
       Occupied  (A) (A) (A) (A) (A) (A) (A) (A) (A) (A) (A) (A)
                 (A) (A) (A) (A) (A) (A) (A) (A) (A) (A) (A) (A)
                 (A) (A) (A) (A) (A)
       Virtual   (A) (A) (A) (A) (A) (A) (A) (A) (A) (A) (A) (A)
                 (A) (A) (A) (A) (A) (A) (A) (A) (A) (A) (A) (A)
                 (A) (A) (A)
 RHF-PM3 calculation of energy and first derivatives.
 MO and density RWFs will be updated without deorthogonalization.
 Closed-shell calculation:      29 occupied levels.
 NNHCO=    0.
 References:
  H: (PM3): J. J. P. STEWART, J. COMP. CHEM.     10, 209 (1989).
  C: (PM3): J. J. P. STEWART, J. COMP. CHEM.     10, 209 (1989).
  O: (PM3): J. J. P. STEWART, J. COMP. CHEM.     10, 209 (1989).
 Ext34=T Pulay=F Camp-King=F BShift= 0.00D+00
 It=  1 PL= 0.977D+00 DiagD=T ESCF=      9.393107 Diff= 0.506D+01 RMSDP= 0.192D+00.
 It=  2 PL= 0.459D-01 DiagD=T ESCF=      1.058113 Diff=-0.833D+01 RMSDP= 0.496D-02.
 It=  3 PL= 0.145D-01 DiagD=F ESCF=      0.436805 Diff=-0.621D+00 RMSDP= 0.254D-02.
 It=  4 PL= 0.341D-02 DiagD=F ESCF=      0.323492 Diff=-0.113D+00 RMSDP= 0.355D-03.
 It=  5 PL= 0.157D-02 DiagD=F ESCF=      0.353157 Diff= 0.297D-01 RMSDP= 0.176D-03.
 It=  6 PL= 0.810D-03 DiagD=F ESCF=      0.352550 Diff=-0.607D-03 RMSDP= 0.211D-03.
 It=  7 PL= 0.116D-03 DiagD=F ESCF=      0.352006 Diff=-0.544D-03 RMSDP= 0.164D-04.
 It=  8 PL= 0.506D-04 DiagD=F ESCF=      0.352316 Diff= 0.310D-03 RMSDP= 0.914D-05.
 It=  9 PL= 0.261D-04 DiagD=F ESCF=      0.352315 Diff=-0.151D-05 RMSDP= 0.126D-04.
 It= 10 PL= 0.142D-04 DiagD=F ESCF=      0.352313 Diff=-0.179D-05 RMSDP= 0.180D-05.
 It= 11 PL= 0.929D-05 DiagD=F ESCF=      0.352314 Diff= 0.885D-06 RMSDP= 0.127D-05.
 3-point extrapolation.
 It= 12 PL= 0.669D-05 DiagD=F ESCF=      0.352314 Diff=-0.256D-07 RMSDP= 0.270D-05.
 It= 13 PL= 0.258D-04 DiagD=F ESCF=      0.352314 Diff=-0.175D-07 RMSDP= 0.158D-05.
 It= 14 PL= 0.834D-05 DiagD=F ESCF=      0.352314 Diff= 0.324D-07 RMSDP= 0.113D-05.
 It= 15 PL= 0.602D-05 DiagD=F ESCF=      0.352314 Diff=-0.201D-07 RMSDP= 0.269D-05.
 It= 16 PL= 0.529D-06 DiagD=F ESCF=      0.352314 Diff=-0.673D-07 RMSDP= 0.956D-07.
 Energy=    0.012947546346 NIter=  17.
 Dipole moment=       1.183290       0.001947      -0.340401
 ***** Axes restored to original set *****
 -------------------------------------------------------------------
 Center     Atomic                   Forces (Hartrees/Bohr)
 Number     Number              X              Y              Z
 -------------------------------------------------------------------
    1          6           0.022270570   -0.000350128   -0.034894892
    2          8           0.013504978   -0.005928872    0.031732867
    3          6          -0.002183773   -0.000115717    0.001050945
    4          6           0.005359316   -0.010875580    0.002748522
    5          6           0.013866854   -0.006800983    0.011408242
    6          6          -0.002112142    0.019591884   -0.004083232
    7          6          -0.015796220    0.008858588   -0.007459260
    8          6          -0.018898719   -0.023627215   -0.003863193
    9          6          -0.013652525    0.011084992    0.004150550
   10          6          -0.001189428   -0.000941457    0.002461193
   11          6           0.000438920    0.001581521   -0.002307050
   12          1          -0.000225333    0.001490288    0.000682318
   13          1           0.000591561   -0.000228690    0.000066744
   14          1           0.000389546    0.002630534    0.000754103
   15          1          -0.001854812    0.003428388   -0.000949755
   16          1           0.001476982    0.001071965    0.000489466
   17          1          -0.000566735   -0.000873068    0.001204981
   18          1           0.001468372   -0.000248699   -0.001271394
   19          1          -0.000164495   -0.000081081   -0.001931892
   20          1           0.000253984    0.000934748    0.000474169
   21          1          -0.000532967   -0.000929106   -0.001180100
   22          1          -0.001046887   -0.000013954    0.001123248
   23          1          -0.001397048    0.000341643   -0.000406580
 -------------------------------------------------------------------
 Cartesian Forces:  Max     0.034894892 RMS     0.008991213

 GradGradGradGradGradGradGradGradGradGradGradGradGradGradGradGradGradGrad
 Berny optimization.
 Use GDIIS/GDPIS optimizer.
 Internal  Forces:  Max     0.030580826 RMS     0.006299927
 Search for a local minimum.
 Step number   2 out of a maximum of 102
 All quantities printed in internal units (Hartrees-Bohrs-Radians)
 Swaping is turned off.
   2   1  0.3060851E-01  0.4802259E-01  0.6373774    
 Update second derivatives using D2CorL and points  1  2
 Trust test= 4.27D-01 RLast= 7.48D-01 DXMaxT set to 3.00D-01
 RFO step:  Lambda= 2.23765427D-03.
 DIIS coeff's:      0.16205      0.83795
 Cosine:  0.993 >  0.866
 Length:  1.083
 GDIIS step was calculated using  2 of the last  2 vectors.
 Maximum step size (   0.300) exceeded in Quadratic search.
    -- Step size scaled by   0.971
 Iteration  1 RMS(Cart)=  0.04877754 RMS(Int)=  0.01752505
 Iteration  2 RMS(Cart)=  0.03007285 RMS(Int)=  0.00166345
 Iteration  3 RMS(Cart)=  0.00119284 RMS(Int)=  0.00144999
 Iteration  4 RMS(Cart)=  0.00000179 RMS(Int)=  0.00144999
 Iteration  5 RMS(Cart)=  0.00000001 RMS(Int)=  0.00144999
 Variable       Old X    -DE/DX   Delta X   Delta X   Delta X     New X
                                  (DIIS)     (GDIIS)  (Total)
    R1        2.28814   0.03058   0.14131  -0.13780   0.00351   2.29165
    R2        2.75959   0.01472   0.02631  -0.01155   0.01476   2.77435
    R3        2.81765   0.01472   0.00663   0.01052   0.01716   2.83480
    R4        2.82044   0.00520   0.03710  -0.03355   0.00354   2.82398
    R5        2.51687   0.00584   0.01724  -0.01478   0.00246   2.51933
    R6        2.80567   0.00417   0.03022  -0.02860   0.00162   2.80729
    R7        2.87754  -0.01003  -0.03888   0.03124  -0.00770   2.86984
    R8        2.88853  -0.00894  -0.03451   0.02920  -0.00534   2.88319
    R9        2.11128   0.00008  -0.00430   0.00460   0.00030   2.11159
   R10        2.57813  -0.01958  -0.06582   0.05984  -0.00598   2.57215
   R11        2.05892  -0.00146  -0.00632   0.00555  -0.00077   2.05815
   R12        2.78882  -0.01362  -0.03980   0.02916  -0.01058   2.77824
   R13        2.05863  -0.00111  -0.00687   0.00657  -0.00030   2.05833
   R14        2.59223  -0.01725  -0.06716   0.06298  -0.00413   2.58809
   R15        2.06289  -0.00131  -0.00935   0.00918  -0.00018   2.06271
   R16        2.07140   0.00240   0.02591  -0.02579   0.00012   2.07152
   R17        2.07359   0.00085   0.02508  -0.02649  -0.00141   2.07218
   R18        2.07233   0.00120   0.02517  -0.02661  -0.00144   2.07089
   R19        2.05095   0.00041   0.00607  -0.00613  -0.00006   2.05089
   R20        2.05149   0.00034   0.00476  -0.00494  -0.00018   2.05131
   R21        2.07254   0.00161   0.02623  -0.02724  -0.00102   2.07152
   R22        2.07161   0.00181   0.02593  -0.02659  -0.00066   2.07095
   R23        2.07156   0.00140   0.02692  -0.02792  -0.00100   2.07056
    A1        2.07223   0.00751   0.01271   0.01541   0.02059   2.09282
    A2        2.07257   0.00686  -0.00740   0.03685   0.02156   2.09413
    A3        2.08433  -0.00639   0.02973  -0.02193   0.00014   2.08447
    A4        2.12499   0.00202  -0.00202   0.00613   0.00401   2.12900
    A5        2.06134  -0.00470   0.02353  -0.03357  -0.01013   2.05121
    A6        2.09683   0.00268  -0.02152   0.02725   0.00563   2.10247
    A7        1.95128   0.00099   0.00367  -0.00740  -0.00374   1.94754
    A8        1.98170   0.00234   0.01002   0.00054   0.01087   1.99257
    A9        1.93107  -0.00006   0.02191  -0.02734  -0.00525   1.92581
   A10        1.78369  -0.00124  -0.02171   0.02525   0.00345   1.78714
   A11        1.90096  -0.00077  -0.01242   0.01286   0.00059   1.90155
   A12        1.90891  -0.00147  -0.00660   0.00082  -0.00562   1.90329
   A13        1.91974  -0.00028   0.01494  -0.01705  -0.00220   1.91755
   A14        2.15752  -0.00226   0.01968  -0.02814  -0.00846   2.14906
   A15        2.20592   0.00255  -0.03461   0.04520   0.01059   2.21651
   A16        1.90465   0.00152  -0.00389   0.00488   0.00109   1.90574
   A17        2.21046   0.00065  -0.02092   0.02642   0.00552   2.21598
   A18        2.16803  -0.00217   0.02476  -0.03135  -0.00657   2.16146
   A19        1.90620   0.00208  -0.00129   0.00485   0.00317   1.90937
   A20        2.16765  -0.00173   0.00798  -0.01151  -0.00405   2.16360
   A21        2.20807  -0.00023  -0.00595   0.00793   0.00144   2.20951
   A22        2.18875  -0.00109   0.00579  -0.00496   0.00082   2.18957
   A23        2.18501   0.00298  -0.01883   0.02224   0.00341   2.18842
   A24        1.90943  -0.00189   0.01263  -0.01728  -0.00463   1.90479
   A25        1.89324   0.00395   0.01694   0.00337   0.02034   1.91358
   A26        1.96274  -0.00085  -0.02412   0.02244  -0.00162   1.96112
   A27        1.95829  -0.00046  -0.01623   0.00632  -0.00943   1.94885
   A28        1.88562  -0.00566   0.00612  -0.01388  -0.00813   1.87749
   A29        1.88151   0.00085   0.02408  -0.02940  -0.00487   1.87664
   A30        1.87955   0.00198  -0.00522   0.00804   0.00328   1.88283
   A31        2.12650   0.00107  -0.00687   0.01017   0.00324   2.12974
   A32        2.13161   0.00100  -0.00940   0.01323   0.00377   2.13537
   A33        2.02506  -0.00207   0.01628  -0.02332  -0.00710   2.01796
   A34        1.92779   0.00058  -0.00469   0.00706   0.00238   1.93016
   A35        1.97150  -0.00131  -0.00046  -0.00328  -0.00372   1.96778
   A36        1.93306   0.00079  -0.00920   0.01176   0.00257   1.93563
   A37        1.87088   0.00017   0.00052   0.00056   0.00108   1.87195
   A38        1.88307  -0.00047   0.01528  -0.01784  -0.00254   1.88053
   A39        1.87401   0.00023  -0.00029   0.00040   0.00014   1.87415
    D1       -3.00843  -0.01065  -0.20192  -0.06438  -0.26447   3.01029
    D2        0.13401  -0.00674  -0.23322  -0.06678  -0.29942  -0.16541
    D3       -0.21821   0.01574   0.21543   0.03814   0.25116   0.03295
    D4       -1.92954   0.01000   0.23560   0.00239   0.23865  -1.69090
    D5        0.15490   0.00504   0.23923   0.00118   0.24106   0.39596
    D6        1.56350  -0.01653  -0.18003  -0.09584  -0.27718   1.28632
    D7        1.06626   0.00005  -0.02114  -0.00222  -0.02332   1.04294
    D8       -0.94073  -0.00054  -0.00250  -0.02962  -0.03222  -0.97295
    D9       -2.06970  -0.00024  -0.03129   0.03637   0.00514  -2.06456
   D10       -3.14146   0.00001  -0.00353   0.02440   0.02085  -3.12061
   D11        0.00499   0.00000  -0.00637   0.00577  -0.00059   0.00440
   D12       -0.00562   0.00030   0.00666  -0.01515  -0.00848  -0.01410
   D13       -2.09177   0.00025   0.00018  -0.01466  -0.01444  -2.10621
   D14        0.00335   0.00000  -0.00275  -0.01118  -0.01391  -0.01056
   D15        1.05536  -0.00004  -0.00973   0.02334   0.01357   1.06893
   D16       -2.15123  -0.00046   0.03625  -0.01112   0.02520  -2.12602
   D17        0.99072  -0.00039   0.03822  -0.02530   0.01310   1.00382
   D18       -0.02584   0.00206   0.03689   0.00107   0.03833   0.01250
   D19       -0.99438   0.00134  -0.08192  -0.00513  -0.08715  -1.08153
   D20        2.14648  -0.00204  -0.05424  -0.00303  -0.05699   2.08950
   D21       -3.09877  -0.00025  -0.07756  -0.01250  -0.09045   3.09397
   D22        0.00196   0.00011  -0.01243   0.00737  -0.00486  -0.00290
   D23        3.13396  -0.00061   0.00807   0.00040   0.00904  -3.14018
   D24       -3.14000   0.00003  -0.01436   0.02202   0.00782  -3.13218
   D25        0.02641  -0.00244  -0.02129  -0.01454  -0.03578  -0.00937
   D26        3.11689   0.00006   0.04228   0.01132   0.05329  -3.11301
   D27       -3.10588  -0.00177  -0.04168  -0.00815  -0.04924   3.12807
   D28        3.09770   0.00045   0.07258   0.01769   0.09075  -3.09473
   D29       -0.04316   0.00383   0.04553   0.01561   0.06062   0.01746
   D30        0.00871  -0.00207   0.00743  -0.00821  -0.00106   0.00765
         Item               Value     Threshold  Converged?
 Maximum Force            0.030581     0.000002     NO 
 RMS     Force            0.006300     0.000001     NO 
 Maximum Displacement     0.273907     0.000006     NO 
 RMS     Displacement     0.067425     0.000004     NO 
 Predicted change in Energy=-1.026708D-02
 GradGradGradGradGradGradGradGradGradGradGradGradGradGradGradGradGradGrad

                          Input orientation:                          
 ---------------------------------------------------------------------
 Center     Atomic     Atomic              Coordinates (Angstroms)
 Number     Number      Type              X           Y           Z
 ---------------------------------------------------------------------
    1          6             0        1.855521    0.464803    0.947221
    2          8             0        2.623139    0.225374    1.854991
    3          6             0       -1.198045    0.307987   -0.211247
    4          6             0       -0.013304   -0.454638   -0.709226
    5          6             0       -0.373727   -1.891789   -1.042401
    6          6             0        0.393109   -2.743215   -0.307766
    7          6             0        1.301201   -1.962264    0.544832
    8          6             0        1.097628   -0.626316    0.322363
    9          6             0        1.519745    1.886120    0.604504
   10          6             0       -1.868209   -0.062116    0.880198
   11          6             0       -1.640873    1.483350   -1.004525
   12          1             0       -1.608907    2.393969   -0.395091
   13          1             0        0.408198    0.034533   -1.621169
   14          1             0       -1.146915   -2.160359   -1.760907
   15          1             0        0.576934    2.168641    1.087152
   16          1             0        0.366192   -3.831915   -0.327875
   17          1             0       -2.740180    0.480100    1.231633
   18          1             0       -1.014235    1.660004   -1.886064
   19          1             0        2.040948   -2.405187    1.214201
   20          1             0        2.289163    2.590002    0.943574
   21          1             0        1.391464    2.022382   -0.475267
   22          1             0       -1.588473   -0.931779    1.466506
   23          1             0       -2.670474    1.352511   -1.355737
 ---------------------------------------------------------------------
                    Distance matrix (angstroms):
                    1          2          3          4          5
     1  C    0.000000
     2  O    1.212688   0.000000
     3  C    3.269694   4.344838   0.000000
     4  C    2.661145   3.740115   1.494387   0.000000
     5  C    3.805479   4.675304   2.491853   1.518655   0.000000
     6  C    3.742328   4.296867   3.442516   2.358797   1.361122
     7  C    2.521873   2.872246   3.460047   2.360830   2.308606
     8  C    1.468124   2.324114   2.535306   1.525720   2.372529
     9  C    1.500114   2.353567   3.246896   3.091161   4.535431
    10  C    3.761422   4.604897   1.333172   2.474069   3.045909
    11  C    4.131769   5.285938   1.485552   2.547937   3.605365
    12  H    4.186376   5.260788   2.133993   3.280121   4.506928
    13  H    2.979346   4.126266   2.154686   1.117404   2.158030
    14  H    4.820793   5.742799   2.914926   2.302301   1.089127
    15  H    2.134813   2.924521   2.880698   3.233720   4.682503
    16  H    4.722897   5.130332   4.427102   3.419861   2.195933
    17  H    4.604518   5.405428   2.118893   3.475130   4.049344
    18  H    4.206127   5.411484   2.160266   2.618879   3.706380
    19  H    2.888340   2.769370   4.459181   3.424057   3.344621
    20  H    2.168993   2.556108   4.324560   4.159680   5.578668
    21  H    2.159832   3.190042   3.116795   2.857226   4.331083
    22  H    3.752492   4.384929   2.122336   2.728119   2.948193
    23  H    5.155218   6.292977   2.137507   3.277853   3.987318
                    6          7          8          9         10
     6  C    0.000000
     7  C    1.470183   0.000000
     8  C    2.318334   1.369559   0.000000
     9  C    4.851009   3.855046   2.563224   0.000000
    10  C    3.703121   3.710551   3.070129   3.917891   0.000000
    11  C    4.741983   4.788378   3.702798   3.569412   2.447924
    12  H    5.514195   5.322495   4.118519   3.323487   2.779561
    13  H    3.072643   3.078345   2.165491   3.101214   3.383519
    14  H    2.196136   3.368819   3.425095   5.392609   3.449394
    15  H    5.109394   4.228835   2.944114   1.096203   3.316297
    16  H    1.089219   2.265271   3.351668   5.907279   4.545698
    17  H    4.751527   4.771750   4.096303   4.529586   1.085283
    18  H    4.884668   4.938758   3.816331   3.560213   3.368558
    19  H    2.268484   1.091541   2.202183   4.365627   4.569797
    20  H    5.796902   4.675275   3.485736   1.096550   4.931682
    21  H    4.871928   4.114141   2.781754   1.095869   4.099742
    22  H    3.218075   3.203373   2.935560   4.283063   1.085506
    23  H    5.220992   5.511270   4.574973   4.656740   2.764816
                   11         12         13         14         15
    11  C    0.000000
    12  H    1.096202   0.000000
    13  H    2.584185   3.337501   0.000000
    14  H    3.754028   4.777111   2.693594   0.000000
    15  H    3.124644   2.650607   3.452229   5.461073   0.000000
    16  H    5.721732   6.532011   4.077229   2.671549   6.168742
    17  H    2.686149   2.754798   4.271919   4.297186   3.724955
    18  H    1.095898   1.765032   2.176153   3.824715   3.410358
    19  H    5.796488   6.240446   4.081351   4.367342   4.804100
    20  H    4.523820   4.126185   4.079995   6.456529   1.769149
    21  H    3.125017   3.024356   2.496287   5.058810   1.768051
    22  H    3.455661   3.811373   3.801867   3.481462   3.800724
    23  H    1.095696   1.770424   3.359426   3.850409   4.144808
                   16         17         18         19         20
    16  H    0.000000
    17  H    5.538509   0.000000
    18  H    5.873220   3.753812   0.000000
    19  H    2.686701   5.584297   5.955801   0.000000
    20  H    6.823153   5.461589   4.447942   5.008669   0.000000
    21  H    5.945226   4.728914   2.812304   4.783252   1.772333
    22  H    3.930815   1.837116   4.276310   3.925212   5.264263
    23  H    6.095582   2.731382   1.766049   6.551517   5.605017
                   21         22         23
    21  H    0.000000
    22  H    4.623590   0.000000
    23  H    4.209905   3.788637   0.000000
 Stoichiometry    C10H12O
 Framework group  C1[X(C10H12O)]
 Deg. of freedom    63
 Full point group                 C1
 Largest Abelian subgroup         C1      NOp   1
 Largest concise Abelian subgroup C1      NOp   1
                         Standard orientation:                         
 ---------------------------------------------------------------------
 Center     Atomic     Atomic              Coordinates (Angstroms)
 Number     Number      Type              X           Y           Z
 ---------------------------------------------------------------------
    1          6             0       -1.731046   -0.701718   -0.062638
    2          8             0       -2.820683   -0.549449    0.447378
    3          6             0        1.519254   -0.520240    0.243167
    4          6             0        0.652616    0.346050   -0.612212
    5          6             0        1.093707    1.798445   -0.564262
    6          6             0        0.067852    2.579250   -0.127661
    7          6             0       -1.104559    1.732856    0.137869
    8          6             0       -0.798692    0.429059   -0.148925
    9          6             0       -1.252293   -2.080072   -0.410888
   10          6             0        1.643016   -0.318993    1.555239
   11          6             0        2.284882   -1.601747   -0.428415
   12          1             0        2.009793   -2.580529   -0.018574
   13          1             0        0.677464   -0.005932   -1.672440
   14          1             0        2.096455    2.125330   -0.835996
   15          1             0       -0.606366   -2.458975    0.389657
   16          1             0        0.079590    3.659719    0.009625
   17          1             0        2.287024   -0.935757    2.173862
   18          1             0        2.105624   -1.639717   -1.508886
   19          1             0       -2.069761    2.116036    0.474053
   20          1             0       -2.078763   -2.790239   -0.533491
   21          1             0       -0.666226   -2.082790   -1.336873
   22          1             0        1.119977    0.479403    2.072266
   23          1             0        3.362228   -1.468302   -0.279866
 ---------------------------------------------------------------------
 Rotational constants (GHZ):      1.3558080      1.1203158      0.7254024
 Standard basis: VSTO-3G (5D, 7F)
 There are    56 symmetry adapted basis functions of A   symmetry.
 Integral buffers will be    131072 words long.
 Raffenetti 1 integral format.
 Two-electron integral symmetry is turned on.
    56 basis functions,   168 primitive gaussians,    56 cartesian basis functions
    29 alpha electrons       29 beta electrons
       nuclear repulsion energy       306.3921605949 Hartrees.
 NAtoms=   23 NActive=   23 NUniq=   23 SFac= 7.50D-01 NAtFMM=   80 NAOKFM=F Big=F
 Initial guess read from the read-write file:
 Initial guess orbital symmetries:
       Occupied  (A) (A) (A) (A) (A) (A) (A) (A) (A) (A) (A) (A)
                 (A) (A) (A) (A) (A) (A) (A) (A) (A) (A) (A) (A)
                 (A) (A) (A) (A) (A)
       Virtual   (A) (A) (A) (A) (A) (A) (A) (A) (A) (A) (A) (A)
                 (A) (A) (A) (A) (A) (A) (A) (A) (A) (A) (A) (A)
                 (A) (A) (A)
 RHF-PM3 calculation of energy and first derivatives.
 MO and density RWFs will be updated without deorthogonalization.
 Closed-shell calculation:      29 occupied levels.
 NNHCO=    0.
 References:
  H: (PM3): J. J. P. STEWART, J. COMP. CHEM.     10, 209 (1989).
  C: (PM3): J. J. P. STEWART, J. COMP. CHEM.     10, 209 (1989).
  O: (PM3): J. J. P. STEWART, J. COMP. CHEM.     10, 209 (1989).
 Ext34=T Pulay=F Camp-King=F BShift= 0.00D+00
 It=  1 PL= 0.986D+00 DiagD=T ESCF=      9.514427 Diff= 0.518D+01 RMSDP= 0.192D+00.
 It=  2 PL= 0.457D-01 DiagD=T ESCF=      0.924536 Diff=-0.859D+01 RMSDP= 0.503D-02.
 It=  3 PL= 0.148D-01 DiagD=F ESCF=      0.279349 Diff=-0.645D+00 RMSDP= 0.257D-02.
 It=  4 PL= 0.240D-02 DiagD=F ESCF=      0.162452 Diff=-0.117D+00 RMSDP= 0.369D-03.
 It=  5 PL= 0.120D-02 DiagD=F ESCF=      0.192454 Diff= 0.300D-01 RMSDP= 0.185D-03.
 It=  6 PL= 0.727D-03 DiagD=F ESCF=      0.191793 Diff=-0.661D-03 RMSDP= 0.229D-03.
 It=  7 PL= 0.101D-03 DiagD=F ESCF=      0.191169 Diff=-0.624D-03 RMSDP= 0.191D-04.
 It=  8 PL= 0.632D-04 DiagD=F ESCF=      0.191528 Diff= 0.359D-03 RMSDP= 0.110D-04.
 It=  9 PL= 0.456D-04 DiagD=F ESCF=      0.191526 Diff=-0.217D-05 RMSDP= 0.164D-04.
 It= 10 PL= 0.140D-04 DiagD=F ESCF=      0.191523 Diff=-0.296D-05 RMSDP= 0.221D-05.
 It= 11 PL= 0.104D-04 DiagD=F ESCF=      0.191524 Diff= 0.152D-05 RMSDP= 0.155D-05.
 3-point extrapolation.
 It= 12 PL= 0.748D-05 DiagD=F ESCF=      0.191524 Diff=-0.385D-07 RMSDP= 0.343D-05.
 It= 13 PL= 0.296D-04 DiagD=F ESCF=      0.191524 Diff=-0.231D-07 RMSDP= 0.191D-05.
 It= 14 PL= 0.919D-05 DiagD=F ESCF=      0.191524 Diff= 0.432D-07 RMSDP= 0.135D-05.
 It= 15 PL= 0.665D-05 DiagD=F ESCF=      0.191524 Diff=-0.288D-07 RMSDP= 0.334D-05.
 It= 16 PL= 0.402D-06 DiagD=F ESCF=      0.191524 Diff=-0.103D-06 RMSDP= 0.848D-07.
 Energy=    0.007038523133 NIter=  17.
 Dipole moment=       1.167025      -0.011529      -0.460698
 ***** Axes restored to original set *****
 -------------------------------------------------------------------
 Center     Atomic                   Forces (Hartrees/Bohr)
 Number     Number              X              Y              Z
 -------------------------------------------------------------------
    1          6          -0.019242102    0.003433617    0.006433539
    2          8           0.018892066   -0.004279030    0.010467631
    3          6          -0.003114615   -0.001586645    0.001386502
    4          6           0.006175947   -0.006229232    0.000423052
    5          6           0.009764886   -0.005935678    0.009754307
    6          6          -0.003873823    0.013756172   -0.002471982
    7          6          -0.005680945    0.009040783   -0.009376617
    8          6          -0.003506455   -0.016392632   -0.009528641
    9          6           0.002590810    0.001961869   -0.007152206
   10          6          -0.000508537   -0.000599977    0.000238405
   11          6           0.000576091    0.001547784   -0.000967349
   12          1          -0.000050825    0.001750360    0.000993987
   13          1           0.000587671   -0.000034792   -0.000048612
   14          1           0.000458899    0.001683832    0.000487834
   15          1          -0.002415357    0.000022179    0.000463955
   16          1           0.000667299    0.000759047    0.000458306
   17          1          -0.000269956   -0.000235967    0.001081143
   18          1           0.001628183   -0.000052671   -0.001540227
   19          1          -0.001184181    0.000141397   -0.000375666
   20          1           0.000781501    0.000815775    0.000215658
[...]
 ,-0.13649382,-0.00450348,0.00005479,-0.01353831,0.00236703,0.00066926,
 -0.00376151,-0.00014987,0.00066507,0.00042234,-0.00002782,0.00006060,0
 .00003864,-0.00013551,-0.00000441,-0.00000144,-0.00004841,0.00005748,0
 .00012157,-0.00000063,-0.00002697,-0.00000542,-0.00014600,-0.00026788,
 0.00000638,0.17438686,-0.00018741,-0.00001652,-0.00022873,-0.00006058,
 -0.00004911,-0.00012667,-0.00012036,-0.00002566,-0.00019176,-0.0151331
 0,-0.00556858,-0.01700995,-0.03425655,-0.04881096,-0.03595654,0.014635
 38,0.00543321,0.01419263,0.00155827,-0.00201976,0.00037574,-0.00045876
 ,-0.00210665,-0.00062462,-0.00003000,0.00001832,-0.00003663,-0.0000303
 1,-0.00004243,-0.00006351,-0.00005030,-0.00013833,-0.00010032,0.000011
 05,0.00000350,0.00001001,-0.00033011,-0.00038729,-0.00015422,0.0344450
 8,0.05329297,-0.00056461,-0.00026100,0.00013367,0.00020241,0.00003729,
 0.00005001,0.00029384,-0.00021326,-0.00000042,-0.00713978,-0.00491516,
 -0.00262609,-0.13648305,-0.03396431,-0.18085678,-0.01218114,-0.0001144
 3,-0.00339877,-0.00358993,-0.00002436,0.00264802,0.00024424,0.00010735
 ,-0.00015027,0.00004046,0.00003794,-0.00000846,0.00001761,0.00003690,-
 0.00007074,0.00000890,-0.00002812,0.00003234,-0.00001114,0.00000899,-0
 .00001712,-0.00015729,-0.00030081,0.00000810,0.15797603,0.03922442,0.1
 8591296,0.00121409,0.00686608,-0.00371173,0.00003731,-0.00056275,0.001
 39940,0.00037538,0.00025686,0.00018471,0.00011843,-0.00034582,-0.00018
 238,-0.00006545,-0.00010567,-0.00000595,-0.00005731,0.00003423,-0.0000
 8571,0.00002990,0.00016965,-0.00001490,-0.00020364,-0.00018212,0.00015
 847,-0.26978685,0.06660955,-0.03816960,-0.00014378,0.00000984,0.000224
 71,-0.00038184,-0.00009455,-0.00005929,-0.00009593,0.00043112,-0.00036
 383,0.00006969,0.00005767,0.00001675,0.00001917,0.00000015,0.00000246,
 0.31267411,0.02333672,-0.00716269,0.00497087,-0.00098982,-0.00243024,0
 .00250642,-0.00030040,-0.00000803,-0.00002568,-0.00030672,-0.00090786,
 -0.00056453,0.00000481,-0.00006229,0.00000831,-0.00000843,0.00007096,-
 0.00012279,0.00011477,0.00029113,0.00011015,-0.00099917,-0.00149545,0.
 00035767,0.06881786,-0.05912259,0.00980244,-0.00008341,-0.00008280,0.0
 0015263,-0.00006981,0.00008436,-0.00016031,-0.00022474,-0.00008167,-0.
 00017361,-0.00003287,-0.00022056,-0.00039989,0.00000150,0.00002014,-0.
 00001772,-0.07666013,0.06488445,-0.00936759,0.00595584,0.00077727,0.00
 044475,0.00116683,-0.00104307,-0.00009813,-0.00010432,0.00012565,-0.00
 018310,-0.00040029,-0.00002929,0.00003194,-0.00005534,-0.00003720,-0.0
 0005921,-0.00000807,-0.00000167,-0.00007303,0.00001397,-0.00003072,0.0
 0054608,-0.00035425,-0.00015631,-0.03887829,0.01013870,-0.04399249,-0.
 00010742,-0.00014866,-0.00009405,-0.00021998,-0.00017021,-0.00003442,-
 0.00022436,0.00032840,-0.00045081,-0.00003059,-0.00012779,-0.00026996,
 -0.00000126,0.00000368,0.00000201,0.04314839,-0.01127224,0.04783754,0.
 00009951,-0.00014719,0.00012018,-0.00002444,-0.00002647,0.00002048,-0.
 00011526,-0.00057915,-0.00014380,0.00262039,0.00146778,-0.00435405,0.0
 0395290,0.01741762,-0.00100104,-0.04093813,0.00595338,0.00053324,0.003
 13428,-0.01535935,-0.00486992,-0.00080756,-0.00055896,-0.00193570,-0.0
 0004932,-0.00006293,-0.00002297,-0.00000857,-0.00003301,0.00000142,0.0
 0001294,-0.00001329,-0.00000295,0.00000219,-0.00000644,-0.00000181,0.0
 0010335,0.00068392,0.00037213,-0.00147100,-0.00004659,0.00127650,-0.00
 000107,-0.00000184,-0.00000785,0.03367247,-0.00027447,-0.00033145,-0.0
 0034566,0.00015487,0.00001284,0.00021989,0.00002848,-0.00019311,0.0000
 0312,0.00097079,-0.00018778,-0.00031294,0.00351347,-0.01514829,-0.0000
 7637,0.00694220,-0.31479194,-0.03704755,-0.00268852,-0.01009024,-0.005
 22297,0.00005700,0.00012727,-0.00008626,0.00000804,0.00003840,0.000023
 40,-0.00004145,0.00002948,0.00000831,-0.00001777,-0.00000042,0.0000144
 4,0.00000080,-0.00000557,-0.00000146,-0.00001436,0.00004656,0.00005252
 ,0.00015891,-0.00006740,0.00058383,0.00000491,-0.00001006,-0.00000458,
 -0.00852047,0.34050868,0.00012303,-0.00018013,0.00003860,0.00000824,-0
 .00001587,-0.00003459,0.00037056,0.00076387,0.00024416,-0.00453069,0.0
 0003987,0.00249279,-0.00337957,0.01446891,0.00647265,0.00089540,-0.038
 23089,-0.04582860,-0.00284033,-0.01814134,-0.00028685,-0.00169446,-0.0
 0081137,-0.00096159,-0.00004363,-0.00005875,-0.00003998,-0.00003613,0.
 00002862,-0.00000956,-0.00004401,-0.00001053,0.00001945,-0.00000218,-0
 .00000235,-0.00000034,-0.00004438,-0.00050773,-0.00022281,0.00126833,0
 .00037559,-0.00132922,-0.00001150,-0.00000221,-0.00000300,0.01012245,0
 .04251012,0.03975769,-0.00001824,0.00018325,0.00004924,0.00001728,-0.0
 0005241,0.00001640,-0.00467323,0.00555137,0.00804289,0.00210304,0.0028
 3566,0.00203856,-0.00048488,0.00013079,0.00016021,0.00004890,0.0000501
 0,-0.00000959,0.00001179,0.00000599,0.00006214,0.00013604,-0.00024684,
 -0.00013936,0.00002995,-0.00003398,-0.00001407,-0.23746784,0.10481686,
 0.07569985,-0.00120114,-0.00265194,-0.00095647,0.00018132,-0.00016975,
 0.00028959,0.00010229,-0.00011042,-0.00007549,0.00002175,0.00000196,-0
 .00001111,-0.00004123,-0.00002284,0.00001504,0.00003065,0.00001202,-0.
 00003005,0.24999389,0.00000973,0.00012077,0.00031034,-0.00001470,-0.00
 001031,-0.00014865,-0.00368737,0.00939531,0.00364065,0.00307851,0.0037
 4150,0.00300892,-0.00075903,0.00004943,0.00024819,-0.00002347,0.000142
 16,-0.00012717,0.00002236,0.00013680,0.00019617,0.00035688,-0.00040383
 ,-0.00039597,0.00000867,-0.00001597,-0.00005568,0.10695731,-0.09607261
 ,-0.04081067,-0.00278776,-0.00281492,-0.00109450,0.00026198,-0.0002467
 1,0.00042307,0.00011129,-0.00011080,-0.00014327,0.00004479,-0.00000621
 ,-0.00004377,-0.00000217,0.00001258,0.00003425,0.00002615,-0.00000090,
 -0.00005111,-0.12081445,0.09131567,0.00004708,0.00013069,0.00004332,-0
 .00002449,-0.00004016,-0.00002707,0.02371939,-0.00822954,-0.00787991,0
 .00198866,0.00311723,-0.00040795,-0.00043082,0.00026416,0.00016630,0.0
 0009387,0.00005258,0.00007869,-0.00003746,-0.00007680,-0.00002142,-0.0
 0015894,-0.00006977,-0.00005751,0.00000684,-0.00001748,-0.00001225,0.0
 7219449,-0.03808801,-0.06707033,-0.00053698,-0.00140301,-0.00233925,0.
 00021130,-0.00020013,0.00024585,0.00037659,-0.00031251,-0.00013907,0.0
 0003953,-0.00000014,-0.00002404,0.00000779,-0.00000342,0.00001222,0.00
 002898,0.00000196,-0.00003357,-0.08754848,0.03597605,0.07297640,-0.000
 02279,-0.00005703,-0.00008139,0.00002100,0.00000872,0.00005193,0.00072
 643,-0.00266315,-0.01094491,-0.00073105,0.00071750,-0.00083137,-0.0001
 1851,0.00019406,0.00003857,0.00007435,-0.00002682,0.00006436,-0.000006
 29,-0.00007194,-0.00003999,-0.00002598,0.00004251,0.00003206,-0.000008
 49,0.00001761,0.00000674,-0.00019639,0.00069982,-0.00039847,-0.0463551
 7,-0.01677638,-0.03600948,-0.00399803,-0.01382431,-0.01659891,-0.00076
 580,0.00013018,0.00007320,0.00004386,-0.00003663,0.00002113,0.00001156
 ,-0.00001406,-0.00000533,0.00001063,0.00000816,-0.00000065,-0.00011053
 ,-0.00012708,-0.00000401,0.05025950,-0.00002129,-0.00002183,0.00007138
 ,0.00000021,0.00001814,-0.00003519,0.00306806,0.00930953,0.01630742,0.
 00036422,-0.00001889,0.00025062,0.00014823,-0.00009331,0.00010869,-0.0
 0006566,0.00000221,-0.00007373,0.00001483,0.00005428,0.00003255,-0.000
 02873,-0.00002917,-0.00002120,-0.00000940,0.00002732,-0.00002640,0.000
 63827,-0.00164608,0.00071825,-0.01652160,-0.08454866,-0.09801859,-0.00
 974329,-0.01602563,-0.02092754,0.00010647,0.00005797,-0.00011011,-0.00
 019741,0.00023530,-0.00011295,0.00001479,-0.00001627,0.00001908,-0.000
 00150,-0.00000466,0.00000193,0.00035124,0.00041901,0.00019859,0.018800
 93,0.09773687,-0.00001463,-0.00005442,-0.00005268,0.00001469,0.0000098
 1,0.00003094,-0.00571971,-0.00077562,-0.01797909,-0.00060064,0.0003372
 6,0.00002371,0.00000303,0.00014242,0.00000256,0.00003859,-0.00001205,0
 .00003414,-0.00000299,-0.00004448,-0.00000503,0.00003815,0.00001087,-0
 .00002773,0.00000833,0.00000487,0.00002190,-0.00084862,0.00077079,-0.0
 0026774,-0.03616222,-0.09804465,-0.24412647,-0.00442158,-0.00627064,-0
 .00074431,-0.00042294,0.00011030,-0.00013530,-0.00007831,0.00012163,-0
 .00004562,0.00000150,0.00000410,-0.00001666,0.00000020,0.00000449,0.00
 000650,-0.00020966,-0.00026668,-0.00012071,0.04231132,0.11480210,0.279
 98200,-0.00070141,0.00048073,0.00294385,-0.00025907,0.00045722,-0.0005
 1250,0.00039067,-0.00006762,0.00063072,0.00307323,0.00023068,-0.003485
 87,-0.00013071,-0.00028598,-0.00126940,-0.00647579,0.00411138,-0.01239
 198,-0.16290745,0.08436243,-0.10742449,0.00335156,0.00351509,-0.005470
 55,0.00014338,-0.00015919,-0.00025036,0.00000094,-0.00004299,0.0000310
 3,0.00008006,-0.00004165,-0.00005831,0.00000471,0.00000206,-0.00000087
 ,-0.00049192,0.00010048,-0.00040596,-0.00018475,0.00007507,0.00008454,
 -0.00001061,-0.00001773,0.00000749,-0.00019899,-0.00029364,-0.00013841
 ,-0.00001279,-0.00002104,0.00000960,-0.00000039,-0.00000159,-0.0000057
 5,0.16433501,-0.00017583,-0.00121286,0.00056261,-0.00010194,0.00008999
 ,-0.00034117,0.00015258,-0.00002506,0.00030943,0.00070176,-0.00184908,
 -0.00081093,-0.00107392,-0.00148416,-0.00153185,-0.00841685,0.00850243
 ,-0.00824971,0.08313078,-0.09938611,0.07549478,0.01839205,-0.01322934,
 0.01489887,0.00009242,0.00019519,-0.00004464,-0.00003943,-0.00000074,-
 0.00000006,0.00003711,-0.00002347,-0.00002933,0.00000138,0.00000130,0.
 00000019,0.00000217,0.00003284,0.00003270,-0.00009694,0.00023185,-0.00
 002827,0.00001784,0.00001009,0.00000755,-0.00019980,0.00007314,-0.0001
 7596,-0.00000289,-0.00000552,-0.00000495,-0.00000065,-0.00000199,-0.00
 000145,-0.09244106,0.10805274,0.00237740,0.00051890,-0.00048485,-0.000
 76649,0.00043830,-0.00065365,-0.00038633,0.00020852,-0.00054655,-0.003
 22316,-0.00125786,0.00329252,-0.00135485,-0.00084455,-0.00047812,-0.01
 454710,0.00432175,-0.00779845,-0.10775370,0.07602017,-0.13932568,-0.00
 235277,0.00069770,0.00679386,-0.00019894,0.00011409,0.00002455,0.00006
 297,-0.00000364,-0.00002045,-0.00002695,0.00001853,0.00001332,-0.00000
 444,0.00000960,0.00000236,0.00057340,-0.00006236,0.00041865,0.00006039
 ,0.00015979,-0.00018907,0.00000217,0.00005501,0.00000329,-0.00013382,-
 0.00028942,-0.00028117,-0.00000193,0.00001695,-0.00000690,-0.00001031,
 -0.00000030,-0.00000058,0.12767347,-0.08008008,0.13919873,0.00433969,-
 0.00174389,0.00165239,-0.00031704,-0.00018012,-0.00009890,-0.00005564,
 -0.00003488,-0.00003935,0.00000334,-0.00003189,-0.00001601,-0.00000188
 ,0.00002173,0.00000883,-0.00000911,0.00000151,0.00005014,0.00001157,-0
 .00004477,0.00005320,0.00043230,0.00030452,-0.00046904,-0.08969483,-0.
 07464032,-0.06896639,0.00001823,0.00002198,0.00002178,-0.00002172,-0.0
 0000763,-0.00000894,0.00000134,-0.00000486,0.00000745,-0.00000774,-0.0
 0000011,0.00001039,-0.00000449,-0.00000165,-0.00000214,-0.02018300,-0.
 01590179,-0.02070363,0.00000515,-0.00000429,-0.00000008,-0.00000350,-0
 .00001290,-0.00000456,-0.00000232,-0.00000540,0.00000047,0.00002476,-0
 .00000547,-0.00000926,0.09826795,-0.01187251,-0.02225599,-0.01378965,0
 .00100070,-0.00293833,0.00259653,0.00004768,0.00000814,0.00001838,0.00
 011134,0.00008781,0.00005522,0.00000181,-0.00002230,0.00000906,0.00005
 934,-0.00006750,-0.00005052,-0.00022131,-0.00018138,-0.00025207,0.0002
 4899,-0.00191420,0.00140988,-0.07320359,-0.15496856,-0.10451189,0.0000
 0437,0.00003002,0.00001211,-0.00000450,0.00001208,0.00001368,-0.000002
 03,0.00000242,-0.00000982,-0.00000007,-0.00000727,0.00000768,0.0000020
 7,-0.00000261,0.00000098,-0.00202115,0.00409589,0.00078352,-0.00001159
 ,0.00000044,-0.00001075,-0.00001216,-0.00000520,-0.00000077,0.00000283
 ,0.00000124,0.00000205,-0.00002807,0.00001316,0.00000248,0.08604072,0.
 17920909,0.00508912,0.00576510,0.01148029,-0.00038684,0.00048442,-0.00
 108595,-0.00001548,0.00000126,-0.00000219,-0.00007867,-0.00007818,-0.0
 0005302,0.00000040,0.00003716,0.00000858,-0.00000358,0.00004953,0.0000
 4929,0.00018488,0.00006071,0.00019746,-0.00045177,0.00160444,-0.000711
 89,-0.06929545,-0.10708896,-0.13995499,-0.00000527,-0.00001941,-0.0000
 1105,0.00000476,-0.00000716,-0.00000369,-0.00000394,-0.00000176,-0.000
 00108,0.00001215,0.00000967,0.00000308,-0.00000616,-0.00000104,-0.0000
 0522,-0.00939580,-0.00396840,-0.00338657,0.00001260,-0.00000591,0.0000
 1076,0.00000414,0.00000592,0.00000650,0.00000019,0.00000323,-0.0000024
 5,0.00001719,-0.00002494,0.00000379,0.08135181,0.12150799,0.15961253,0
 .00376942,-0.00194441,0.00144963,-0.00070981,0.00067912,-0.00061545,-0
 .00005015,0.00000670,0.00002605,-0.00022142,-0.00025828,-0.00002804,0.
 00002368,-0.00003125,-0.00000963,-0.00004352,0.00001131,-0.00002984,-0
 .00000829,0.00007333,0.00003125,-0.00020075,-0.00049950,0.00009017,-0.
 09794625,-0.00324892,0.10959511,-0.00001043,-0.00003825,-0.00001984,-0
 .00001579,-0.00002734,-0.00003025,0.00001548,0.00001203,-0.00000194,-0
 .00023393,-0.00019857,-0.00034153,-0.00000415,0.00000944,-0.00000915,-
 0.02357745,0.00334571,0.02572158,-0.00000056,-0.00000962,-0.00000636,-
 0.00000108,0.00000943,-0.00000137,-0.00000724,0.00000204,-0.00000565,0
 .00001859,0.00000356,0.00001393,0.00721499,-0.00014098,-0.00703139,0.1
 1197514,-0.01199608,0.00033157,0.02135809,0.00222264,-0.00297384,0.001
 17973,-0.00002254,0.00002920,0.00002733,-0.00034991,-0.00010738,0.0000
 7580,0.00006546,-0.00006864,-0.00000318,-0.00015393,-0.00002069,0.0000
 2280,-0.00006772,0.00011288,0.00005598,0.00097023,-0.00141520,-0.00077
 596,-0.00461862,-0.03874494,0.00500735,0.00001265,-0.00003179,-0.00001
 391,0.00001779,0.00000282,-0.00002221,-0.00000847,0.00000794,-0.000001
 28,-0.00011928,-0.00012177,-0.00030083,-0.00001067,0.00000893,-0.00000
 209,0.00553947,0.00218324,-0.00584782,-0.00000704,-0.00000855,0.000002
 29,-0.00000334,0.00000987,-0.00000232,-0.00000571,-0.00000039,-0.00000
 074,0.00003891,0.00001952,0.00000172,0.00623915,-0.00108420,-0.0183436
 7,0.00224502,0.04187637,0.00480452,0.00712383,-0.00934264,-0.00009661,
 0.00081888,0.00016826,0.00001524,-0.00001498,-0.00000667,-0.00009501,-
 0.00015965,0.00015478,0.00001199,-0.00011094,-0.00004469,-0.00007609,0
 .00000774,-0.00010246,0.00002039,0.00016235,0.00001374,-0.00022461,-0.
 00002206,0.00014123,0.11023421,0.00348921,-0.23942452,-0.00000277,0.00
 000393,-0.00000627,-0.00001252,-0.00000839,-0.00000450,0.00002630,0.00
 000598,0.00000428,0.00018647,0.00018949,-0.00013173,0.00000255,0.00000
 106,0.00000905,0.00686713,-0.00128123,0.00077410,-0.00000738,0.0000031
 6,-0.00000079,-0.00000062,-0.00000145,-0.00000221,-0.00000575,-0.00000
 141,-0.00000045,-0.00001667,0.00001013,0.00001114,0.00716753,-0.007781
 55,-0.02616587,-0.12880627,-0.00243171,0.27396010,-0.00023677,-0.00025
 993,0.00030602,0.00001260,0.00010064,-0.00016732,0.01005972,-0.0063930
 3,0.01001442,-0.00156729,-0.00260007,-0.00054700,0.00036876,-0.0000387
 3,-0.00005085,-0.00002516,0.00004763,0.00004859,-0.00003856,0.00024854
 ,-0.00009653,-0.00014199,0.00000686,-0.00038828,0.00000087,0.00005620,
 -0.00004644,-0.08727011,0.07784405,-0.07430002,0.00147822,0.00329165,0
 .00287411,-0.00019925,0.00025514,-0.00035500,-0.00003487,0.00009274,0.
 00003041,0.00005650,0.00000303,-0.00001375,0.00002412,0.00000821,0.000
 03280,-0.00002629,0.00000538,0.00001774,-0.00849803,0.01695960,-0.0093
 6538,0.00026824,-0.00062737,0.00037457,-0.00004877,0.00002099,0.000004
 46,-0.00001657,0.00000130,-0.00000445,0.00000567,0.00001463,0.00000308
 ,0.08584785,-0.00002414,0.00037584,0.00009637,-0.00001476,-0.00011605,
 0.00002119,0.00248122,0.00318071,0.00733537,-0.00239682,-0.00282744,-0
 .00152024,0.00056086,-0.00005442,-0.00017051,-0.00017960,-0.00016741,0
 .00011281,-0.00010935,0.00001326,0.00006925,-0.00047820,-0.00001885,0.
 00008324,0.00004319,-0.00007030,-0.00002154,0.07592085,-0.16492199,0.1
 1800774,0.00317768,0.00435124,0.00247134,-0.00042959,0.00045599,-0.000
 60715,-0.00011058,0.00012773,0.00009542,0.00001931,0.00000138,-0.00000
 610,-0.00004699,-0.00003822,0.00002626,0.00002589,0.00000123,0.0000051
 9,0.01038194,-0.00526622,0.00766880,0.00021798,-0.00061148,0.00042496,
 0.00004252,0.00000531,-0.00004822,-0.00000791,-0.00001364,0.00000794,-
 0.00000275,0.00000101,-0.00000450,-0.08909340,0.16561064,0.00028903,0.
 00016536,0.00051216,-0.00007801,0.00001396,-0.00036608,-0.00599211,0.0
 1873990,-0.01561582,-0.00045864,-0.00158622,-0.00206287,0.00020319,-0.
 00029125,-0.00013257,-0.00010248,-0.00003601,-0.00010752,0.00015958,0.
 00005882,-0.00004433,0.00032709,-0.00011462,0.00000577,-0.00003011,-0.
 00002124,-0.00007329,-0.07066956,0.11560174,-0.14969016,0.00289915,0.0
 0235141,0.00024827,-0.00031408,0.00031970,-0.00044186,-0.00014396,0.00
 010670,0.00007498,0.00001747,0.00001634,-0.00004943,0.00000320,0.00001
 992,0.00001410,-0.00001252,-0.00002911,0.00000236,0.00207307,-0.000952
 60,0.00585104,0.00008219,-0.00020885,0.00015576,0.00001477,0.00000112,
 0.00003078,-0.00000629,-0.00000845,0.00001003,0.00000632,0.00001043,-0
 .00000183,0.07167262,-0.13406152,0.16158562,0.00001423,0.00005689,0.00
 005077,-0.00000821,-0.00001346,-0.00002596,-0.00910655,0.00820666,-0.0
 0004413,-0.00008941,0.00065337,-0.00037837,-0.00004852,-0.00001067,-0.
 00000234,-0.00001418,0.00001628,-0.00001693,-0.00000367,0.00002725,0.0
 0000278,-0.00000466,0.00000744,0.00000743,-0.00000709,-0.00001429,-0.0
 0002248,0.00017195,0.00061033,-0.00114050,-0.23731947,0.07796951,0.077
 60670,-0.02667428,-0.00086267,0.01082342,0.00005911,-0.00001895,-0.000
 03681,-0.00000985,0.00000285,-0.00000554,-0.00002556,0.00000104,0.0000
 1370,-0.00000231,-0.00000029,-0.00000320,-0.00016374,0.00040403,-0.000
 61154,0.00093485,0.00371353,0.00570174,0.00000091,0.00000237,0.0000022
 9,-0.00000023,-0.00000381,0.00000100,0.00000811,0.00000130,0.00000407,
 -0.00001716,0.00002288,0.00006063,0.27230604,-0.00004762,-0.00006871,-
 0.00004933,0.00001738,0.00001812,0.00003550,0.01817268,-0.00694547,-0.
 00281799,0.00085316,-0.00077788,0.00145739,0.00000472,0.00010999,0.000
 02458,0.00003402,-0.00000369,0.00002679,0.00000666,-0.00003518,0.00003
 100,0.00017415,-0.00012432,-0.00018638,-0.00000636,0.00003011,-0.00001
 149,0.00069674,-0.00106883,0.00133871,0.07652374,-0.07091088,-0.030761
 18,-0.01823466,0.00559191,0.00782335,-0.00006768,0.00001409,0.00007859
 ,0.00002839,-0.00000229,-0.00000518,0.00001027,-0.00001203,0.00001484,
 0.00000080,0.00000421,0.00000296,-0.00019957,-0.00038247,0.00103872,0.
 01276387,-0.00484247,-0.01127519,-0.00001580,-0.00000785,0.00000339,-0
 .00000202,0.00000217,0.00000131,0.00000213,-0.00000601,0.00000268,0.00
 005610,-0.00001706,-0.00009490,-0.09077094,0.07943539,0.00005871,0.000
 10324,0.00007170,-0.00002416,-0.00002849,-0.00004514,-0.01570301,0.007
 22653,0.00809921,-0.00052555,0.00146662,-0.00122986,-0.00013384,-0.000
 07240,0.00003906,-0.00001773,0.00001647,-0.00003517,0.00000588,0.00004
 458,-0.00002462,-0.00015397,0.00005454,0.00020639,-0.00000041,-0.00003
 189,-0.00001054,-0.00119513,0.00158341,-0.00104155,0.07976979,-0.03212
 756,-0.07202840,0.00711084,0.00116583,0.00039374,0.00004257,-0.0000119
 7,-0.00009523,-0.00000835,0.00001300,-0.00002307,-0.00001575,0.0000062
 1,0.00000071,0.00000524,-0.00000314,-0.00001125,0.00054603,0.00023105,
 -0.00123715,0.02224875,-0.01297851,-0.01673211,0.00001861,0.00000587,-
 0.00000616,0.00000039,-0.00000374,0.00000211,0.00000266,0.00000348,-0.
 00000114,-0.00004441,0.00001497,0.00009581,-0.09198651,0.03332150,0.08
 361340\\0.,0.,0.00000002,-0.00000001,0.,-0.00000001,0.,0.,0.00000003,0
 .00000003,0.,-0.00000002,-0.00000004,0.00000001,0.,0.00000007,0.,0.000
 00002,-0.00000003,-0.00000002,0.,0.00000003,0.00000002,0.,-0.00000005,
 0.,-0.00000003,-0.00000005,-0.00000001,0.00000008,-0.00000004,0.,0.,0.
 00000001,0.00000001,0.,0.,0.,0.,0.00000001,0.,0.,0.00000001,-0.0000000
 2,0.,-0.00000001,0.,0.,0.,0.00000001,-0.00000004,0.,0.,0.,0.,0.0000000
 2,0.,0.,0.,0.,0.,0.,0.00000001,0.00000003,0.,-0.00000003,0.,0.,-0.0000
 0002\\\@


 IF IT'S NOT TRUE, IT'S WELL INVENTED -- DANTE
 Job cpu time:  0 days  0 hours  0 minutes 15.4 seconds.
 File lengths (MBytes):  RWF=     13 Int=      0 D2E=      0 Chk=     17 Scr=      1
 Normal termination of Gaussian 03 at Thu Jun  2 07:03:27 2011.
