
Running Job 1 of 2 ch3oh.in
qchem ch3oh.in_13869.0 /scratch/edames/qchem13869/ 4
/opt/qchem/bin/mpi/mpirun_qchem -machinefile /tmp/317678.1.normal3/hostfile -np 4 /opt/qchem/exe/qcprog.exe ch3oh.in_13869.0 /scratch/edames/qchem13869/

Process 0 of 4 is on node71.cluster - thread support 0
Process 3 of 4 is on node71.cluster - thread support 0
Process 1 of 4 is on node71.cluster - thread support 0
Process 2 of 4 is on node71.cluster - thread support 0
initial socket setup ...start
initial socket setup ...done 
now start server 0 ... 
set process cleaner
set process cleaner
set process cleaner
                  Welcome to Q-Chem
     A Quantum Leap Into The Future Of Chemistry


 Q-Chem 4.2, Q-Chem, Inc., Pleasanton, CA (2014).

 Y. Shao,  Z. Gan,  E. Epifanovsky,  A. T. B. Gilbert,  M. Wormit,  
 J. Kussmann,  A. W. Lange,  A. Behn,  J. Deng,  X. Feng,  D. Ghosh,  
 M. Goldey,  P. R. Horn,  L. D. Jacobson,  I. Kaliman,  R. Z. Khaliullin,  
 T. Kus,  A. Landau,  J. Liu,  E. I. Proynov,  Y. M. Rhee,  R. M. Richard,  
 M. A. Rohrdanz,  R. P. Steele,  E. J. Sundstrom,  H. L. Woodcock III,  
 P. M. Zimmerman,  D. Zuev,  B. Albrecht,  E. Alguire,  B. Austin,  
 G. J. O. Beran,  Y. A. Bernard,  E. Berquist,  K. Brandhorst,  
 K. B. Bravaya,  S. T. Brown,  D. Casanova,  C.-M. Chang,  Y. Chen,  
 S. H. Chien,  K. D. Closser,  D. L. Crittenden,  M. Diedenhofen,  
 R. A. DiStasio Jr.,  H. Do,  A. D. Dutoi,  R. G. Edgar,  S. Fatehi,  
 L. Fusti-Molnar,  A. Ghysels,  A. Golubeva-Zadorozhnaya,  J. Gomes,  
 M. W. D. Hanson-Heine,  P. H. P. Harbach,  A. W. Hauser,  E. G. Hohenstein,  
 Z. C. Holden,  T.-C. Jagau,  H. Ji,  B. Kaduk,  K. Khistyaev,  Jaehoon Kim,  
 Jihan Kim,  R. A. King,  P. Klunzinger,  D. Kosenkov,  T. Kowalczyk,  
 C. M. Krauter,  K. U. Lao,  A. Laurent,  K. V. Lawler,  S. V. Levchenko,  
 C. Y. Lin,  F. Liu,  E. Livshits,  R. C. Lochan,  A. Luenser,  P. Manohar,  
 S. F. Manzer,  S.-P. Mao,  N. Mardirossian,  A. V. Marenich,  S. A. Maurer,  
 N. J. Mayhall,  C. M. Oana,  R. Olivares-Amaya,  D. P. O'Neill,  
 J. A. Parkhill,  T. M. Perrine,  R. Peverati,  P. A. Pieniazek,  A. Prociuk,  
 D. R. Rehn,  E. Rosta,  N. J. Russ,  N. Sergueev,  S. M. Sharada,  
 S. Sharma,  D. W. Small,  A. Sodt,  T. Stein,  D. Stuck,  Y.-C. Su,  
 A. J. W. Thom,  T. Tsuchimochi,  L. Vogt,  O. Vydrov,  T. Wang,  
 M. A. Watson,  J. Wenzel,  A. White,  C. F. Williams,  V. Vanovschi,  
 S. Yeganeh,  S. R. Yost,  Z.-Q. You,  I. Y. Zhang,  X. Zhang,  Y. Zhao,  
 B. R. Brooks,  G. K. L. Chan,  D. M. Chipman,  C. J. Cramer,  
 W. A. Goddard III,  M. S. Gordon,  W. J. Hehre,  A. Klamt,  
 H. F. Schaefer III,  M. W. Schmidt,  C. D. Sherrill,  D. G. Truhlar,  
 A. Warshel,  X. Xu,  A. Aspuru-Guzik,  R. Baer,  A. T. Bell,  N. A. Besley,  
 J.-D. Chai,  A. Dreuw,  B. D. Dunietz,  T. R. Furlani,  S. R. Gwaltney,  
 C.-P. Hsu,  Y. Jung,  J. Kong,  D. S. Lambrecht,  W. Liang,  C. Ochsenfeld,  
 V. A. Rassolov,  L. V. Slipchenko,  J. E. Subotnik,  T. Van Voorhis,  
 J. M. Herbert,  A. I. Krylov,  P. M. W. Gill,  M. Head-Gordon

 Contributors to earlier versions of Q-Chem not listed above: 
 R. D. Adamson,  J. Baker,  E. F. C. Byrd,  A. K. Chakraborty,  C.-L. Cheng,  
 H. Dachsel,  R. J. Doerksen,  G. Hawkins,  A. Heyden,  S. Hirata,  
 G. Kedziora,  F. J. Keil,  C. Kelley,  P. P. Korambath,  W. Kurlancheek,  
 A. M. Lee,  M. S. Lee,  D. Liotard,  I. Lotan,  P. E. Maslen,  N. Nair,  
 D. Neuhauser,  R. Olson,  B. Peters,  J. Ritchie,  N. E. Schultz,  
 N. Shenvi,  A. C. Simmonett,  K. S. Thanthiriwatte,  Q. Wu,  W. Zhang

 Q-Chem 4.2.0 for Intel X86 Linux

 Parts of Q-Chem use Armadillo 4.100.2 (Dirt Cruiser).
 http://arma.sourceforge.net/

 Q-Chem begins on Mon Jun 23 15:08:47 2014  

Host: 
0

     Scratch files written to /scratch/edames/qchem13869.0//
 May2514 8580_ilyak 4150   
 Parallel job on  4  processors
Processing $rem in /opt/qchem/config/preferences.
 MEM_TOTAL  2000 
Warning: disabling incdft.
 Q-Chem warning in module /home/scratch/svnadmin/8580_ilyak/qchem/forms1/BasisType.C, line 1209:

 Setting pure/cartesian flag to 2111 for general basis


Finally everything over in PARseQInput

--------------------------------------------------------------
User input:
--------------------------------------------------------------
$rem
XC_GRID 000075000434
JOBTYPE opt
EXCHANGE M08SO
SCF_ALGORITHM DIIS_GDM
BASIS gen
GUI=2
UNRESTRICTED TRUE
CORRELATION NONE
$end

$comment
c5h11o-2
$end

$molecule
0 1
H          8.44463        1.63442        1.00769
H          6.37079        0.83821        1.55314
H          6.37079        1.72344        0.04668
C          6.72745        0.84595        0.54437
O          8.12130        0.84595        0.54437
H          6.37079       -0.02381        0.03328
$end

$basis
H  0
S  3 1.00
3.386500000000E+01 2.549380000000E-02
5.094790000000E+00 1.903730000000E-01
1.158790000000E+00 8.521610000000E-01
S  1 1.00
3.258400000000E-01 1.000000000000E+00
S  1 1.00
1.027410000000E-01 1.000000000000E+00
S  1 1.00
3.600000000000E-02 1.000000000000E+00
P  1 1.00
1.500000000000E+00 1.000000000000E+00
P  1 1.00
3.750000000000E-01 1.000000000000E+00
****
C 0
S  6 1.00
4.563240000000E+03 1.966650000000E-03
6.820240000000E+02 1.523060000000E-02
1.549730000000E+02 7.612690000000E-02
4.445530000000E+01 2.608010000000E-01
1.302900000000E+01 6.164620000000E-01
1.827730000000E+00 2.210060000000E-01
S  3 1.00
2.096420000000E+01 1.146600000000E-01
4.803310000000E+00 9.199990000000E-01
1.459330000000E+00 -3.030680000000E-03
S  1 1.00
4.834560000000E-01 1.000000000000E+00
S  1 1.00
1.455850000000E-01 1.000000000000E+00
S  1 1.00
4.380000000000E-02 1.000000000000E+00
P  3 1.00
2.096420000000E+01 4.024870000000E-02
4.803310000000E+00 2.375940000000E-01
1.459330000000E+00 8.158540000000E-01
P  1 1.00
4.834560000000E-01 1.000000000000E+00
P  1 1.00
1.455850000000E-01 1.000000000000E+00
P  1 1.00
4.380000000000E-02 1.000000000000E+00
D  1 1.00
1.252000000000E+00 1.000000000000E+00
D  1 1.00
3.130000000000E-01 1.000000000000E+00
F  1 1.00
8.000000000000E-01 1.000000000000E+00
****
O  0
S  6 1.00
8.588500000000E+03 1.895150000000E-03
1.297230000000E+03 1.438590000000E-02
2.992960000000E+02 7.073200000000E-02
8.737710000000E+01 2.400010000000E-01
2.567890000000E+01 5.947970000000E-01
3.740040000000E+00 2.808020000000E-01
S  3 1.00
4.211750000000E+01 1.138890000000E-01
9.628370000000E+00 9.208110000000E-01
2.853320000000E+00 -3.274470000000E-03
S  1 1.00
9.056610000000E-01 1.000000000000E+00
S  1 1.00
2.556110000000E-01 1.000000000000E+00
S  1 1.00
8.450000000000E-02 1.000000000000E+00
P  3 1.00
4.211750000000E+01 3.651140000000E-02
9.628370000000E+00 2.371530000000E-01
2.853320000000E+00 8.197020000000E-01
P  1 1.00
9.056610000000E-01 1.000000000000E+00
P  1 1.00
2.556110000000E-01 1.000000000000E+00
P  1 1.00
8.450000000000E-02 1.000000000000E+00
D  1 1.00
2.584000000000E+00 1.000000000000E+00
D  1 1.00
6.460000000000E-01 1.000000000000E+00
F  1 1.00
1.400000000000E+00 1.000000000000E+00
****
$end

--------------------------------------------------------------
 ----------------------------------------------------------------
             Standard Nuclear Orientation (Angstroms)
    I     Atom           X                Y                Z
 ----------------------------------------------------------------
    1      H       1.1488871064     0.7438722966     0.0000029111
    2      H      -0.9571360184     0.5603433129     0.8736516519
    3      H      -0.9571361108     0.5603552267    -0.8736473735
    4      C      -0.6570955334     0.0203502027     0.0000005062
    5      O       0.7285854059    -0.1303354205    -0.0000005945
    6      H      -1.1207250239    -0.9439886884    -0.0000054703
 ----------------------------------------------------------------
 Molecular Point Group                 C1    NOp =  1
 Largest Abelian Subgroup              C1    NOp =  1
 Nuclear Repulsion Energy =    40.9660841027 hartrees
 There are        9 alpha and        9 beta electrons
 Requested basis set is non-standard
 There are 48 shells and 108 basis functions

Total QAlloc Memory Limit   2000 MB
Mega-Array Size        61 MB
MEM_STATIC part        62 MB
 A cutoff of  1.0D-12 yielded   1176 shell pairs
 There are      6016 function pairs (      7219 Cartesian)
 Smallest overlap matrix eigenvalue = 7.42E-04

  Scale SEOQF with 1.000000e-01/1.000000e-01/1.000000e-01

 Standard Electronic Orientation quadrupole field applied
 Nucleus-field energy     =     0.0000000004 hartrees
 Guess MOs from core Hamiltonian diagonalization
 An unrestricted hybrid HF-DFT SCF calculation will be
 performed using Pulay DIIS + Geometric Direct Minimization
 Exchange:     0.5679 Hartree-Fock + 1.0000 M08SO
 SCF converges when RMS gradient is below 1.0E-08
 ---------------------------------------
  Cycle       Energy         DIIS Error
 ---------------------------------------
    1     -90.3511774196      1.79E-01
    2     -91.0901914002      6.18E-02
    3    -101.9951225264      9.93E-02
    4    -109.3072235025      7.17E-02
    5    -112.7321414596      4.94E-02
    6    -114.6430109121      2.83E-02
    7    -115.4699117854      1.32E-02
    8    -115.6648928013      4.32E-03 Done DIIS. Switching to GDM
    9    -115.6814978650      1.44E-02 Normal BFGS step
   10    -115.6808869769      1.84E-02 Line search: overstep
   11    -115.6828061282      1.15E-03 Normal BFGS step
   12    -115.6828379067      4.11E-04 Normal BFGS step
   13    -115.6828394321      2.13E-04 Normal BFGS step
   14    -115.6828398017      3.48E-05 Normal BFGS step
   15    -115.6828398156      8.32E-06 Normal BFGS step
   16    -115.6828398168      1.15E-06 Normal BFGS step
   17    -115.6828398168      2.95E-07 Normal BFGS step
   GDM::WARNING energy changes are now smaller than effective accuracy.
   GDM::        calculation will continue, but THRESH should be increased
   GDM::        or SCF_CONVERGENCE decreased.
   GDM::        effective_thresh =   4.247450613881903E-009
   18    -115.6828398168      4.26E-08 Normal BFGS step
   19    -115.6828398168      1.04E-08 Normal BFGS step
   GDM::WARNING energy changes are now smaller than effective accuracy.
   GDM::        calculation will continue, but THRESH should be increased
   GDM::        or SCF_CONVERGENCE decreased.
   GDM::        effective_thresh =   4.247450613881903E-009
   20    -115.6828398168      2.26E-09 Convergence criterion met
 ---------------------------------------
 <S^2> = 0.0000
 SCF time:  CPU 92.38 s  wall 95.65 s
 SCF   energy in the final basis set = -115.6828398168
 Total energy in the final basis set = -115.6828398168
 Analysis of SCF Wavefunction
 
 --------------------------------------------------------------
                    Orbital Energies (a.u.)
 --------------------------------------------------------------
 
 Alpha MOs
 -- Occupied --
-19.562 -10.527  -1.139  -0.782  -0.596  -0.534  -0.516  -0.415
 -0.362
 -- Virtual --
 -0.026  -0.004   0.011   0.016   0.052   0.070   0.080   0.115
  0.176   0.189   0.193   0.199   0.212   0.223   0.245   0.280
  0.357   0.434   0.442   0.517   0.568   0.571   0.591   0.631
  0.632   0.647   0.718   0.759   0.855   0.884   0.978   1.008
  1.037   1.092   1.116   1.128   1.160   1.209   1.283   1.329
  1.356   1.419   1.436   1.461   1.529   1.564   1.862   1.996
  2.005   2.205   2.249   2.370   2.376   2.453   2.781   2.917
  3.064   3.072   3.080   3.129   3.174   3.259   3.326   3.393
  3.431   3.476   3.692   3.748   3.870   3.873   3.896   4.009
  4.115   4.116   4.196   4.250   4.273   4.309   4.374   4.889
  5.107   5.151   5.175   5.307   5.460   5.495   5.578   5.603
  5.807   5.902   6.508   6.937   7.071   7.122   7.157   7.433
  7.563  24.326  49.754
 
 Beta MOs
 -- Occupied --
-19.562 -10.527  -1.139  -0.782  -0.596  -0.534  -0.516  -0.415
 -0.362
 -- Virtual --
 -0.026  -0.004   0.011   0.016   0.052   0.070   0.080   0.115
  0.176   0.189   0.193   0.199   0.212   0.223   0.245   0.280
  0.357   0.434   0.442   0.517   0.568   0.571   0.591   0.631
  0.632   0.647   0.718   0.759   0.855   0.884   0.978   1.008
  1.037   1.092   1.116   1.128   1.160   1.209   1.283   1.329
  1.356   1.419   1.436   1.461   1.529   1.564   1.862   1.996
  2.005   2.205   2.249   2.370   2.376   2.453   2.781   2.917
  3.064   3.072   3.080   3.129   3.174   3.259   3.326   3.393
  3.431   3.476   3.692   3.748   3.870   3.873   3.896   4.009
  4.115   4.116   4.196   4.250   4.273   4.309   4.374   4.889
  5.107   5.151   5.175   5.307   5.460   5.495   5.578   5.603
  5.807   5.902   6.508   6.937   7.071   7.122   7.157   7.433
  7.563  24.326  49.754
 --------------------------------------------------------------
 
          Ground-State Mulliken Net Atomic Charges

     Atom                 Charge (a.u.)    Spin (a.u.)
  --------------------------------------------------------
      1 H                     0.282259       0.000000
      2 H                     0.141297       0.000000
      3 H                     0.141296       0.000000
      4 C                    -0.359126       0.000000
      5 O                    -0.359657       0.000000
      6 H                     0.153932       0.000000
  --------------------------------------------------------
  Sum of atomic charges =     0.000000
  Sum of spin   charges =     0.000000

 -----------------------------------------------------------------
                    Cartesian Multipole Moments
 -----------------------------------------------------------------
    Charge (ESU x 10^10)
                 0.0000
    Dipole Moment (Debye)
         X      -0.8418      Y       1.5695      Z       0.0000
       Tot       1.7810
    Quadrupole Moments (Debye-Ang)
        XX     -13.1315     XY       2.4298     YY     -12.3561
        XZ       0.0000     YZ       0.0000     ZZ     -13.9181
    Octopole Moments (Debye-Ang^2)
       XXX       4.1255    XXY       2.3309    XYY       1.5814
       YYY       0.6558    XXZ       0.0000    XYZ       0.0000
       YYZ       0.0000    XZZ       0.2351    YZZ       0.7491
       ZZZ       0.0000
    Hexadecapole Moments (Debye-Ang^3)
      XXXX     -61.4190   XXXY       4.5521   XXYY     -12.6062
      XYYY       3.1986   YYYY     -20.7770   XXXZ       0.0000
      XXYZ       0.0000   XYYZ       0.0000   YYYZ       0.0000
      XXZZ     -14.7082   XYZZ      -0.0069   YYZZ      -6.9639
      XZZZ       0.0000   YZZZ       0.0000   ZZZZ     -20.4365
 -----------------------------------------------------------------
 Calculating analytic gradient of the SCF energy
 Gradient of Coulomb and Exchange Energy
            1           2           3           4           5           6
    1  -2.0136440   1.1454272   1.1454214   3.5959762  -5.5156054   1.6424246
    2  -2.9257500  -1.4350653  -1.4350905   0.1017590   3.2656416   2.4285052
    3  -0.0000122  -2.1844382   2.1844199   0.0000003   0.0000166   0.0000136
 Gradient of SCF Energy
            1           2           3           4           5           6
    1   0.0033306   0.0118021   0.0118015  -0.0074470  -0.0247009   0.0052138
    2   0.0089572  -0.0089704  -0.0089693  -0.0061251  -0.0003979   0.0155055
    3   0.0000000  -0.0160130   0.0160110   0.0000019  -0.0000000   0.0000001
 Max gradient component =       2.470E-02
 RMS gradient           =       1.058E-02
 Gradient time:  CPU 6.43 s  wall 6.62 s
 Geometry Optimization Parameters
   NAtoms,    NIC,     NZ,  NCons,   NDum,   NFix, NCnnct, MaxDiis
        6      27       0       0       0       0       0       0


** GEOMETRY OPTIMIZATION IN DELOCALIZED INTERNAL COORDINATES **
   Searching for a Minimum

   Optimization Cycle:   1

                       Coordinates (Angstroms)
     ATOM                X               Y               Z
      1  H         1.1488871064    0.7438722966    0.0000029111
      2  H        -0.9571360184    0.5603433129    0.8736516519
      3  H        -0.9571361108    0.5603552267   -0.8736473735
      4  C        -0.6570955334    0.0203502027    0.0000005062
      5  O         0.7285854059   -0.1303354205   -0.0000005945
      6  H        -1.1207250239   -0.9439886884   -0.0000054703
   Point Group: c1    Number of degrees of freedom:    12


   Energy is   -115.682839817


 Attempting to Generate Delocalized Internal Coordinates
 GETINT wrote B to file, NVib is           12
 calling HSSCONV
 HCONV 3*NATOMS:           18
 wrote HINT to file
  writing hessian 

 11 Hessian modes will be used to form the next step
  Hessian Eigenvalues:
     0.104792    0.104793    0.160000    0.160000    0.160000    0.160000
     0.372300    0.372307    0.372311    0.466551    0.533777

 Minimum Search - Taking Simple RFO Step
 Searching for Lamda that Minimizes Along All modes
 Value Taken    Lamda =  -0.00595840
 Step Taken.  Stepsize is  0.149297

                             Maximum     Tolerance    Cnvgd?
         Gradient           0.032956      0.000300      NO
         Displacement       0.091363      0.001200      NO
         Energy change     *********      0.000001      NO


 New Cartesian Coordinates Obtained by Inverse Iteration

 Displacement from previous Coordinates is:  0.205958
 ----------------------------------------------------------------
             Standard Nuclear Orientation (Angstroms)
    I     Atom           X                Y                Z
 ----------------------------------------------------------------
    1      H       1.1955270854     0.7181033411     0.0000027915
    2      H      -1.0107288946     0.5721584979     0.8934382080
    3      H      -1.0107287092     0.5721689914    -0.8934323973
    4      C      -0.6516207646     0.0419191755     0.0000000438
    5      O       0.7558558596    -0.1360398292    -0.0000007403
    6      H      -1.0929247506    -0.9577132466    -0.0000062749
 ----------------------------------------------------------------
 Molecular Point Group                 C1    NOp =  1
 Largest Abelian Subgroup              C1    NOp =  1
 Nuclear Repulsion Energy =    40.2504141905 hartrees
 There are        9 alpha and        9 beta electrons
 Applying Cartesian multipole field
    Component          Value
    ---------          -----
     (2,0,0)        1.00000E-11
     (0,2,0)        2.00000E-11
     (0,0,2)       -3.00000E-11
 Nucleus-field energy     =     0.0000000004 hartrees
 Requested basis set is non-standard
 There are 48 shells and 108 basis functions
 A cutoff of  1.0D-12 yielded   1176 shell pairs
 There are      6016 function pairs (      7219 Cartesian)
 Smallest overlap matrix eigenvalue = 7.92E-04
 Guess MOs from SCF MO coefficient file
Reading MOs from coefficient file
Reading MOs from coefficient file
 An unrestricted hybrid HF-DFT SCF calculation will be
 performed using Pulay DIIS + Geometric Direct Minimization
 Exchange:     0.5679 Hartree-Fock + 1.0000 M08SO
 SCF converges when RMS gradient is below 1.0E-08
Geometry optimization detected.  Setting ReadMinima to 0
Setting SaveMinima to 0
 Inaccurate integrated density:
   Number of electrons =    18
   Numerical integral  =    17.976466224132
   Relative error      =    -0.1307431993 %
 ---------------------------------------
  Cycle       Energy        RMS Gradient
 ---------------------------------------
    1    -115.6744918191      1.54E-03 Done DIIS. Switching to GDM
    2    -115.6854168165      2.51E-03 Normal BFGS step
    3    -115.6854788335      1.85E-03 Normal BFGS step
    4    -115.6855158001      3.99E-04 Normal BFGS step
    5    -115.6855167861      3.41E-04 Normal BFGS step
    6    -115.6855176625      6.27E-05 Normal BFGS step
    7    -115.6855176930      2.17E-05 Normal BFGS step
    8    -115.6855177024      2.40E-06 Normal BFGS step
    9    -115.6855177025      6.86E-07 Normal BFGS step
   10    -115.6855177025      7.30E-08 Normal BFGS step
   11    -115.6855177025      1.30E-08 Normal BFGS step
   12    -115.6855177025      3.87E-09 Convergence criterion met
 ---------------------------------------
 <S^2> = 0.0000
 SCF time:  CPU 57.85 s  wall 58.46 s
 SCF   energy in the final basis set = -115.6855177025
 Total energy in the final basis set = -115.6855177025
 Analysis of SCF Wavefunction
 
 --------------------------------------------------------------
                    Orbital Energies (a.u.)
 --------------------------------------------------------------
 
 Alpha MOs
 -- Occupied --
-19.565 -10.538  -1.134  -0.779  -0.593  -0.524  -0.507  -0.417
 -0.365
 -- Virtual --
 -0.026  -0.005   0.010   0.016   0.052   0.068   0.080   0.115
  0.177   0.188   0.194   0.197   0.212   0.218   0.238   0.274
  0.352   0.430   0.441   0.519   0.562   0.564   0.586   0.616
  0.622   0.632   0.720   0.768   0.849   0.873   0.972   1.006
  1.024   1.089   1.111   1.127   1.156   1.192   1.270   1.300
  1.337   1.411   1.422   1.453   1.509   1.568   1.868   1.989
  2.017   2.185   2.228   2.347   2.389   2.469   2.763   2.906
  3.052   3.073   3.073   3.103   3.152   3.251   3.327   3.382
  3.383   3.482   3.693   3.710   3.793   3.811   3.843   4.009
  4.083   4.094   4.168   4.203   4.247   4.279   4.299   4.858
  5.095   5.108   5.157   5.289   5.425   5.478   5.531   5.548
  5.715   5.857   6.417   6.928   7.097   7.118   7.143   7.418
  7.551  24.169  49.749
 
 Beta MOs
 -- Occupied --
-19.565 -10.538  -1.134  -0.779  -0.593  -0.524  -0.507  -0.417
 -0.365
 -- Virtual --
 -0.026  -0.005   0.010   0.016   0.052   0.068   0.080   0.115
  0.177   0.188   0.194   0.197   0.212   0.218   0.238   0.274
  0.352   0.430   0.441   0.519   0.562   0.564   0.586   0.616
  0.622   0.632   0.720   0.768   0.849   0.873   0.972   1.006
  1.024   1.089   1.111   1.127   1.156   1.192   1.270   1.300
  1.337   1.411   1.422   1.453   1.509   1.568   1.868   1.989
  2.017   2.185   2.228   2.347   2.389   2.469   2.763   2.906
  3.052   3.073   3.073   3.103   3.152   3.251   3.327   3.382
  3.383   3.482   3.693   3.710   3.793   3.811   3.843   4.009
  4.083   4.094   4.168   4.203   4.247   4.279   4.299   4.858
  5.095   5.108   5.157   5.289   5.425   5.478   5.531   5.548
  5.715   5.857   6.417   6.928   7.097   7.118   7.143   7.418
  7.551  24.169  49.749
 --------------------------------------------------------------
 
          Ground-State Mulliken Net Atomic Charges

     Atom                 Charge (a.u.)    Spin (a.u.)
  --------------------------------------------------------
      1 H                     0.277278       0.000000
      2 H                     0.137688       0.000000
      3 H                     0.137688       0.000000
      4 C                    -0.346820       0.000000
      5 O                    -0.361583       0.000000
      6 H                     0.155750       0.000000
  --------------------------------------------------------
  Sum of atomic charges =     0.000000
  Sum of spin   charges =     0.000000

 -----------------------------------------------------------------
                    Cartesian Multipole Moments
 -----------------------------------------------------------------
    Charge (ESU x 10^10)
                 0.0000
    Dipole Moment (Debye)
         X      -0.8413      Y       1.5628      Z       0.0000
       Tot       1.7749
    Quadrupole Moments (Debye-Ang)
        XX     -12.9785     XY       2.3634     YY     -12.5534
        XZ       0.0000     YZ       0.0000     ZZ     -13.9997
    Octopole Moments (Debye-Ang^2)
       XXX       4.1007    XXY       2.5273    XYY       1.4497
       YYY       0.2742    XXZ       0.0000    XYZ       0.0000
       YYZ       0.0000    XZZ       0.0226    YZZ       0.7150
       ZZZ       0.0000
    Hexadecapole Moments (Debye-Ang^3)
      XXXX     -63.3232   XXXY       5.0628   XXYY     -13.1098
      XYYY       3.7377   YYYY     -21.4827   XXXZ       0.0000
      XXYZ       0.0000   XYYZ       0.0000   YYYZ       0.0000
      XXZZ     -15.0246   XYZZ       0.0718   YYZZ      -7.1871
      XZZZ       0.0000   YZZZ       0.0000   ZZZZ     -21.0871
 -----------------------------------------------------------------
 Calculating analytic gradient of the SCF energy
 Gradient of Coulomb and Exchange Energy
            1           2           3           4           5           6
    1  -2.0995943   1.3462427   1.3462422   3.3631897  -5.4438224   1.4877421
    2  -2.8706590  -1.3307705  -1.3307947  -0.3791004   3.4642123   2.4471123
    3  -0.0000122  -2.1622849   2.1622693  -0.0000034   0.0000150   0.0000162
 Gradient of SCF Energy
            1           2           3           4           5           6
    1   0.0000928  -0.0011990  -0.0011991  -0.0013221   0.0028589   0.0007684
    2  -0.0007417  -0.0005746  -0.0005746   0.0016266  -0.0007513   0.0010155
    3  -0.0000000  -0.0007412   0.0007410   0.0000002   0.0000000  -0.0000000
 Max gradient component =       2.859E-03
 RMS gradient           =       1.053E-03
 Gradient time:  CPU 6.24 s  wall 6.37 s
 Geometry Optimization Parameters
   NAtoms,    NIC,     NZ,  NCons,   NDum,   NFix, NCnnct, MaxDiis
        6      27       0       0       0       0       0       0

 Cartesian Hessian Update
 Hessian Updated using BFGS Update


** GEOMETRY OPTIMIZATION IN DELOCALIZED INTERNAL COORDINATES **
   Searching for a Minimum

   Optimization Cycle:   2

                       Coordinates (Angstroms)
     ATOM                X               Y               Z
      1  H         1.1955270854    0.7181033411    0.0000027915
      2  H        -1.0107288946    0.5721584979    0.8934382080
      3  H        -1.0107287092    0.5721689914   -0.8934323973
      4  C        -0.6516207646    0.0419191755    0.0000000438
      5  O         0.7558558596   -0.1360398292   -0.0000007403
      6  H        -1.0929247506   -0.9577132466   -0.0000062749
   Point Group: c1    Number of degrees of freedom:    12


   Energy is   -115.685517702

 GETINT wrote B to file, NVib is           12
 Hessian Updated using BFGS Update

  9 Hessian modes will be used to form the next step
  Hessian Eigenvalues:
     0.104793    0.107313    0.159914    0.175461    0.348562    0.372309
     0.372943    0.485289    0.535287

 Minimum Search - Taking Simple RFO Step
 Searching for Lamda that Minimizes Along All modes
 Value Taken    Lamda =  -0.00010351
 Step Taken.  Stepsize is  0.022922

                             Maximum     Tolerance    Cnvgd?
         Gradient           0.003905      0.000300      NO
         Displacement       0.017282      0.001200      NO
         Energy change     -0.002678      0.000001      NO


 New Cartesian Coordinates Obtained by Inverse Iteration

 Displacement from previous Coordinates is:  0.036657
 ----------------------------------------------------------------
             Standard Nuclear Orientation (Angstroms)
    I     Atom           X                Y                Z
 ----------------------------------------------------------------
    1      H       1.1863676160     0.7227919158     0.0000027999
    2      H      -1.0012964877     0.5732305423     0.8955456801
    3      H      -1.0012961225     0.5732410986    -0.8955397705
    4      C      -0.6520593400     0.0377659815    -0.0000000893
    5      O       0.7530883823    -0.1351057518    -0.0000007711
    6      H      -1.0994242222    -0.9613268562    -0.0000062184
 ----------------------------------------------------------------
 Molecular Point Group                 C1    NOp =  1
 Largest Abelian Subgroup              C1    NOp =  1
 Nuclear Repulsion Energy =    40.2915828033 hartrees
 There are        9 alpha and        9 beta electrons
 Applying Cartesian multipole field
    Component          Value
    ---------          -----
     (2,0,0)        1.00000E-11
     (0,2,0)        2.00000E-11
     (0,0,2)       -3.00000E-11
 Nucleus-field energy     =     0.0000000004 hartrees
 Requested basis set is non-standard
 There are 48 shells and 108 basis functions
 A cutoff of  1.0D-12 yielded   1176 shell pairs
 There are      6016 function pairs (      7219 Cartesian)
 Smallest overlap matrix eigenvalue = 7.94E-04
 Guess MOs from SCF MO coefficient file
Reading MOs from coefficient file
Reading MOs from coefficient file
 An unrestricted hybrid HF-DFT SCF calculation will be
 performed using Pulay DIIS + Geometric Direct Minimization
 Exchange:     0.5679 Hartree-Fock + 1.0000 M08SO
 SCF converges when RMS gradient is below 1.0E-08
Geometry optimization detected.  Setting ReadMinima to 0
Setting SaveMinima to 0
 ---------------------------------------
  Cycle       Energy        RMS Gradient
 ---------------------------------------
    1    -115.6857584222      2.07E-04 Done DIIS. Switching to GDM
    2    -115.6855675940      2.57E-04 Normal BFGS step
    3    -115.6855688989      1.04E-04 Normal BFGS step
    4    -115.6855690155      1.38E-05 Normal BFGS step
    5    -115.6855690180      9.97E-06 Normal BFGS step
    6    -115.6855690190      1.50E-06 Normal BFGS step
    7    -115.6855690191      1.72E-06 Normal BFGS step
    8    -115.6855690191      2.91E-07 Normal BFGS step
   GDM::WARNING energy changes are now smaller than effective accuracy.
   GDM::        calculation will continue, but THRESH should be increased
   GDM::        or SCF_CONVERGENCE decreased.
   GDM::        effective_thresh =   9.000000000000000E-011
    9    -115.6855690191      9.85E-08 Normal BFGS step
   GDM::WARNING energy changes are now smaller than effective accuracy.
   GDM::        calculation will continue, but THRESH should be increased
   GDM::        or SCF_CONVERGENCE decreased.
   GDM::        effective_thresh =   9.000000000000000E-011
   10    -115.6855690191      6.59E-09 Convergence criterion met
 ---------------------------------------
 <S^2> = 0.0000
 SCF time:  CPU 51.46 s  wall 52.29 s
 SCF   energy in the final basis set = -115.6855690191
 Total energy in the final basis set = -115.6855690191
 Analysis of SCF Wavefunction
 
 --------------------------------------------------------------
                    Orbital Energies (a.u.)
 --------------------------------------------------------------
 
 Alpha MOs
 -- Occupied --
-19.565 -10.538  -1.135  -0.778  -0.593  -0.525  -0.508  -0.416
 -0.365
 -- Virtual --
 -0.026  -0.004   0.010   0.016   0.052   0.068   0.080   0.115
  0.176   0.188   0.193   0.197   0.212   0.218   0.238   0.274
  0.352   0.430   0.441   0.518   0.561   0.565   0.586   0.618
  0.622   0.630   0.720   0.767   0.850   0.872   0.971   1.006
  1.023   1.089   1.110   1.126   1.155   1.193   1.272   1.303
  1.338   1.409   1.421   1.453   1.508   1.565   1.867   1.989
  2.014   2.188   2.230   2.352   2.390   2.473   2.766   2.905
  3.054   3.068   3.071   3.105   3.154   3.258   3.328   3.380
  3.385   3.479   3.693   3.711   3.793   3.811   3.842   4.008
  4.076   4.088   4.173   4.200   4.242   4.276   4.303   4.858
  5.099   5.110   5.159   5.290   5.431   5.474   5.522   5.539
  5.723   5.858   6.425   6.929   7.097   7.119   7.144   7.418
  7.551  24.169  49.749
 
 Beta MOs
 -- Occupied --
-19.565 -10.538  -1.135  -0.778  -0.593  -0.525  -0.508  -0.416
 -0.365
 -- Virtual --
 -0.026  -0.004   0.010   0.016   0.052   0.068   0.080   0.115
  0.176   0.188   0.193   0.197   0.212   0.218   0.238   0.274
  0.352   0.430   0.441   0.518   0.561   0.565   0.586   0.618
  0.622   0.630   0.720   0.767   0.850   0.872   0.971   1.006
  1.023   1.089   1.110   1.126   1.155   1.193   1.272   1.303
  1.338   1.409   1.421   1.453   1.508   1.565   1.867   1.989
  2.014   2.188   2.230   2.352   2.390   2.473   2.766   2.905
  3.054   3.068   3.071   3.105   3.154   3.258   3.328   3.380
  3.385   3.479   3.693   3.711   3.793   3.811   3.842   4.008
  4.076   4.088   4.173   4.200   4.242   4.276   4.303   4.858
  5.099   5.110   5.159   5.290   5.431   5.474   5.522   5.539
  5.723   5.858   6.425   6.929   7.097   7.119   7.144   7.418
  7.551  24.169  49.749
 --------------------------------------------------------------
 
          Ground-State Mulliken Net Atomic Charges

     Atom                 Charge (a.u.)    Spin (a.u.)
  --------------------------------------------------------
      1 H                     0.277796       0.000000
      2 H                     0.137346       0.000000
      3 H                     0.137346       0.000000
      4 C                    -0.347002       0.000000
      5 O                    -0.360299       0.000000
      6 H                     0.154813       0.000000
  --------------------------------------------------------
  Sum of atomic charges =     0.000000
  Sum of spin   charges =     0.000000

 -----------------------------------------------------------------
                    Cartesian Multipole Moments
 -----------------------------------------------------------------
    Charge (ESU x 10^10)
                 0.0000
    Dipole Moment (Debye)
         X      -0.8412      Y       1.5619      Z       0.0000
       Tot       1.7741
    Quadrupole Moments (Debye-Ang)
        XX     -13.0410     XY       2.3784     YY     -12.5266
        XZ       0.0000     YZ       0.0000     ZZ     -13.9958
    Octopole Moments (Debye-Ang^2)
       XXX       4.1212    XXY       2.4858    XYY       1.4695
       YYY       0.3283    XXZ       0.0000    XYZ       0.0000
       YYZ       0.0000    XZZ       0.0591    YZZ       0.7359
       ZZZ       0.0000
    Hexadecapole Moments (Debye-Ang^3)
      XXXX     -63.2607   XXXY       4.9840   XXYY     -13.0650
      XYYY       3.6652   YYYY     -21.4885   XXXZ       0.0000
      XXYZ       0.0000   XYYZ       0.0000   YYYZ       0.0000
      XXZZ     -15.0266   XYZZ       0.0434   YYZZ      -7.1921
      XZZZ       0.0000   YZZZ       0.0000   ZZZZ     -21.1185
 -----------------------------------------------------------------
 Calculating analytic gradient of the SCF energy
 Gradient of Coulomb and Exchange Energy
            1           2           3           4           5           6
    1  -2.0768690   1.3009580   1.3009574   3.4265373  -5.4587846   1.5072009
    2  -2.8875859  -1.3494371  -1.3494625  -0.2960274   3.4352586   2.4472542
    3  -0.0000124  -2.1698764   2.1698606  -0.0000016   0.0000143   0.0000154
 Gradient of SCF Energy
            1           2           3           4           5           6
    1  -0.0000129   0.0000065   0.0000064  -0.0002016   0.0002666  -0.0000650
    2  -0.0001049   0.0000507   0.0000507   0.0000472   0.0001366  -0.0001803
    3  -0.0000000   0.0000984  -0.0000984   0.0000000   0.0000000  -0.0000000
 Max gradient component =       2.666E-04
 RMS gradient           =       1.068E-04
 Gradient time:  CPU 6.19 s  wall 6.67 s
 Geometry Optimization Parameters
   NAtoms,    NIC,     NZ,  NCons,   NDum,   NFix, NCnnct, MaxDiis
        6      27       0       0       0       0       0       0

 Cartesian Hessian Update
 Hessian Updated using BFGS Update


** GEOMETRY OPTIMIZATION IN DELOCALIZED INTERNAL COORDINATES **
   Searching for a Minimum

   Optimization Cycle:   3

                       Coordinates (Angstroms)
     ATOM                X               Y               Z
      1  H         1.1863676160    0.7227919158    0.0000027999
      2  H        -1.0012964877    0.5732305423    0.8955456801
      3  H        -1.0012961225    0.5732410986   -0.8955397705
      4  C        -0.6520593400    0.0377659815   -0.0000000893
      5  O         0.7530883823   -0.1351057518   -0.0000007711
      6  H        -1.0994242222   -0.9613268562   -0.0000062184
   Point Group: c1    Number of degrees of freedom:    12


   Energy is   -115.685569019

 GETINT wrote B to file, NVib is           12
 Hessian Updated using BFGS Update

 10 Hessian modes will be used to form the next step
  Hessian Eigenvalues:
     0.104793    0.107512    0.159300    0.159999    0.181195    0.353905
     0.372309    0.373894    0.469579    0.533518

 Minimum Search - Taking Simple RFO Step
 Searching for Lamda that Minimizes Along All modes
 Value Taken    Lamda =   0.00000000
 Step Taken.  Stepsize is  0.001161

                             Maximum     Tolerance    Cnvgd?
         Gradient           0.000227      0.000300     YES
         Displacement       0.000879      0.001200     YES
         Energy change     -0.000051      0.000001      NO


                       Distance Matrix (Angstroms)
             H (  1)   H (  2)   H (  3)   C (  4)   O (  5)
   H (  2)  2.368594
   H (  3)  2.368593  1.791085
   C (  4)  1.961906  1.100314  1.100314
   O (  5)  0.961103  2.093230  2.093230  1.415742
   H (  6)  2.839208  1.779469  1.779469  1.094679  2.028409
 
 Final energy is   -115.685569019061     


 ******************************
 **  OPTIMIZATION CONVERGED  **
 ******************************

Z-matrix Print:
$molecule
0 1
O 
H  1 0.961103
C  1 1.415742 2 109.782244
H  3 1.094679 1 107.107746 2 -180.000000 0
H  3 1.100314 1 111.990070 2 61.372837 0
H  3 1.100314 1 111.990072 2 -61.372637 0
$end

 Analysis of SCF Wavefunction
 
 --------------------------------------------------------------
                    Orbital Energies (a.u.)
 --------------------------------------------------------------
 
 Alpha MOs
 -- Occupied --
-19.565 -10.538  -1.135  -0.778  -0.593  -0.525  -0.508  -0.416
 -0.365
 -- Virtual --
 -0.026  -0.004   0.010   0.016   0.052   0.068   0.080   0.115
  0.176   0.188   0.193   0.197   0.212   0.218   0.238   0.274
  0.352   0.430   0.441   0.518   0.561   0.565   0.586   0.618
  0.622   0.630   0.720   0.767   0.850   0.872   0.971   1.006
  1.023   1.089   1.110   1.126   1.155   1.193   1.272   1.303
  1.338   1.409   1.421   1.453   1.508   1.565   1.867   1.989
  2.014   2.188   2.230   2.352   2.390   2.473   2.766   2.905
  3.054   3.068   3.071   3.105   3.154   3.258   3.328   3.380
  3.385   3.479   3.693   3.711   3.793   3.811   3.842   4.008
  4.076   4.088   4.173   4.200   4.242   4.276   4.303   4.858
  5.099   5.110   5.159   5.290   5.431   5.474   5.522   5.539
  5.723   5.858   6.425   6.929   7.097   7.119   7.144   7.418
  7.551  24.169  49.749
 
 Beta MOs
 -- Occupied --
-19.565 -10.538  -1.135  -0.778  -0.593  -0.525  -0.508  -0.416
 -0.365
 -- Virtual --
 -0.026  -0.004   0.010   0.016   0.052   0.068   0.080   0.115
  0.176   0.188   0.193   0.197   0.212   0.218   0.238   0.274
  0.352   0.430   0.441   0.518   0.561   0.565   0.586   0.618
  0.622   0.630   0.720   0.767   0.850   0.872   0.971   1.006
  1.023   1.089   1.110   1.126   1.155   1.193   1.272   1.303
  1.338   1.409   1.421   1.453   1.508   1.565   1.867   1.989
  2.014   2.188   2.230   2.352   2.390   2.473   2.766   2.905
  3.054   3.068   3.071   3.105   3.154   3.258   3.328   3.380
  3.385   3.479   3.693   3.711   3.793   3.811   3.842   4.008
  4.076   4.088   4.173   4.200   4.242   4.276   4.303   4.858
  5.099   5.110   5.159   5.290   5.431   5.474   5.522   5.539
  5.723   5.858   6.425   6.929   7.097   7.119   7.144   7.418
  7.551  24.169  49.749
 --------------------------------------------------------------
 
          Ground-State Mulliken Net Atomic Charges

     Atom                 Charge (a.u.)    Spin (a.u.)
  --------------------------------------------------------
      1 H                     0.277796       0.000000
      2 H                     0.137346       0.000000
      3 H                     0.137346       0.000000
      4 C                    -0.347002       0.000000
      5 O                    -0.360299       0.000000
      6 H                     0.154813       0.000000
  --------------------------------------------------------
  Sum of atomic charges =     0.000000
  Sum of spin   charges =     0.000000

 -----------------------------------------------------------------
                    Cartesian Multipole Moments
 -----------------------------------------------------------------
    Charge (ESU x 10^10)
                 0.0000
    Dipole Moment (Debye)
         X      -0.8412      Y       1.5619      Z       0.0000
       Tot       1.7741
    Quadrupole Moments (Debye-Ang)
        XX     -13.0410     XY       2.3784     YY     -12.5266
        XZ       0.0000     YZ       0.0000     ZZ     -13.9958
    Octopole Moments (Debye-Ang^2)
       XXX       4.1212    XXY       2.4858    XYY       1.4695
       YYY       0.3283    XXZ       0.0000    XYZ       0.0000
       YYZ       0.0000    XZZ       0.0591    YZZ       0.7359
       ZZZ       0.0000
    Hexadecapole Moments (Debye-Ang^3)
      XXXX     -63.2607   XXXY       4.9840   XXYY     -13.0650
      XYYY       3.6652   YYYY     -21.4885   XXXZ       0.0000
      XXYZ       0.0000   XYYZ       0.0000   YYYZ       0.0000
      XXZZ     -15.0266   XYZZ       0.0434   YYZZ      -7.1921
      XZZZ       0.0000   YZZZ       0.0000   ZZZZ     -21.1185
 -----------------------------------------------------------------
Archival summary:
1\1\node71\OPT\ProcedureUnspecified\BasisUnspecified\114\edames\MonJun2315:12:352014MonJun2315:12:352014\0\\#,OPT,ProcedureUnspecified,BasisUnspecified,\\0,1\O\H,1,0.961103\C,1,1.41574,2,109.782\H,3,1.09468,1,107.108,2,-180,0\H,3,1.10031,1,111.99,2,61.3728,0\H,3,1.10031,1,111.99,2,-61.3726,0\\\@

 Total job time:  227.55s(wall), 221.28s(cpu) 
 Mon Jun 23 15:12:35 2014

        *************************************************************
        *                                                           *
        *  Thank you very much for using Q-Chem.  Have a nice day.  *
        *                                                           *
        *************************************************************


0 sent ACK to 0 
now end server 0 ... 
cleanup process ... done

Running Job 2 of 2 ch3oh.in
qchem ch3oh.in_13869.1 /scratch/edames/qchem13869/ 4
/opt/qchem/bin/mpi/mpirun_qchem -machinefile /tmp/317678.1.normal3/hostfile -np 4 /opt/qchem/exe/qcprog.exe ch3oh.in_13869.1 /scratch/edames/qchem13869/

Process 1 of 4 is on node71.cluster - thread support 0
Process 2 of 4 is on node71.cluster - thread support 0
Process 0 of 4 is on node71.cluster - thread support 0
Process 3 of 4 is on node71.cluster - thread support 0
initial socket setup ...start
initial socket setup ...done 
now start server 0 ... 
set process cleaner
set process cleaner
set process cleaner
                  Welcome to Q-Chem
     A Quantum Leap Into The Future Of Chemistry


 Q-Chem 4.2, Q-Chem, Inc., Pleasanton, CA (2014).

 Y. Shao,  Z. Gan,  E. Epifanovsky,  A. T. B. Gilbert,  M. Wormit,  
 J. Kussmann,  A. W. Lange,  A. Behn,  J. Deng,  X. Feng,  D. Ghosh,  
 M. Goldey,  P. R. Horn,  L. D. Jacobson,  I. Kaliman,  R. Z. Khaliullin,  
 T. Kus,  A. Landau,  J. Liu,  E. I. Proynov,  Y. M. Rhee,  R. M. Richard,  
 M. A. Rohrdanz,  R. P. Steele,  E. J. Sundstrom,  H. L. Woodcock III,  
 P. M. Zimmerman,  D. Zuev,  B. Albrecht,  E. Alguire,  B. Austin,  
 G. J. O. Beran,  Y. A. Bernard,  E. Berquist,  K. Brandhorst,  
 K. B. Bravaya,  S. T. Brown,  D. Casanova,  C.-M. Chang,  Y. Chen,  
 S. H. Chien,  K. D. Closser,  D. L. Crittenden,  M. Diedenhofen,  
 R. A. DiStasio Jr.,  H. Do,  A. D. Dutoi,  R. G. Edgar,  S. Fatehi,  
 L. Fusti-Molnar,  A. Ghysels,  A. Golubeva-Zadorozhnaya,  J. Gomes,  
 M. W. D. Hanson-Heine,  P. H. P. Harbach,  A. W. Hauser,  E. G. Hohenstein,  
 Z. C. Holden,  T.-C. Jagau,  H. Ji,  B. Kaduk,  K. Khistyaev,  Jaehoon Kim,  
 Jihan Kim,  R. A. King,  P. Klunzinger,  D. Kosenkov,  T. Kowalczyk,  
 C. M. Krauter,  K. U. Lao,  A. Laurent,  K. V. Lawler,  S. V. Levchenko,  
 C. Y. Lin,  F. Liu,  E. Livshits,  R. C. Lochan,  A. Luenser,  P. Manohar,  
 S. F. Manzer,  S.-P. Mao,  N. Mardirossian,  A. V. Marenich,  S. A. Maurer,  
 N. J. Mayhall,  C. M. Oana,  R. Olivares-Amaya,  D. P. O'Neill,  
 J. A. Parkhill,  T. M. Perrine,  R. Peverati,  P. A. Pieniazek,  A. Prociuk,  
 D. R. Rehn,  E. Rosta,  N. J. Russ,  N. Sergueev,  S. M. Sharada,  
 S. Sharma,  D. W. Small,  A. Sodt,  T. Stein,  D. Stuck,  Y.-C. Su,  
 A. J. W. Thom,  T. Tsuchimochi,  L. Vogt,  O. Vydrov,  T. Wang,  
 M. A. Watson,  J. Wenzel,  A. White,  C. F. Williams,  V. Vanovschi,  
 S. Yeganeh,  S. R. Yost,  Z.-Q. You,  I. Y. Zhang,  X. Zhang,  Y. Zhao,  
 B. R. Brooks,  G. K. L. Chan,  D. M. Chipman,  C. J. Cramer,  
 W. A. Goddard III,  M. S. Gordon,  W. J. Hehre,  A. Klamt,  
 H. F. Schaefer III,  M. W. Schmidt,  C. D. Sherrill,  D. G. Truhlar,  
 A. Warshel,  X. Xu,  A. Aspuru-Guzik,  R. Baer,  A. T. Bell,  N. A. Besley,  
 J.-D. Chai,  A. Dreuw,  B. D. Dunietz,  T. R. Furlani,  S. R. Gwaltney,  
 C.-P. Hsu,  Y. Jung,  J. Kong,  D. S. Lambrecht,  W. Liang,  C. Ochsenfeld,  
 V. A. Rassolov,  L. V. Slipchenko,  J. E. Subotnik,  T. Van Voorhis,  
 J. M. Herbert,  A. I. Krylov,  P. M. W. Gill,  M. Head-Gordon

 Contributors to earlier versions of Q-Chem not listed above: 
 R. D. Adamson,  J. Baker,  E. F. C. Byrd,  A. K. Chakraborty,  C.-L. Cheng,  
 H. Dachsel,  R. J. Doerksen,  G. Hawkins,  A. Heyden,  S. Hirata,  
 G. Kedziora,  F. J. Keil,  C. Kelley,  P. P. Korambath,  W. Kurlancheek,  
 A. M. Lee,  M. S. Lee,  D. Liotard,  I. Lotan,  P. E. Maslen,  N. Nair,  
 D. Neuhauser,  R. Olson,  B. Peters,  J. Ritchie,  N. E. Schultz,  
 N. Shenvi,  A. C. Simmonett,  K. S. Thanthiriwatte,  Q. Wu,  W. Zhang

 Q-Chem 4.2.0 for Intel X86 Linux

 Parts of Q-Chem use Armadillo 4.100.2 (Dirt Cruiser).
 http://arma.sourceforge.net/

 Q-Chem begins on Mon Jun 23 15:12:39 2014  

Host: 
0

     Scratch files written to /scratch/edames/qchem13869.0//
 May2514 8580_ilyak 4150   
 Parallel job on  4  processors
Processing $rem in /opt/qchem/config/preferences.
 MEM_TOTAL  2000 

 Q-Chem warning in module /home/scratch/svnadmin/8580_ilyak/qchem/libgen/rem.C, line 2637:

 !!Desired Analytical derivatives not available.

 2-order derivative to be evaluated numerically with 1-order analytical derivatives

 Q-Chem warning in module /home/scratch/svnadmin/8580_ilyak/qchem/libgen/rem.C, line 2644:

 !!Parallel diagonalization not available.

Warning: disabling incdft.
 Q-Chem warning in module /home/scratch/svnadmin/8580_ilyak/qchem/forms1/BasisType.C, line 1209:

 Setting pure/cartesian flag to 2111 for general basis


Finally everything over in PARseQInput

--------------------------------------------------------------
User input:
--------------------------------------------------------------

$molecule
READ
$end

$rem
JOBTYPE Freq
iprint 10000000
XC_GRID 000075000434
EXCHANGE M08SO
BASIS gen
GUI=2
SCF_GUESS READ
$end

$basis
H  0
S  3 1.00
3.386500000000E+01 2.549380000000E-02
5.094790000000E+00 1.903730000000E-01
1.158790000000E+00 8.521610000000E-01
S  1 1.00
3.258400000000E-01 1.000000000000E+00
S  1 1.00
1.027410000000E-01 1.000000000000E+00
S  1 1.00
3.600000000000E-02 1.000000000000E+00
P  1 1.00
1.500000000000E+00 1.000000000000E+00
P  1 1.00
3.750000000000E-01 1.000000000000E+00
****
C 0
S  6 1.00
4.563240000000E+03 1.966650000000E-03
6.820240000000E+02 1.523060000000E-02
1.549730000000E+02 7.612690000000E-02
4.445530000000E+01 2.608010000000E-01
1.302900000000E+01 6.164620000000E-01
1.827730000000E+00 2.210060000000E-01
S  3 1.00
2.096420000000E+01 1.146600000000E-01
4.803310000000E+00 9.199990000000E-01
1.459330000000E+00 -3.030680000000E-03
S  1 1.00
4.834560000000E-01 1.000000000000E+00
S  1 1.00
1.455850000000E-01 1.000000000000E+00
S  1 1.00
4.380000000000E-02 1.000000000000E+00
P  3 1.00
2.096420000000E+01 4.024870000000E-02
4.803310000000E+00 2.375940000000E-01
1.459330000000E+00 8.158540000000E-01
P  1 1.00
4.834560000000E-01 1.000000000000E+00
P  1 1.00
1.455850000000E-01 1.000000000000E+00
P  1 1.00
4.380000000000E-02 1.000000000000E+00
D  1 1.00
1.252000000000E+00 1.000000000000E+00
D  1 1.00
3.130000000000E-01 1.000000000000E+00
F  1 1.00
8.000000000000E-01 1.000000000000E+00
****
O  0
S  6 1.00
8.588500000000E+03 1.895150000000E-03
1.297230000000E+03 1.438590000000E-02
2.992960000000E+02 7.073200000000E-02
8.737710000000E+01 2.400010000000E-01
2.567890000000E+01 5.947970000000E-01
3.740040000000E+00 2.808020000000E-01
S  3 1.00
4.211750000000E+01 1.138890000000E-01
9.628370000000E+00 9.208110000000E-01
2.853320000000E+00 -3.274470000000E-03
S  1 1.00
9.056610000000E-01 1.000000000000E+00
S  1 1.00
2.556110000000E-01 1.000000000000E+00
S  1 1.00
8.450000000000E-02 1.000000000000E+00
P  3 1.00
4.211750000000E+01 3.651140000000E-02
9.628370000000E+00 2.371530000000E-01
2.853320000000E+00 8.197020000000E-01
P  1 1.00
9.056610000000E-01 1.000000000000E+00
P  1 1.00
2.556110000000E-01 1.000000000000E+00
P  1 1.00
8.450000000000E-02 1.000000000000E+00
D  1 1.00
2.584000000000E+00 1.000000000000E+00
D  1 1.00
6.460000000000E-01 1.000000000000E+00
F  1 1.00
1.400000000000E+00 1.000000000000E+00
****
--------------------------------------------------------------
 Atom   1: (  1.1602766251,  0.7440041668, -0.0000000723)
         ->(  1.1602766251,  0.7440041668,  0.0000000000)
 Atom   3: ( -1.0238196973,  0.5491640793, -0.8955419024)
         ->( -1.0238199135,  0.5491611044, -0.8955435483)
 Atom   4: ( -0.6635654941,  0.0210421157,  0.0000000298)
         ->( -0.6635654941,  0.0210421157,  0.0000000000)
 Atom   5: (  0.7448617589, -0.1226848151,  0.0000000116)
         ->(  0.7448617589, -0.1226848151,  0.0000000000)
 Atom   6: ( -1.0901381210, -0.9871035237, -0.0000018456)
         ->( -1.0901381210, -0.9871035237,  0.0000000000)
 ----------------------------------------------------------------
             Standard Nuclear Orientation (Angstroms)
    I     Atom           X                Y                Z
 ----------------------------------------------------------------
    1      H       1.1602766251     0.7440041668     0.0000000000
    2      H      -1.0238199135     0.5491611044     0.8955435483
    3      H      -1.0238199135     0.5491611044    -0.8955435483
    4      C      -0.6635654941     0.0210421157     0.0000000000
    5      O       0.7448617589    -0.1226848151     0.0000000000
    6      H      -1.0901381210    -0.9871035237     0.0000000000
 ----------------------------------------------------------------
 Molecular Point Group                 Cs    NOp =  2
 Nuclear Repulsion Energy =    40.2915828033 hartrees
 There are        9 alpha and        9 beta electrons
 Requested basis set is non-standard
 There are 48 shells and 108 basis functions

Total QAlloc Memory Limit   2000 MB
Mega-Array Size        77 MB
MEM_STATIC part        62 MB

                       Distance Matrix (Angstroms)
             H (  1)   H (  2)   H (  3)   C (  4)   O (  5)
   H (  2)  2.368594
   H (  3)  2.368594  1.791087
   C (  4)  1.961906  1.100314  1.100314
   O (  5)  0.961103  2.093230  2.093230  1.415742
   H (  6)  2.839208  1.779468  1.779468  1.094679  2.028409
 
 A cutoff of  1.0D-11 yielded   1176 shell pairs
 There are      6016 function pairs (      7219 Cartesian)
 Smallest overlap matrix eigenvalue = 7.94E-04
 Guess MOs from SCF MO coefficient file
Reading MOs from coefficient file
Reading MOs from coefficient file
 A restricted hybrid HF-DFT SCF calculation will be
 performed using Pulay DIIS extrapolation
 Exchange:     0.5679 Hartree-Fock + 1.0000 M08SO
 SCF converges when DIIS error is below 1.0E-08
 ---------------------------------------
  Cycle       Energy         DIIS Error
 ---------------------------------------
    1    -115.6851638496      5.09E-04
    2    -115.6855565922      6.36E-05
    3    -115.6855668980      2.48E-05
    4    -115.6855676357      1.56E-05
    5    -115.6855679355      3.42E-06
    6    -115.6855679475      9.93E-07
    7    -115.6855679487      1.26E-07
    8    -115.6855679488      2.77E-08
    9    -115.6855679488      4.32E-09 Convergence criterion met
 ---------------------------------------
 SCF time:  CPU 24.49 s  wall 25.55 s
 SCF   energy in the final basis set = -115.6855679488
 Total energy in the final basis set = -115.6855679488
 Analysis of SCF Wavefunction
 
 --------------------------------------------------------------
             Orbital Energies (a.u.) and Symmetries
 --------------------------------------------------------------
 
 Alpha MOs, Restricted
 -- Occupied --                  
-19.565 -10.538  -1.135  -0.778  -0.593  -0.525  -0.508  -0.416
  1 A'    2 A'    3 A'    4 A'    5 A'    1 A"    6 A'    7 A'                 
 -0.365
  2 A"                                                                         
 -- Virtual --                   
 -0.026  -0.004   0.010   0.016   0.052   0.068   0.080   0.115
  8 A'    9 A'    3 A"   10 A'   11 A'   12 A'    4 A"   13 A'                 
  0.176   0.188   0.193   0.197   0.212   0.218   0.238   0.274
 14 A'   15 A'    5 A"   16 A'    6 A"   17 A'   18 A'   19 A'                 
  0.352   0.430   0.441   0.518   0.561   0.565   0.586   0.618
 20 A'   21 A'    7 A"   22 A'    8 A"   23 A'   24 A'    9 A"                 
  0.622   0.630   0.720   0.767   0.850   0.872   0.971   1.006
 25 A'   26 A'   10 A"   27 A'   28 A'   11 A"   29 A'   30 A'                 
  1.023   1.089   1.110   1.126   1.155   1.193   1.272   1.303
 12 A"   13 A"   31 A'   14 A"   32 A'   33 A'   34 A'   15 A"                 
  1.338   1.409   1.421   1.453   1.508   1.565   1.867   1.989
 35 A'   36 A'   16 A"   37 A'   38 A'   39 A'   17 A"   40 A'                 
  2.014   2.188   2.230   2.352   2.390   2.473   2.766   2.905
 18 A"   41 A'   42 A'   19 A"   43 A'   44 A'   45 A'   20 A"                 
  3.054   3.068   3.071   3.105   3.154   3.258   3.328   3.380
 46 A'   21 A"   47 A'   22 A"   48 A'   23 A"   49 A'   50 A'                 
  3.385   3.479   3.693   3.711   3.793   3.811   3.842   4.008
 24 A"   51 A'   25 A"   52 A'   53 A'   26 A"   54 A'   55 A'                 
  4.076   4.088   4.173   4.200   4.242   4.276   4.303   4.858
 27 A"   56 A'   57 A'   58 A'   28 A"   59 A'   29 A"   60 A'                 
  5.099   5.110   5.159   5.290   5.431   5.474   5.522   5.539
 30 A"   31 A"   61 A'   62 A'   63 A'   32 A"   64 A'   33 A"                 
  5.723   5.858   6.425   6.929   7.097   7.119   7.144   7.418
 34 A"   65 A'   66 A'   35 A"   67 A'   68 A'   36 A"   69 A'                 
  7.551  24.169  49.749
 70 A'   71 A'   72 A'                                                         
 
 Beta MOs, Restricted
 -- Occupied --                  
-19.565 -10.538  -1.135  -0.778  -0.593  -0.525  -0.508  -0.416
  1 A'    2 A'    3 A'    4 A'    5 A'    1 A"    6 A'    7 A'                 
 -0.365
  2 A"                                                                         
 -- Virtual --                   
 -0.026  -0.004   0.010   0.016   0.052   0.068   0.080   0.115
  8 A'    9 A'    3 A"   10 A'   11 A'   12 A'    4 A"   13 A'                 
  0.176   0.188   0.193   0.197   0.212   0.218   0.238   0.274
 14 A'   15 A'    5 A"   16 A'    6 A"   17 A'   18 A'   19 A'                 
  0.352   0.430   0.441   0.518   0.561   0.565   0.586   0.618
 20 A'   21 A'    7 A"   22 A'    8 A"   23 A'   24 A'    9 A"                 
  0.622   0.630   0.720   0.767   0.850   0.872   0.971   1.006
 25 A'   26 A'   10 A"   27 A'   28 A'   11 A"   29 A'   30 A'                 
  1.023   1.089   1.110   1.126   1.155   1.193   1.272   1.303
 12 A"   13 A"   31 A'   14 A"   32 A'   33 A'   34 A'   15 A"                 
  1.338   1.409   1.421   1.453   1.508   1.565   1.867   1.989
 35 A'   36 A'   16 A"   37 A'   38 A'   39 A'   17 A"   40 A'                 
  2.014   2.188   2.230   2.352   2.390   2.473   2.766   2.905
 18 A"   41 A'   42 A'   19 A"   43 A'   44 A'   45 A'   20 A"                 
  3.054   3.068   3.071   3.105   3.154   3.258   3.328   3.380
 46 A'   21 A"   47 A'   22 A"   48 A'   23 A"   49 A'   50 A'                 
  3.385   3.479   3.693   3.711   3.793   3.811   3.842   4.008
 24 A"   51 A'   25 A"   52 A'   53 A'   26 A"   54 A'   55 A'                 
  4.076   4.088   4.173   4.200   4.242   4.276   4.303   4.858
 27 A"   56 A'   57 A'   58 A'   28 A"   59 A'   29 A"   60 A'                 
  5.099   5.110   5.159   5.290   5.431   5.474   5.522   5.539
 30 A"   31 A"   61 A'   62 A'   63 A'   32 A"   64 A'   33 A"                 
  5.723   5.858   6.425   6.929   7.097   7.119   7.144   7.418
 34 A"   65 A'   66 A'   35 A"   67 A'   68 A'   36 A"   69 A'                 
  7.551  24.169  49.749
 70 A'   71 A'   72 A'                                                         
 --------------------------------------------------------------
 
          Ground-State Mulliken Net Atomic Charges

     Atom                 Charge (a.u.)
  ----------------------------------------
      1 H                     0.277805
      2 H                     0.137331
      3 H                     0.137331
      4 C                    -0.346947
      5 O                    -0.360305
      6 H                     0.154784
  ----------------------------------------
  Sum of atomic charges =     0.000000

 -----------------------------------------------------------------
                    Cartesian Multipole Moments
 -----------------------------------------------------------------
    Charge (ESU x 10^10)
                 0.0000
    Dipole Moment (Debye)
         X      -0.8733      Y       1.5443      Z       0.0000
       Tot       1.7741
    Quadrupole Moments (Debye-Ang)
        XX     -13.1203     XY       2.3517     YY     -12.4383
        XZ       0.0000     YZ       0.0000     ZZ     -13.9958
    Octopole Moments (Debye-Ang^2)
       XXX       4.3941    XXY       2.4976    XYY       1.6852
       YYY       0.5425    XXZ       0.0000    XYZ       0.0000
       YYZ       0.0000    XZZ       0.1959    YZZ       0.7820
       ZZZ       0.0000
    Hexadecapole Moments (Debye-Ang^3)
      XXXX     -63.8345   XXXY       4.3846   XXYY     -13.0646
      XYYY       3.2760   YYYY     -21.2064   XXXZ       0.0000
      XXYZ       0.0000   XYYZ       0.0000   YYYZ       0.0000
      XXZZ     -15.0276   XYZZ      -0.1276   YYZZ      -7.1985
      XZZZ       0.0000   YZZZ       0.0000   ZZZZ     -21.1185
 -----------------------------------------------------------------
 Calculating analytic gradient of the SCF energy
 Exchange:     0.5679 Hartree-Fock + 1.0000 M08SO
 Gradient of Nuclear Repulsion Energy
            1           2           3           4           5           6
    1  -1.5736292   0.9291109   0.9291109   5.6222141  -6.9798646   1.0730579
    2  -2.3772308  -0.9024367  -0.9024367  -0.4790421   2.9639683   1.6971780
    3   0.0000000  -1.4989192   1.4989192   0.0000000   0.0000000   0.0000000
 nuclear-nuclear gradient
            1           2           3           4           5           6
    1  -1.5736292   0.9291109   0.9291109   5.6222141  -6.9798646   1.0730579
    2  -2.3772308  -0.9024367  -0.9024367  -0.4790421   2.9639683   1.6971780
    3   0.0000000  -1.4989192   1.4989192   0.0000000   0.0000000   0.0000000
 Gradient of Nuclear Attraction Energy
            1           2           3           4           5           6
    1   3.9805994  -2.4171215  -2.4171215  -9.0915736  12.6533205  -2.7081033
    2   6.0234032   2.4263539   2.4263539   0.7237766  -7.0344714  -4.5654162
    3   0.0000000   4.0068413  -4.0068413   0.0000000  -0.0000000   0.0000000
 Gradient of Overlap and Kinetic Energy
            1           2           3           4           5           6
    1  -0.4493604   0.1922643   0.1922643  -0.0029929  -0.1474092   0.2152338
    2  -0.8142844  -0.2426564  -0.2426564  -0.0161394   0.8466355   0.4691010
    3  -0.0000000  -0.4065372   0.4065372  -0.0000000   0.0000000  -0.0000000
 Gradient of Coulomb and Exchange Energy
            1           2           3           4           5           6
    1  -2.0166351   1.3285925   1.3285925   3.4322041  -5.5289357   1.4561817
    2  -2.9298844  -1.3222295  -1.3222295  -0.2248767   3.3213436   2.4778766
    3  -0.0000000  -2.1699021   2.1699021  -0.0000000   0.0000000  -0.0000000
 Gradient of Coulomb and Exchange Energy
            1           2           3           4           5           6
    1  -2.0166351   1.3285925   1.3285925   3.4322041  -5.5289357   1.4561817
    2  -2.9298844  -1.3222295  -1.3222295  -0.2248767   3.3213436   2.4778766
    3  -0.0000000  -2.1699021   2.1699021  -0.0000000   0.0000000  -0.0000000
 Using Euler-Maclaurin-Lebedev (75,434) quadrature formula
 Gradient of XC Energy
            1           2           3           4           5           6
    1   0.0589782  -0.0328428  -0.0328428   0.0399663   0.0031916  -0.0364505
    2   0.0978501   0.0410268   0.0410268  -0.0036627  -0.0972938  -0.0789471
    3   0.0000000   0.0686184  -0.0686184   0.0000000  -0.0000000   0.0000000
 Gradient of SCF Energy
            1           2           3           4           5           6
    1  -0.0000471   0.0000035   0.0000035  -0.0001819   0.0003026  -0.0000805
    2  -0.0001463   0.0000581   0.0000581   0.0000557   0.0001822  -0.0002076
    3   0.0000000   0.0001012  -0.0001012   0.0000000  -0.0000000  -0.0000000
 Max gradient component =       3.026E-04
 RMS gradient           =       1.205E-04
 Gradient time:  CPU 5.24 s  wall 5.32 s
 ######################################################
 ######################################################
 # Starting finite difference calculation for IDERIV  #
 Finite diff step size: 1.89e-03 a.u.
 ----------------------------------------------------------------
             Standard Nuclear Orientation (Angstroms)
    I     Atom           X                Y                Z
 ----------------------------------------------------------------
    1      H       1.1612766251     0.7440041668     0.0000000000
    2      H      -1.0238199135     0.5491611044     0.8955435483
    3      H      -1.0238199135     0.5491611044    -0.8955435483
    4      C      -0.6635654941     0.0210421157     0.0000000000
    5      O       0.7448617589    -0.1226848151     0.0000000000
    6      H      -1.0901381210    -0.9871035237     0.0000000000
 ----------------------------------------------------------------
 Nuclear Repulsion Energy =    40.2886084679 hartrees
 There are        9 alpha and        9 beta electrons

                       Distance Matrix (Angstroms)
             H (  1)   H (  2)   H (  3)   C (  4)   O (  5)
   H (  2)  2.369517
   H (  3)  2.369517  1.791087
   C (  4)  1.962835  1.100314  1.100314
   O (  5)  0.961536  2.093230  2.093230  1.415742
   H (  6)  2.840000  1.779468  1.779468  1.094679  2.028409
 
 Requested basis set is non-standard
 There are 48 shells and 108 basis functions
 A cutoff of  1.0D-11 yielded   1176 shell pairs
 There are      6016 function pairs (      7219 Cartesian)
 Smallest overlap matrix eigenvalue = 7.94E-04
 Guess MOs from SCF MO coefficient file
Reading MOs from coefficient file
Reading MOs from coefficient file
 A restricted hybrid HF-DFT SCF calculation will be
 performed using Pulay DIIS extrapolation
 Exchange:     0.5679 Hartree-Fock + 1.0000 M08SO
 SCF converges when DIIS error is below 1.0E-08
 ---------------------------------------
  Cycle       Energy         DIIS Error
 ---------------------------------------
    1    -115.6853398116      1.78E-05
    2    -115.6855677152      3.65E-06
    3    -115.6855677225      3.46E-06
    4    -115.6855677336      6.10E-07
    5    -115.6855677340      1.23E-07
    6    -115.6855677341      3.23E-08
    7    -115.6855677341      9.79E-09 Convergence criterion met
 ---------------------------------------
 SCF time:  CPU 19.10 s  wall 19.15 s
 SCF   energy in the final basis set = -115.6855677341
 Total energy in the final basis set = -115.6855677341
 Analysis of SCF Wavefunction
 
 --------------------------------------------------------------
                    Orbital Energies (a.u.)
 --------------------------------------------------------------
 
 Alpha MOs
 -- Occupied --
-19.565 -10.538  -1.135  -0.778  -0.593  -0.525  -0.508  -0.416
 -0.365
 -- Virtual --
 -0.026  -0.004   0.010   0.016   0.052   0.068   0.080   0.115
  0.176   0.188   0.193   0.197   0.212   0.218   0.238   0.274
  0.352   0.430   0.441   0.518   0.561   0.565   0.586   0.618
  0.622   0.630   0.720   0.767   0.850   0.872   0.971   1.006
  1.023   1.089   1.110   1.126   1.155   1.193   1.272   1.303
  1.338   1.409   1.421   1.452   1.507   1.565   1.867   1.989
  2.014   2.188   2.231   2.352   2.390   2.473   2.766   2.905
  3.054   3.068   3.071   3.105   3.154   3.258   3.328   3.380
  3.385   3.479   3.693   3.711   3.793   3.811   3.842   4.008
  4.076   4.088   4.173   4.200   4.242   4.276   4.303   4.858
  5.099   5.110   5.159   5.290   5.429   5.473   5.522   5.539
  5.723   5.858   6.425   6.929   7.096   7.117   7.144   7.419
  7.551  24.169  49.749
 --------------------------------------------------------------
 
          Ground-State Mulliken Net Atomic Charges

     Atom                 Charge (a.u.)
  ----------------------------------------
      1 H                     0.277947
      2 H                     0.137326
      3 H                     0.137326
      4 C                    -0.346877
      5 O                    -0.360519
      6 H                     0.154797
  ----------------------------------------
  Sum of atomic charges =     0.000000

 -----------------------------------------------------------------
                    Cartesian Multipole Moments
 -----------------------------------------------------------------
    Charge (ESU x 10^10)
                 0.0000
    Dipole Moment (Debye)
         X      -0.8720      Y       1.5443      Z       0.0000
       Tot       1.7735
    Quadrupole Moments (Debye-Ang)
        XX     -13.1164     XY       2.3534     YY     -12.4393
        XZ       0.0000     YZ       0.0000     ZZ     -13.9964
    Octopole Moments (Debye-Ang^2)
       XXX       4.3993    XXY       2.5010    XYY       1.6847
       YYY       0.5420    XXZ       0.0000    XYZ       0.0000
       YYZ       0.0000    XZZ       0.1949    YZZ       0.7818
       ZZZ       0.0000
    Hexadecapole Moments (Debye-Ang^3)
      XXXX     -63.8305   XXXY       4.3905   XXYY     -13.0642
      XYYY       3.2756   YYYY     -21.2093   XXXZ       0.0000
      XXYZ       0.0000   XYYZ       0.0000   YYYZ       0.0000
      XXZZ     -15.0298   XYZZ      -0.1280   YYZZ      -7.1992
      XZZZ       0.0000   YZZZ       0.0000   ZZZZ     -21.1196
 -----------------------------------------------------------------
 Calculating analytic gradient of the SCF energy
 Exchange:     0.5679 Hartree-Fock + 1.0000 M08SO
 Gradient of Nuclear Repulsion Energy
            1           2           3           4           5           6
    1  -1.5743045   0.9290782   0.9290782   5.6218600  -6.9787590   1.0730471
    2  -2.3740243  -0.9024415  -0.9024415  -0.4792705   2.9610174   1.6971603
    3   0.0000000  -1.4988971   1.4988971   0.0000000   0.0000000   0.0000000
 nuclear-nuclear gradient
            1           2           3           4           5           6
    1  -1.5743045   0.9290782   0.9290782   5.6218600  -6.9787590   1.0730471
    2  -2.3740243  -0.9024415  -0.9024415  -0.4792705   2.9610174   1.6971603
    3   0.0000000  -1.4988971   1.4988971   0.0000000   0.0000000   0.0000000
 Gradient of Nuclear Attraction Energy
            1           2           3           4           5           6
    1   3.9847339  -2.4168828  -2.4168828  -9.0919749  12.6493384  -2.7083318
    2   6.0169926   2.4263304   2.4263304   0.7234587  -7.0276688  -4.5654433
    3  -0.0000000   4.0068344  -4.0068344  -0.0000000   0.0000000   0.0000000
 Gradient of Overlap and Kinetic Energy
            1           2           3           4           5           6
    1  -0.4498548   0.1922405   0.1922405  -0.0029160  -0.1469712   0.2152609
    2  -0.8132155  -0.2426563  -0.2426563  -0.0160827   0.8455091   0.4691017
    3   0.0000000  -0.4065430   0.4065430   0.0000000  -0.0000000  -0.0000000
 Gradient of Coulomb and Exchange Energy
            1           2           3           4           5           6
    1  -2.0194067   1.3284081   1.3284081   3.4328624  -5.5266593   1.4563874
    2  -2.9272805  -1.3222015  -1.3222015  -0.2244495   3.3182067   2.4779263
    3   0.0000000  -2.1699112   2.1699112   0.0000000  -0.0000000  -0.0000000
 Gradient of Coulomb and Exchange Energy
            1           2           3           4           5           6
    1  -2.0194067   1.3284081   1.3284081   3.4328624  -5.5266593   1.4563874
    2  -2.9272805  -1.3222015  -1.3222015  -0.2244495   3.3182067   2.4779263
    3   0.0000000  -2.1699112   2.1699112   0.0000000  -0.0000000  -0.0000000
 Using Euler-Maclaurin-Lebedev (75,434) quadrature formula
 Gradient of XC Energy
            1           2           3           4           5           6
    1   0.0590728  -0.0328379  -0.0328379   0.0399447   0.0031152  -0.0364568
    2   0.0977581   0.0410267   0.0410267  -0.0036758  -0.0971874  -0.0789483
    3  -0.0000000   0.0686198  -0.0686198  -0.0000000   0.0000000   0.0000000
 Gradient of SCF Energy
            1           2           3           4           5           6
    1   0.0002407   0.0000061   0.0000061  -0.0002238   0.0000641  -0.0000932
    2   0.0002305   0.0000578   0.0000578  -0.0000197  -0.0001230  -0.0002033
    3  -0.0000000   0.0001028  -0.0001028   0.0000000   0.0000000   0.0000000
 Max gradient component =       2.407E-04
 RMS gradient           =       1.199E-04
 Gradient time:  CPU 5.05 s  wall 4.95 s
 ----------------------------------------------------------------
             Standard Nuclear Orientation (Angstroms)
    I     Atom           X                Y                Z
 ----------------------------------------------------------------
    1      H       1.1592766251     0.7440041668     0.0000000000
    2      H      -1.0238199135     0.5491611044     0.8955435483
    3      H      -1.0238199135     0.5491611044    -0.8955435483
    4      C      -0.6635654941     0.0210421157     0.0000000000
    5      O       0.7448617589    -0.1226848151     0.0000000000
    6      H      -1.0901381210    -0.9871035237     0.0000000000
 ----------------------------------------------------------------
 Nuclear Repulsion Energy =    40.2945559201 hartrees
 There are        9 alpha and        9 beta electrons

                       Distance Matrix (Angstroms)
             H (  1)   H (  2)   H (  3)   C (  4)   O (  5)
   H (  2)  2.367672
   H (  3)  2.367672  1.791087
   C (  4)  1.960976  1.100314  1.100314
   O (  5)  0.960671  2.093230  2.093230  1.415742
   H (  6)  2.838415  1.779468  1.779468  1.094679  2.028409
 
 Requested basis set is non-standard
 There are 48 shells and 108 basis functions
 A cutoff of  1.0D-11 yielded   1176 shell pairs
 There are      6016 function pairs (      7219 Cartesian)
 Smallest overlap matrix eigenvalue = 7.94E-04
 Guess MOs from SCF MO coefficient file
Reading MOs from coefficient file
Reading MOs from coefficient file
 A restricted hybrid HF-DFT SCF calculation will be
 performed using Pulay DIIS extrapolation
 Exchange:     0.5679 Hartree-Fock + 1.0000 M08SO
 SCF converges when DIIS error is below 1.0E-08
 ---------------------------------------
  Cycle       Energy         DIIS Error
 ---------------------------------------
    1    -115.6860224711      3.56E-05
    2    -115.6855674816      7.26E-06
    3    -115.6855675105      6.88E-06
    4    -115.6855675544      1.22E-06
    5    -115.6855675558      2.46E-07
    6    -115.6855675558      6.48E-08
    7    -115.6855675558      1.95E-08
    8    -115.6855675559      2.44E-09 Convergence criterion met
 ---------------------------------------
 SCF time:  CPU 21.80 s  wall 24.40 s
 SCF   energy in the final basis set = -115.6855675559
 Total energy in the final basis set = -115.6855675559
 Analysis of SCF Wavefunction
 
 --------------------------------------------------------------
                    Orbital Energies (a.u.)
 --------------------------------------------------------------
 
 Alpha MOs
 -- Occupied --
-19.565 -10.538  -1.135  -0.778  -0.593  -0.525  -0.508  -0.417
 -0.365
 -- Virtual --
 -0.026  -0.004   0.010   0.016   0.052   0.068   0.080   0.115
  0.176   0.188   0.193   0.197   0.212   0.218   0.238   0.274
  0.352   0.430   0.441   0.518   0.561   0.565   0.586   0.618
  0.622   0.630   0.720   0.767   0.850   0.872   0.971   1.006
  1.023   1.089   1.110   1.127   1.155   1.193   1.272   1.303
  1.338   1.409   1.421   1.453   1.508   1.565   1.867   1.989
  2.013   2.188   2.230   2.352   2.390   2.473   2.766   2.905
  3.054   3.068   3.071   3.105   3.154   3.258   3.328   3.380
  3.385   3.479   3.693   3.711   3.793   3.811   3.842   4.009
  4.076   4.088   4.174   4.200   4.242   4.276   4.303   4.858
  5.099   5.110   5.159   5.290   5.432   5.474   5.522   5.539
  5.723   5.858   6.425   6.930   7.098   7.121   7.144   7.418
  7.551  24.169  49.750
 --------------------------------------------------------------
 
          Ground-State Mulliken Net Atomic Charges

     Atom                 Charge (a.u.)
  ----------------------------------------
      1 H                     0.277663
      2 H                     0.137337
      3 H                     0.137337
      4 C                    -0.347016
      5 O                    -0.360091
      6 H                     0.154771
  ----------------------------------------
  Sum of atomic charges =     0.000000

 -----------------------------------------------------------------
                    Cartesian Multipole Moments
 -----------------------------------------------------------------
    Charge (ESU x 10^10)
                 0.0000
    Dipole Moment (Debye)
         X      -0.8747      Y       1.5442      Z       0.0000
       Tot       1.7747
    Quadrupole Moments (Debye-Ang)
        XX     -13.1241     XY       2.3499     YY     -12.4373
        XZ       0.0000     YZ       0.0000     ZZ     -13.9951
    Octopole Moments (Debye-Ang^2)
       XXX       4.3889    XXY       2.4943    XYY       1.6857
       YYY       0.5429    XXZ       0.0000    XYZ       0.0000
       YYZ       0.0000    XZZ       0.1969    YZZ       0.7821
       ZZZ       0.0000
    Hexadecapole Moments (Debye-Ang^3)
      XXXX     -63.8385   XXXY       4.3786   XXYY     -13.0650
      XYYY       3.2764   YYYY     -21.2035   XXXZ       0.0000
      XXYZ       0.0000   XYYZ       0.0000   YYYZ       0.0000
      XXZZ     -15.0255   XYZZ      -0.1271   YYZZ      -7.1979
      XZZZ       0.0000   YZZZ       0.0000   ZZZZ     -21.1173
 -----------------------------------------------------------------
 Calculating analytic gradient of the SCF energy
 Exchange:     0.5679 Hartree-Fock + 1.0000 M08SO
 Gradient of Nuclear Repulsion Energy
            1           2           3           4           5           6
    1  -1.5729473   0.9291436   0.9291436   5.6225687  -6.9809772   1.0730687
    2  -2.3804374  -0.9024319  -0.9024319  -0.4788132   2.9669186   1.6971958
    3   0.0000000  -1.4989412   1.4989412   0.0000000   0.0000000   0.0000000
 nuclear-nuclear gradient
            1           2           3           4           5           6
    1  -1.5729473   0.9291436   0.9291436   5.6225687  -6.9809772   1.0730687
    2  -2.3804374  -0.9024319  -0.9024319  -0.4788132   2.9669186   1.6971958
    3   0.0000000  -1.4989412   1.4989412   0.0000000   0.0000000   0.0000000
 Gradient of Nuclear Attraction Energy
            1           2           3           4           5           6
    1   3.9764455  -2.4173604  -2.4173604  -9.0911707  12.6573204  -2.7078745
    2   6.0298069   2.4263775   2.4263775   0.7240966  -7.0412692  -4.5653892
    3   0.0000000   4.0068480  -4.0068480   0.0000000  -0.0000000  -0.0000000
 Gradient of Overlap and Kinetic Energy
            1           2           3           4           5           6
    1  -0.4488626   0.1922882   0.1922882  -0.0030698  -0.1478505   0.2152065
    2  -0.8153517  -0.2426564  -0.2426564  -0.0161965   0.8477607   0.4691003
    3  -0.0000000  -0.4065313   0.4065313  -0.0000000   0.0000000   0.0000000
 Gradient of Coulomb and Exchange Energy
            1           2           3           4           5           6
    1  -2.0138536   1.3287771   1.3287771   3.4315441  -5.5312203   1.4559756
    2  -2.9324837  -1.3222577  -1.3222577  -0.2253061   3.3244781   2.4778271
    3  -0.0000000  -2.1698929   2.1698929  -0.0000000   0.0000000   0.0000000
 Gradient of Coulomb and Exchange Energy
            1           2           3           4           5           6
    1  -2.0138536   1.3287771   1.3287771   3.4315441  -5.5312203   1.4559756
    2  -2.9324837  -1.3222577  -1.3222577  -0.2253061   3.3244781   2.4778271
    3  -0.0000000  -2.1698929   2.1698929  -0.0000000   0.0000000   0.0000000
 Using Euler-Maclaurin-Lebedev (75,434) quadrature formula
 Gradient of XC Energy
            1           2           3           4           5           6
    1   0.0588832  -0.0328477  -0.0328477   0.0399879   0.0032683  -0.0364441
    2   0.0979418   0.0410269   0.0410269  -0.0036497  -0.0974000  -0.0789460
    3   0.0000000   0.0686169  -0.0686169   0.0000000  -0.0000000  -0.0000000
 Gradient of SCF Energy
            1           2           3           4           5           6
    1  -0.0003348   0.0000008   0.0000008  -0.0001399   0.0005407  -0.0000677
    2  -0.0005241   0.0000584   0.0000584   0.0001311   0.0004882  -0.0002120
    3  -0.0000000   0.0000995  -0.0000995   0.0000000   0.0000000   0.0000000
 Max gradient component =       5.407E-04
 RMS gradient           =       2.392E-04
 Gradient time:  CPU 5.15 s  wall 5.08 s
 ----------------------------------------------------------------
             Standard Nuclear Orientation (Angstroms)
    I     Atom           X                Y                Z
 ----------------------------------------------------------------
    1      H       1.1602766251     0.7450041668     0.0000000000
    2      H      -1.0238199135     0.5491611044     0.8955435483
    3      H      -1.0238199135     0.5491611044    -0.8955435483
    4      C      -0.6635654941     0.0210421157     0.0000000000
    5      O       0.7448617589    -0.1226848151     0.0000000000
    6      H      -1.0901381210    -0.9871035237     0.0000000000
 ----------------------------------------------------------------
 Nuclear Repulsion Energy =    40.2870937877 hartrees
 There are        9 alpha and        9 beta electrons

                       Distance Matrix (Angstroms)
             H (  1)   H (  2)   H (  3)   C (  4)   O (  5)
   H (  2)  2.368677
   H (  3)  2.368677  1.791087
   C (  4)  1.962274  1.100314  1.100314
   O (  5)  0.962005  2.093230  2.093230  1.415742
   H (  6)  2.839818  1.779468  1.779468  1.094679  2.028409
 
 Requested basis set is non-standard
 There are 48 shells and 108 basis functions
 A cutoff of  1.0D-11 yielded   1176 shell pairs
 There are      6016 function pairs (      7219 Cartesian)
 Smallest overlap matrix eigenvalue = 7.94E-04
 Guess MOs from SCF MO coefficient file
Reading MOs from coefficient file
Reading MOs from coefficient file
 A restricted hybrid HF-DFT SCF calculation will be
 performed using Pulay DIIS extrapolation
 Exchange:     0.5679 Hartree-Fock + 1.0000 M08SO
 SCF converges when DIIS error is below 1.0E-08
 ---------------------------------------
  Cycle       Energy         DIIS Error
 ---------------------------------------
    1    -115.6849139806      5.07E-05
    2    -115.6855673040      8.49E-06
    3    -115.6855673716      5.04E-06
    4    -115.6855673927      1.84E-06
    5    -115.6855673959      3.12E-07
    6    -115.6855673961      4.72E-08
    7    -115.6855673962      1.72E-08
    8    -115.6855673962      4.76E-09 Convergence criterion met
 ---------------------------------------
 SCF time:  CPU 21.72 s  wall 23.25 s
 SCF   energy in the final basis set = -115.6855673962
 Total energy in the final basis set = -115.6855673962
 Analysis of SCF Wavefunction
 
 --------------------------------------------------------------
                    Orbital Energies (a.u.)
 --------------------------------------------------------------
 
[...]
    2      H      -1.0238199135     0.5491611044     0.8955435483
    3      H      -1.0238199135     0.5491611044    -0.8955435483
    4      C      -0.6635654941     0.0210421157     0.0000000000
    5      O       0.7448617589    -0.1226848151     0.0000000000
    6      H      -1.0901381210    -0.9871035237     0.0000000000
 ----------------------------------------------------------------
 Nuclear Repulsion Energy =    40.2915828352 hartrees
 There are        9 alpha and        9 beta electrons
 old dipole drv.
            1           2           3           4           5           6
    1   0.2826455   0.0071311   0.0000000  -0.0491630   0.0690214   0.0904161
    2   0.0176236   0.1722731   0.0000000   0.0206286   0.0061367  -0.0973979
    3  -0.0000000  -0.0000000   0.3584263   0.0350520  -0.0900137  -0.1022259
            7           8           9          10          11          12
    1  -0.0491630   0.0690214  -0.0904161   0.8381235  -0.0318058   0.0000000
    2   0.0206286   0.0061367   0.0973979  -0.0591359   0.2411664   0.0000000
    3  -0.0350520   0.0900137  -0.1022259   0.0000055  -0.0000000   0.3501000
           13          14          15          16          17          18
    1  -1.0274867  -0.0203880   0.0000000   0.0050358  -0.0930014   0.0000000
    2   0.0290479  -0.3341189   0.0000000  -0.0288627  -0.0916204   0.0000000
    3  -0.0000080  -0.0000000  -0.5784126   0.0000038   0.0000000   0.0743503
 New transposed dipole drv.
            1           2           3
    1   0.2826455   0.0176236  -0.0000000
    2   0.0071311   0.1722731  -0.0000000
    3   0.0000000   0.0000000   0.3584263
    4  -0.0491630   0.0206286   0.0350520
    5   0.0690214   0.0061367  -0.0900137
    6   0.0904161  -0.0973979  -0.1022259
    7  -0.0491630   0.0206286  -0.0350520
    8   0.0690214   0.0061367   0.0900137
    9  -0.0904161   0.0973979  -0.1022259
   10   0.8381235  -0.0591359   0.0000055
   11  -0.0318058   0.2411664  -0.0000000
   12   0.0000000   0.0000000   0.3501000
   13  -1.0274867   0.0290479  -0.0000080
   14  -0.0203880  -0.3341189  -0.0000000
   15   0.0000000   0.0000000  -0.5784126
   16   0.0050358  -0.0288627   0.0000038
   17  -0.0930014  -0.0916204   0.0000000
   18   0.0000000   0.0000000   0.0743503
FINAL TENSOR RESULT:
Order 2, Length 18
    Atom      X          Y          Z
     1 Order 1, Length 18
    Atom      X          Y          Z
     1    1.522650389597970e-01   1.996447703929821e-01   0.000000000000000e+00
     2    1.392532607520761e-03  -1.593263430726761e-04   8.725516940904208e-04
     3    1.392532607653867e-03  -1.593263462314320e-04  -8.725516953517201e-04
     4   -2.220401746382105e-02  -3.990952179270883e-02   0.000000000000000e+00
     5   -1.260978642972650e-01  -1.617321533555168e-01   0.000000000000000e+00
     6   -6.748610570888743e-03   2.314726263279958e-03   0.000000000000000e+00

Order 1, Length 18
    Atom      X          Y          Z
     1    1.996447703929821e-01   4.473762456373057e-01   0.000000000000000e+00
     2    1.362274506541827e-03   3.889969099672965e-04  -1.712646983529132e-04
     3    1.362274504644371e-03   3.889969094458861e-04   1.712646952538258e-04
     4    9.937768182686012e-03   4.268359604515107e-03   0.000000000000000e+00
     5   -2.133679008390087e-01  -4.546329826750680e-01   0.000000000000000e+00
     6    1.056967833101170e-03   2.207706223063998e-03   0.000000000000000e+00

Order 1, Length 18
    Atom      X          Y          Z
     1    0.000000000000000e+00   0.000000000000000e+00   2.489810497383063e-03
     2    4.350741740263411e-04   1.076048417909162e-03   1.551955774435791e-04
     3   -4.350741740263411e-04  -1.076048417909162e-03   1.551955774435791e-04
     4   -6.290678919709193e-07   0.000000000000000e+00  -4.056032492575604e-04
     5   -6.017522717743281e-07   0.000000000000000e+00  -2.496917379044498e-03
     6    4.012674696216287e-07   0.000000000000000e+00   1.005116649324077e-04


     2 Order 1, Length 18
    Atom      X          Y          Z
     1    1.392532607520761e-03   1.362274506541827e-03   4.350741740263411e-04
     2    8.399681987658256e-02  -4.032162171270492e-02  -6.565468456070774e-02
     3    4.828118221873170e-03  -4.597521280325714e-03  -6.006756207688608e-03
     4   -6.530653660521009e-02   2.879209213562731e-02   5.233142139867854e-02
     5   -2.982446690235251e-02   1.898400757046842e-02   2.848944974843073e-02
     6    4.914321017981097e-03  -4.219343315000353e-03  -9.594650537385556e-03

Order 1, Length 18
    Atom      X          Y          Z
     1   -1.593263430726761e-04   3.889969099672965e-04   1.076048417909162e-03
     2   -4.032162171270492e-02   1.088255125250480e-01   1.070116728383299e-01
     3   -4.597521280325714e-03   8.685166309623710e-03   1.356728640173031e-02
     4    3.237045517531817e-02  -1.081990199800070e-01  -9.545995049327292e-02
     5    4.752780033163199e-03   2.822976676837546e-03  -8.889176064931163e-04
     6    7.954276628994547e-03  -1.252380670550571e-02  -2.530572089096305e-02

Order 1, Length 18
    Atom      X          Y          Z
     1    8.725516940904208e-04  -1.712646983529132e-04   1.551955774435791e-04
     2   -6.565468456070774e-02   1.070116728383299e-01   2.291959231503971e-01
     3    6.006756207688608e-03  -1.356728640173031e-02  -2.057894682878405e-02
     4    5.518489642949599e-02  -9.675388908830862e-02  -2.175620905153393e-01
     5    4.565118446828699e-03   2.699420588428190e-03   7.811052751785490e-03
     6   -9.759377267425007e-04   7.809232369344449e-04   9.791383371453772e-04


     3 Order 1, Length 18
    Atom      X          Y          Z
     1    1.392532607653867e-03   1.362274504644371e-03  -4.350741740263411e-04
     2    4.828118221873170e-03  -4.597521280325714e-03   6.006756207688608e-03
     3    8.399681987658256e-02  -4.032162171270492e-02   6.565468456070774e-02
     4   -6.530661684782338e-02   2.879209213966824e-02  -5.233142139867854e-02
     5   -2.982537793480602e-02   1.898400757041609e-02  -2.848944974843073e-02
     6    4.914526059934947e-03  -4.219343312611779e-03   9.594650537385556e-03

Order 1, Length 18
    Atom      X          Y          Z
     1   -1.593263462314320e-04   3.889969094458861e-04  -1.076048417909162e-03
     2   -4.597521280325714e-03   8.685166309623710e-03  -1.356728640173031e-02
     3   -4.032162171270492e-02   1.088255125250480e-01  -1.070116728383299e-01
     4    3.237000916384151e-02  -1.081990199842352e-01   9.545995049327292e-02
     5    4.752723924900623e-03   2.822976676164669e-03   8.889176064931163e-04
     6    7.954428254335042e-03  -1.252380670562505e-02   2.530572089096305e-02

Order 1, Length 18
    Atom      X          Y          Z
     1   -8.725516953517201e-04   1.712646952538258e-04   1.551955774435791e-04
     2   -6.006756207688608e-03   1.356728640173031e-02  -2.057894682878405e-02
     3    6.565468456070774e-02  -1.070116728383299e-01   2.291959231503971e-01
     4   -5.518402922518586e-02   9.675388908802221e-02  -2.175620905153393e-01
     5   -4.564756798721635e-03  -2.699420587866388e-03   7.811052751785490e-03
     6    9.755933218843846e-04  -7.809232395157938e-04   9.791383371453772e-04


     4 Order 1, Length 18
    Atom      X          Y          Z
     1   -2.220401746382105e-02   9.937768182686012e-03  -6.290678919709193e-07
     2   -6.530653660521009e-02   3.237045517531817e-02   5.518489642949599e-02
     3   -6.530661684782338e-02   3.237000916384151e-02  -5.518402922518586e-02
     4    4.886512815855359e-01   1.850941813322841e-02   0.000000000000000e+00
     5   -2.609650784830740e-01  -3.375746718648951e-03   0.000000000000000e+00
     6   -7.486824541739570e-02  -8.981315109530129e-02   0.000000000000000e+00

Order 1, Length 18
    Atom      X          Y          Z
     1   -3.990952179270883e-02   4.268359604515107e-03   0.000000000000000e+00
     2    2.879209213562731e-02  -1.081990199800070e-01  -9.675388908830862e-02
     3    2.879209213966824e-02  -1.081990199842352e-01   9.675388908802221e-02
     4    1.850941813322841e-02   5.807092009826126e-01   0.000000000000000e+00
     5    4.103648359131853e-02  -9.241410255013710e-02   0.000000000000000e+00
     6   -7.721603265989543e-02  -2.761651735377668e-01   0.000000000000000e+00

Order 1, Length 18
    Atom      X          Y          Z
     1    0.000000000000000e+00   0.000000000000000e+00  -4.056032492575604e-04
     2    5.233142139867854e-02  -9.545995049327292e-02  -2.175620905153393e-01
     3   -5.233142139867854e-02   9.545995049327292e-02  -2.175620905153393e-01
     4    0.000000000000000e+00   0.000000000000000e+00   5.447641012601806e-01
     5   -6.968572761725916e-07   0.000000000000000e+00  -5.934248392818661e-02
     6   -2.935144134585587e-07   0.000000000000000e+00  -4.989227686908537e-02


     5 Order 1, Length 18
    Atom      X          Y          Z
     1   -1.260978642972650e-01  -2.133679008390087e-01  -6.017522717743281e-07
     2   -2.982446690235251e-02   4.752780033163199e-03   4.565118446828699e-03
     3   -2.982537793480602e-02   4.752723924900623e-03  -4.564756798721635e-03
     4   -2.609650784830740e-01   4.103648359131853e-02  -6.968572761725916e-07
     5    4.740102308445495e-01   1.634205389708689e-01   0.000000000000000e+00
     6   -2.729891557161497e-02  -5.929947041374214e-04   0.000000000000000e+00

Order 1, Length 18
    Atom      X          Y          Z
     1   -1.617321533555168e-01  -4.546329826750680e-01   0.000000000000000e+00
     2    1.898400757046842e-02   2.822976676837546e-03   2.699420588428190e-03
     3    1.898400757041609e-02   2.822976676164669e-03  -2.699420587866388e-03
     4   -3.375746718648951e-03  -9.241410255013710e-02   0.000000000000000e+00
     5    1.634205389708689e-01   5.337601721140487e-01   0.000000000000000e+00
     6   -3.627702500119308e-02   7.643710949752020e-03   0.000000000000000e+00

Order 1, Length 18
    Atom      X          Y          Z
     1    0.000000000000000e+00   0.000000000000000e+00  -2.496917379044498e-03
     2    2.848944974843073e-02  -8.889176064931163e-04   7.811052751785490e-03
     3   -2.848944974843073e-02   8.889176064931163e-04   7.811052751785490e-03
     4    0.000000000000000e+00   0.000000000000000e+00  -5.934248392818661e-02
     5    0.000000000000000e+00   0.000000000000000e+00   4.416225165654435e-02
     6    3.032150505806402e-07   0.000000000000000e+00   2.056796412238437e-03


     6 Order 1, Length 18
    Atom      X          Y          Z
     1   -6.748610570888743e-03   1.056967833101170e-03   4.012674696216287e-07
     2    4.914321017981097e-03   7.954276628994547e-03  -9.759377267425007e-04
     3    4.914526059934947e-03   7.954428254335042e-03   9.755933218843846e-04
     4   -7.486824541739570e-02  -7.721603265989543e-02  -2.935144134585587e-07
     5   -2.729891557161497e-02  -3.627702500119308e-02   3.032150505806402e-07
     6    9.908720802587281e-02   9.652805653446148e-02   0.000000000000000e+00

Order 1, Length 18
    Atom      X          Y          Z
     1    2.314726263279958e-03   2.207706223063998e-03   0.000000000000000e+00
     2   -4.219343315000353e-03  -1.252380670550571e-02   7.809232369344449e-04
     3   -4.219343312611779e-03  -1.252380670562505e-02  -7.809232395157938e-04
     4   -8.981315109530129e-02  -2.761651735377668e-01   0.000000000000000e+00
     5   -5.929947041374214e-04   7.643710949752020e-03   0.000000000000000e+00
     6    9.652805653446148e-02   2.913613999254719e-01   0.000000000000000e+00

Order 1, Length 18
    Atom      X          Y          Z
     1    0.000000000000000e+00   0.000000000000000e+00   1.005116649324077e-04
     2   -9.594650537385556e-03  -2.530572089096305e-02   9.791383371453772e-04
     3    9.594650537385556e-03   2.530572089096305e-02   9.791383371453772e-04
     4    0.000000000000000e+00   0.000000000000000e+00  -4.989227686908537e-02
     5    0.000000000000000e+00   0.000000000000000e+00   2.056796412238437e-03
     6    0.000000000000000e+00   0.000000000000000e+00   4.577664602806176e-02




 # Finishing finite difference calculation for IDERIV #
 ######################################################
 ######################################################
 Requested basis set is non-standard
 There are 48 shells and 108 basis functions
 **********************************************************************
 **                                                                  **
 **                       VIBRATIONAL ANALYSIS                       **
 **                       --------------------                       **
 **                                                                  **
 **        VIBRATIONAL FREQUENCIES (CM**-1) AND NORMAL MODES         **
 **     FORCE CONSTANTS (mDYN/ANGSTROM) AND REDUCED MASSES (AMU)     **
 **                  INFRARED INTENSITIES (KM/MOL)                   **
 **                                                                  **
 **********************************************************************
 

 Mode:                 1                      2                      3
 Frequency:       287.21                1052.83                1107.93
 Force Cnst:      0.0521                 0.7500                 3.6963
 Red. Mass:       1.0719                 1.1485                 5.1109
 IR Active:          YES                    YES                    YES
 IR Intens:      121.250                 71.872                 61.380
 Raman Active:       YES                    YES                    YES
               X      Y      Z        X      Y      Z        X      Y      Z
 H          0.000  0.000  0.888    0.576 -0.316  0.000   -0.411  0.051  0.000
 H          0.060  0.217 -0.101   -0.257 -0.201  0.040    0.492  0.067 -0.034
 H         -0.060 -0.217 -0.101   -0.257 -0.201 -0.040    0.492  0.067  0.034
 C          0.000  0.000  0.005    0.040  0.068  0.000    0.431 -0.083  0.000
 O          0.000  0.000 -0.065   -0.069  0.004  0.000   -0.361  0.046  0.000
 H          0.000  0.000  0.293    0.563 -0.160  0.000    0.017  0.083  0.000
 TransDip   0.000  0.000  0.353    0.266 -0.052  0.000    0.250 -0.022  0.000

 Mode:                 4                      5                      6
 Frequency:      1165.52                1342.58                1463.89
 Force Cnst:      1.0201                 1.3783                 1.4451
 Red. Mass:       1.2745                 1.2978                 1.1445
 IR Active:          YES                    YES                    YES
 IR Intens:        0.797                 27.645                  2.851
 Raman Active:       YES                    YES                    YES
               X      Y      Z        X      Y      Z        X      Y      Z
 H          0.000  0.000 -0.005    0.736 -0.295  0.000   -0.016 -0.002  0.000
 H         -0.629  0.127 -0.188    0.169  0.192 -0.108    0.471  0.220  0.080
 H          0.629 -0.127 -0.188    0.169  0.192  0.108    0.471  0.220 -0.080
 C          0.000  0.000  0.138   -0.031 -0.124  0.000   -0.110 -0.010  0.000
 O          0.000  0.000 -0.062   -0.017  0.084  0.000   -0.013 -0.002  0.000
 H          0.000  0.000 -0.287   -0.438  0.045  0.000    0.592 -0.288  0.000
 TransDip   0.000  0.000  0.029    0.161 -0.049  0.000   -0.051  0.018  0.000

 Mode:                 7                      8                      9
 Frequency:      1482.70                1492.77                2958.04
 Force Cnst:      1.3537                 1.3741                 5.3357
 Red. Mass:       1.0451                 1.0466                 1.0350
 IR Active:          YES                    YES                    YES
 IR Intens:        4.003                  5.622                 55.477
 Raman Active:       YES                    YES                    YES
               X      Y      Z        X      Y      Z        X      Y      Z
 H          0.000  0.000 -0.011   -0.095  0.032  0.000   -0.005 -0.003  0.000
 H         -0.323 -0.362  0.060   -0.296  0.457 -0.401    0.204 -0.315 -0.554
 H          0.323  0.362  0.060   -0.296  0.457  0.401    0.204 -0.315  0.554
 C          0.000  0.000 -0.057    0.031 -0.045  0.000   -0.041  0.028  0.000
 O          0.000  0.000 -0.009    0.004 -0.019  0.000   -0.002  0.000  0.000
 H          0.000  0.000  0.720    0.244 -0.113  0.000    0.118  0.296  0.000
 TransDip   0.000  0.000  0.064    0.028  0.071  0.000   -0.221  0.089  0.000

 Mode:                10                     11                     12
 Frequency:      3011.84                3068.95                3906.36
 Force Cnst:      5.9072                 6.0987                 9.5900
 Red. Mass:       1.1053                 1.0990                 1.0667
 IR Active:          YES                    YES                    YES
 IR Intens:       46.358                 21.860                 53.009
 Raman Active:       YES                    YES                    YES
               X      Y      Z        X      Y      Z        X      Y      Z
 H          0.000  0.000  0.002    0.002 -0.015  0.000    0.445  0.893  0.000
 H         -0.218  0.351  0.570   -0.066  0.086  0.182    0.003  0.000  0.000
 H          0.218 -0.351  0.570   -0.066  0.086 -0.182    0.003  0.000  0.000
 C          0.000  0.000 -0.094   -0.019 -0.089  0.000    0.001 -0.002  0.000
 O          0.000  0.000  0.000    0.000  0.001  0.000   -0.029 -0.055  0.000
 H          0.000  0.000 -0.025    0.359  0.879  0.000    0.004  0.012  0.000
 TransDip   0.000  0.000 -0.218   -0.040 -0.144  0.000    0.157  0.172  0.000

 STANDARD THERMODYNAMIC QUANTITIES AT   298.15 K  AND     1.00 ATM

   This Molecule has  0 Imaginary Frequencies
   Zero point vibrational energy:       31.938 kcal/mol

   Atom    1 Element H  Has Mass    1.00783
   Atom    2 Element H  Has Mass    1.00783
   Atom    3 Element H  Has Mass    1.00783
   Atom    4 Element C  Has Mass   12.00000
   Atom    5 Element O  Has Mass   15.99491
   Atom    6 Element H  Has Mass    1.00783
   Molecular Mass:    32.026230 amu
   Principal axes and moments of inertia in amu*Bohr^2:
                             1           2           3
    Eigenvalues --       14.11641    72.69681    75.26757
          X               0.99893     0.04614     0.00000
          Y              -0.04614     0.99893     0.00000
          Z               0.00000     0.00000     1.00000
   Rotational Symmetry Number is   1
   The Molecule is an Asymmetric Top
   Translational Enthalpy:        0.889 kcal/mol
   Rotational Enthalpy:           0.889 kcal/mol
   Vibrational Enthalpy:         32.273 kcal/mol
   gas constant (RT):             0.592 kcal/mol
   Translational Entropy:        36.324  cal/mol.K
   Rotational Entropy:           18.985  cal/mol.K
   Vibrational Entropy:           1.735  cal/mol.K

   Total Enthalpy:               34.643 kcal/mol
   Total Entropy:                57.045  cal/mol.K
Archival summary:
1\1\node71\FREQ\ProcedureUnspecified\BasisUnspecified\114\edames\MonJun2315:25:322014MonJun2315:25:322014\0\\#,FREQ,ProcedureUnspecified,BasisUnspecified,\\0,1\O\H,1,0.961103\C,1,1.41574,2,109.782\H,3,1.09468,1,107.108,2,-180,0\H,3,1.10031,1,111.99,2,-61.3728,0\H,3,1.10031,1,111.99,2,61.3728,0\\\@

 Total job time:  773.31s(wall), 735.08s(cpu) 
 Mon Jun 23 15:25:32 2014

        *************************************************************
        *                                                           *
        *  Thank you very much for using Q-Chem.  Have a nice day.  *
        *                                                           *
        *************************************************************


0 sent ACK to 0 
now end server 0 ... 
cleanup process ... done
remove work dirs /scratch/edames/qchem13869.0 -- /scratch/edames/qchem13869.3
rm -rf /scratch/edames/qchem13869.0
rm -rf /scratch/edames/qchem13869.1
rm -rf /scratch/edames/qchem13869.2
rm -rf /scratch/edames/qchem13869.3
rm -rf /scratch/edames/qchem13869
