
Running Job 1 of 2 ts1.in
qchem ts1.in_5416.0 /scratch/edames/qchem5416/ 8
/opt/qchem/bin/mpi/mpirun_qchem -machinefile /tmp/318079.1.normal1/hostfile -np 8 /opt/qchem/exe/qcprog.exe ts1.in_5416.0 /scratch/edames/qchem5416/

Process 1 of 8 is on node24.cluster - thread support 0
Process 2 of 8 is on node24.cluster - thread support 0
Process 5 of 8 is on node24.cluster - thread support 0
Process 3 of 8 is on node24.cluster - thread support 0
Process 7 of 8 is on node24.cluster - thread support 0
initial socket setup ...start
initial socket setup ...done 
now start server 0 ... 
set process cleaner
set process cleaner
set process cleaner
set process cleaner
set process cleaner
                  Welcome to Q-Chem
     A Quantum Leap Into The Future Of Chemistry


 Q-Chem 4.2, Q-Chem, Inc., Pleasanton, CA (2014).

 Y. Shao,  Z. Gan,  E. Epifanovsky,  A. T. B. Gilbert,  M. Wormit,  
 J. Kussmann,  A. W. Lange,  A. Behn,  J. Deng,  X. Feng,  D. Ghosh,  
 M. Goldey,  P. R. Horn,  L. D. Jacobson,  I. Kaliman,  R. Z. Khaliullin,  
 T. Kus,  A. Landau,  J. Liu,  E. I. Proynov,  Y. M. Rhee,  R. M. Richard,  
 M. A. Rohrdanz,  R. P. Steele,  E. J. Sundstrom,  H. L. Woodcock III,  
 P. M. Zimmerman,  D. Zuev,  B. Albrecht,  E. Alguire,  B. Austin,  
 G. J. O. Beran,  Y. A. Bernard,  E. Berquist,  K. Brandhorst,  
 K. B. Bravaya,  S. T. Brown,  D. Casanova,  C.-M. Chang,  Y. Chen,  
 S. H. Chien,  K. D. Closser,  D. L. Crittenden,  M. Diedenhofen,  
 R. A. DiStasio Jr.,  H. Do,  A. D. Dutoi,  R. G. Edgar,  S. Fatehi,  
 L. Fusti-Molnar,  A. Ghysels,  A. Golubeva-Zadorozhnaya,  J. Gomes,  
 M. W. D. Hanson-Heine,  P. H. P. Harbach,  A. W. Hauser,  E. G. Hohenstein,  
 Z. C. Holden,  T.-C. Jagau,  H. Ji,  B. Kaduk,  K. Khistyaev,  Jaehoon Kim,  
 Jihan Kim,  R. A. King,  P. Klunzinger,  D. Kosenkov,  T. Kowalczyk,  
 C. M. Krauter,  K. U. Lao,  A. Laurent,  K. V. Lawler,  S. V. Levchenko,  
 C. Y. Lin,  F. Liu,  E. Livshits,  R. C. Lochan,  A. Luenser,  P. Manohar,  
 S. F. Manzer,  S.-P. Mao,  N. Mardirossian,  A. V. Marenich,  S. A. Maurer,  
 N. J. Mayhall,  C. M. Oana,  R. Olivares-Amaya,  D. P. O'Neill,  
 J. A. Parkhill,  T. M. Perrine,  R. Peverati,  P. A. Pieniazek,  A. Prociuk,  
 D. R. Rehn,  E. Rosta,  N. J. Russ,  N. Sergueev,  S. M. Sharada,  
 S. Sharma,  D. W. Small,  A. Sodt,  T. Stein,  D. Stuck,  Y.-C. Su,  
 A. J. W. Thom,  T. Tsuchimochi,  L. Vogt,  O. Vydrov,  T. Wang,  
 M. A. Watson,  J. Wenzel,  A. White,  C. F. Williams,  V. Vanovschi,  
 S. Yeganeh,  S. R. Yost,  Z.-Q. You,  I. Y. Zhang,  X. Zhang,  Y. Zhao,  
 B. R. Brooks,  G. K. L. Chan,  D. M. Chipman,  C. J. Cramer,  
 W. A. Goddard III,  M. S. Gordon,  W. J. Hehre,  A. Klamt,  
 H. F. Schaefer III,  M. W. Schmidt,  C. D. Sherrill,  D. G. Truhlar,  
 A. Warshel,  X. Xu,  A. Aspuru-Guzik,  R. Baer,  A. T. Bell,  N. A. Besley,  
 J.-D. Chai,  A. Dreuw,  B. D. Dunietz,  T. R. Furlani,  S. R. Gwaltney,  
 C.-P. Hsu,  Y. Jung,  J. Kong,  D. S. Lambrecht,  W. Liang,  C. Ochsenfeld,  
 V. A. Rassolov,  L. V. Slipchenko,  J. E. Subotnik,  T. Van Voorhis,  
 J. M. Herbert,  A. I. Krylov,  P. M. W. Gill,  M. Head-Gordon

 Contributors to earlier versions of Q-Chem not listed above: 
 R. D. Adamson,  J. Baker,  E. F. C. Byrd,  A. K. Chakraborty,  C.-L. Cheng,  
 H. Dachsel,  R. J. Doerksen,  G. Hawkins,  A. Heyden,  S. Hirata,  
 G. Kedziora,  F. J. Keil,  C. Kelley,  P. P. Korambath,  W. Kurlancheek,  
 A. M. Lee,  M. S. Lee,  D. Liotard,  I. Lotan,  P. E. Maslen,  N. Nair,  
 D. Neuhauser,  R. Olson,  B. Peters,  J. Ritchie,  N. E. Schultz,  
 N. Shenvi,  A. C. Simmonett,  K. S. Thanthiriwatte,  Q. Wu,  W. Zhang

 Q-Chem 4.2.0 for Intel X86 Linux

 Parts of Q-Chem use Armadillo 4.100.2 (Dirt Cruiser).
 http://arma.sourceforge.net/

 Q-Chem begins on Wed Jun 25 07:24:37 2014  

Host: 
0

     Scratch files written to /scratch/edames/qchem5416.0//
 May2514 8580_ilyak 4150   
 Parallel job on  8  processors
Processing $rem in /opt/qchem/config/preferences.
 MEM_TOTAL  2000 
Warning: disabling incdft.
 Q-Chem warning in module /home/scratch/svnadmin/8580_ilyak/qchem/forms1/BasisType.C, line 1209:

 Setting pure/cartesian flag to 2111 for general basis


Finally everything over in PARseQInput

--------------------------------------------------------------
User input:
--------------------------------------------------------------
$rem
XC_GRID 000075000434
JOBTYPE ts
EXCHANGE M08SO
SCF_ALGORITHM DIIS_GDM
BASIS gen
GUI=2
UNRESTRICTED TRUE
CORRELATION NONE
$end

$comment
c5h11o-2
$end

$molecule
0 2
O       1.5394312769    -0.5654889660     0.2461402615
H       2.1412272091     1.1788839371    -0.5890707529
C       1.3515877891     0.5613445824    -0.0904938679
H       0.0752531934     0.9777666245     0.0443765132
C      -1.2813441220     0.6457190754     0.1614546239
O      -1.3341097173    -0.6651641219    -0.2591575297
H      -1.4931005369     0.8088069726     1.2263243616
H      -1.8396522504     1.2985769022    -0.5121286906
H      -0.6862682231    -1.1932241008     0.2288707777
$end

$basis
H  0
S  3 1.00
3.386500000000E+01 2.549380000000E-02
5.094790000000E+00 1.903730000000E-01
1.158790000000E+00 8.521610000000E-01
S  1 1.00
3.258400000000E-01 1.000000000000E+00
S  1 1.00
1.027410000000E-01 1.000000000000E+00
S  1 1.00
3.600000000000E-02 1.000000000000E+00
P  1 1.00
1.500000000000E+00 1.000000000000E+00
P  1 1.00
3.750000000000E-01 1.000000000000E+00
****
C 0
S  6 1.00
4.563240000000E+03 1.966650000000E-03
6.820240000000E+02 1.523060000000E-02
1.549730000000E+02 7.612690000000E-02
4.445530000000E+01 2.608010000000E-01
1.302900000000E+01 6.164620000000E-01
1.827730000000E+00 2.210060000000E-01
S  3 1.00
2.096420000000E+01 1.146600000000E-01
4.803310000000E+00 9.199990000000E-01
1.459330000000E+00 -3.030680000000E-03
S  1 1.00
4.834560000000E-01 1.000000000000E+00
S  1 1.00
1.455850000000E-01 1.000000000000E+00
S  1 1.00
4.380000000000E-02 1.000000000000E+00
P  3 1.00
2.096420000000E+01 4.024870000000E-02
4.803310000000E+00 2.375940000000E-01
1.459330000000E+00 8.158540000000E-01
P  1 1.00
4.834560000000E-01 1.000000000000E+00
P  1 1.00
1.455850000000E-01 1.000000000000E+00
P  1 1.00
4.380000000000E-02 1.000000000000E+00
D  1 1.00
1.252000000000E+00 1.000000000000E+00
D  1 1.00
3.130000000000E-01 1.000000000000E+00
F  1 1.00
8.000000000000E-01 1.000000000000E+00
****
O  0
S  6 1.00
8.588500000000E+03 1.895150000000E-03
1.297230000000E+03 1.438590000000E-02
2.992960000000E+02 7.073200000000E-02
8.737710000000E+01 2.400010000000E-01
2.567890000000E+01 5.947970000000E-01
3.740040000000E+00 2.808020000000E-01
S  3 1.00
4.211750000000E+01 1.138890000000E-01
9.628370000000E+00 9.208110000000E-01
2.853320000000E+00 -3.274470000000E-03
S  1 1.00
9.056610000000E-01 1.000000000000E+00
S  1 1.00
2.556110000000E-01 1.000000000000E+00
S  1 1.00
8.450000000000E-02 1.000000000000E+00
P  3 1.00
4.211750000000E+01 3.651140000000E-02
9.628370000000E+00 2.371530000000E-01
2.853320000000E+00 8.197020000000E-01
P  1 1.00
9.056610000000E-01 1.000000000000E+00
P  1 1.00
2.556110000000E-01 1.000000000000E+00
P  1 1.00
8.450000000000E-02 1.000000000000E+00
D  1 1.00
2.584000000000E+00 1.000000000000E+00
D  1 1.00
6.460000000000E-01 1.000000000000E+00
F  1 1.00
1.400000000000E+00 1.000000000000E+00
****
$end

--------------------------------------------------------------
 ----------------------------------------------------------------
             Standard Nuclear Orientation (Angstroms)
    I     Atom           X                Y                Z
 ----------------------------------------------------------------
    1      O       1.5420538864    -0.5650634325     0.1860779076
    2      H       2.1063415989     1.1854296283    -0.6624066411
    3      C       1.3351839103     0.5600877923    -0.1449826506
    4      H       0.0586313732     0.9641757821     0.0216122280
    5      C      -1.2914247303     0.6190677302     0.1718390065
    6      O      -1.3419830087    -0.6920463452    -0.2483244028
    7      H      -1.4784199457     0.7795723726     1.2417254719
    8      H      -1.8723954146     1.2668827855    -0.4872926252
    9      H      -0.6772797137    -1.2141154818     0.2231953931
 ----------------------------------------------------------------
 Molecular Point Group                 C1    NOp =  1
 Largest Abelian Subgroup              C1    NOp =  1
 Nuclear Repulsion Energy =   116.1332296544 hartrees
 There are       17 alpha and       16 beta electrons
 Requested basis set is non-standard
 There are 78 shells and 186 basis functions

Total QAlloc Memory Limit   2000 MB
Mega-Array Size        61 MB
MEM_STATIC part        62 MB
 A cutoff of  1.0D-12 yielded   2969 shell pairs
 There are     17065 function pairs (     21036 Cartesian)
 Smallest overlap matrix eigenvalue = 3.70E-04

  Scale SEOQF with 1.000000e-01/1.000000e-01/1.000000e-01

 Standard Electronic Orientation quadrupole field applied
 Nucleus-field energy     =     0.0000000031 hartrees
 Guess MOs from core Hamiltonian diagonalization
 An unrestricted hybrid HF-DFT SCF calculation will be
 performed using Pulay DIIS + Geometric Direct Minimization
 Exchange:     0.5679 Hartree-Fock + 1.0000 M08SO
 SCF converges when RMS gradient is below 1.0E-08
 ---------------------------------------
  Cycle       Energy         DIIS Error
 ---------------------------------------
    1    -181.5170792754      1.41E-01
    2    -171.6472220209      6.37E-02
    3    -203.5501083359      6.87E-02
    4    -220.5691472430      3.77E-02
    5    -225.4784398174      2.56E-02
    6    -227.2043922892      2.19E-02
    7    -229.2263446795      8.01E-03 Done DIIS. Switching to GDM
    8    -229.4037166933      6.22E-02 Descent step
    9    -229.4410519114      6.51E-02 Normal BFGS step
   10    -229.4602793316      2.19E-02 Normal BFGS step
   11    -229.4614217158      1.76E-02 Normal BFGS step
   12    -229.4624073454      9.01E-03 Normal BFGS step
   13    -229.4627363261      3.83E-03 Normal BFGS step
   14    -229.4628654846      1.89E-03 Normal BFGS step
   15    -229.4628986295      7.10E-04 Normal BFGS step
   16    -229.4629074635      3.32E-04 Normal BFGS step
   17    -229.4629086609      1.39E-04 Normal BFGS step
   18    -229.4629088581      4.95E-05 Normal BFGS step
   19    -229.4629088938      2.23E-05 Normal BFGS step
   20    -229.4629088978      6.03E-06 Normal BFGS step
   21    -229.4629088982      2.34E-06 Normal BFGS step
   22    -229.4629088982      1.14E-06 Normal BFGS step
   23    -229.4629088982      4.66E-07 Normal BFGS step
   24    -229.4629088982      1.45E-07 Normal BFGS step
   25    -229.4629088982      1.15E-07 Normal BFGS step
   26    -229.4629088983      2.00E-08 Normal BFGS step
   27    -229.4629088983      6.95E-09 Convergence criterion met
 ---------------------------------------
 <S^2> = 0.7591
 SCF time:  CPU 191.58 s  wall 195.45 s
 SCF   energy in the final basis set = -229.4629088983
 Total energy in the final basis set = -229.4629088983
 Analysis of SCF Wavefunction
 
 --------------------------------------------------------------
                    Orbital Energies (a.u.)
 --------------------------------------------------------------
 
 Alpha MOs
 -- Occupied --
-19.607 -19.586 -10.608 -10.557  -1.205  -1.162  -0.783  -0.711
 -0.629  -0.586  -0.560  -0.534  -0.506  -0.484  -0.422  -0.382
 -0.243
 -- Virtual --
 -0.025  -0.021  -0.007  -0.001   0.013   0.030   0.039   0.055
  0.062   0.083   0.099   0.103   0.126   0.130   0.167   0.173
  0.185   0.199   0.211   0.227   0.242   0.249   0.270   0.287
  0.289   0.296   0.324   0.360   0.386   0.423   0.432   0.506
  0.521   0.530   0.555   0.557   0.584   0.596   0.608   0.627
  0.638   0.659   0.720   0.738   0.784   0.790   0.817   0.898
  0.927   0.934   0.966   1.009   1.031   1.032   1.048   1.070
  1.083   1.115   1.131   1.148   1.173   1.200   1.245   1.273
  1.286   1.320   1.362   1.412   1.418   1.437   1.473   1.490
  1.554   1.590   1.616   1.726   1.816   1.939   1.978   2.017
  2.071   2.210   2.240   2.272   2.398   2.426   2.450   2.509
  2.667   2.743   2.776   2.829   2.870   2.910   2.963   3.001
  3.019   3.079   3.090   3.119   3.138   3.169   3.203   3.234
  3.275   3.306   3.338   3.353   3.429   3.459   3.496   3.521
  3.555   3.619   3.674   3.729   3.762   3.779   3.804   3.872
  3.978   3.999   4.027   4.072   4.087   4.095   4.182   4.214
  4.252   4.336   4.378   4.870   4.929   4.977   5.011   5.080
  5.086   5.130   5.144   5.198   5.239   5.291   5.355   5.369
  5.439   5.482   5.515   5.712   5.770   5.899   6.196   6.377
  6.494   6.765   6.815   6.893   6.969   7.080   7.094   7.120
  7.153   7.294   7.425   7.503   7.553  24.133  24.296  49.748
 49.869
 
 Beta MOs
 -- Occupied --
-19.604 -19.583 -10.598 -10.545  -1.197  -1.155  -0.769  -0.694
 -0.615  -0.572  -0.550  -0.528  -0.499  -0.461  -0.410  -0.351
 -- Virtual --
 -0.049  -0.029  -0.019  -0.010  -0.005   0.011   0.023   0.035
  0.051   0.062   0.078   0.094   0.101   0.123   0.127   0.167
  0.174   0.188   0.201   0.214   0.229   0.241   0.250   0.274
  0.288   0.297   0.301   0.327   0.361   0.390   0.428   0.437
  0.514   0.524   0.535   0.561   0.563   0.593   0.605   0.614
  0.633   0.644   0.679   0.726   0.746   0.791   0.794   0.826
  0.904   0.932   0.939   0.971   1.012   1.034   1.036   1.053
  1.076   1.084   1.119   1.139   1.150   1.178   1.204   1.254
  1.277   1.296   1.330   1.370   1.421   1.429   1.446   1.481
  1.504   1.557   1.593   1.648   1.731   1.822   1.941   1.985
  2.023   2.075   2.207   2.250   2.273   2.411   2.432   2.459
  2.527   2.688   2.761   2.788   2.859   2.901   2.918   2.983
  3.024   3.032   3.091   3.133   3.151   3.175   3.182   3.239
  3.250   3.308   3.345   3.361   3.388   3.476   3.495   3.533
  3.537   3.596   3.655   3.703   3.742   3.790   3.804   3.820
  3.893   3.983   3.995   4.037   4.082   4.087   4.104   4.185
  4.248   4.267   4.354   4.401   4.934   4.940   5.003   5.014
  5.079   5.100   5.140   5.154   5.211   5.259   5.296   5.349
  5.364   5.449   5.492   5.529   5.701   5.774   5.893   6.190
  6.388   6.494   6.766   6.813   6.889   6.968   7.075   7.092
  7.120   7.153   7.295   7.418   7.496   7.544  24.140  24.301
 49.751  49.874
 --------------------------------------------------------------
 
          Ground-State Mulliken Net Atomic Charges

     Atom                 Charge (a.u.)    Spin (a.u.)
  --------------------------------------------------------
      1 O                    -0.233148       0.065803
      2 H                     0.155475       0.094123
      3 C                    -0.033697       0.314903
      4 H                     0.150032      -0.053731
      5 C                    -0.417508       0.542048
      6 O                    -0.283510       0.049143
      7 H                     0.186575       0.001451
      8 H                     0.181919      -0.012694
      9 H                     0.293862      -0.001048
  --------------------------------------------------------
  Sum of atomic charges =     0.000000
  Sum of spin   charges =     1.000000

 -----------------------------------------------------------------
                    Cartesian Multipole Moments
 -----------------------------------------------------------------
    Charge (ESU x 10^10)
                 0.0000
    Dipole Moment (Debye)
         X       0.4426      Y       2.2067      Z       0.3985
       Tot       2.2857
    Quadrupole Moments (Debye-Ang)
        XX     -27.6679     XY       1.0818     YY     -23.9623
        XZ      -2.2805     YZ      -1.3244     ZZ     -24.8086
    Octopole Moments (Debye-Ang^2)
       XXX       4.2167    XXY       9.2762    XYY       0.1632
       YYY      -6.9926    XXZ      -1.4643    XYZ       1.2096
       YYZ       0.2708    XZZ       0.3979    YZZ      -0.6728
       ZZZ       0.8064
    Hexadecapole Moments (Debye-Ang^3)
      XXXX    -331.9322   XXXY       3.6288   XXYY     -70.3333
      XYYY       2.1348   YYYY     -95.3199   XXXZ      -0.5944
      XXYZ      -3.6536   XYYZ      -0.4568   YYYZ      -2.2858
      XXZZ     -58.3571   XYZZ      -0.6414   YYZZ     -22.8391
      XZZZ       0.2975   YZZZ      -0.4726   ZZZZ     -38.6438
 -----------------------------------------------------------------
 Calculating analytic gradient of the SCF energy
 Gradient of Coulomb and Exchange Energy
            1           2           3           4           5           6
    1  -6.0960184  -2.4021970  -0.4207979   0.3794059   1.6382819   6.4667893
    2  11.5652385  -2.0692342  -9.1700571  -1.2732493  -4.0524948   5.4075348
    3  -3.5295369   1.5748261   2.0758763  -0.3750080  -0.6239567   4.0294746
            7           8           9
    1   0.7932509   1.9477449  -2.3064595
    2  -0.9378295  -2.4842152   3.0143068
    3  -3.4736097   2.0170188  -1.6950845
 Gradient of SCF Energy
            1           2           3           4           5           6
    1  -0.0002745   0.0001522   0.0015030  -0.0033598   0.0024795   0.0000596
    2   0.0010868  -0.0003926  -0.0003511  -0.0010711   0.0013484  -0.0007189
    3  -0.0000850  -0.0003721  -0.0005986   0.0017225  -0.0006158  -0.0000312
            7           8           9
    1  -0.0005204   0.0000809  -0.0001205
    2  -0.0002144   0.0003275  -0.0000146
    3  -0.0000349  -0.0000056   0.0000206
 Max gradient component =       3.360E-03
 RMS gradient           =       1.037E-03
 Gradient time:  CPU 11.11 s  wall 11.89 s
 Geometry Optimization Parameters
   NAtoms,    NIC,     NZ,  NCons,   NDum,   NFix, NCnnct, MaxDiis
        9      45       0       0       0       0       0       0


** GEOMETRY OPTIMIZATION IN DELOCALIZED INTERNAL COORDINATES **
   Searching for a Transition State

   Optimization Cycle:   1

                       Coordinates (Angstroms)
     ATOM                X               Y               Z
      1  O         1.5420538864   -0.5650634325    0.1860779076
      2  H         2.1063415989    1.1854296283   -0.6624066411
      3  C         1.3351839103    0.5600877923   -0.1449826506
      4  H         0.0586313732    0.9641757821    0.0216122280
      5  C        -1.2914247303    0.6190677302    0.1718390065
      6  O        -1.3419830087   -0.6920463452   -0.2483244028
      7  H        -1.4784199457    0.7795723726    1.2417254719
      8  H        -1.8723954146    1.2668827855   -0.4872926252
      9  H        -0.6772797137   -1.2141154818    0.2231953931
   Point Group: c1    Number of degrees of freedom:    21


   Energy is   -229.462908898


 Attempting to Generate Delocalized Internal Coordinates
 GETINT wrote B to file, NVib is           21
 calling HSSCONV
 HCONV 3*NATOMS:           27
 wrote HINT to file
  writing hessian 

 21 Hessian modes will be used to form the next step
  Hessian Eigenvalues:
     0.002000    0.002000    0.003268    0.018593    0.090851    0.091307
     0.112200    0.138578    0.143164    0.160000    0.160000    0.160000
     0.160000    0.160000    0.163333    0.316062    0.339153    0.346255
     0.495213    0.538204    1.095053
**WARNING** Hessian does not have the Desired Local Structure

 Transition State Search - Taking P-RFO Step
 Searching for Lamda that Maximizes Along the Lowest mode
 Value Taken    Lamda =   0.00216826
 Searching for Lamda that Minimizes Along All other modes
 Value Taken    Lamda =  -0.00025823
 Calculated Step too Large.  Step scaled by  0.083300
 Step Taken.  Stepsize is  0.300000

                             Maximum     Tolerance    Cnvgd?
         Gradient           0.001679      0.000300      NO
         Displacement       0.224334      0.001200      NO
         Energy change     *********      0.000001      NO


 New Cartesian Coordinates Obtained by Inverse Iteration

 Displacement from previous Coordinates is:  0.657621
 ----------------------------------------------------------------
             Standard Nuclear Orientation (Angstroms)
    I     Atom           X                Y                Z
 ----------------------------------------------------------------
    1      O       1.5911333418    -0.4652154982     0.4115735852
    2      H       2.0686297887     1.0899218007    -0.7955252367
    3      C       1.3362342399     0.5630678100    -0.1326018154
    4      H       0.0560284643     0.9649804944     0.0059542290
    5      C      -1.2912534758     0.6169696415     0.1788634834
    6      O      -1.3619216323    -0.6683263467    -0.3120151058
    7      H      -1.4436493904     0.7182218348     1.2614082056
    8      H      -1.8890032607     1.3026609077    -0.4245646189
    9      H      -0.6854901196    -1.2182898126     0.1083509609
 ----------------------------------------------------------------
 Molecular Point Group                 C1    NOp =  1
 Largest Abelian Subgroup              C1    NOp =  1
 Nuclear Repulsion Energy =   115.5320683547 hartrees
 There are       17 alpha and       16 beta electrons
 Applying Cartesian multipole field
    Component          Value
    ---------          -----
     (2,0,0)        1.00000E-11
     (0,2,0)        2.00000E-11
     (0,0,2)       -3.00000E-11
 Nucleus-field energy     =     0.0000000029 hartrees
 Requested basis set is non-standard
 There are 78 shells and 186 basis functions
 A cutoff of  1.0D-12 yielded   2968 shell pairs
 There are     17038 function pairs (     21000 Cartesian)
 Smallest overlap matrix eigenvalue = 3.48E-04
 Guess MOs from SCF MO coefficient file
Reading MOs from coefficient file
Reading MOs from coefficient file
 An unrestricted hybrid HF-DFT SCF calculation will be
 performed using Pulay DIIS + Geometric Direct Minimization
 Exchange:     0.5679 Hartree-Fock + 1.0000 M08SO
 SCF converges when RMS gradient is below 1.0E-08
Geometry optimization detected.  Setting ReadMinima to 0
Setting SaveMinima to 0
 Inaccurate integrated density:
   Number of electrons =    33
   Numerical integral  =    32.914514396689
   Relative error      =    -0.2590472828 %
 ---------------------------------------
  Cycle       Energy        RMS Gradient
 ---------------------------------------
    1    -229.3963211648      5.51E-03 Done DIIS. Switching to GDM
    2    -229.4570073808      2.54E-02 Normal BFGS step
    3    -229.4588318242      3.26E-02 Normal BFGS step
    4    -229.4618553691      7.29E-03 Normal BFGS step
    5    -229.4619583039      4.33E-03 Normal BFGS step
    6    -229.4621580054      5.64E-04 Normal BFGS step
    7    -229.4621605707      4.62E-04 Normal BFGS step
    8    -229.4621627235      1.70E-04 Normal BFGS step
    9    -229.4621628559      9.50E-05 Normal BFGS step
   10    -229.4621629323      5.36E-05 Normal BFGS step
   11    -229.4621629569      2.80E-05 Normal BFGS step
   12    -229.4621629650      1.19E-05 Normal BFGS step
   13    -229.4621629663      6.26E-06 Normal BFGS step
   14    -229.4621629666      1.53E-06 Normal BFGS step
   15    -229.4621629666      7.28E-07 Normal BFGS step
   16    -229.4621629666      2.48E-07 Normal BFGS step
   GDM::WARNING energy changes are now smaller than effective accuracy.
   GDM::        calculation will continue, but THRESH should be increased
   GDM::        or SCF_CONVERGENCE decreased.
   GDM::        effective_thresh =   1.075545730255811E-008
   17    -229.4621629666      5.81E-08 Normal BFGS step
   GDM::WARNING energy changes are now smaller than effective accuracy.
   GDM::        calculation will continue, but THRESH should be increased
   GDM::        or SCF_CONVERGENCE decreased.
   GDM::        effective_thresh =   1.075545730255811E-008
   18    -229.4621629666      1.83E-08 Normal BFGS step
   GDM::WARNING energy changes are now smaller than effective accuracy.
   GDM::        calculation will continue, but THRESH should be increased
   GDM::        or SCF_CONVERGENCE decreased.
   GDM::        effective_thresh =   1.075545730255811E-008
   19    -229.4621629666      1.64E-08 Normal BFGS step
   20    -229.4621629666      9.65E-09 Convergence criterion met
 ---------------------------------------
 <S^2> = 0.7590
 SCF time:  CPU 146.43 s  wall 148.36 s
 SCF   energy in the final basis set = -229.4621629666
 Total energy in the final basis set = -229.4621629666
 Analysis of SCF Wavefunction
 
 --------------------------------------------------------------
                    Orbital Energies (a.u.)
 --------------------------------------------------------------
 
 Alpha MOs
 -- Occupied --
-19.607 -19.588 -10.609 -10.558  -1.204  -1.164  -0.784  -0.712
 -0.629  -0.586  -0.560  -0.536  -0.508  -0.487  -0.422  -0.381
 -0.245
 -- Virtual --
 -0.025  -0.021  -0.007  -0.002   0.012   0.031   0.038   0.053
  0.066   0.084   0.099   0.106   0.125   0.131   0.161   0.166
  0.182   0.198   0.216   0.227   0.244   0.258   0.261   0.282
  0.289   0.290   0.322   0.359   0.385   0.424   0.431   0.505
  0.519   0.528   0.553   0.561   0.583   0.597   0.604   0.624
  0.636   0.660   0.704   0.751   0.789   0.798   0.818   0.873
  0.924   0.943   0.975   1.005   1.026   1.035   1.044   1.079
  1.093   1.113   1.120   1.140   1.174   1.191   1.237   1.271
  1.290   1.312   1.362   1.413   1.420   1.430   1.480   1.488
  1.559   1.580   1.609   1.739   1.829   1.914   1.970   2.010
  2.066   2.210   2.232   2.261   2.395   2.421   2.451   2.506
  2.666   2.751   2.777   2.834   2.877   2.911   2.950   2.997
  3.013   3.075   3.094   3.107   3.137   3.176   3.204   3.223
  3.260   3.306   3.341   3.356   3.426   3.461   3.494   3.530
  3.548   3.618   3.669   3.725   3.754   3.771   3.803   3.872
  3.980   3.997   4.023   4.069   4.087   4.099   4.179   4.214
  4.252   4.334   4.362   4.866   4.930   4.976   5.009   5.080
  5.094   5.124   5.149   5.192   5.232   5.291   5.355   5.365
  5.437   5.481   5.512   5.711   5.769   5.897   6.196   6.375
  6.493   6.767   6.811   6.888   6.949   7.066   7.099   7.132
  7.151   7.286   7.422   7.500   7.550  24.133  24.293  49.748
 49.869
 
 Beta MOs
 -- Occupied --
-19.604 -19.585 -10.599 -10.546  -1.197  -1.157  -0.769  -0.695
 -0.616  -0.571  -0.550  -0.529  -0.501  -0.466  -0.411  -0.350
 -- Virtual --
 -0.051  -0.029  -0.019  -0.010  -0.006   0.010   0.024   0.034
  0.049   0.066   0.079   0.093   0.104   0.122   0.128   0.160
  0.167   0.186   0.200   0.218   0.228   0.243   0.257   0.267
  0.286   0.287   0.302   0.327   0.361   0.389   0.428   0.435
  0.512   0.521   0.536   0.560   0.566   0.593   0.605   0.607
  0.630   0.644   0.680   0.710   0.759   0.794   0.804   0.823
  0.878   0.929   0.949   0.982   1.008   1.028   1.038   1.047
  1.083   1.097   1.118   1.129   1.142   1.179   1.196   1.247
  1.273   1.302   1.321   1.370   1.418   1.432   1.441   1.490
  1.501   1.562   1.584   1.640   1.745   1.835   1.919   1.974
  2.016   2.071   2.209   2.238   2.265   2.407   2.432   2.456
  2.525   2.684   2.764   2.798   2.864   2.907   2.924   2.976
  3.020   3.024   3.092   3.118   3.149   3.176   3.189   3.238
  3.245   3.292   3.350   3.362   3.391   3.475   3.499   3.533
  3.541   3.591   3.658   3.703   3.735   3.774   3.805   3.819
  3.896   3.986   3.994   4.032   4.079   4.091   4.105   4.183
  4.248   4.266   4.353   4.385   4.931   4.940   5.001   5.012
  5.088   5.097   5.134   5.159   5.205   5.254   5.296   5.350
  5.359   5.446   5.490   5.527   5.701   5.773   5.891   6.190
  6.386   6.494   6.769   6.808   6.884   6.948   7.063   7.097
  7.131   7.151   7.287   7.416   7.494   7.541  24.139  24.298
 49.751  49.874
 --------------------------------------------------------------
 
          Ground-State Mulliken Net Atomic Charges

     Atom                 Charge (a.u.)    Spin (a.u.)
  --------------------------------------------------------
      1 O                    -0.228804       0.064291
      2 H                     0.148984       0.092245
      3 C                    -0.039405       0.317754
      4 H                     0.165998      -0.055528
      5 C                    -0.425904       0.550795
      6 O                    -0.283465       0.044038
      7 H                     0.192036       0.000557
      8 H                     0.181901      -0.014281
      9 H                     0.288660       0.000129
  --------------------------------------------------------
  Sum of atomic charges =     0.000000
  Sum of spin   charges =     1.000000

 -----------------------------------------------------------------
                    Cartesian Multipole Moments
 -----------------------------------------------------------------
    Charge (ESU x 10^10)
                 0.0000
    Dipole Moment (Debye)
         X       0.3750      Y       1.9803      Z       0.0047
       Tot       2.0155
    Quadrupole Moments (Debye-Ang)
        XX     -28.0188     XY       0.8468     YY     -23.5917
        XZ      -3.1608     YZ      -0.9188     ZZ     -25.2991
    Octopole Moments (Debye-Ang^2)
       XXX       3.0734    XXY       8.4106    XYY      -0.0134
       YYY      -9.0789    XXZ      -3.2530    XYZ       1.5900
       YYZ      -0.9236    XZZ       0.2434    YZZ      -0.9135
       ZZZ      -1.7961
    Hexadecapole Moments (Debye-Ang^3)
      XXXX    -339.8192   XXXY       1.0769   XXYY     -69.7876
      XYYY       0.1175   YYYY     -89.2324   XXXZ     -10.6138
      XXYZ      -3.0644   XYYZ      -2.7146   YYYZ      -0.9977
      XXZZ     -61.2005   XYZZ      -0.7296   YYZZ     -23.2468
      XZZZ      -7.4629   YZZZ       0.2682   ZZZZ     -45.4678
 -----------------------------------------------------------------
 Calculating analytic gradient of the SCF energy
 Gradient of Coulomb and Exchange Energy
            1           2           3           4           5           6
    1  -6.3171391  -2.3087380  -0.1042056   0.3922383   1.6028559   6.4000044
    2  10.4519337  -1.7712244  -8.4518616  -1.2513413  -3.9026573   5.1752562
    3  -5.9390837   2.0372970   3.5887016  -0.2915398  -0.6230806   4.2939145
            7           8           9
    1   0.6837372   1.9981883  -2.3469415
    2  -0.7506950  -2.6041225   3.1047124
    3  -3.5403954   1.8298903  -1.3557039
 Gradient of SCF Energy
            1           2           3           4           5           6
    1   0.0001504   0.0003341   0.0013555  -0.0034501   0.0025735  -0.0012875
    2   0.0010870  -0.0008002  -0.0001507  -0.0011175  -0.0000079   0.0007578
    3   0.0012920  -0.0004266  -0.0018405   0.0022307  -0.0010466   0.0006396
            7           8           9
    1  -0.0008015  -0.0000074   0.0011329
    2  -0.0000573   0.0004357  -0.0001470
    3   0.0001468   0.0001340  -0.0011294
 Max gradient component =       3.450E-03
 RMS gradient           =       1.232E-03
 Gradient time:  CPU 11.13 s  wall 11.26 s
 Geometry Optimization Parameters
   NAtoms,    NIC,     NZ,  NCons,   NDum,   NFix, NCnnct, MaxDiis
        9      45       0       0       0       0       0       0

 Cartesian Hessian Update
 Hessian Updated using Powell/Murtagh-Sargent Update
  Mixing factors:     0.000027 Powell
                      0.999973 Murtagh-Sargent


** GEOMETRY OPTIMIZATION IN DELOCALIZED INTERNAL COORDINATES **
   Searching for a Transition State

   Optimization Cycle:   2

                       Coordinates (Angstroms)
     ATOM                X               Y               Z
      1  O         1.5911333418   -0.4652154982    0.4115735852
      2  H         2.0686297887    1.0899218007   -0.7955252367
      3  C         1.3362342399    0.5630678100   -0.1326018154
      4  H         0.0560284643    0.9649804944    0.0059542290
      5  C        -1.2912534758    0.6169696415    0.1788634834
      6  O        -1.3619216323   -0.6683263467   -0.3120151058
      7  H        -1.4436493904    0.7182218348    1.2614082056
      8  H        -1.8890032607    1.3026609077   -0.4245646189
      9  H        -0.6854901196   -1.2182898126    0.1083509609
   Point Group: c1    Number of degrees of freedom:    21


   Energy is   -229.462162967

 GETINT wrote B to file, NVib is           21
 Hessian Updated using Powell/Murtagh-Sargent Update
  Mixing factors:     0.592163 Powell
                      0.407837 Murtagh-Sargent

 18 Hessian modes will be used to form the next step
  Hessian Eigenvalues:
     0.001085    0.002059    0.011238    0.022997    0.090917    0.091451
     0.112203    0.139553    0.143165    0.160000    0.160696    0.163582
     0.316063    0.339182    0.346257    0.495771    0.538310    1.095293
**WARNING** Hessian does not have the Desired Local Structure

 Transition State Search - Taking P-RFO Step
 Searching for Lamda that Maximizes Along the Lowest mode
 Value Taken    Lamda =   0.00127144
 Searching for Lamda that Minimizes Along All other modes
 Value Taken    Lamda =  -0.00133223
 Calculated Step too Large.  Step scaled by  0.113721
 Step Taken.  Stepsize is  0.300000

                             Maximum     Tolerance    Cnvgd?
         Gradient           0.003673      0.000300      NO
         Displacement       0.165655      0.001200      NO
         Energy change      0.000746      0.000001      NO


 New Cartesian Coordinates Obtained by Inverse Iteration

 Displacement from previous Coordinates is:  0.308560
 ----------------------------------------------------------------
             Standard Nuclear Orientation (Angstroms)
    I     Atom           X                Y                Z
 ----------------------------------------------------------------
    1      O       1.5518554718    -0.4528499087     0.4320660060
    2      H       2.0248725918     1.0113774576    -0.8606111737
    3      C       1.3518402517     0.6133810839    -0.0593635740
    4      H       0.0591481585     0.9883735411     0.0127832503
    5      C      -1.2835627420     0.6165160825     0.1779267499
    6      O      -1.3354168145    -0.6607545892    -0.3364133485
    7      H      -1.4372365516     0.6934741798     1.2621734598
    8      H      -1.8907071183     1.3055684946    -0.4120478905
    9      H      -0.6600852914    -1.2110955101     0.0849302078
 ----------------------------------------------------------------
 Molecular Point Group                 C1    NOp =  1
 Largest Abelian Subgroup              C1    NOp =  1
 Nuclear Repulsion Energy =   115.9566080051 hartrees
 There are       17 alpha and       16 beta electrons
 Applying Cartesian multipole field
    Component          Value
    ---------          -----
     (2,0,0)        1.00000E-11
     (0,2,0)        2.00000E-11
     (0,0,2)       -3.00000E-11
 Nucleus-field energy     =     0.0000000029 hartrees
 Requested basis set is non-standard
 There are 78 shells and 186 basis functions
 A cutoff of  1.0D-12 yielded   2971 shell pairs
 There are     17081 function pairs (     21061 Cartesian)
 Smallest overlap matrix eigenvalue = 3.49E-04
 Guess MOs from SCF MO coefficient file
Reading MOs from coefficient file
Reading MOs from coefficient file
 An unrestricted hybrid HF-DFT SCF calculation will be
 performed using Pulay DIIS + Geometric Direct Minimization
 Exchange:     0.5679 Hartree-Fock + 1.0000 M08SO
 SCF converges when RMS gradient is below 1.0E-08
Geometry optimization detected.  Setting ReadMinima to 0
Setting SaveMinima to 0
 Inaccurate integrated density:
   Number of electrons =    33
   Numerical integral  =    32.977290160622
   Relative error      =    -0.0688176951 %
 ---------------------------------------
  Cycle       Energy        RMS Gradient
 ---------------------------------------
    1    -229.4452121196      2.16E-03 Done DIIS. Switching to GDM
    2    -229.4589032152      1.34E-02 Normal BFGS step
    3    -229.4597504925      1.55E-02 Normal BFGS step
    4    -229.4603258452      5.92E-03 Normal BFGS step
    5    -229.4605021026      3.80E-03 Normal BFGS step
    6    -229.4605900203      1.05E-03 Normal BFGS step
    7    -229.4606023178      1.08E-03 Normal BFGS step
    8    -229.4606061712      2.01E-04 Normal BFGS step
    9    -229.4606066828      1.06E-04 Normal BFGS step
   10    -229.4606068438      5.21E-05 Normal BFGS step
   11    -229.4606068859      1.92E-05 Normal BFGS step
   12    -229.4606068893      5.96E-06 Normal BFGS step
   13    -229.4606068898      2.39E-06 Normal BFGS step
   14    -229.4606068898      1.20E-06 Normal BFGS step
   15    -229.4606068898      4.87E-07 Normal BFGS step
   GDM::WARNING energy changes are now smaller than effective accuracy.
   GDM::        calculation will continue, but THRESH should be increased
   GDM::        or SCF_CONVERGENCE decreased.
   GDM::        effective_thresh =   1.445524210746951E-009
   16    -229.4606068898      1.12E-07 Normal BFGS step
   GDM::WARNING energy changes are now smaller than effective accuracy.
   GDM::        calculation will continue, but THRESH should be increased
   GDM::        or SCF_CONVERGENCE decreased.
   GDM::        effective_thresh =   1.445524210746951E-009
   17    -229.4606068898      3.85E-08 Normal BFGS step
   18    -229.4606068898      2.12E-08 Normal BFGS step
   19    -229.4606068898      7.22E-09 Convergence criterion met
 ---------------------------------------
 <S^2> = 0.7646
 SCF time:  CPU 142.37 s  wall 145.30 s
 SCF   energy in the final basis set = -229.4606068898
 Total energy in the final basis set = -229.4606068898
 Analysis of SCF Wavefunction
 
 --------------------------------------------------------------
                    Orbital Energies (a.u.)
 --------------------------------------------------------------
 
 Alpha MOs
 -- Occupied --
-19.606 -19.589 -10.607 -10.563  -1.204  -1.165  -0.786  -0.711
 -0.630  -0.586  -0.561  -0.538  -0.511  -0.484  -0.423  -0.380
 -0.248
 -- Virtual --
 -0.026  -0.021  -0.006  -0.003   0.012   0.031   0.039   0.053
  0.063   0.086   0.098   0.106   0.123   0.133   0.162   0.167
  0.180   0.197   0.216   0.228   0.245   0.252   0.267   0.280
  0.288   0.291   0.322   0.357   0.388   0.427   0.427   0.503
  0.517   0.530   0.542   0.572   0.582   0.597   0.601   0.623
  0.632   0.656   0.707   0.753   0.769   0.798   0.844   0.870
  0.910   0.937   0.982   1.004   1.016   1.033   1.042   1.074
  1.099   1.125   1.126   1.148   1.175   1.221   1.238   1.270
  1.290   1.309   1.361   1.411   1.419   1.428   1.479   1.483
  1.554   1.563   1.611   1.750   1.807   1.903   1.972   2.026
  2.073   2.202   2.237   2.255   2.391   2.415   2.437   2.477
  2.654   2.762   2.782   2.836   2.884   2.917   2.946   2.999
  3.019   3.064   3.087   3.108   3.142   3.190   3.201   3.210
  3.266   3.307   3.358   3.379   3.433   3.463   3.494   3.516
  3.556   3.603   3.703   3.726   3.742   3.772   3.802   3.862
  3.980   4.008   4.033   4.072   4.082   4.112   4.181   4.209
  4.249   4.306   4.359   4.874   4.929   4.977   5.033   5.067
  5.098   5.122   5.151   5.187   5.229   5.292   5.354   5.387
  5.438   5.480   5.513   5.673   5.763   5.894   6.204   6.353
  6.490   6.777   6.801   6.886   6.951   7.073   7.102   7.133
  7.153   7.272   7.421   7.498   7.549  24.126  24.297  49.748
 49.863
 
 Beta MOs
 -- Occupied --
-19.602 -19.587 -10.597 -10.552  -1.196  -1.158  -0.772  -0.694
 -0.618  -0.570  -0.551  -0.532  -0.496  -0.467  -0.413  -0.349
 -- Virtual --
 -0.055  -0.029  -0.019  -0.010  -0.006   0.010   0.024   0.035
  0.048   0.063   0.081   0.092   0.104   0.120   0.128   0.161
  0.167   0.183   0.200   0.217   0.230   0.244   0.253   0.267
  0.285   0.288   0.300   0.326   0.358   0.390   0.430   0.431
  0.508   0.520   0.540   0.546   0.582   0.587   0.602   0.607
  0.629   0.638   0.676   0.713   0.764   0.776   0.802   0.851
  0.874   0.916   0.942   0.987   1.008   1.019   1.036   1.047
  1.079   1.104   1.130   1.131   1.152   1.179   1.226   1.247
  1.271   1.300   1.319   1.367   1.417   1.431   1.439   1.488
  1.496   1.557   1.568   1.640   1.755   1.814   1.906   1.980
  2.030   2.077   2.201   2.243   2.260   2.401   2.422   2.444
  2.499   2.672   2.766   2.816   2.865   2.909   2.938   2.962
  3.020   3.022   3.080   3.122   3.146   3.180   3.201   3.220
  3.249   3.302   3.350   3.377   3.402   3.480   3.504   3.530
  3.542   3.585   3.642   3.728   3.733   3.764   3.804   3.817
  3.885   3.976   4.011   4.040   4.077   4.090   4.113   4.185
  4.236   4.260   4.326   4.378   4.917   4.944   5.003   5.041
  5.077   5.098   5.129   5.159   5.198   5.243   5.295   5.342
  5.391   5.446   5.488   5.525   5.660   5.766   5.888   6.198
  6.364   6.490   6.778   6.802   6.882   6.950   7.072   7.101
  7.133   7.152   7.272   7.415   7.491   7.540  24.132  24.302
 49.751  49.867
 --------------------------------------------------------------
 
          Ground-State Mulliken Net Atomic Charges

     Atom                 Charge (a.u.)    Spin (a.u.)
  --------------------------------------------------------
      1 O                    -0.223582       0.080609
      2 H                     0.147080       0.100148
      3 C                    -0.048367       0.336880
      4 H                     0.160334      -0.059696
      5 C                    -0.422024       0.510996
      6 O                    -0.281341       0.044947
      7 H                     0.197060      -0.002252
      8 H                     0.181793      -0.011258
      9 H                     0.289046      -0.000375
  --------------------------------------------------------
  Sum of atomic charges =     0.000000
  Sum of spin   charges =     1.000000

 -----------------------------------------------------------------
                    Cartesian Multipole Moments
 -----------------------------------------------------------------
    Charge (ESU x 10^10)
                 0.0000
    Dipole Moment (Debye)
         X       0.2369      Y       1.8954      Z       0.0062
       Tot       1.9102
    Quadrupole Moments (Debye-Ang)
        XX     -27.5418     XY       0.5882     YY     -23.8193
        XZ      -3.2284     YZ      -0.9678     ZZ     -25.3914
    Octopole Moments (Debye-Ang^2)
       XXX       2.7886    XXY       7.7578    XYY      -0.6195
       YYY     -10.5530    XXZ      -3.2663    XYZ       1.5084
       YYZ      -1.3716    XZZ       0.0888    YZZ      -1.1984
       ZZZ      -2.7489
    Hexadecapole Moments (Debye-Ang^3)
      XXXX    -328.7981   XXXY      -0.9180   XXYY     -69.0589
      XYYY      -1.9625   YYYY     -90.8318   XXXZ     -12.4527
      XXYZ      -3.3084   XYYZ      -3.3546   YYYZ      -1.8764
      XXZZ     -60.0327   XYZZ      -1.0967   YYZZ     -23.6578
      XZZZ      -9.9228   YZZZ      -0.6394   ZZZZ     -46.8576
 -----------------------------------------------------------------
 Calculating analytic gradient of the SCF energy
 Gradient of Coulomb and Exchange Energy
            1           2           3           4           5           6
    1  -5.9119127  -2.1397701  -0.8360963   0.3070770   1.8710752   6.2860737
    2  10.6934905  -1.3517475  -9.2280949  -1.1329841  -3.9584082   5.1550192
    3  -5.4763865   2.4256771   2.4472568   0.0069617  -0.8226132   4.5465161
            7           8           9
    1   0.7543413   2.0143762  -2.3451643
    2  -0.6529710  -2.6354095   3.1111055
    3  -3.5707916   1.7852115  -1.3418320
 Gradient of SCF Energy
            1           2           3           4           5           6
    1  -0.0017058  -0.0008827   0.0029726   0.0047902  -0.0049391   0.0008174
    2   0.0025457  -0.0051773   0.0076163  -0.0065683   0.0014345   0.0000270
    3  -0.0043478  -0.0023669   0.0097274  -0.0057699   0.0038549  -0.0001139
            7           8           9
    1  -0.0016417   0.0000239   0.0005653
    2  -0.0005226   0.0006173   0.0000274
    3   0.0001374   0.0002358  -0.0013571
 Max gradient component =       9.727E-03
 RMS gradient           =       3.701E-03
 Gradient time:  CPU 11.22 s  wall 11.26 s
 Geometry Optimization Parameters
   NAtoms,    NIC,     NZ,  NCons,   NDum,   NFix, NCnnct, MaxDiis
        9      45       0       0       0       0       0       0

 Cartesian Hessian Update
 Hessian Updated using Powell/Murtagh-Sargent Update
  Mixing factors:     0.264287 Powell
                      0.735713 Murtagh-Sargent


** GEOMETRY OPTIMIZATION IN DELOCALIZED INTERNAL COORDINATES **
   Searching for a Transition State

   Optimization Cycle:   3

                       Coordinates (Angstroms)
     ATOM                X               Y               Z
      1  O         1.5518554718   -0.4528499087    0.4320660060
      2  H         2.0248725918    1.0113774576   -0.8606111737
      3  C         1.3518402517    0.6133810839   -0.0593635740
      4  H         0.0591481585    0.9883735411    0.0127832503
      5  C        -1.2835627420    0.6165160825    0.1779267499
      6  O        -1.3354168145   -0.6607545892   -0.3364133485
      7  H        -1.4372365516    0.6934741798    1.2621734598
      8  H        -1.8907071183    1.3055684946   -0.4120478905
      9  H        -0.6600852914   -1.2110955101    0.0849302078
   Point Group: c1    Number of degrees of freedom:    21


   Energy is   -229.460606890

 GETINT wrote B to file, NVib is           21
 Hessian Updated using Powell/Murtagh-Sargent Update
  Mixing factors:     0.571028 Powell
                      0.428972 Murtagh-Sargent

 19 Hessian modes will be used to form the next step
  Hessian Eigenvalues:
    -0.001888    0.006194    0.021778    0.042952    0.090943    0.092072
     0.112309    0.139598    0.149639    0.160000    0.160375    0.162906
     0.172867    0.316181    0.339184    0.346258    0.495882    0.538366
     1.097837

 Transition State Search - Taking P-RFO Step
 Searching for Lamda that Maximizes Along the Lowest mode
 Value Taken    Lamda =   0.00008903
 Searching for Lamda that Minimizes Along All other modes
 Value Taken    Lamda =  -0.00386539
 Calculated Step too Large.  Step scaled by  0.638358
 Step Taken.  Stepsize is  0.300000

                             Maximum     Tolerance    Cnvgd?
         Gradient           0.008317      0.000300      NO
         Displacement       0.146957      0.001200      NO
         Energy change      0.001556      0.000001      NO


 New Cartesian Coordinates Obtained by Inverse Iteration

 Displacement from previous Coordinates is:  0.421313
 ----------------------------------------------------------------
             Standard Nuclear Orientation (Angstroms)
    I     Atom           X                Y                Z
 ----------------------------------------------------------------
    1      O       1.5527161034    -0.4964074912     0.3540589756
    2      H       2.0883563882     1.1125013599    -0.7504276878
    3      C       1.3402869046     0.5806267129    -0.1091572489
    4      H       0.0535964354     0.9718956231    -0.0342201755
    5      C      -1.2874861212     0.6152551103     0.1714159997
    6      O      -1.3632927259    -0.6786372487    -0.2952497619
    7      H      -1.4119515470     0.7312463895     1.2558287218
    8      H      -1.9036024873     1.2886859561    -0.4269490093
    9      H      -0.6879149944    -1.2211755805     0.1361438737
 ----------------------------------------------------------------
 Molecular Point Group                 C1    NOp =  1
 Largest Abelian Subgroup              C1    NOp =  1
 Nuclear Repulsion Energy =   115.8286065024 hartrees
 There are       17 alpha and       16 beta electrons
 Applying Cartesian multipole field
    Component          Value
    ---------          -----
     (2,0,0)        1.00000E-11
     (0,2,0)        2.00000E-11
     (0,0,2)       -3.00000E-11
 Nucleus-field energy     =     0.0000000030 hartrees
 Requested basis set is non-standard
 There are 78 shells and 186 basis functions
 A cutoff of  1.0D-12 yielded   2969 shell pairs
 There are     17077 function pairs (     21057 Cartesian)
 Smallest overlap matrix eigenvalue = 3.60E-04
 Guess MOs from SCF MO coefficient file
Reading MOs from coefficient file
Reading MOs from coefficient file
 An unrestricted hybrid HF-DFT SCF calculation will be
 performed using Pulay DIIS + Geometric Direct Minimization
 Exchange:     0.5679 Hartree-Fock + 1.0000 M08SO
 SCF converges when RMS gradient is below 1.0E-08
Geometry optimization detected.  Setting ReadMinima to 0
Setting SaveMinima to 0
 Inaccurate integrated density:
   Number of electrons =    33
   Numerical integral  =    32.987560614502
   Relative error      =    -0.0376951076 %
 ---------------------------------------
  Cycle       Energy        RMS Gradient
 ---------------------------------------
    1    -229.4569178920      1.26E-03 Done DIIS. Switching to GDM
    2    -229.4611589797      1.24E-02 Normal BFGS step
    3    -229.4617791101      1.01E-02 Normal BFGS step
    4    -229.4621285682      4.74E-03 Normal BFGS step
    5    -229.4623017319      2.54E-03 Normal BFGS step
    6    -229.4623484954      1.27E-03 Normal BFGS step
    7    -229.4623602517      4.92E-04 Normal BFGS step
    8    -229.4623615230      2.39E-04 Normal BFGS step
    9    -229.4623617651      1.22E-04 Normal BFGS step
   10    -229.4623618491      2.52E-05 Normal BFGS step
   11    -229.4623618622      1.14E-05 Normal BFGS step
   12    -229.4623618637      3.95E-06 Normal BFGS step
   13    -229.4623618639      2.17E-06 Normal BFGS step
   14    -229.4623618640      6.66E-07 Normal BFGS step
   15    -229.4623618640      3.44E-07 Normal BFGS step
   16    -229.4623618640      1.47E-07 Normal BFGS step
   17    -229.4623618641      7.04E-08 Normal BFGS step
   GDM::WARNING energy changes are now smaller than effective accuracy.
   GDM::        calculation will continue, but THRESH should be increased
   GDM::        or SCF_CONVERGENCE decreased.
   GDM::        effective_thresh =   2.995621389834113E-009
   18    -229.4623618641      1.31E-08 Normal BFGS step
   19    -229.4623618641      8.96E-09 Convergence criterion met
 ---------------------------------------
 <S^2> = 0.7602
 SCF time:  CPU 137.26 s  wall 140.71 s
 SCF   energy in the final basis set = -229.4623618641
 Total energy in the final basis set = -229.4623618641
 Analysis of SCF Wavefunction
 
 --------------------------------------------------------------
                    Orbital Energies (a.u.)
 --------------------------------------------------------------
 
 Alpha MOs
 -- Occupied --
-19.606 -19.588 -10.608 -10.559  -1.204  -1.164  -0.784  -0.711
 -0.630  -0.586  -0.560  -0.536  -0.508  -0.485  -0.423  -0.381
 -0.244
 -- Virtual --
 -0.025  -0.021  -0.007  -0.002   0.012   0.030   0.039   0.054
  0.064   0.084   0.099   0.106   0.125   0.132   0.163   0.169
  0.183   0.198   0.216   0.227   0.243   0.253   0.261   0.284
  0.288   0.291   0.324   0.357   0.385   0.429   0.430   0.506
  0.520   0.529   0.551   0.565   0.582   0.597   0.601   0.624
  0.637   0.659   0.713   0.750   0.782   0.795   0.819   0.878
  0.922   0.936   0.970   1.006   1.025   1.034   1.042   1.076
  1.092   1.116   1.128   1.143   1.175   1.204   1.240   1.271
  1.288   1.311   1.360   1.411   1.421   1.430   1.479   1.488
  1.555   1.581   1.618   1.737   1.820   1.916   1.974   2.015
  2.072   2.205   2.240   2.264   2.398   2.423   2.447   2.497
  2.667   2.756   2.769   2.832   2.879   2.913   2.949   3.003
  3.018   3.075   3.088   3.111   3.136   3.187   3.206   3.217
  3.268   3.306   3.343   3.361   3.429   3.453   3.498   3.520
  3.551   3.615   3.683   3.725   3.756   3.772   3.805   3.877
  3.968   4.001   4.023   4.073   4.083   4.097   4.183   4.216
  4.252   4.335   4.367   4.867   4.930   4.978   5.017   5.076
  5.092   5.124   5.147   5.190   5.233   5.293   5.356   5.371
  5.439   5.482   5.514   5.704   5.768   5.897   6.195   6.372
  6.493   6.769   6.812   6.887   6.954   7.074   7.099   7.127
  7.153   7.286   7.422   7.499   7.551  24.132  24.294  49.749
 49.867
 
 Beta MOs
 -- Occupied --
-19.604 -19.585 -10.598 -10.547  -1.197  -1.156  -0.770  -0.695
 -0.617  -0.571  -0.550  -0.529  -0.499  -0.464  -0.412  -0.350
 -- Virtual --
 -0.050  -0.029  -0.019  -0.010  -0.006   0.010   0.024   0.035
  0.050   0.064   0.079   0.093   0.104   0.122   0.128   0.162
  0.170   0.187   0.200   0.218   0.229   0.243   0.253   0.266
  0.286   0.289   0.301   0.328   0.359   0.389   0.433   0.435
  0.512   0.522   0.536   0.557   0.570   0.592   0.604   0.606
  0.630   0.644   0.680   0.720   0.759   0.788   0.801   0.826
  0.883   0.928   0.941   0.976   1.009   1.028   1.037   1.046
  1.080   1.095   1.121   1.136   1.146   1.179   1.208   1.250
  1.274   1.299   1.321   1.368   1.419   1.432   1.440   1.489
  1.501   1.558   1.585   1.649   1.742   1.827   1.919   1.980
  2.020   2.077   2.203   2.248   2.266   2.409   2.435   2.453
  2.517   2.687   2.767   2.793   2.861   2.915   2.918   2.975
  3.023   3.028   3.090   3.124   3.147   3.177   3.198   3.231
  3.248   3.300   3.356   3.359   3.394   3.477   3.491   3.534
  3.542   3.588   3.652   3.712   3.737   3.778   3.804   3.821
  3.901   3.975   3.999   4.033   4.083   4.090   4.103   4.186
  4.250   4.266   4.355   4.391   4.932   4.941   5.006   5.021
  5.087   5.094   5.134   5.157   5.204   5.253   5.297   5.347
  5.372   5.448   5.489   5.529   5.694   5.772   5.891   6.190
  6.383   6.493   6.770   6.810   6.884   6.954   7.071   7.097
  7.127   7.153   7.288   7.415   7.493   7.542  24.138  24.299
 49.752  49.871
 --------------------------------------------------------------
 
          Ground-State Mulliken Net Atomic Charges

     Atom                 Charge (a.u.)    Spin (a.u.)
  --------------------------------------------------------
      1 O                    -0.233509       0.064458
      2 H                     0.149352       0.094273
      3 C                    -0.033686       0.317801
      4 H                     0.158035      -0.054174
      5 C                    -0.423543       0.543550
      6 O                    -0.284300       0.048087
      7 H                     0.192463      -0.001027
      8 H                     0.183199      -0.012265
      9 H                     0.291989      -0.000701
  --------------------------------------------------------
  Sum of atomic charges =     0.000000
  Sum of spin   charges =     1.000000

 -----------------------------------------------------------------
                    Cartesian Multipole Moments
 -----------------------------------------------------------------
    Charge (ESU x 10^10)
                 0.0000
    Dipole Moment (Debye)
         X       0.3907      Y       2.0487      Z       0.1217
       Tot       2.0892
    Quadrupole Moments (Debye-Ang)
        XX     -27.7917     XY       0.8664     YY     -23.7346
        XZ      -2.8645     YZ      -1.0072     ZZ     -25.1716
    Octopole Moments (Debye-Ang^2)
       XXX       3.9593    XXY       8.6388    XYY       0.0076
       YYY      -8.7502    XXZ      -2.7960    XYZ       1.5157
       YYZ      -0.7233    XZZ       0.4434    YZZ      -0.8927
       ZZZ      -1.3506
    Hexadecapole Moments (Debye-Ang^3)
      XXXX    -334.4234   XXXY       0.4691   XXYY     -69.7834
      XYYY      -0.3312   YYYY     -91.8233   XXXZ      -8.2519
      XXYZ      -3.2464   XYYZ      -2.3778   YYYZ      -1.3386
      XXZZ     -60.0827   XYZZ      -0.9602   YYZZ     -23.2213
      XZZZ      -6.0215   YZZZ       0.0852   ZZZZ     -42.9589
 -----------------------------------------------------------------
 Calculating analytic gradient of the SCF energy
 Gradient of Coulomb and Exchange Energy
            1           2           3           4           5           6
    1  -6.0647138  -2.3343907  -0.4603575   0.4454247   1.6212289   6.4829028
    2  10.9423463  -1.7825655  -8.8953848  -1.2490162  -3.9985439   5.2627698
    3  -5.0871928   1.9692047   2.7134032  -0.0428720  -0.6143124   4.2131070
            7           8           9
    1   0.6246112   2.0328061  -2.3475118
    2  -0.7845147  -2.5742526   3.0791615
    3  -3.5482406   1.8345022  -1.4375994
 Gradient of SCF Energy
            1           2           3           4           5           6
    1  -0.0000954  -0.0004783   0.0025077  -0.0030455   0.0020388  -0.0005156
    2   0.0005021  -0.0016257   0.0023164  -0.0023214   0.0014053  -0.0002116
    3  -0.0010563  -0.0018433   0.0048761  -0.0026371   0.0009973   0.0002135
            7           8           9
    1  -0.0010128   0.0002285   0.0003725
    2  -0.0004852   0.0004728  -0.0000526
    3   0.0000672   0.0002704  -0.0008879
 Max gradient component =       4.876E-03
 RMS gradient           =       1.664E-03
 Gradient time:  CPU 11.00 s  wall 11.18 s
 Geometry Optimization Parameters
   NAtoms,    NIC,     NZ,  NCons,   NDum,   NFix, NCnnct, MaxDiis
        9      45       0       0       0       0       0       0

 Cartesian Hessian Update
 Hessian Updated using Powell/Murtagh-Sargent Update
  Mixing factors:     0.860306 Powell
                      0.139694 Murtagh-Sargent


** GEOMETRY OPTIMIZATION IN DELOCALIZED INTERNAL COORDINATES **
   Searching for a Transition State

   Optimization Cycle:   4

                       Coordinates (Angstroms)
     ATOM                X               Y               Z
      1  O         1.5527161034   -0.4964074912    0.3540589756
      2  H         2.0883563882    1.1125013599   -0.7504276878
      3  C         1.3402869046    0.5806267129   -0.1091572489
      4  H         0.0535964354    0.9718956231   -0.0342201755
      5  C        -1.2874861212    0.6152551103    0.1714159997
      6  O        -1.3632927259   -0.6786372487   -0.2952497619
      7  H        -1.4119515470    0.7312463895    1.2558287218
      8  H        -1.9036024873    1.2886859561   -0.4269490093
      9  H        -0.6879149944   -1.2211755805    0.1361438737
   Point Group: c1    Number of degrees of freedom:    21


   Energy is   -229.462361864

 GETINT wrote B to file, NVib is           21
 Hessian Updated using Powell/Murtagh-Sargent Update
  Mixing factors:     0.999989 Powell
                      0.000011 Murtagh-Sargent

 20 Hessian modes will be used to form the next step
  Hessian Eigenvalues:
    -0.000157    0.002972    0.020551    0.042236    0.090952    0.092009
     0.112298    0.139630    0.150380    0.159982    0.160069    0.160432
     0.162748    0.175493    0.316192    0.339184    0.346259    0.495879
     0.538365    1.097883

 Transition State Search - Taking P-RFO Step
 Searching for Lamda that Maximizes Along the Lowest mode
 Value Taken    Lamda =   0.00126504
 Searching for Lamda that Minimizes Along All other modes
 Value Taken    Lamda =  -0.00224577
 Calculated Step too Large.  Step scaled by  0.270489
 Step Taken.  Stepsize is  0.300000

                             Maximum     Tolerance    Cnvgd?
         Gradient           0.003051      0.000300      NO
         Displacement       0.261634      0.001200      NO
         Energy change     -0.001755      0.000001      NO


 New Cartesian Coordinates Obtained by Inverse Iteration

 Displacement from previous Coordinates is:  0.207524
 ----------------------------------------------------------------
             Standard Nuclear Orientation (Angstroms)
    I     Atom           X                Y                Z
 ----------------------------------------------------------------
    1      O       1.5433684682    -0.4882826950     0.3653624779
    2      H       2.1179067134     1.1351559786    -0.7034736009
    3      C       1.3365003941     0.5761632243    -0.1286377842
    4      H       0.0515569307     0.9630904669    -0.0933115791
    5      C      -1.2883636052     0.6119064395     0.1663555230
    6      O      -1.3839804011    -0.6843014033    -0.2888350658
    7      H      -1.3631392385     0.7330160140     1.2546594794
    8      H      -1.9269343906     1.2848937362    -0.4086246261
    9      H      -0.7062069152    -1.2276509297     0.1379488631
 ----------------------------------------------------------------
 Molecular Point Group                 C1    NOp =  1
 Largest Abelian Subgroup              C1    NOp =  1
 Nuclear Repulsion Energy =   115.7636726051 hartrees
 There are       17 alpha and       16 beta electrons
 Applying Cartesian multipole field
    Component          Value
    ---------          -----
     (2,0,0)        1.00000E-11
     (0,2,0)        2.00000E-11
     (0,0,2)       -3.00000E-11
 Nucleus-field energy     =     0.0000000030 hartrees
 Requested basis set is non-standard
 There are 78 shells and 186 basis functions
 A cutoff of  1.0D-12 yielded   2967 shell pairs
 There are     17029 function pairs (     20988 Cartesian)
 Smallest overlap matrix eigenvalue = 3.65E-04
 Guess MOs from SCF MO coefficient file
Reading MOs from coefficient file
Reading MOs from coefficient file
 An unrestricted hybrid HF-DFT SCF calculation will be
 performed using Pulay DIIS + Geometric Direct Minimization
 Exchange:     0.5679 Hartree-Fock + 1.0000 M08SO
 SCF converges when RMS gradient is below 1.0E-08
Geometry optimization detected.  Setting ReadMinima to 0
Setting SaveMinima to 0
 ---------------------------------------
  Cycle       Energy        RMS Gradient
 ---------------------------------------
    1    -229.4606756202      9.34E-04 Done DIIS. Switching to GDM
    2    -229.4622276187      6.78E-03 Normal BFGS step
    3    -229.4624341561      5.28E-03 Normal BFGS step
    4    -229.4625545787      1.85E-03 Normal BFGS step
    5    -229.4625760884      1.60E-03 Normal BFGS step
    6    -229.4625914673      6.53E-04 Normal BFGS step
    7    -229.4625935340      5.41E-04 Normal BFGS step
    8    -229.4625948511      1.89E-04 Normal BFGS step
    9    -229.4625950360      7.27E-05 Normal BFGS step
   10    -229.4625950978      3.65E-05 Normal BFGS step
   11    -229.4625951064      8.67E-06 Normal BFGS step
   12    -229.4625951077      8.89E-06 Normal BFGS step
   13    -229.4625951080      2.61E-06 Normal BFGS step
   14    -229.4625951080      7.31E-07 Normal BFGS step
   15    -229.4625951080      3.05E-07 Normal BFGS step
   16    -229.4625951081      1.44E-07 Normal BFGS step
   17    -229.4625951081      5.16E-08 Normal BFGS step
   18    -229.4625951081      1.66E-08 Normal BFGS step
   19    -229.4625951081      7.89E-09 Convergence criterion met
 ---------------------------------------
 <S^2> = 0.7590
 SCF time:  CPU 138.51 s  wall 141.14 s
 SCF   energy in the final basis set = -229.4625951081
 Total energy in the final basis set = -229.4625951081
 Analysis of SCF Wavefunction
 
 --------------------------------------------------------------
                    Orbital Energies (a.u.)
 --------------------------------------------------------------
 
 Alpha MOs
 -- Occupied --
-19.606 -19.588 -10.607 -10.558  -1.203  -1.164  -0.784  -0.711
 -0.630  -0.585  -0.559  -0.536  -0.506  -0.486  -0.424  -0.381
 -0.243
 -- Virtual --
 -0.025  -0.021  -0.007  -0.002   0.012   0.030   0.039   0.054
  0.064   0.085   0.100   0.106   0.124   0.131   0.163   0.169
  0.188   0.198   0.217   0.226   0.243   0.245   0.262   0.283
  0.287   0.292   0.325   0.357   0.383   0.431   0.436   0.505
  0.520   0.528   0.555   0.561   0.583   0.596   0.601   0.623
  0.643   0.663   0.716   0.749   0.783   0.794   0.809   0.878
  0.927   0.938   0.961   1.006   1.028   1.036   1.039   1.080
  1.091   1.112   1.131   1.142   1.175   1.199   1.239   1.271
  1.285   1.315   1.361   1.408   1.421   1.432   1.477   1.490
  1.555   1.590   1.621   1.734   1.827   1.916   1.972   2.006
  2.074   2.205   2.239   2.269   2.398   2.432   2.450   2.502
  2.677   2.746   2.769   2.834   2.878   2.911   2.946   3.004
  3.016   3.075   3.090   3.108   3.135   3.187   3.210   3.222
  3.266   3.304   3.338   3.352   3.425   3.449   3.501   3.522
  3.548   3.615   3.677   3.723   3.759   3.773   3.807   3.887
  3.951   3.997   4.021   4.068   4.081   4.095   4.182   4.217
  4.252   4.345   4.372   4.856   4.933   4.980   5.013   5.080
  5.091   5.123   5.145   5.191   5.234   5.294   5.356   5.368
  5.437   5.482   5.514   5.711   5.768   5.898   6.194   6.378
  6.494   6.767   6.816   6.888   6.951   7.074   7.097   7.126
  7.153   7.290   7.420   7.501   7.552  24.133  24.294  49.750
 49.868
 
 Beta MOs
 -- Occupied --
-19.603 -19.586 -10.598 -10.546  -1.197  -1.157  -0.769  -0.695
 -0.617  -0.571  -0.549  -0.529  -0.499  -0.463  -0.413  -0.350
 -- Virtual --
 -0.049  -0.029  -0.019  -0.010  -0.005   0.010   0.024   0.035
  0.050   0.065   0.079   0.095   0.104   0.122   0.127   0.162
  0.170   0.192   0.200   0.219   0.227   0.243   0.247   0.268
  0.285   0.289   0.302   0.329   0.359   0.388   0.437   0.441
  0.512   0.524   0.534   0.561   0.566   0.593   0.601   0.608
  0.629   0.651   0.683   0.723   0.756   0.787   0.802   0.817
  0.884   0.931   0.943   0.969   1.009   1.031   1.040   1.042
  1.084   1.093   1.117   1.138   1.146   1.180   1.204   1.250
  1.274   1.296   1.324   1.369   1.416   1.431   1.443   1.489
  1.503   1.558   1.595   1.654   1.738   1.834   1.920   1.977
  2.012   2.078   2.205   2.247   2.271   2.409   2.449   2.454
  2.522   2.697   2.760   2.793   2.863   2.914   2.921   2.978
  3.023   3.028   3.094   3.125   3.147   3.177   3.202   3.236
  3.249   3.296   3.357   3.360   3.389   3.469   3.492   3.536
  3.546   3.590   3.652   3.708   3.738   3.783   3.803   3.826
  3.914   3.969   3.996   4.032   4.086   4.088   4.104   4.185
  4.253   4.273   4.367   4.400   4.939   4.944   5.005   5.020
  5.086   5.100   5.134   5.158   5.205   5.256   5.299   5.350
  5.366   5.448   5.489   5.530   5.704   5.775   5.892   6.189
  6.391   6.494   6.769   6.814   6.885   6.951   7.071   7.095
  7.126   7.153   7.292   7.413   7.495   7.542  24.140  24.299
 49.753  49.872
 --------------------------------------------------------------
 
          Ground-State Mulliken Net Atomic Charges

     Atom                 Charge (a.u.)    Spin (a.u.)
  --------------------------------------------------------
      1 O                    -0.236623       0.056532
      2 H                     0.152459       0.090856
      3 C                    -0.035833       0.306905
      4 H                     0.157438      -0.051625
      5 C                    -0.425595       0.561336
      6 O                    -0.282410       0.051004
      7 H                     0.193374      -0.001411
      8 H                     0.184132      -0.012638
      9 H                     0.293058      -0.000959
  --------------------------------------------------------
  Sum of atomic charges =     0.000000
  Sum of spin   charges =     1.000000

 -----------------------------------------------------------------
                    Cartesian Multipole Moments
 -----------------------------------------------------------------
    Charge (ESU x 10^10)
                 0.0000
    Dipole Moment (Debye)
         X       0.4258      Y       2.0519      Z       0.1054
       Tot       2.0982
    Quadrupole Moments (Debye-Ang)
        XX     -27.8742     XY       0.8758     YY     -23.6377
        XZ      -2.8604     YZ      -0.9271     ZZ     -25.1995
    Octopole Moments (Debye-Ang^2)
       XXX       4.6534    XXY       8.7476    XYY       0.2766
       YYY      -8.6176    XXZ      -2.9844    XYZ       1.6195
       YYZ      -0.6060    XZZ       0.6482    YZZ      -0.9150
       ZZZ      -1.2228
    Hexadecapole Moments (Debye-Ang^3)
      XXXX    -336.1403   XXXY      -0.6961   XXYY     -69.6924
      XYYY      -0.9543   YYYY     -91.3199   XXXZ      -8.4567
      XXYZ      -3.1111   XYYZ      -2.4161   YYYZ      -0.9039
      XXZZ     -60.6639   XYZZ      -1.1907   YYZZ     -23.2106
      XZZZ      -6.0161   YZZZ       0.5075   ZZZZ     -42.7431
 -----------------------------------------------------------------
 Calculating analytic gradient of the SCF energy
 Gradient of Coulomb and Exchange Energy
            1           2           3           4           5           6
    1  -5.9913740  -2.4260970  -0.4636375   0.5720013   1.5470625   6.5629352
    2  10.8148764  -1.8651265  -8.6744047  -1.2587864  -4.0096537   5.2913516
    3  -5.3875819   1.7974665   3.1022197   0.0747365  -0.4844062   4.1099323
            7           8           9
    1   0.4556307   2.0967656  -2.3532868
    2  -0.8043192  -2.5744625   3.0805250
    3  -3.5648708   1.7795120  -1.4270082
 Gradient of SCF Energy
            1           2           3           4           5           6
    1  -0.0002873  -0.0005080   0.0040203  -0.0066208   0.0049103  -0.0011077
    2   0.0008826  -0.0007464   0.0003337  -0.0016305   0.0017341  -0.0006351
    3  -0.0008512  -0.0018353   0.0047769  -0.0021685   0.0001114   0.0001617
            7           8           9
    1  -0.0009314   0.0001175   0.0004071
    2  -0.0005605   0.0006603  -0.0000381
    3   0.0001651   0.0003663  -0.0007264
 Max gradient component =       6.621E-03
 RMS gradient           =       2.172E-03
 Gradient time:  CPU 11.11 s  wall 11.22 s
 Geometry Optimization Parameters
   NAtoms,    NIC,     NZ,  NCons,   NDum,   NFix, NCnnct, MaxDiis
        9      45       0       0       0       0       0       0

 Cartesian Hessian Update
 Hessian Updated using Powell/Murtagh-Sargent Update
  Mixing factors:     0.495912 Powell
                      0.504088 Murtagh-Sargent


** GEOMETRY OPTIMIZATION IN DELOCALIZED INTERNAL COORDINATES **
   Searching for a Transition State

   Optimization Cycle:   5

                       Coordinates (Angstroms)
     ATOM                X               Y               Z
      1  O         1.5433684682   -0.4882826950    0.3653624779
      2  H         2.1179067134    1.1351559786   -0.7034736009
      3  C         1.3365003941    0.5761632243   -0.1286377842
      4  H         0.0515569307    0.9630904669   -0.0933115791
      5  C        -1.2883636052    0.6119064395    0.1663555230
      6  O        -1.3839804011   -0.6843014033   -0.2888350658
      7  H        -1.3631392385    0.7330160140    1.2546594794
      8  H        -1.9269343906    1.2848937362   -0.4086246261
      9  H        -0.7062069152   -1.2276509297    0.1379488631
   Point Group: c1    Number of degrees of freedom:    21


   Energy is   -229.462595108

 GETINT wrote B to file, NVib is           21
 Hessian Updated using Powell/Murtagh-Sargent Update
  Mixing factors:     0.999439 Powell
                      0.000561 Murtagh-Sargent

 21 Hessian modes will be used to form the next step
  Hessian Eigenvalues:
    -0.000168    0.002382    0.020393    0.042027    0.090944    0.092022
     0.112296    0.139630    0.150433    0.159977    0.160013    0.160066
     0.160428    0.162725    0.175875    0.316193    0.339184    0.346259
     0.495877    0.538365    1.097877

 Transition State Search - Taking P-RFO Step
 Searching for Lamda that Maximizes Along the Lowest mode
 Value Taken    Lamda =   0.00178849
 Searching for Lamda that Minimizes Along All other modes
 Value Taken    Lamda =  -0.00248590
 Calculated Step too Large.  Step scaled by  0.260760
 Step Taken.  Stepsize is  0.300000

                             Maximum     Tolerance    Cnvgd?
         Gradient           0.002754      0.000300      NO
         Displacement       0.269523      0.001200      NO
         Energy change     -0.000233      0.000001      NO


 New Cartesian Coordinates Obtained by Inverse Iteration

 Displacement from previous Coordinates is:  0.217929
 ----------------------------------------------------------------
             Standard Nuclear Orientation (Angstroms)
    I     Atom           X                Y                Z
 ----------------------------------------------------------------
    1      O       1.5429587839    -0.5189957142     0.3078076692
    2      H       2.1038508813     1.1414226472    -0.7097333052
    3      C       1.3378960587     0.5719530158    -0.1242484530
    4      H       0.0543003321     0.9705642435    -0.0379734350
    5      C      -1.2889868629     0.6158073556     0.1694375459
    6      O      -1.3623682700    -0.6843390239    -0.2798464319
    7      H      -1.4135790251     0.7463249595     1.2522721651
    8      H      -1.9058242019     1.2807579681    -0.4379695902
    9      H      -0.6875397402    -1.2195046202     0.1616975224
 ----------------------------------------------------------------
 Molecular Point Group                 C1    NOp =  1
 Largest Abelian Subgroup              C1    NOp =  1
 Nuclear Repulsion Energy =   115.9396022781 hartrees
 There are       17 alpha and       16 beta electrons
 Applying Cartesian multipole field
    Component          Value
    ---------          -----
     (2,0,0)        1.00000E-11
     (0,2,0)        2.00000E-11
     (0,0,2)       -3.00000E-11
 Nucleus-field energy     =     0.0000000031 hartrees
 Requested basis set is non-standard
 There are 78 shells and 186 basis functions
 A cutoff of  1.0D-12 yielded   2969 shell pairs
 There are     17077 function pairs (     21057 Cartesian)
 Smallest overlap matrix eigenvalue = 3.66E-04
 Guess MOs from SCF MO coefficient file
Reading MOs from coefficient file
Reading MOs from coefficient file
 An unrestricted hybrid HF-DFT SCF calculation will be
 performed using Pulay DIIS + Geometric Direct Minimization
 Exchange:     0.5679 Hartree-Fock + 1.0000 M08SO
 SCF converges when RMS gradient is below 1.0E-08
Geometry optimization detected.  Setting ReadMinima to 0
Setting SaveMinima to 0
 Inaccurate integrated density:
   Number of electrons =    33
   Numerical integral  =    32.990052482878
   Relative error      =    -0.0301439913 %
 ---------------------------------------
  Cycle       Energy        RMS Gradient
 ---------------------------------------
    1    -229.4565419250      1.61E-03 Done DIIS. Switching to GDM
    2    -229.4623890486      4.64E-03 Normal BFGS step
    3    -229.4626298227      3.42E-03 Normal BFGS step
    4    -229.4626835850      2.15E-03 Normal BFGS step
    5    -229.4627062506      1.23E-03 Normal BFGS step
    6    -229.4627184222      8.59E-04 Normal BFGS step
    7    -229.4627226480      3.01E-04 Normal BFGS step
    8    -229.4627234785      1.15E-04 Normal BFGS step
    9    -229.4627235543      4.77E-05 Normal BFGS step
   10    -229.4627235859      2.28E-05 Normal BFGS step
   11    -229.4627235905      1.18E-05 Normal BFGS step
   12    -229.4627235916      6.65E-06 Normal BFGS step
   13    -229.4627235919      1.76E-06 Normal BFGS step
   14    -229.4627235919      9.75E-07 Normal BFGS step
   GDM::WARNING energy changes are now smaller than effective accuracy.
   GDM::        calculation will continue, but THRESH should be increased
   GDM::        or SCF_CONVERGENCE decreased.
   GDM::        effective_thresh =   5.677059898567816E-010
   15    -229.4627235919      3.02E-07 Normal BFGS step
   GDM::WARNING energy changes are now smaller than effective accuracy.
   GDM::        calculation will continue, but THRESH should be increased
   GDM::        or SCF_CONVERGENCE decreased.
   GDM::        effective_thresh =   5.677059898567816E-010
   16    -229.4627235919      8.54E-08 Normal BFGS step
   GDM::WARNING energy changes are now smaller than effective accuracy.
   GDM::        calculation will continue, but THRESH should be increased
   GDM::        or SCF_CONVERGENCE decreased.
   GDM::        effective_thresh =   5.677059898567816E-010
   17    -229.4627235919      3.73E-08 Normal BFGS step
   18    -229.4627235919      1.29E-08 Normal BFGS step
   19    -229.4627235919      6.53E-09 Convergence criterion met
 ---------------------------------------
 <S^2> = 0.7595
 SCF time:  CPU 134.88 s  wall 136.99 s
 SCF   energy in the final basis set = -229.4627235919
 Total energy in the final basis set = -229.4627235919
 Analysis of SCF Wavefunction
 
 --------------------------------------------------------------
                    Orbital Energies (a.u.)
 --------------------------------------------------------------
 
 Alpha MOs
 -- Occupied --
-19.607 -19.587 -10.608 -10.558  -1.204  -1.163  -0.783  -0.711
 -0.630  -0.586  -0.560  -0.535  -0.507  -0.485  -0.423  -0.381
 -0.243
 -- Virtual --
 -0.025  -0.021  -0.007  -0.001   0.013   0.030   0.039   0.054
  0.064   0.084   0.099   0.105   0.125   0.131   0.164   0.170
  0.185   0.198   0.215   0.227   0.243   0.249   0.264   0.285
  0.288   0.292   0.325   0.358   0.384   0.429   0.431   0.506
  0.521   0.528   0.553   0.561   0.583   0.597   0.602   0.624
  0.639   0.660   0.716   0.747   0.784   0.793   0.814   0.884
  0.925   0.935   0.966   1.007   1.028   1.034   1.043   1.076
  1.090   1.114   1.130   1.144   1.174   1.202   1.241   1.272
  1.287   1.315   1.361   1.410   1.422   1.432   1.477   1.489
  1.555   1.585   1.618   1.733   1.821   1.924   1.975   2.014
  2.074   2.206   2.240   2.269   2.399   2.426   2.449   2.503
  2.670   2.749   2.771   2.832   2.876   2.911   2.951   3.002
  3.018   3.076   3.089   3.113   3.136   3.182   3.206   3.222
  3.271   3.304   3.341   3.356   3.429   3.453   3.498   3.520
  3.551   3.617   3.679   3.726   3.761   3.772   3.805   3.879
  3.965   3.999   4.023   4.072   4.083   4.095   4.183   4.217
  4.252   4.339   4.372   4.864   4.930   4.979   5.014   5.078
  5.089   5.126   5.145   5.192   5.235   5.293   5.356   5.369
  5.439   5.482   5.514   5.710   5.768   5.898   6.195   6.377
  6.494   6.767   6.814   6.889   6.959   7.076   7.097   7.125
  7.153   7.290   7.422   7.501   7.552  24.132  24.294  49.749
 49.868
 
 Beta MOs
 -- Occupied --
-19.604 -19.584 -10.598 -10.546  -1.197  -1.156  -0.769  -0.695
 -0.616  -0.571  -0.550  -0.529  -0.499  -0.463  -0.412  -0.350
 -- Virtual --
 -0.049  -0.029  -0.019  -0.010  -0.005   0.011   0.024   0.035
  0.050   0.064   0.079   0.094   0.103   0.122   0.128   0.163
  0.171   0.188   0.201   0.217   0.228   0.242   0.250   0.269
  0.286   0.291   0.301   0.329   0.360   0.389   0.434   0.436
  0.513   0.523   0.534   0.559   0.567   0.593   0.605   0.607
  0.630   0.646   0.681   0.722   0.755   0.789   0.799   0.822
  0.889   0.930   0.940   0.973   1.010   1.031   1.037   1.047
  1.081   1.092   1.119   1.138   1.146   1.179   1.206   1.251
  1.275   1.298   1.324   1.368   1.418   1.433   1.442   1.487
  1.502   1.558   1.589   1.650   1.737   1.827   1.926   1.981
  2.020   2.078   2.204   2.248   2.271   2.410   2.437   2.455
  2.522   2.690   2.765   2.790   2.861   2.913   2.916   2.978
  3.024   3.029   3.092   3.127   3.148   3.176   3.195   3.236
  3.246   3.302   3.354   3.358   3.390   3.476   3.491   3.534
  3.541   3.590   3.653   3.708   3.739   3.783   3.804   3.822
  3.903   3.975   3.997   4.034   4.085   4.087   4.102   4.186
  4.252   4.268   4.359   4.396   4.934   4.941   5.005   5.019
  5.084   5.097   5.136   5.156   5.206   5.256   5.297   5.349
  5.367   5.449   5.490   5.529   5.700   5.773   5.892   6.190
  6.388   6.494   6.768   6.812   6.885   6.958   7.073   7.095
  7.125   7.153   7.292   7.415   7.494   7.543  24.139  24.299
 49.752  49.872
 --------------------------------------------------------------
 
          Ground-State Mulliken Net Atomic Charges

     Atom                 Charge (a.u.)    Spin (a.u.)
  --------------------------------------------------------
      1 O                    -0.234715       0.062227
      2 H                     0.151781       0.093212
      3 C                    -0.033219       0.313985
      4 H                     0.155257      -0.053407
      5 C                    -0.422404       0.548308
      6 O                    -0.283788       0.049430
      7 H                     0.191051      -0.000444
      8 H                     0.183093      -0.012365
      9 H                     0.292945      -0.000944
  --------------------------------------------------------
  Sum of atomic charges =     0.000000
  Sum of spin   charges =     1.000000

 -----------------------------------------------------------------
                    Cartesian Multipole Moments
 -----------------------------------------------------------------
    Charge (ESU x 10^10)
                 0.0000
    Dipole Moment (Debye)
[...]
     4   -1.938871908859759e-02   8.257916714426640e-04   1.625602927161115e-02
     5   -2.967366796919223e-02   1.567378511337730e-02   3.527414299798692e-02
     6    4.681660593814596e-03  -4.388034865068258e-03  -5.453379713835792e-03
     7    3.264795869818651e-02  -7.787213028908161e-03  -2.620412501406979e-02
     8    5.290815201404851e-03  -1.848617180494342e-03  -1.842569734140102e-02
     9   -9.733891625258665e-04  -5.027775959683108e-06   8.392253241817994e-04

Order 1, Length 27
    Atom      X          Y          Z
     1   -1.246091914065758e-04   1.340416327358897e-03   2.177883567649113e-04
     2   -5.360735660173709e-05   1.837709225484542e-04   3.775223790434721e-04
     3    1.249686527281599e-03  -1.858108192117262e-03  -1.082151891835886e-03
     4   -1.766852019266946e-03   1.345014152729126e-03   3.987470696264956e-03
     5    8.504913760752311e-03  -5.262262042726260e-02  -2.364748199097984e-02
     6    4.347841423202583e-03  -1.831938588247326e-02  -3.891435353102621e-02
     7   -7.787213028908161e-03   6.381688718439515e-02   4.575112626771608e-02
     8   -3.165661195370493e-03   5.023043669076105e-03   1.411184932190174e-02
     9   -1.207265478461383e-03   1.092398144757814e-03  -7.964867318647642e-04

Order 1, Length 27
    Atom      X          Y          Z
     1    3.988383570413441e-04  -2.749285111888726e-04   8.362847024933560e-05
     2   -3.369721140572355e-05   3.894223331826985e-05  -1.421270902193911e-04
     3    4.142823672952254e-05   1.477301071213200e-05   2.981744620694853e-04
     4    1.693561802627959e-03   5.381383700256478e-04  -3.204225142072318e-03
     5    1.673308539565395e-02  -3.200663820532107e-02  -2.966782519953798e-01
     6    3.023708032676246e-03  -1.134451468574435e-02  -1.514907659015050e-03
     7   -2.620412501406979e-02   4.575112626771608e-02   3.128581919881941e-01
     8    5.534098455618386e-03  -2.181594979467960e-03  -1.188337480114768e-02
     9   -1.191052070737767e-03  -5.269873504124144e-04   1.831967927284181e-04


     8 Order 1, Length 27
    Atom      X          Y          Z
     1   -5.341769790782875e-04   2.432517000873910e-03  -1.518747387256792e-03
     2   -1.147644716220438e-03   1.865645817974684e-04  -5.389850352941146e-04
     3    4.164842214990049e-03  -3.959465551826990e-03   3.274956842235725e-03
     4   -1.319283699825686e-02   6.740197014714564e-03  -7.139251254690311e-03
     5   -1.290149144958958e-01   1.000677052626755e-01  -1.102916404662001e-01
     6    4.136912292187672e-03  -2.318593908427718e-03   4.357622757195392e-03
     7    5.290815201404851e-03  -3.165661195370493e-03   5.534098455618386e-03
     8    1.295629799617699e-01  -9.931108626766223e-02   1.066961687236589e-01
     9    7.381841953282212e-04  -6.631999342149545e-04  -3.746403270563098e-04

Order 1, Length 27
    Atom      X          Y          Z
     1   -1.771495743146507e-04   1.563290076596684e-03  -5.262247677216219e-04
     2   -2.824454594659651e-04   1.326121098709070e-04  -2.947049301473543e-04
     3    2.122578796844055e-03  -2.016295067617722e-03   1.084101396347126e-03
     4   -3.959005229254043e-03   2.729277651675925e-03  -2.503274838937022e-03
     5    8.138144436536901e-02  -1.188836621387113e-01   7.916744926456767e-02
     6    2.481726312542296e-02  -2.906313632649219e-02   1.692365993920800e-02
     7   -1.848617180494342e-03   5.023043669076105e-03  -2.181594979467960e-03
     8   -9.931108626766223e-02   1.456960479858824e-01  -9.057654837876300e-02
     9   -2.740956610547822e-03  -5.169717822388613e-03  -1.089364408073822e-03

Order 1, Length 27
    Atom      X          Y          Z
     1    6.995634570061671e-04  -2.375644859429303e-03   9.148807826758183e-04
     2    4.761825890997111e-04  -2.265396933656637e-04   1.993098651257867e-04
     3   -3.451060667580193e-03   3.112271179508851e-03  -1.118742275661842e-03
     4    6.274385659107971e-03  -2.039725142562227e-03   1.261739725832510e-03
     5   -1.008943111616469e-01   8.786426267742553e-02  -1.501071784346071e-01
     6    7.363574283596464e-03  -6.453198152729826e-03   9.824329534279121e-03
     7   -1.842569734140102e-02   1.411184932190174e-02  -1.188337480114768e-02
     8    1.066961687236589e-01  -9.057654837876300e-02   1.501406752412485e-01
     9    1.255244881674666e-03  -3.432383276146690e-03   7.601922238937137e-04


     9 Order 1, Length 27
    Atom      X          Y          Z
     1   -2.358899509445036e-04   1.026997826157716e-02  -2.264423728308298e-03
     2   -6.161021322715698e-04   1.415592364527129e-03  -7.241097493488767e-04
     3    5.110839966044429e-03  -1.202711503977386e-02   2.607346853274553e-03
     4   -4.019772605192726e-03  -4.485856671898468e-04   1.067290663923053e-03
     5    6.693736641408097e-03   8.734200996673320e-04   1.451849910254919e-03
     6   -2.884820518088606e-01   1.905241181905044e-01  -1.689873331099764e-01
     7   -9.733891625258665e-04  -1.207265478461383e-03  -1.191052070737767e-03
     8    7.381841953282212e-04  -2.740956610547822e-03   1.255244881674666e-03
     9    2.817919876915084e-01  -1.866417454490664e-01   1.667964006613804e-01

Order 1, Length 27
    Atom      X          Y          Z
     1    3.213965169303540e-03  -2.675990099012872e-03  -2.243098346379350e-04
     2    9.206009794561721e-04  -2.846349471199699e-04   1.043321003953185e-04
     3   -5.596467676641145e-03   8.476327013397650e-04   5.793456924781215e-04
     4    3.737268261941209e-03  -3.943479407515973e-04   5.110856464030669e-05
     5    2.725650293628661e-02  -3.094379684562828e-02   1.985335443367018e-02
     6    1.577709328265888e-01  -1.496589727515266e-01   8.353822644311740e-02
     7   -5.027775959683108e-06   1.092398144757814e-03  -5.269873504124144e-04
     8   -6.631999342149545e-04  -5.169717822388613e-03  -3.432383276146690e-03
     9   -1.866417454490664e-01   1.871769180634265e-01  -9.995145320693763e-02

Order 1, Length 27
    Atom      X          Y          Z
     1   -4.224941803591664e-04   2.615214440458643e-03  -3.464080485252261e-03
     2   -7.245506470164277e-04   7.569040737584956e-04   4.735739004584072e-04
     3    3.698693427812480e-03  -3.683735167899734e-03   9.867211838895655e-04
     4   -4.587478455474242e-03  -2.521132863417555e-04   5.629478163607509e-04
     5    1.104608152381373e-02  -6.312622512163722e-03   4.468045924053246e-03
     6   -1.762664408569886e-01   1.087186258857737e-01  -1.148902227985638e-01
     7    8.392253241817994e-04  -7.964867318647642e-04   1.831967927284181e-04
     8   -3.746403270563098e-04  -1.089364408073822e-03   7.601922238937137e-04
     9    1.667964006613804e-01  -9.995145320693763e-02   1.109309625351811e-01




 # Finishing finite difference calculation for IDERIV #
 ######################################################
 ######################################################
 Requested basis set is non-standard
 There are 78 shells and 186 basis functions
 **********************************************************************
 **                                                                  **
 **                       VIBRATIONAL ANALYSIS                       **
 **                       --------------------                       **
 **                                                                  **
 **        VIBRATIONAL FREQUENCIES (CM**-1) AND NORMAL MODES         **
 **     FORCE CONSTANTS (mDYN/ANGSTROM) AND REDUCED MASSES (AMU)     **
 **                  INFRARED INTENSITIES (KM/MOL)                   **
 **                                                                  **
 **********************************************************************
 

 Mode:                 1                      2                      3
 Frequency:     -2005.48                 116.25                 160.58
 Force Cnst:      2.5988                 0.0219                 0.0879
 Red. Mass:       1.0967                 2.7537                 5.7884
 IR Active:          YES                    YES                    YES
 IR Intens:      815.906                  9.578                  6.597
 Raman Active:       YES                    YES                    YES
               X      Y      Z        X      Y      Z        X      Y      Z
 O          0.004 -0.012  0.003    0.044  0.070  0.199    0.409  0.012 -0.036
 H         -0.021 -0.029  0.011   -0.079 -0.180 -0.630   -0.109  0.286  0.170
 C         -0.047  0.028 -0.001   -0.011 -0.047 -0.178    0.084 -0.009  0.077
 H          0.977 -0.029 -0.141   -0.002 -0.026 -0.043    0.032 -0.239  0.062
 C         -0.062 -0.027  0.008    0.043 -0.049  0.135   -0.085  0.004 -0.060
 O          0.007  0.013  0.000   -0.064  0.035 -0.152   -0.364 -0.012  0.015
 H          0.107  0.014  0.005    0.257 -0.291  0.202   -0.183  0.097 -0.088
 H          0.047  0.023 -0.033   -0.066  0.105  0.394    0.124  0.099 -0.174
 H          0.006  0.001  0.016   -0.179 -0.122 -0.145   -0.571 -0.186  0.152
 TransDip  -0.911  0.081  0.003   -0.046 -0.070 -0.053   -0.075 -0.016  0.031

 Mode:                 4                      5                      6
 Frequency:       205.11                 320.50                 430.31
 Force Cnst:      0.0308                 0.1900                 0.1239
 Red. Mass:       1.2441                 3.1399                 1.1360
 IR Active:          YES                    YES                    YES
 IR Intens:        7.991                  3.556                163.222
 Raman Active:       YES                    YES                    YES
               X      Y      Z        X      Y      Z        X      Y      Z
 O         -0.038  0.026  0.025    0.162 -0.062  0.052   -0.019  0.008 -0.008
 H          0.185  0.187  0.705   -0.245  0.254  0.538    0.023  0.091  0.265
 C          0.028  0.011 -0.067   -0.171 -0.160 -0.123   -0.022 -0.009 -0.048
 H         -0.012 -0.048 -0.404   -0.203 -0.096 -0.167   -0.009 -0.007 -0.028
 C          0.068 -0.022 -0.014   -0.179  0.090  0.047    0.022 -0.007  0.031
 O         -0.066 -0.023  0.015    0.140  0.087 -0.014    0.055  0.014 -0.040
 H          0.407 -0.021  0.023   -0.228  0.041  0.048   -0.108 -0.044  0.020
 H         -0.124 -0.014  0.184   -0.272 -0.011  0.041    0.073 -0.012 -0.021
 H          0.045 -0.026 -0.175    0.339  0.254 -0.152   -0.557 -0.194  0.737
 TransDip   0.087  0.019  0.016   -0.007  0.060  0.007   -0.277 -0.127  0.273

 Mode:                 7                      8                      9
 Frequency:       553.54                 561.38                1083.19
 Force Cnst:      0.2335                 0.5431                 0.7760
 Red. Mass:       1.2933                 2.9252                 1.1225
 IR Active:          YES                    YES                    YES
 IR Intens:       20.534                  6.300                 69.831
 Raman Active:       YES                    YES                    YES
               X      Y      Z        X      Y      Z        X      Y      Z
 O         -0.023  0.027  0.021   -0.049  0.012  0.022   -0.002  0.001 -0.001
 H         -0.042  0.118  0.212    0.582 -0.177  0.193    0.012  0.003  0.004
 C         -0.053 -0.006 -0.079    0.305  0.022 -0.122    0.007  0.004 -0.002
 H          0.068 -0.100  0.171    0.065  0.101  0.055   -0.091 -0.095  0.034
 C          0.093 -0.026  0.062   -0.233 -0.023  0.086   -0.067  0.013 -0.024
 O         -0.027 -0.012  0.007   -0.007 -0.003 -0.008   -0.002 -0.060 -0.010
 H         -0.470  0.037 -0.015   -0.594 -0.084  0.055    0.291 -0.210  0.045
 H          0.654  0.142 -0.335   -0.105 -0.062 -0.083    0.392  0.600  0.104
 H          0.112 -0.052 -0.269    0.078  0.103 -0.022    0.178  0.440  0.301
 TransDip   0.104  0.059 -0.082    0.074 -0.031  0.006    0.060  0.255  0.056

 Mode:                10                     11                     12
 Frequency:      1143.92                1170.92                1232.80
 Force Cnst:      0.9976                 3.1362                 1.1750
 Red. Mass:       1.2940                 3.8824                 1.3122
 IR Active:          YES                    YES                    YES
 IR Intens:       34.312                102.867                 34.158
 Raman Active:       YES                    YES                    YES
               X      Y      Z        X      Y      Z        X      Y      Z
 O          0.008  0.003 -0.008   -0.026 -0.005  0.003   -0.055 -0.035  0.017
 H          0.114 -0.153 -0.048   -0.227  0.277 -0.071   -0.557  0.757 -0.169
 C         -0.004  0.014  0.023    0.048 -0.015  0.005    0.121 -0.009 -0.008
 H         -0.242 -0.110 -0.209    0.177  0.010 -0.061    0.017 -0.227 -0.018
 C         -0.095 -0.080  0.074    0.001  0.331  0.147   -0.020 -0.055 -0.005
 O          0.029  0.041 -0.024   -0.001 -0.284 -0.111    0.008  0.048  0.007
 H          0.467  0.584  0.003    0.030  0.727  0.071    0.070  0.031 -0.011
 H          0.344 -0.059 -0.318   -0.136  0.036 -0.001    0.021 -0.045 -0.033
 H         -0.081 -0.163 -0.083    0.001 -0.222 -0.036   -0.002  0.045  0.009
 TransDip  -0.143 -0.121 -0.002    0.201  0.247  0.065    0.173  0.032 -0.063

 Mode:                13                     14                     15
 Frequency:      1313.93                1354.15                1464.47
 Force Cnst:      1.1249                 1.3086                 1.3898
 Red. Mass:       1.1059                 1.2112                 1.0999
 IR Active:          YES                    YES                    YES
 IR Intens:        6.353                 36.778                  8.368
 Raman Active:       YES                    YES                    YES
               X      Y      Z        X      Y      Z        X      Y      Z
 O         -0.003  0.005  0.015    0.005  0.000  0.002   -0.002  0.007 -0.001
 H          0.023  0.078  0.182    0.027 -0.020  0.061    0.034 -0.039  0.009
 C         -0.001 -0.016 -0.064   -0.014  0.000 -0.016   -0.003  0.004 -0.002
 H          0.070  0.183  0.839    0.059  0.026  0.245    0.028 -0.194  0.057
 C         -0.038  0.001 -0.049    0.065 -0.059  0.043    0.016 -0.078 -0.037
 O          0.010 -0.003  0.014   -0.055  0.003 -0.056    0.017  0.007  0.003
 H          0.372  0.082 -0.022    0.011  0.356 -0.024   -0.299  0.557 -0.167
 H         -0.046  0.023 -0.010   -0.143 -0.389 -0.060   -0.129  0.422  0.564
 H         -0.075 -0.211 -0.101    0.223  0.680  0.317   -0.023 -0.075 -0.027
 TransDip  -0.041 -0.069  0.008    0.060  0.162  0.089   -0.056 -0.073 -0.002

 Mode:                16                     17                     18
 Frequency:      1539.85                1861.38                2825.06
 Force Cnst:      1.4798                20.0280                 5.1066
 Red. Mass:       1.0592                 9.8111                 1.0860
 IR Active:          YES                    YES                    YES
 IR Intens:        0.628                210.940                150.317
 Raman Active:       YES                    YES                    YES
               X      Y      Z        X      Y      Z        X      Y      Z
 O          0.015 -0.032  0.008    0.072 -0.484  0.138   -0.001  0.001  0.000
 H         -0.118  0.142 -0.014    0.310  0.183 -0.102    0.744  0.597 -0.289
 C          0.002 -0.009 -0.001   -0.107  0.635 -0.179   -0.063 -0.051  0.024
 H         -0.018  0.934 -0.186   -0.319 -0.180  0.076    0.019 -0.004 -0.002
 C         -0.001 -0.050  0.005    0.023  0.039  0.001    0.000  0.001  0.000
 O         -0.011 -0.008 -0.001   -0.001 -0.016 -0.005    0.000 -0.001  0.000
 H         -0.056  0.120 -0.036   -0.061 -0.022  0.009   -0.003 -0.001 -0.001
 H          0.115  0.132  0.065   -0.050 -0.009  0.011   -0.002 -0.002  0.003
 H          0.001  0.013  0.008   -0.015 -0.071  0.018    0.003  0.003 -0.001
 TransDip   0.012  0.016 -0.016   -0.312  0.338 -0.068   -0.307 -0.221  0.105

 Mode:                19                     20                     21
 Frequency:      3000.27                3121.43                3798.41
 Force Cnst:      5.5933                 6.3705                 9.0604
 Red. Mass:       1.0546                 1.1097                 1.0658
 IR Active:          YES                    YES                    YES
 IR Intens:       38.093                 16.027                 64.478
 Raman Active:       YES                    YES                    YES
               X      Y      Z        X      Y      Z        X      Y      Z
 O          0.000  0.000  0.000    0.000  0.000  0.000    0.000  0.002  0.000
 H          0.000  0.002  0.000    0.000 -0.001  0.001   -0.003  0.003 -0.001
 C         -0.001  0.000  0.000    0.000  0.000  0.000    0.001 -0.002  0.000
 H          0.011  0.004 -0.004   -0.002  0.001 -0.003   -0.010  0.000  0.002
 C          0.025 -0.033 -0.050   -0.040  0.038 -0.079   -0.001  0.001 -0.001
 O          0.000  0.000 -0.001    0.001 -0.001  0.001   -0.045  0.033 -0.026
 H         -0.078  0.151  0.880   -0.054  0.072  0.409   -0.001 -0.003 -0.004
 H         -0.238  0.249 -0.272    0.523 -0.507  0.533    0.007 -0.011  0.011
 H          0.005 -0.009  0.006   -0.012  0.001 -0.011    0.726 -0.532  0.430
 TransDip   0.035 -0.141 -0.133   -0.030  0.055 -0.112    0.147 -0.193  0.086

 STANDARD THERMODYNAMIC QUANTITIES AT   298.15 K  AND     1.00 ATM

   This Molecule has  1 Imaginary Frequencies
   Zero point vibrational energy:       38.966 kcal/mol

   Atom    1 Element O  Has Mass   15.99491
   Atom    2 Element H  Has Mass    1.00783
   Atom    3 Element C  Has Mass   12.00000
   Atom    4 Element H  Has Mass    1.00783
   Atom    5 Element C  Has Mass   12.00000
   Atom    6 Element O  Has Mass   15.99491
   Atom    7 Element H  Has Mass    1.00783
   Atom    8 Element H  Has Mass    1.00783
   Atom    9 Element H  Has Mass    1.00783
   Molecular Mass:    61.028970 amu
   Principal axes and moments of inertia in amu*Bohr^2:
                             1           2           3
    Eigenvalues --      111.78368   435.34273   520.25833
          X               0.99985    -0.00241    -0.01705
          Y               0.00207     0.99980    -0.01979
          Z               0.01710     0.01975     0.99966
   Rotational Symmetry Number is   1
   The Molecule is an Asymmetric Top
   Translational Enthalpy:        0.889 kcal/mol
   Rotational Enthalpy:           0.889 kcal/mol
   Vibrational Enthalpy:         40.874 kcal/mol
   gas constant (RT):             0.592 kcal/mol
   Translational Entropy:        38.246  cal/mol.K
   Rotational Entropy:           24.741  cal/mol.K
   Vibrational Entropy:          11.290  cal/mol.K

   Total Enthalpy:               43.244 kcal/mol
   Total Entropy:                74.276  cal/mol.K
Archival summary:
1\1\node24\FREQ\ProcedureUnspecified\BasisUnspecified\225(2)\edames\WedJun2510:18:482014WedJun2510:18:482014\0\\#,FREQ,ProcedureUnspecified,BasisUnspecified,\\0,2\O\H,1,0.968667\C,1,1.37805,2,109.687\H,3,1.09197,1,111.018,2,-166.028,0\H,3,1.09825,1,115.408,2,62.1954,0\H,3,1.38694,1,103.567,2,-50.0287,0\C,6,1.37161,3,147.364,1,29.5428,0\H,7,1.11987,6,123.255,3,-176.168,0\O,7,1.19058,6,114.204,3,4.24926,0\\\@

 Total job time:  4250.92s(wall), 4124.81s(cpu) 
 Wed Jun 25 10:18:48 2014

        *************************************************************
        *                                                           *
        *  Thank you very much for using Q-Chem.  Have a nice day.  *
        *                                                           *
        *************************************************************


0 sent ACK to 0 
now end server 0 ... 
cleanup process ... done
remove work dirs /scratch/edames/qchem5416.0 -- /scratch/edames/qchem5416.7
rm -rf /scratch/edames/qchem5416.0
rm -rf /scratch/edames/qchem5416.1
rm -rf /scratch/edames/qchem5416.2
rm -rf /scratch/edames/qchem5416.3
rm -rf /scratch/edames/qchem5416.4
rm -rf /scratch/edames/qchem5416.5
rm -rf /scratch/edames/qchem5416.6
rm -rf /scratch/edames/qchem5416.7
rm -rf /scratch/edames/qchem5416
