
Running Job 1 of 2 Species/28/spc_28_wB97x_D3BJ_SG2_TZVP_opt_freq.inp
qchem Species/28/spc_28_wB97x_D3BJ_SG2_TZVP_opt_freq.inp_55061.0 /tmp/qchem55061/ 1
/global/common/cori/software/qchem/5.1/exe/qcprog.exe Species/28/spc_28_wB97x_D3BJ_SG2_TZVP_opt_freq.inp_55061.0 /tmp/qchem55061/
Check license passed

                  Welcome to Q-Chem
     A Quantum Leap Into The Future Of Chemistry


 Q-Chem 5.1, Q-Chem, Inc., Pleasanton, CA (2018)

 Yihan Shao,  Zhengting Gan,  E. Epifanovsky,  A. T. B. Gilbert,  M. Wormit,  
 J. Kussmann,  A. W. Lange,  A. Behn,  Jia Deng,  Xintian Feng,  D. Ghosh,  
 M. Goldey,  P. R. Horn,  L. D. Jacobson,  I. Kaliman,  T. Kus,  A. Landau,  
 Jie Liu,  E. I. Proynov,  R. M. Richard,  R. P. Steele,  E. J. Sundstrom,  
 H. L. Woodcock III,  P. M. Zimmerman,  D. Zuev,  B. Albrecht,  E. Alguire,  
 S. A. Baeppler,  D. Barton,  Z. Benda,  Y. A. Bernard,  E. J. Berquist,  
 K. B. Bravaya,  H. Burton,  D. Casanova,  Chun-Min Chang,  Yunqing Chen,  
 A. Chien,  K. D. Closser,  M. P. Coons,  S. Coriani,  S. Dasgupta,  
 A. L. Dempwolff,  M. Diedenhofen,  Hainam Do,  R. G. Edgar,  Po-Tung Fang,  
 S. Faraji,  S. Fatehi,  Qingguo Feng,  K. D. Fenk,  J. Fosso-Tande,  
 Qinghui Ge,  A. Ghysels,  G. Gidofalvi,  J. Gomes,  J. Gonthier,  A. Gunina,  
 D. Hait,  M. W. D. Hanson-Heine,  P. H. P. Harbach,  A. W. Hauser,  
 J. E. Herr,  E. G. Hohenstein,  Z. C. Holden,  Kerwin Hui,  B. C. Huynh,  
 T.-C. Jagau,  Hyunjun Ji,  B. Kaduk,  K. Khistyaev,  Jaehoon Kim,  
 P. Klunzinger,  K. Koh,  D. Kosenkov,  L. Koulias,  T. Kowalczyk,  
 C. M. Krauter,  A. Kunitsa,  Ka Un Lao,  A. Laurent,  K. V. Lawler,  
 Joonho Lee,  D. Lefrancois,  S. Lehtola,  D. S. Levine,  Yi-Pei Li,  
 You-Sheng Lin,  Fenglai Liu,  E. Livshits,  A. Luenser,  P. Manohar,  
 E. Mansoor,  S. F. Manzer,  Shan-Ping Mao,  Yuezhi Mao,  N. Mardirossian,  
 A. V. Marenich,  T. Markovich,  L. A. Martinez-Martinez,  S. A. Maurer,  
 N. J. Mayhall,  S. C. McKenzie,  J.-M. Mewes,  A. F. Morrison,  
 J. W. Mullinax,  K. Nanda,  T. S. Nguyen-Beck,  R. Olivares-Amaya,  
 J. A. Parkhill,  T. M. Perrine,  F. Plasser,  P. Pokhilko,  S. Prager,  
 A. Prociuk,  E. Ramos,  D. R. Rehn,  F. Rob,  M. Schneider,  N. Sergueev,  
 S. M. Sharada,  S. Sharma,  D. W. Small,  T. Stauch,  T. Stein,  
 Yu-Chuan Su,  A. J. W. Thom,  A. Tkatchenko,  T. Tsuchimochi,  N. M. Tubman,  
 L. Vogt,  M. L. Vidal,  O. Vydrov,  M. A. Watson,  J. Wenzel,  
 M. de Wergifosse,  T. A. Wesolowski,  A. White,  J. Witte,  A. Yamada,  
 Jun Yang,  K. Yao,  S. Yeganeh,  S. R. Yost,  Zhi-Qiang You,  A. Zech,  
 Igor Ying Zhang,  Xing Zhang,  Yan Zhao,  Ying Zhu,  B. R. Brooks,  
 G. K. L. Chan,  C. J. Cramer,  M. S. Gordon,  W. J. Hehre,  A. Klamt,  
 M. W. Schmidt,  C. D. Sherrill,  D. G. Truhlar,  A. Aspuru-Guzik,  R. Baer,  
 A. T. Bell,  N. A. Besley,  Jeng-Da Chai,  R. A. DiStasio Jr.,  A. Dreuw,  
 B. D. Dunietz,  T. R. Furlani,  Chao-Ping Hsu,  Yousung Jung,  Jing Kong,  
 D. S. Lambrecht,  WanZhen Liang,  C. Ochsenfeld,  V. A. Rassolov,  
 L. V. Slipchenko,  J. E. Subotnik,  T. Van Voorhis,  J. M. Herbert,  
 A. I. Krylov,  P. M. W. Gill,  M. Head-Gordon

 Contributors to earlier versions of Q-Chem not listed above: 
 R. D. Adamson,  B. Austin,  J. Baker,  G. J. O. Beran,  K. Brandhorst,  
 S. T. Brown,  E. F. C. Byrd,  A. K. Chakraborty,  C.-L. Cheng,  
 Siu Hung Chien,  D. M. Chipman,  D. L. Crittenden,  H. Dachsel,  
 R. J. Doerksen,  A. D. Dutoi,  L. Fusti-Molnar,  W. A. Goddard III,  
 A. Golubeva-Zadorozhnaya,  S. R. Gwaltney,  G. Hawkins,  A. Heyden,  
 S. Hirata,  G. Kedziora,  F. J. Keil,  C. Kelley,  Jihan Kim,  R. A. King,  
 R. Z. Khaliullin,  P. P. Korambath,  W. Kurlancheek,  A. M. Lee,  M. S. Lee,  
 S. V. Levchenko,  Ching Yeh Lin,  D. Liotard,  R. C. Lochan,  I. Lotan,  
 P. E. Maslen,  N. Nair,  D. P. O'Neill,  D. Neuhauser,  E. Neuscamman,  
 C. M. Oana,  R. Olson,  B. Peters,  R. Peverati,  P. A. Pieniazek,  
 Y. M. Rhee,  J. Ritchie,  M. A. Rohrdanz,  E. Rosta,  N. J. Russ,  
 H. F. Schaefer III,  N. E. Schultz,  N. Shenvi,  A. C. Simmonett,  A. Sodt,  
 D. Stuck,  K. S. Thanthiriwatte,  V. Vanovschi,  Tao Wang,  A. Warshel,  
 C. F. Williams,  Q. Wu,  X. Xu,  W. Zhang

 Please cite Q-Chem as follows:
 Y. Shao et al., Mol. Phys. 113, 184-215 (2015)
 DOI: 10.1080/00268976.2014.952696

 Q-Chem 5.1.0 for Intel X86 EM64T Linux

 Parts of Q-Chem use Armadillo 8.300.2 (Tropical Shenanigans).
 http://arma.sourceforge.net/

 Q-Chem begins on Tue Nov 27 20:37:59 2018  

Host: cori02
0

     Scratch files written to /tmp/qchem55061//
 Jun2518 |scratch|qcdevops|jenkins|workspace|build_RNUM -1
Processing $rem in /global/common/cori/software/qchem/5.1/config/preferences.
 MEM_TOTAL  96000 

Checking the input file for inconsistencies... 	...done.

--------------------------------------------------------------
User input:
--------------------------------------------------------------
$molecule
0 2
C  -5.2133624653  -0.5817323293   0.0716063550
C  -3.9208577163  -0.3653642231   0.7842756215
C  -2.7234657196  -0.4847274371  -0.1586226776
C  -1.4067286916  -0.2489011556   0.5841707145
C  -0.2072350441  -0.3685719473  -0.3574558461
C   1.1089292685  -0.1327105750   0.3853541574
C   2.3084161422  -0.2523719000  -0.5561809572
C   3.6235534716  -0.0166689057   0.1861615221
C   4.8185306791  -0.1347534507  -0.7463583025
H  -6.1212127696  -0.1314315941   0.4570007066
H  -5.2994424748  -1.3353553028  -0.7031522856
H  -3.8376470521  -1.0990705009   1.5937074359
H  -3.9334312212   0.6298167193   1.2431088845
H  -2.8197233396   0.2430488059  -0.9743845075
H  -2.7102695500  -1.4811213976  -0.6184248843
H  -1.3087993596  -0.9774524008   1.3981987606
H  -1.4164794042   0.7479540847   1.0415516576
H  -0.3052165202   0.3598808520  -1.1715477467
H  -0.1973201203  -1.3653983624  -0.8148705061
H   1.2068964692  -0.8611582319   1.1994628356
H   1.0990300919   0.8641225318   0.8427731222
H   2.2105374373   0.4759364652  -1.3704644617
H   2.3183955049  -1.2491385967  -1.0138136628
H   3.7283249744  -0.7449267208   0.9987919751
H   3.6204650036   0.9802248979   0.6421197372
H   4.7607639358   0.6026064156  -1.5533896657
H   5.7481271068   0.0373839809  -0.1948776860
H   4.8692213632  -1.1321100114  -1.1947402959
$end

$rem
JOBTYPE                   OPT
METHOD                    wB97X-D3
DFT_D                     D3_BJ
BASIS                     def2-TZVP
UNRESTRICTED              TRUE
SCF_ALGORITHM             DIIS
MAX_SCF_CYCLES            150
SCF_CONVERGENCE           8
SYM_IGNORE                TRUE
SYMMETRY                  FALSE
GEOM_OPT_MAX_CYCLES       150
GEOM_OPT_TOL_GRADIENT     100
GEOM_OPT_TOL_DISPLACEMENT 400
GEOM_OPT_TOL_ENERGY       33
XC_GRID			  2
$end

--------------------------------------------------------------
 Adding empirical dispersion correction 
 ----------------------------------------------------------------
 Warning: No defaults exist for this functional-D3 combo.
 Verify that DFT_D3 parameters are correct.
 Doing -D3(BJ) with
 s6 =   1.00000
 s8 =   1.00000
 a1 =   1.00000
 a2 =   1.00000
 -D3 energy without 3body term =     -0.0597309734 hartrees
 ----------------------------------------------------------------
             Standard Nuclear Orientation (Angstroms)
    I     Atom           X                Y                Z
 ----------------------------------------------------------------
    1      C      -5.2133624653    -0.5817323293     0.0716063550
    2      C      -3.9208577163    -0.3653642231     0.7842756215
    3      C      -2.7234657196    -0.4847274371    -0.1586226776
    4      C      -1.4067286916    -0.2489011556     0.5841707145
    5      C      -0.2072350441    -0.3685719473    -0.3574558461
    6      C       1.1089292685    -0.1327105750     0.3853541574
    7      C       2.3084161422    -0.2523719000    -0.5561809572
    8      C       3.6235534716    -0.0166689057     0.1861615221
    9      C       4.8185306791    -0.1347534507    -0.7463583025
   10      H      -6.1212127696    -0.1314315941     0.4570007066
   11      H      -5.2994424748    -1.3353553028    -0.7031522856
   12      H      -3.8376470521    -1.0990705009     1.5937074359
   13      H      -3.9334312212     0.6298167193     1.2431088845
   14      H      -2.8197233396     0.2430488059    -0.9743845075
   15      H      -2.7102695500    -1.4811213976    -0.6184248843
   16      H      -1.3087993596    -0.9774524008     1.3981987606
   17      H      -1.4164794042     0.7479540847     1.0415516576
   18      H      -0.3052165202     0.3598808520    -1.1715477467
   19      H      -0.1973201203    -1.3653983624    -0.8148705061
   20      H       1.2068964692    -0.8611582319     1.1994628356
   21      H       1.0990300919     0.8641225318     0.8427731222
   22      H       2.2105374373     0.4759364652    -1.3704644617
   23      H       2.3183955049    -1.2491385967    -1.0138136628
   24      H       3.7283249744    -0.7449267208     0.9987919751
   25      H       3.6204650036     0.9802248979     0.6421197372
   26      H       4.7607639358     0.6026064156    -1.5533896657
   27      H       5.7481271068     0.0373839809    -0.1948776860
   28      H       4.8692213632    -1.1321100114    -1.1947402959
 ----------------------------------------------------------------
 Nuclear Repulsion Energy =   436.7305027623 hartrees
 There are       37 alpha and       36 beta electrons
 Requested basis set is def2-TZVP
 There are 175 shells and 393 basis functions

 Total QAlloc Memory Limit  96000 MB
 Mega-Array Size       188 MB
 MEM_STATIC part       192 MB
 A cutoff of  1.0D-11 yielded  11411 shell pairs
 There are     56241 function pairs (     69509 Cartesian)
 
 -------------------------------------------------------
 OpenMP Integral Computing Module                       
 Release: version 1.0, May 2013, Q-Chem Inc. Pittsburgh 
 -------------------------------------------------------
 Integral Job Info:
 Integral job number is                      11
 Integral operator is                         1
 short-range coefficients              19572800
 long-range coefficients              100000000
 Omega coefficients                         250
 if combine SR and LR in K                    1
 Integral screening is                        0
 Integral computing path is                   2
 max size of driver memory is            800000
 size of driver memory is                776718
 size of scratch memory is              4473992
 max col of scratch BK array              10000
 max len of scratch array in speh3          662
 max len of scratch index in speh4           32
 max int batch size is                      520
 min int batch size is                       52
 fixed nKL is                                52
 max L of basis functions is                  3
 order of int derivative is                   0
 number of shells is                        175
 number of basis is                         438
 number of cartesian basis is               438
 number of contracted shell pairs         11411
 number of primitive shell pairs          23952
 maxK2 (contraction) of shell pair           36
 max number of K2 of shell pair               1
 max number of CS2 of shell pair           2084
 max number of PS2 of shell pair           3012
 mem total for path MDJ                  630702
 -------------------------------------------------------
 Smallest overlap matrix eigenvalue = 5.24E-05

 Scale SEOQF with 1.000000e-02/1.000000e-01/1.000000e-01

 Standard Electronic Orientation quadrupole field applied
 Nucleus-field energy     =     0.0000000007 hartrees
 Guess from superposition of atomic densities
 Warning:  Energy on first SCF cycle will be non-variational
 SAD guess density has 73.000000 electrons

 -----------------------------------------------------------------------
  General SCF calculation program by
  Eric Jon Sundstrom, Paul Horn, Yuezhi Mao, Dmitri Zuev, Alec White,
  David Stuck, Shaama M.S., Shane Yost, Joonho Lee, David Small,
  Daniel Levine, Susi Lehtola, Hugh Burton, Evgeny Epifanovsky
 -----------------------------------------------------------------------
 Exchange:     0.1957 Hartree-Fock + 1.0000 wB97X-D3 + LR-HF
 Correlation:  1.0000 wB97X-D3
 Using SG-2 standard quadrature grid
 Dispersion:   Grimme D3
 using 16 threads for integral computing
 -------------------------------------------------------
 OpenMP Integral computing Module                
 Release: version 1.0, May 2013, Q-Chem Inc. Pittsburgh 
 -------------------------------------------------------
 using 16 threads for integral computing
 -------------------------------------------------------
 OpenMP Integral computing Module                
 Release: version 1.0, May 2013, Q-Chem Inc. Pittsburgh 
 -------------------------------------------------------
 -------------------------------------------------------
 OpenMP BLAS3 based DFT computing Module                
 Release: version 1.0, May 2013, Q-Chem Inc. Pittsburgh 
 -------------------------------------------------------
 A unrestricted SCF calculation will be
 performed using DIIS
 SCF converges when DIIS error is below 1.0e-08
 ---------------------------------------
  Cycle       Energy         DIIS error
 ---------------------------------------
    1    -356.7880305085      1.33e-02  
    2    -354.3401400869      1.03e-03  
    3    -354.3946389474      6.87e-04  
    4    -354.4307053866      6.11e-05  
    5    -354.4312501430      2.18e-05  
    6    -354.4313068130      8.86e-06  
    7    -354.4313212243      2.75e-06  
    8    -354.4313229889      1.15e-06  
    9    -354.4313231766      3.22e-07  
   10    -354.4313231921      8.24e-08  
   11    -354.4313231934      3.15e-08  
   12    -354.4313231936      1.26e-08  
   13    -354.4313231936      3.73e-09  Convergence criterion met
 ---------------------------------------
 SCF time:   CPU 2062.07s  wall 135.00s 
<S^2> =          0.754432252
 SCF   energy in the final basis set =     -354.4313231936
 Total energy in the final basis set =     -354.4313231936
 
 --------------------------------------------------------------
 
                    Orbital Energies (a.u.)
 --------------------------------------------------------------
 
 Alpha MOs
 -- Occupied --
-10.275 -10.272 -10.267 -10.265 -10.265 -10.264 -10.264 -10.263
-10.258  -0.933  -0.914  -0.880  -0.834  -0.779  -0.723  -0.690
 -0.684  -0.680  -0.592  -0.573  -0.546  -0.536  -0.531  -0.507
 -0.503  -0.494  -0.471  -0.456  -0.447  -0.437  -0.427  -0.425
 -0.419  -0.416  -0.414  -0.382  -0.292
 -- Virtual --
  0.112   0.124   0.138   0.140   0.143   0.159   0.163   0.168
  0.183   0.196   0.199   0.202   0.210   0.216   0.220   0.226
  0.227   0.233   0.236   0.251   0.253   0.262   0.272   0.281
  0.299   0.306   0.309   0.314   0.332   0.353   0.356   0.372
  0.377   0.380   0.381   0.387   0.390   0.391   0.407   0.409
  0.420   0.428   0.444   0.461   0.471   0.480   0.485   0.497
  0.504   0.513   0.518   0.524   0.536   0.538   0.544   0.546
  0.550   0.554   0.560   0.570   0.574   0.582   0.583   0.592
  0.600   0.602   0.607   0.609   0.612   0.618   0.629   0.661
  0.686   0.693   0.699   0.706   0.730   0.750   0.762   0.769
  0.811   0.820   0.853   0.862   0.892   0.908   0.916   0.921
  0.935   0.937   0.941   0.953   0.954   0.956   0.966   0.986
  1.004   1.019   1.034   1.091   1.092   1.105   1.113   1.127
  1.150   1.170   1.177   1.181   1.189   1.193   1.200   1.210
  1.216   1.224   1.230   1.244   1.255   1.296   1.333   1.347
  1.366   1.377   1.409   1.428   1.434   1.439   1.451   1.523
  1.572   1.580   1.589   1.621   1.629   1.630   1.635   1.653
  1.658   1.662   1.671   1.682   1.688   1.697   1.707   1.728
  1.732   1.737   1.763   1.796   1.827   1.831   1.858   1.872
  1.894   1.908   1.918   1.932   1.939   1.950   1.953   1.956
  1.960   1.970   1.987   1.997   2.011   2.016   2.029   2.044
  2.053   2.068   2.077   2.094   2.122   2.153   2.158   2.170
  2.201   2.222   2.236   2.255   2.262   2.324   2.335   2.356
  2.367   2.378   2.392   2.418   2.433   2.437   2.445   2.474
  2.498   2.511   2.515   2.528   2.541   2.551   2.571   2.578
  2.584   2.601   2.618   2.632   2.641   2.644   2.649   2.653
  2.654   2.667   2.671   2.694   2.695   2.702   2.709   2.720
  2.740   2.756   2.759   2.763   2.779   2.795   2.802   2.815
  2.826   2.834   2.835   2.845   2.850   2.856   2.869   2.873
  2.886   2.905   2.935   2.961   2.983   3.026   3.055   3.070
  3.083   3.097   3.114   3.145   3.174   3.182   3.189   3.210
  3.218   3.260   3.273   3.282   3.291   3.295   3.302   3.313
  3.325   3.335   3.352   3.353   3.360   3.371   3.376   3.385
  3.391   3.416   3.420   3.470   3.480   3.489   3.502   3.508
  3.514   3.530   3.532   3.537   3.555   3.576   3.585   3.600
  3.609   3.632   3.637   3.651   3.666   3.667   3.687   3.695
  3.701   3.708   3.721   3.729   3.731   3.782   3.812   3.823
  3.912   3.932   3.944   3.950   3.975   3.984   3.990   3.994
  4.005   4.017   4.020   4.069   4.077   4.116   4.132   4.182
  4.197   4.211   4.228   4.236   4.256   4.303   4.355   4.434
  4.447   4.456   4.505   4.534   4.562   4.580   4.626   4.655
  4.661   4.677   4.698   4.710   4.725   4.738   4.756   4.768
  4.777   4.795   4.804   4.840   4.853   4.950   4.971   5.157
  5.172   5.402   5.416  22.207  22.387  22.431  22.495  22.567
 22.585  22.590  22.637  22.643
 
 Beta MOs
 -- Occupied --
-10.272 -10.267 -10.265 -10.265 -10.265 -10.264 -10.264 -10.263
-10.258  -0.932  -0.911  -0.875  -0.827  -0.770  -0.714  -0.687
 -0.681  -0.671  -0.591  -0.570  -0.542  -0.533  -0.527  -0.504
 -0.500  -0.489  -0.468  -0.452  -0.443  -0.435  -0.426  -0.424
 -0.419  -0.415  -0.414  -0.380
 -- Virtual --
  0.029   0.112   0.124   0.138   0.141   0.143   0.161   0.164
  0.168   0.186   0.197   0.200   0.203   0.211   0.217   0.220
  0.226   0.228   0.233   0.237   0.250   0.253   0.264   0.272
  0.281   0.299   0.307   0.311   0.315   0.332   0.355   0.369
  0.375   0.378   0.381   0.385   0.389   0.390   0.397   0.408
  0.410   0.423   0.428   0.444   0.462   0.472   0.480   0.485
  0.497   0.505   0.514   0.521   0.524   0.537   0.540   0.545
  0.550   0.554   0.556   0.564   0.571   0.576   0.583   0.584
  0.593   0.600   0.603   0.609   0.612   0.614   0.621   0.631
  0.664   0.687   0.694   0.700   0.707   0.731   0.751   0.765
  0.769   0.813   0.821   0.860   0.867   0.892   0.911   0.917
  0.921   0.937   0.938   0.943   0.953   0.955   0.956   0.972
  0.994   1.006   1.020   1.037   1.092   1.096   1.109   1.117
  1.130   1.152   1.171   1.179   1.187   1.190   1.194   1.201
  1.211   1.217   1.225   1.231   1.245   1.259   1.298   1.335
  1.349   1.369   1.379   1.410   1.430   1.435   1.439   1.452
  1.526   1.581   1.587   1.615   1.626   1.631   1.633   1.637
  1.654   1.659   1.662   1.675   1.684   1.689   1.699   1.711
  1.728   1.734   1.738   1.765   1.796   1.827   1.833   1.859
  1.876   1.897   1.911   1.924   1.936   1.940   1.950   1.953
  1.956   1.961   1.971   1.987   1.998   2.012   2.016   2.031
  2.044   2.053   2.069   2.078   2.097   2.126   2.155   2.161
  2.173   2.203   2.227   2.237   2.258   2.263   2.325   2.338
  2.360   2.369   2.381   2.399   2.419   2.433   2.441   2.445
  2.476   2.499   2.514   2.518   2.529   2.541   2.552   2.571
  2.578   2.584   2.605   2.619   2.637   2.642   2.646   2.649
  2.654   2.655   2.668   2.673   2.694   2.697   2.705   2.710
  2.721   2.742   2.759   2.762   2.764   2.782   2.795   2.803
  2.816   2.830   2.835   2.837   2.846   2.854   2.856   2.870
  2.874   2.892   2.908   2.938   2.968   2.985   3.031   3.058
  3.088   3.096   3.114   3.130   3.149   3.182   3.190   3.200
  3.212   3.224   3.271   3.277   3.284   3.295   3.297   3.309
  3.319   3.327   3.345   3.354   3.361   3.370   3.374   3.381
  3.391   3.397   3.419   3.423   3.477   3.490   3.493   3.505
  3.510   3.518   3.532   3.535   3.541   3.557   3.581   3.587
  3.605   3.612   3.634   3.638   3.655   3.668   3.676   3.688
  3.699   3.703   3.716   3.722   3.731   3.734   3.786   3.817
  3.824   3.914   3.935   3.945   3.954   3.978   3.984   3.991
  3.996   4.007   4.018   4.021   4.072   4.080   4.118   4.135
  4.187   4.202   4.212   4.231   4.237   4.263   4.311   4.356
  4.438   4.448   4.458   4.509   4.540   4.566   4.584   4.628
  4.655   4.662   4.678   4.699   4.710   4.727   4.738   4.761
  4.770   4.781   4.796   4.805   4.840   4.857   4.954   4.972
  5.160   5.172   5.403   5.417  22.227  22.387  22.431  22.495
 22.567  22.585  22.590  22.637  22.643
 --------------------------------------------------------------
 
          Ground-State Mulliken Net Atomic Charges

     Atom                 Charge (a.u.)    Spin (a.u.)
  --------------------------------------------------------
      1 C                    -0.342565       1.037974
      2 C                    -0.116458      -0.080417
      3 C                    -0.216949       0.021818
      4 C                    -0.191419       0.002511
      5 C                    -0.194564      -0.000243
      6 C                    -0.189281       0.000004
      7 C                    -0.205021       0.000031
      8 C                    -0.153012       0.000002
      9 C                    -0.341900       0.000007
     10 H                     0.135540      -0.028968
     11 H                     0.134142      -0.026803
     12 H                     0.106410       0.056838
     13 H                     0.100266       0.015532
     14 H                     0.104925       0.001634
     15 H                     0.096001      -0.000650
     16 H                     0.094923       0.000416
     17 H                     0.095324       0.000062
     18 H                     0.096274       0.000161
     19 H                     0.095943       0.000048
     20 H                     0.094829       0.000062
     21 H                     0.094998      -0.000018
     22 H                     0.093711      -0.000001
     23 H                     0.093586      -0.000002
     24 H                     0.091249      -0.000001
     25 H                     0.091385       0.000001
     26 H                     0.107360      -0.000000
     27 H                     0.116970       0.000002
     28 H                     0.107335      -0.000000
  --------------------------------------------------------
  Sum of atomic charges =     0.000000
  Sum of spin   charges =     1.000000

 -----------------------------------------------------------------
                    Cartesian Multipole Moments
 -----------------------------------------------------------------
    Charge (ESU x 10^10)
                 0.0000
    Dipole Moment (Debye)
         X       0.2527      Y      -0.0516      Z       0.2692
       Tot       0.3728
    Quadrupole Moments (Debye-Ang)
        XX     -65.1905     XY      -0.0657     YY     -59.8038
        XZ      -0.5488     YZ       0.1543     ZZ     -61.9789
    Octopole Moments (Debye-Ang^2)
       XXX      30.2727    XXY      20.1892    XYY       8.8446
       YYY      51.7916    XXZ       8.6473    XYZ      -3.6929
       YYZ      -1.3069    XZZ       7.1650    YZZ      17.5225
       ZZZ      -1.9294
    Hexadecapole Moments (Debye-Ang^3)
      XXXX   -4270.1483   XXXY    -116.0133   XXYY    -716.5580
      XYYY     -99.9126   YYYY    -166.6601   XXXZ     161.6287
      XXYZ      17.1028   XYYZ      56.0957   YYYZ       1.3447
      XXZZ    -740.6639   XYZZ     -30.3471   YYZZ     -63.0742
      XZZZ     164.4333   YZZZ      -6.4983   ZZZZ    -245.0867
 -----------------------------------------------------------------
 Calculating analytic gradient of the SCF energy
 Gradient of SCF Energy
            1           2           3           4           5           6
    1  -0.0001697   0.0087667  -0.0041150   0.0013191  -0.0009281   0.0010581
    2  -0.0014983  -0.0015551  -0.0016294   0.0031864  -0.0030150   0.0029839
    3  -0.0056543   0.0153491  -0.0111401   0.0134141  -0.0139109   0.0139261
            7           8           9          10          11          12
    1  -0.0011546  -0.0001767  -0.0040420  -0.0003721  -0.0005012  -0.0037576
    2  -0.0030085   0.0018032  -0.0010722   0.0015202  -0.0012570   0.0000533
    3  -0.0139593   0.0086459  -0.0032877   0.0021577  -0.0006303  -0.0023887
           13          14          15          16          17          18
    1  -0.0017949   0.0005590   0.0005839   0.0000006  -0.0000276   0.0000212
    2   0.0026593   0.0021167  -0.0022912  -0.0016443   0.0020818   0.0016691
    3  -0.0015248  -0.0026175  -0.0009838   0.0012911   0.0005290  -0.0013935
           19          20          21          22          23          24
    1   0.0000977   0.0000564  -0.0000204  -0.0000890  -0.0000175   0.0018605
    2  -0.0020814  -0.0016499   0.0021021   0.0015860  -0.0019993  -0.0018532
    3  -0.0004987   0.0013998   0.0005472  -0.0013274  -0.0004636   0.0009996
           25          26          27          28
    1   0.0017405   0.0001752   0.0005945   0.0003330
    2   0.0023534   0.0019052   0.0007377  -0.0022037
    3   0.0000517  -0.0012346   0.0029991  -0.0002950
 Max gradient component =       1.535E-02
 RMS gradient           =       4.277E-03
 Gradient time:  CPU 396.54 s  wall 26.33 s
 Geometry Optimization Parameters
   NAtoms,    NIC,     NZ,  NCons,   NDum,   NFix, NCnnct, MaxDiis
       28     203       0       0       0       0       0       0


** GEOMETRY OPTIMIZATION IN DELOCALIZED INTERNAL COORDINATES **
   Searching for a Minimum

   Optimization Cycle:   1

                       Coordinates (Angstroms)
     ATOM                X               Y               Z
      1  C        -5.2133624653   -0.5817323293    0.0716063550
      2  C        -3.9208577163   -0.3653642231    0.7842756215
      3  C        -2.7234657196   -0.4847274371   -0.1586226776
      4  C        -1.4067286916   -0.2489011556    0.5841707145
      5  C        -0.2072350441   -0.3685719473   -0.3574558461
      6  C         1.1089292685   -0.1327105750    0.3853541574
      7  C         2.3084161422   -0.2523719000   -0.5561809572
      8  C         3.6235534716   -0.0166689057    0.1861615221
      9  C         4.8185306791   -0.1347534507   -0.7463583025
     10  H        -6.1212127696   -0.1314315941    0.4570007066
     11  H        -5.2994424748   -1.3353553028   -0.7031522856
     12  H        -3.8376470521   -1.0990705009    1.5937074359
     13  H        -3.9334312212    0.6298167193    1.2431088845
     14  H        -2.8197233396    0.2430488059   -0.9743845075
     15  H        -2.7102695500   -1.4811213976   -0.6184248843
     16  H        -1.3087993596   -0.9774524008    1.3981987606
     17  H        -1.4164794042    0.7479540847    1.0415516576
     18  H        -0.3052165202    0.3598808520   -1.1715477467
     19  H        -0.1973201203   -1.3653983624   -0.8148705061
     20  H         1.2068964692   -0.8611582319    1.1994628356
     21  H         1.0990300919    0.8641225318    0.8427731222
     22  H         2.2105374373    0.4759364652   -1.3704644617
     23  H         2.3183955049   -1.2491385967   -1.0138136628
     24  H         3.7283249744   -0.7449267208    0.9987919751
     25  H         3.6204650036    0.9802248979    0.6421197372
     26  H         4.7607639358    0.6026064156   -1.5533896657
     27  H         5.7481271068    0.0373839809   -0.1948776860
     28  H         4.8692213632   -1.1321100114   -1.1947402959
   Point Group: c1    Number of degrees of freedom:    78


   Energy is   -354.431323194


 Attempting to Generate Delocalized Internal Coordinates

 78 Hessian modes will be used to form the next step
  Hessian Eigenvalues:
     0.005199    0.005259    0.005263    0.005268    0.005377    0.005413
     0.006485    0.010272    0.011396    0.037952    0.037984    0.037985
     0.037991    0.038038    0.038410    0.043857    0.049908    0.049910
     0.049933    0.049935    0.049983    0.050383    0.055583    0.057093
     0.058034    0.081815    0.081838    0.081839    0.081845    0.081886
     0.082443    0.094394    0.120695    0.120719    0.120722    0.120723
     0.120744    0.121065    0.128208    0.160000    0.160000    0.160000
     0.160000    0.160000    0.218902    0.218988    0.218997    0.218998
     0.219003    0.219070    0.219562    0.294158    0.294577    0.294601
     0.294634    0.295399    0.295654    0.303315    0.332598    0.339659
     0.339660    0.340333    0.340333    0.340360    0.340363    0.340366
     0.340366    0.340375    0.340375    0.341033    0.341033    0.341358
     0.341688    0.342767    0.342767    0.342987    0.354851    0.354915

 Minimum Search - Taking Simple RFO Step
 Searching for Lamda that Minimizes Along All modes
 Value Taken    Lamda =  -0.00342907
 Step Taken.  Stepsize is  0.170267

                             Maximum     Tolerance    Cnvgd?
         Gradient           0.018761      0.000100      NO
         Displacement       0.106809      0.000400      NO
         Energy change     *********      0.000000      NO


 New Cartesian Coordinates Obtained by Inverse Iteration

 Displacement from previous Coordinates is:  0.233399
 Adding empirical dispersion correction 
 ----------------------------------------------------------------
 Warning: No defaults exist for this functional-D3 combo.
 Verify that DFT_D3 parameters are correct.
 Doing -D3(BJ) with
 s6 =   1.00000
 s8 =   1.00000
 a1 =   1.00000
 a2 =   1.00000
 -D3 energy without 3body term =     -0.0596971356 hartrees
 ----------------------------------------------------------------
             Standard Nuclear Orientation (Angstroms)
    I     Atom           X                Y                Z
 ----------------------------------------------------------------
    1      C      -5.2425315262    -0.5963056200     0.0811538410
    2      C      -3.9469576252    -0.3616294277     0.7721949531
    3      C      -2.7390325097    -0.4763551988    -0.1493738133
    4      C      -1.4179731218    -0.2469150914     0.5709825292
    5      C      -0.2081144982    -0.3615773760    -0.3442421828
    6      C       1.1132515207    -0.1326526975     0.3754143021
    7      C       2.3237869159    -0.2477724368    -0.5393111371
    8      C       3.6448433597    -0.0198074132     0.1784683761
    9      C       4.8477410677    -0.1377672408    -0.7469527509
   10      H      -6.1589626128    -0.1622149514     0.4576033193
   11      H      -5.3142931199    -1.3368034365    -0.7048587468
   12      H      -3.8256197265    -1.0872899890     1.5882967640
   13      H      -3.9537111844     0.6248019712     1.2433461514
   14      H      -2.8416136835     0.2460788323    -0.9622859436
   15      H      -2.7308256718    -1.4683135955    -0.6097368134
   16      H      -1.3209545303    -0.9699017323     1.3857900146
   17      H      -1.4276424599     0.7450728276     1.0311990235
   18      H      -0.3055368674     0.3617607009    -1.1585094279
   19      H      -0.1993268517    -1.3532430080    -0.8051816126
   20      H       1.2096303445    -0.8559738776     1.1898375176
   21      H       1.1038932655     0.8590681109     0.8361118220
   22      H       2.2276367617     0.4756433434    -1.3538762213
   23      H       2.3329910366    -1.2394440329    -1.0006458924
   24      H       3.7363327393    -0.7428872987     0.9928895076
   25      H       3.6313711222     0.9708036160     0.6399931403
   26      H       4.7857073312     0.5935045790    -1.5546085798
   27      H       5.7855813937     0.0281951541    -0.2142668138
   28      H       4.8903291309    -1.1300650011    -1.1994313261
 ----------------------------------------------------------------
 Nuclear Repulsion Energy =   436.4826108393 hartrees
 There are       37 alpha and       36 beta electrons
 Applying Cartesian multipole field
    Component          Value
    ---------          -----
     (2,0,0)        1.00000E-12
     (0,2,0)        2.00000E-11
     (0,0,2)       -3.00000E-11
 Nucleus-field energy     =     0.0000000008 hartrees
 Requested basis set is def2-TZVP
 There are 175 shells and 393 basis functions
 A cutoff of  1.0D-11 yielded  11376 shell pairs
 There are     56062 function pairs (     69330 Cartesian)
 Smallest overlap matrix eigenvalue = 5.24E-05
 Guess MOs from SCF MO coefficient file
 Reading MOs from coefficient file
 Reading MOs from coefficient file

 -----------------------------------------------------------------------
  General SCF calculation program by
  Eric Jon Sundstrom, Paul Horn, Yuezhi Mao, Dmitri Zuev, Alec White,
  David Stuck, Shaama M.S., Shane Yost, Joonho Lee, David Small,
  Daniel Levine, Susi Lehtola, Hugh Burton, Evgeny Epifanovsky
 -----------------------------------------------------------------------
 Exchange:     0.1957 Hartree-Fock + 1.0000 wB97X-D3 + LR-HF
 Correlation:  1.0000 wB97X-D3
 Using SG-2 standard quadrature grid
 Dispersion:   Grimme D3
 using 16 threads for integral computing
 -------------------------------------------------------
 OpenMP Integral computing Module                
 Release: version 1.0, May 2013, Q-Chem Inc. Pittsburgh 
 -------------------------------------------------------
 using 16 threads for integral computing
 -------------------------------------------------------
 OpenMP Integral computing Module                
 Release: version 1.0, May 2013, Q-Chem Inc. Pittsburgh 
 -------------------------------------------------------
 -------------------------------------------------------
 OpenMP BLAS3 based DFT computing Module                
 Release: version 1.0, May 2013, Q-Chem Inc. Pittsburgh 
 -------------------------------------------------------
 A unrestricted SCF calculation will be
 performed using DIIS
 SCF converges when DIIS error is below 1.0e-08
 ---------------------------------------
  Cycle       Energy         DIIS error
 ---------------------------------------
    1    -354.4496426750      1.74e-04  
    2    -354.4329528877      2.79e-05  
    3    -354.4330127646      1.87e-05  
    4    -354.4330407155      2.88e-06  
    5    -354.4330429284      1.26e-06  
    6    -354.4330434104      6.02e-07  
    7    -354.4330435069      2.11e-07  
    8    -354.4330435201      5.96e-08  
    9    -354.4330435207      2.04e-08  
   10    -354.4330435208      7.62e-09  Convergence criterion met
 ---------------------------------------
 SCF time:   CPU 1772.70s  wall 116.00s 
<S^2> =          0.754458145
 SCF   energy in the final basis set =     -354.4330435208
 Total energy in the final basis set =     -354.4330435208
 
 --------------------------------------------------------------
 
                    Orbital Energies (a.u.)
 --------------------------------------------------------------
 
 Alpha MOs
 -- Occupied --
-10.275 -10.272 -10.266 -10.265 -10.264 -10.263 -10.263 -10.262
-10.258  -0.935  -0.916  -0.882  -0.836  -0.782  -0.728  -0.691
 -0.686  -0.681  -0.593  -0.573  -0.548  -0.538  -0.531  -0.508
 -0.508  -0.494  -0.472  -0.456  -0.451  -0.440  -0.427  -0.424
 -0.415  -0.414  -0.412  -0.392  -0.293
 -- Virtual --
  0.113   0.124   0.139   0.141   0.144   0.159   0.164   0.168
  0.182   0.196   0.201   0.203   0.211   0.217   0.221   0.226
  0.228   0.233   0.238   0.250   0.253   0.262   0.273   0.283
  0.300   0.303   0.311   0.314   0.331   0.353   0.356   0.372
  0.374   0.382   0.385   0.388   0.392   0.393   0.406   0.409
  0.420   0.429   0.445   0.460   0.468   0.480   0.485   0.497
  0.504   0.513   0.518   0.526   0.539   0.540   0.545   0.547
  0.552   0.556   0.561   0.572   0.577   0.584   0.586   0.593
  0.600   0.602   0.605   0.612   0.617   0.621   0.630   0.662
  0.683   0.696   0.699   0.706   0.731   0.747   0.754   0.773
  0.809   0.819   0.848   0.859   0.890   0.910   0.916   0.927
  0.936   0.942   0.945   0.947   0.962   0.964   0.973   0.990
  0.998   1.011   1.035   1.087   1.091   1.104   1.112   1.125
  1.156   1.171   1.179   1.183   1.189   1.197   1.202   1.211
  1.220   1.232   1.233   1.246   1.256   1.303   1.334   1.361
  1.371   1.378   1.414   1.431   1.432   1.437   1.450   1.523
  1.574   1.579   1.589   1.619   1.630   1.631   1.636   1.652
  1.658   1.666   1.670   1.680   1.686   1.694   1.705   1.725
  1.729   1.733   1.763   1.789   1.832   1.835   1.866   1.874
  1.897   1.913   1.916   1.936   1.946   1.959   1.960   1.964
  1.965   1.976   1.990   2.003   2.015   2.016   2.028   2.042
  2.053   2.063   2.070   2.087   2.117   2.142   2.161   2.171
  2.197   2.217   2.224   2.255   2.259   2.329   2.339   2.355
  2.367   2.376   2.392   2.419   2.436   2.439   2.451   2.472
  2.499   2.511   2.516   2.531   2.551   2.562   2.576   2.578
  2.584   2.603   2.624   2.636   2.643   2.650   2.655   2.662
  2.668   2.670   2.674   2.695   2.699   2.717   2.719   2.728
  2.751   2.764   2.772   2.775   2.786   2.804   2.820   2.823
  2.831   2.840   2.850   2.852   2.857   2.864   2.873   2.882
  2.892   2.897   2.935   2.969   2.980   3.034   3.053   3.062
  3.086   3.106   3.122   3.157   3.171   3.186   3.195   3.211
  3.224   3.263   3.280   3.288   3.299   3.301   3.308   3.310
  3.321   3.338   3.342   3.357   3.361   3.367   3.377   3.388
  3.394   3.412   3.431   3.465   3.479   3.481   3.496   3.503
  3.517   3.534   3.534   3.541   3.552   3.573   3.580   3.596
  3.604   3.646   3.649   3.652   3.662   3.674   3.683   3.698
  3.706   3.713   3.731   3.739   3.745   3.773   3.803   3.815
  3.913   3.932   3.945   3.961   3.984   3.993   3.997   3.999
  4.008   4.021   4.024   4.062   4.075   4.118   4.133   4.180
  4.200   4.218   4.235   4.241   4.262   4.304   4.358   4.434
  4.448   4.459   4.509   4.541   4.574   4.585   4.628   4.667
  4.673   4.684   4.707   4.725   4.750   4.767   4.769   4.784
  4.792   4.807   4.826   4.839   4.866   4.971   4.987   5.162
  5.177   5.402   5.415  22.216  22.401  22.446  22.508  22.579
 22.616  22.623  22.645  22.647
 
 Beta MOs
 -- Occupied --
-10.273 -10.265 -10.265 -10.265 -10.264 -10.263 -10.263 -10.262
-10.258  -0.934  -0.913  -0.877  -0.829  -0.774  -0.719  -0.687
 -0.683  -0.673  -0.592  -0.571  -0.543  -0.536  -0.528  -0.505
 -0.504  -0.490  -0.469  -0.452  -0.447  -0.438  -0.425  -0.423
 -0.415  -0.413  -0.412  -0.390
 -- Virtual --
  0.028   0.113   0.124   0.139   0.141   0.144   0.162   0.165
  0.169   0.186   0.197   0.201   0.204   0.212   0.217   0.220
  0.226   0.228   0.233   0.239   0.250   0.253   0.263   0.273
  0.283   0.300   0.303   0.313   0.314   0.332   0.355   0.369
  0.374   0.376   0.384   0.386   0.392   0.393   0.397   0.407
  0.410   0.424   0.429   0.444   0.461   0.470   0.480   0.486
  0.498   0.505   0.514   0.521   0.527   0.540   0.542   0.547
  0.552   0.556   0.558   0.564   0.573   0.578   0.584   0.586
  0.595   0.601   0.603   0.607   0.616   0.618   0.623   0.632
  0.665   0.684   0.697   0.700   0.708   0.733   0.748   0.756
  0.773   0.811   0.820   0.852   0.868   0.891   0.911   0.917
  0.927   0.937   0.944   0.947   0.948   0.962   0.964   0.981
  0.996   1.000   1.013   1.038   1.089   1.093   1.108   1.116
  1.128   1.158   1.173   1.182   1.186   1.190   1.198   1.203
  1.212   1.220   1.233   1.235   1.247   1.261   1.304   1.336
  1.363   1.373   1.380   1.415   1.431   1.433   1.437   1.451
  1.526   1.582   1.586   1.615   1.626   1.632   1.634   1.637
  1.653   1.659   1.666   1.673   1.682   1.687   1.696   1.709
  1.725   1.732   1.734   1.765   1.790   1.833   1.836   1.867
  1.878   1.902   1.915   1.923   1.939   1.947   1.959   1.961
  1.965   1.966   1.977   1.990   2.004   2.016   2.016   2.029
  2.043   2.054   2.064   2.070   2.091   2.121   2.144   2.165
  2.174   2.199   2.218   2.229   2.257   2.261   2.331   2.341
  2.360   2.368   2.380   2.397   2.420   2.436   2.443   2.452
  2.474   2.503   2.514   2.517   2.532   2.551   2.563   2.576
  2.578   2.584   2.607   2.626   2.641   2.643   2.651   2.656
  2.664   2.669   2.671   2.676   2.699   2.702   2.718   2.719
  2.729   2.755   2.767   2.772   2.778   2.788   2.806   2.821
  2.825   2.836   2.841   2.852   2.854   2.858   2.865   2.877
  2.883   2.895   2.902   2.937   2.976   2.983   3.040   3.055
  3.082   3.104   3.122   3.132   3.161   3.177   3.199   3.202
  3.214   3.228   3.274   3.285   3.290   3.301   3.305   3.312
  3.319   3.324   3.341   3.352   3.364   3.365   3.373   3.381
  3.395   3.399   3.416   3.433   3.468   3.483   3.490   3.503
  3.506   3.521   3.535   3.538   3.543   3.553   3.579   3.582
  3.600   3.607   3.647   3.652   3.658   3.671   3.677   3.686
  3.699   3.709   3.720   3.734   3.740   3.747   3.776   3.807
  3.816   3.915   3.935   3.950   3.962   3.986   3.993   3.999
  4.002   4.008   4.021   4.024   4.066   4.078   4.120   4.137
  4.186   4.203   4.220   4.239   4.244   4.267   4.311   4.360
  4.438   4.450   4.460   4.513   4.546   4.579   4.588   4.630
  4.668   4.674   4.684   4.708   4.726   4.751   4.768   4.773
  4.785   4.793   4.811   4.826   4.839   4.872   4.975   4.987
  5.164   5.178   5.403   5.415  22.236  22.401  22.447  22.508
 22.579  22.616  22.623  22.645  22.647
 --------------------------------------------------------------
 
          Ground-State Mulliken Net Atomic Charges

     Atom                 Charge (a.u.)    Spin (a.u.)
  --------------------------------------------------------
      1 C                    -0.340120       1.035275
      2 C                    -0.118364      -0.082264
      3 C                    -0.211521       0.022589
      4 C                    -0.189302       0.002016
      5 C                    -0.190411      -0.000223
      6 C                    -0.185623       0.000010
      7 C                    -0.201703       0.000014
      8 C                    -0.152450       0.000001
      9 C                    -0.341387       0.000006
     10 H                     0.137822      -0.029009
     11 H                     0.134060      -0.027007
     12 H                     0.104045       0.060544
     13 H                     0.100753       0.016140
     14 H                     0.102117       0.001873
     15 H                     0.094058      -0.000676
     16 H                     0.092820       0.000387
     17 H                     0.093391       0.000075
     18 H                     0.094556       0.000157
     19 H                     0.094034       0.000052
     20 H                     0.092645       0.000059
     21 H                     0.092814      -0.000017
     22 H                     0.091224      -0.000001
     23 H                     0.091074      -0.000001
     24 H                     0.090178      -0.000001
     25 H                     0.090328       0.000001
     26 H                     0.107808      -0.000000
     27 H                     0.119385       0.000001
     28 H                     0.107769      -0.000000
  --------------------------------------------------------
  Sum of atomic charges =     0.000000
  Sum of spin   charges =     1.000000

 -----------------------------------------------------------------
                    Cartesian Multipole Moments
 -----------------------------------------------------------------
    Charge (ESU x 10^10)
                 0.0000
    Dipole Moment (Debye)
         X       0.2593      Y      -0.0334      Z       0.2414
       Tot       0.3559
    Quadrupole Moments (Debye-Ang)
        XX     -64.4038     XY      -0.1644     YY     -59.9406
        XZ      -0.5530     YZ       0.1671     ZZ     -62.0894
    Octopole Moments (Debye-Ang^2)
       XXX      30.8026    XXY      20.4762    XYY       9.1542
       YYY      51.9352    XXZ       7.2053    XYZ      -3.8114
       YYZ      -1.4088    XZZ       7.3603    YZZ      17.6034
       ZZZ      -2.0980
    Hexadecapole Moments (Debye-Ang^3)
      XXXX   -4269.1928   XXXY    -118.9947   XXYY    -726.2621
      XYYY    -101.5606   YYYY    -166.3605   XXXZ     161.4578
      XXYZ      17.8169   XYYZ      57.0720   YYYZ       1.5696
      XXZZ    -748.2472   XYZZ     -31.0521   YYZZ     -62.7415
      XZZZ     166.3573   YZZZ      -5.9267   ZZZZ    -241.8936
 -----------------------------------------------------------------
 Calculating analytic gradient of the SCF energy
 Gradient of SCF Energy
            1           2           3           4           5           6
    1  -0.0025078   0.0028230  -0.0021003   0.0004582  -0.0003648   0.0002117
    2  -0.0003387   0.0000368  -0.0003061   0.0006490  -0.0005834   0.0006149
    3  -0.0025232   0.0041558  -0.0015944   0.0024810  -0.0023810   0.0025519
            7           8           9          10          11          12
    1   0.0003982  -0.0002983   0.0012348  -0.0002050  -0.0001224  -0.0003757
    2  -0.0004417   0.0003470  -0.0003115   0.0002915  -0.0001776   0.0000985
    3  -0.0019133   0.0015561  -0.0012993   0.0003373   0.0004420  -0.0015596
           13          14          15          16          17          18
    1  -0.0002858  -0.0001200   0.0003396  -0.0000147  -0.0000553   0.0000527
    2   0.0000274  -0.0001061   0.0002562   0.0000361  -0.0003362   0.0000027
    3  -0.0011679   0.0007828   0.0006804  -0.0009327  -0.0009140   0.0009051
           19          20          21          22          23          24
    1   0.0000653  -0.0000475  -0.0000475   0.0001574   0.0001646  -0.0001225
    2   0.0003169   0.0000375  -0.0003600  -0.0000071   0.0003373  -0.0000417
    3   0.0009201  -0.0009604  -0.0009190   0.0009801   0.0009640  -0.0006604
           25          26          27          28
    1  -0.0001336   0.0001335   0.0006474   0.0001148
    2  -0.0001950  -0.0000759   0.0000744   0.0001548
    3  -0.0006648   0.0003561   0.0000177   0.0003597
 Max gradient component =       4.156E-03
 RMS gradient           =       1.035E-03
 Gradient time:  CPU 395.53 s  wall 26.15 s
 Geometry Optimization Parameters
   NAtoms,    NIC,     NZ,  NCons,   NDum,   NFix, NCnnct, MaxDiis
       28     203       0       0       0       0       0       0

 Cartesian Hessian Update
 Hessian Updated using BFGS Update


** GEOMETRY OPTIMIZATION IN DELOCALIZED INTERNAL COORDINATES **
   Searching for a Minimum

   Optimization Cycle:   2

                       Coordinates (Angstroms)
     ATOM                X               Y               Z
      1  C        -5.2425315262   -0.5963056200    0.0811538410
      2  C        -3.9469576252   -0.3616294277    0.7721949531
      3  C        -2.7390325097   -0.4763551988   -0.1493738133
      4  C        -1.4179731218   -0.2469150914    0.5709825292
      5  C        -0.2081144982   -0.3615773760   -0.3442421828
      6  C         1.1132515207   -0.1326526975    0.3754143021
      7  C         2.3237869159   -0.2477724368   -0.5393111371
      8  C         3.6448433597   -0.0198074132    0.1784683761
      9  C         4.8477410677   -0.1377672408   -0.7469527509
     10  H        -6.1589626128   -0.1622149514    0.4576033193
     11  H        -5.3142931199   -1.3368034365   -0.7048587468
     12  H        -3.8256197265   -1.0872899890    1.5882967640
     13  H        -3.9537111844    0.6248019712    1.2433461514
     14  H        -2.8416136835    0.2460788323   -0.9622859436
     15  H        -2.7308256718   -1.4683135955   -0.6097368134
     16  H        -1.3209545303   -0.9699017323    1.3857900146
     17  H        -1.4276424599    0.7450728276    1.0311990235
     18  H        -0.3055368674    0.3617607009   -1.1585094279
     19  H        -0.1993268517   -1.3532430080   -0.8051816126
     20  H         1.2096303445   -0.8559738776    1.1898375176
     21  H         1.1038932655    0.8590681109    0.8361118220
     22  H         2.2276367617    0.4756433434   -1.3538762213
     23  H         2.3329910366   -1.2394440329   -1.0006458924
     24  H         3.7363327393   -0.7428872987    0.9928895076
     25  H         3.6313711222    0.9708036160    0.6399931403
     26  H         4.7857073312    0.5935045790   -1.5546085798
     27  H         5.7855813937    0.0281951541   -0.2142668138
     28  H         4.8903291309   -1.1300650011   -1.1994313261
   Point Group: c1    Number of degrees of freedom:    78


   Energy is   -354.433043521

 Hessian Updated using BFGS Update

 75 Hessian modes will be used to form the next step
  Hessian Eigenvalues:
     0.005199    0.005259    0.005263    0.005268    0.005367    0.005413
     0.006485    0.010235    0.011335    0.037952    0.037973    0.037984
     0.037985    0.038038    0.038410    0.043403    0.047495    0.049909
     0.049919    0.049934    0.049970    0.050360    0.054065    0.057078
     0.058034    0.081751    0.081839    0.081841    0.081847    0.081889
     0.082654    0.094329    0.120707    0.120720    0.120722    0.120740
     0.120795    0.121066    0.127984    0.158551    0.160685    0.218238
     0.218918    0.218993    0.218998    0.219002    0.219503    0.241391
     0.281692    0.294300    0.294607    0.294622    0.295505    0.295971
     0.306994    0.329817    0.339659    0.339767    0.340333    0.340341
     0.340361    0.340364    0.340366    0.340371    0.340375    0.340858
     0.341033    0.341063    0.341315    0.342506    0.342767    0.342849
     0.354434    0.354760    0.369623

 Minimum Search - Taking Simple RFO Step
 Searching for Lamda that Minimizes Along All modes
 Value Taken    Lamda =  -0.00027760
 Step Taken.  Stepsize is  0.074154

                             Maximum     Tolerance    Cnvgd?
         Gradient           0.006005      0.000100      NO
         Displacement       0.030534      0.000400      NO
         Energy change     -0.001720      0.000000      NO


 New Cartesian Coordinates Obtained by Inverse Iteration

 Displacement from previous Coordinates is:  0.151267
 Adding empirical dispersion correction 
 ----------------------------------------------------------------
 Warning: No defaults exist for this functional-D3 combo.
 Verify that DFT_D3 parameters are correct.
 Doing -D3(BJ) with
 s6 =   1.00000
 s8 =   1.00000
 a1 =   1.00000
 a2 =   1.00000
 -D3 energy without 3body term =     -0.0598823757 hartrees
 ----------------------------------------------------------------
             Standard Nuclear Orientation (Angstroms)
    I     Atom           X                Y                Z
 ----------------------------------------------------------------
    1      C      -5.2268014425    -0.6120596236     0.0886190210
    2      C      -3.9356988011    -0.3591668969     0.7695187580
    3      C      -2.7297901386    -0.4679892899    -0.1535746458
    4      C      -1.4139109151    -0.2416372834     0.5669347525
    5      C      -0.2072330498    -0.3554772297    -0.3457540422
    6      C       1.1090469596    -0.1299310032     0.3747501144
    7      C       2.3161114319    -0.2468058671    -0.5370336042
    8      C       3.6342421336    -0.0219351826     0.1815666513
    9      C       4.8318870794    -0.1448813576    -0.7442761005
   10      H      -6.1487919925    -0.1896385041     0.4624183434
   11      H      -5.2868279683    -1.3405927409    -0.7096866467
   12      H      -3.7990579084    -1.0780573682     1.5920586900
   13      H      -3.9474228889     0.6260774444     1.2443244893
   14      H      -2.8325583849     0.2553400988    -0.9664992990
   15      H      -2.7232865846    -1.4581528407    -0.6190681577
   16      H      -1.3185305067    -0.9644080497     1.3832593818
   17      H      -1.4229463124     0.7487385754     1.0326226136
   18      H      -0.3030332569     0.3673936609    -1.1616837529
   19      H      -0.1993552454    -1.3455758601    -0.8120041504
   20      H       1.2030012094    -0.8518405491     1.1919046089
   21      H       1.1011167005     0.8609473310     0.8393726567
   22      H       2.2212527739     0.4746292561    -1.3546927290
   23      H       2.3225993954    -1.2377654136    -1.0020410029
   24      H       3.7234163247    -0.7426838184     0.9989683334
   25      H       3.6236882930     0.9685674628     0.6445415243
   26      H       4.7697915443     0.5847180131    -1.5536858165
   27      H       5.7703688181     0.0177841600    -0.2139892280
   28      H       4.8687227321    -1.1375874137    -1.1968707628
 ----------------------------------------------------------------
 Nuclear Repulsion Energy =   437.4059626655 hartrees
 There are       37 alpha and       36 beta electrons
 Applying Cartesian multipole field
    Component          Value
    ---------          -----
     (2,0,0)        1.00000E-12
     (0,2,0)        2.00000E-11
     (0,0,2)       -3.00000E-11
 Nucleus-field energy     =     0.0000000008 hartrees
 Requested basis set is def2-TZVP
 There are 175 shells and 393 basis functions
 A cutoff of  1.0D-11 yielded  11405 shell pairs
 There are     56221 function pairs (     69489 Cartesian)
 Smallest overlap matrix eigenvalue = 5.07E-05
 Guess MOs from SCF MO coefficient file
 Reading MOs from coefficient file
 Reading MOs from coefficient file

 -----------------------------------------------------------------------
  General SCF calculation program by
  Eric Jon Sundstrom, Paul Horn, Yuezhi Mao, Dmitri Zuev, Alec White,
  David Stuck, Shaama M.S., Shane Yost, Joonho Lee, David Small,
  Daniel Levine, Susi Lehtola, Hugh Burton, Evgeny Epifanovsky
 -----------------------------------------------------------------------
 Exchange:     0.1957 Hartree-Fock + 1.0000 wB97X-D3 + LR-HF
 Correlation:  1.0000 wB97X-D3
 Using SG-2 standard quadrature grid
 Dispersion:   Grimme D3
 using 16 threads for integral computing
 -------------------------------------------------------
 OpenMP Integral computing Module                
 Release: version 1.0, May 2013, Q-Chem Inc. Pittsburgh 
 -------------------------------------------------------
 using 16 threads for integral computing
 -------------------------------------------------------
 OpenMP Integral computing Module                
 Release: version 1.0, May 2013, Q-Chem Inc. Pittsburgh 
 -------------------------------------------------------
 -------------------------------------------------------
 OpenMP BLAS3 based DFT computing Module                
 Release: version 1.0, May 2013, Q-Chem Inc. Pittsburgh 
 -------------------------------------------------------
 A unrestricted SCF calculation will be
 performed using DIIS
 SCF converges when DIIS error is below 1.0e-08
 ---------------------------------------
  Cycle       Energy         DIIS error
 ---------------------------------------
    1    -354.4328804987      8.07e-05  
    2    -354.4331757625      9.07e-06  
    3    -354.4331908373      3.56e-06  
    4    -354.4331933194      1.79e-06  
    5    -354.4331940765      7.01e-07  
    6    -354.4331942226      2.57e-07  
    7    -354.4331942445      8.07e-08  
    8    -354.4331942459      2.42e-08  
    9    -354.4331942461      8.80e-09  Convergence criterion met
 ---------------------------------------
 SCF time:   CPU 1507.89s  wall 98.00s 
<S^2> =          0.754472403
 SCF   energy in the final basis set =     -354.4331942461
 Total energy in the final basis set =     -354.4331942461
 
 --------------------------------------------------------------
 
                    Orbital Energies (a.u.)
 --------------------------------------------------------------
 
 Alpha MOs
 -- Occupied --
-10.275 -10.272 -10.265 -10.264 -10.264 -10.263 -10.262 -10.262
-10.258  -0.937  -0.917  -0.883  -0.837  -0.783  -0.727  -0.691
 -0.686  -0.681  -0.593  -0.573  -0.548  -0.539  -0.532  -0.509
 -0.508  -0.494  -0.472  -0.456  -0.452  -0.440  -0.426  -0.425
 -0.416  -0.413  -0.411  -0.392  -0.292
 -- Virtual --
  0.113   0.124   0.139   0.141   0.143   0.159   0.164   0.168
  0.183   0.196   0.201   0.204   0.211   0.217   0.221   0.226
  0.228   0.233   0.239   0.250   0.253   0.262   0.273   0.283
  0.301   0.305   0.312   0.314   0.332   0.353   0.356   0.372
  0.375   0.381   0.386   0.389   0.391   0.393   0.406   0.410
  0.421   0.429   0.445   0.461   0.469   0.481   0.484   0.498
  0.504   0.513   0.518   0.527   0.539   0.540   0.546   0.547
  0.553   0.557   0.561   0.573   0.577   0.584   0.586   0.594
  0.600   0.601   0.606   0.614   0.619   0.623   0.631   0.663
  0.684   0.697   0.701   0.709   0.732   0.749   0.753   0.773
  0.811   0.820   0.846   0.861   0.890   0.910   0.917   0.926
  0.936   0.941   0.944   0.947   0.961   0.963   0.973   0.991
  0.999   1.013   1.034   1.088   1.091   1.104   1.113   1.127
  1.157   1.172   1.180   1.184   1.190   1.199   1.203   1.211
  1.220   1.234   1.234   1.248   1.256   1.302   1.337   1.361
  1.373   1.381   1.416   1.432   1.435   1.439   1.451   1.521
  1.574   1.579   1.589   1.619   1.631   1.632   1.637   1.651
  1.659   1.667   1.670   1.681   1.686   1.695   1.704   1.724
  1.730   1.733   1.765   1.792   1.835   1.837   1.868   1.877
  1.900   1.914   1.917   1.937   1.947   1.958   1.960   1.964
  1.966   1.978   1.991   2.005   2.017   2.019   2.030   2.045
  2.056   2.065   2.072   2.089   2.120   2.142   2.165   2.177
  2.201   2.219   2.224   2.257   2.261   2.329   2.339   2.358
  2.368   2.377   2.395   2.421   2.435   2.442   2.454   2.475
  2.502   2.514   2.519   2.533   2.554   2.565   2.573   2.577
  2.582   2.603   2.627   2.639   2.641   2.648   2.657   2.660
  2.669   2.670   2.675   2.697   2.699   2.715   2.720   2.727
  2.752   2.765   2.773   2.776   2.789   2.805   2.824   2.826
  2.832   2.843   2.852   2.853   2.858   2.867   2.876   2.888
  2.897   2.901   2.936   2.970   2.984   3.036   3.054   3.062
  3.088   3.109   3.120   3.155   3.172   3.185   3.197   3.212
  3.224   3.264   3.279   3.288   3.299   3.301   3.307   3.311
  3.318   3.338   3.341   3.356   3.361   3.367   3.378   3.387
  3.394   3.414   3.431   3.467   3.482   3.485   3.498   3.507
  3.519   3.536   3.538   3.544   3.556   3.575   3.583   3.600
  3.608   3.647   3.651   3.656   3.664   3.679   3.687   3.701
  3.709   3.716   3.735   3.741   3.748   3.780   3.810   3.822
  3.917   3.937   3.950   3.963   3.987   3.994   4.000   4.003
  4.010   4.024   4.026   4.066   4.079   4.122   4.136   4.187
  4.199   4.217   4.236   4.240   4.265   4.306   4.361   4.439
  4.455   4.464   4.513   4.546   4.579   4.594   4.631   4.671
  4.679   4.688   4.709   4.730   4.756   4.768   4.777   4.789
  4.795   4.816   4.828   4.843   4.874   4.976   4.992   5.168
  5.185   5.412   5.425  22.221  22.399  22.449  22.513  22.585
 22.624  22.635  22.654  22.656
 
 Beta MOs
 -- Occupied --
-10.272 -10.265 -10.265 -10.264 -10.264 -10.263 -10.262 -10.262
-10.258  -0.935  -0.914  -0.878  -0.830  -0.774  -0.718  -0.688
 -0.683  -0.673  -0.593  -0.571  -0.544  -0.536  -0.528  -0.506
 -0.505  -0.489  -0.469  -0.452  -0.448  -0.438  -0.425  -0.423
 -0.416  -0.412  -0.411  -0.390
 -- Virtual --
  0.029   0.113   0.124   0.139   0.141   0.143   0.161   0.165
  0.168   0.186   0.197   0.201   0.204   0.212   0.217   0.221
  0.226   0.228   0.234   0.240   0.250   0.253   0.263   0.273
  0.283   0.300   0.306   0.314   0.315   0.332   0.355   0.369
  0.376   0.376   0.385   0.387   0.391   0.394   0.398   0.408
  0.411   0.425   0.429   0.444   0.461   0.471   0.481   0.485
  0.499   0.505   0.515   0.521   0.528   0.540   0.542   0.547
  0.552   0.556   0.559   0.563   0.574   0.579   0.584   0.587
  0.596   0.601   0.602   0.608   0.617   0.621   0.625   0.633
  0.667   0.685   0.698   0.702   0.711   0.733   0.750   0.756
  0.773   0.814   0.820   0.850   0.869   0.891   0.912   0.919
  0.926   0.938   0.942   0.945   0.949   0.961   0.963   0.980
  0.998   1.001   1.015   1.038   1.090   1.094   1.108   1.116
  1.130   1.158   1.174   1.183   1.187   1.191   1.199   1.204
  1.212   1.221   1.235   1.236   1.249   1.261   1.303   1.338
  1.363   1.376   1.383   1.416   1.432   1.435   1.439   1.451
  1.525   1.582   1.586   1.615   1.627   1.633   1.635   1.638
  1.653   1.660   1.668   1.674   1.683   1.687   1.697   1.709
  1.725   1.732   1.734   1.767   1.793   1.835   1.838   1.869
  1.881   1.905   1.916   1.922   1.941   1.948   1.958   1.961
  1.964   1.967   1.979   1.991   2.006   2.018   2.020   2.031
  2.046   2.056   2.066   2.073   2.094   2.124   2.145   2.168
  2.179   2.202   2.220   2.230   2.259   2.263   2.332   2.341
  2.363   2.370   2.381   2.400   2.423   2.435   2.447   2.454
  2.477   2.506   2.517   2.520   2.534   2.554   2.566   2.573
  2.578   2.582   2.607   2.628   2.642   2.643   2.649   2.658
  2.662   2.669   2.672   2.678   2.700   2.703   2.716   2.720
  2.728   2.756   2.767   2.774   2.778   2.793   2.808   2.825
  2.827   2.836   2.843   2.853   2.855   2.859   2.869   2.881
  2.889   2.900   2.906   2.939   2.977   2.987   3.042   3.056
  3.082   3.106   3.120   3.135   3.159   3.178   3.197   3.203
  3.215   3.229   3.274   3.285   3.290   3.300   3.305   3.313
  3.318   3.322   3.341   3.352   3.363   3.364   3.374   3.382
  3.395   3.398   3.418   3.433   3.471   3.486   3.496   3.503
  3.510   3.522   3.537   3.541   3.546   3.557   3.580   3.585
  3.603   3.611   3.649   3.653   3.662   3.674   3.681   3.689
  3.702   3.712   3.723   3.738   3.743   3.750   3.784   3.814
  3.823   3.920   3.939   3.954   3.964   3.989   3.994   4.001
  4.006   4.012   4.024   4.027   4.071   4.082   4.123   4.139
  4.192   4.203   4.218   4.237   4.245   4.269   4.314   4.363
  4.443   4.457   4.465   4.517   4.553   4.584   4.596   4.633
  4.672   4.680   4.688   4.710   4.730   4.758   4.773   4.777
  4.790   4.795   4.819   4.828   4.843   4.879   4.979   4.992
  5.170   5.185   5.413   5.425  22.240  22.399  22.449  22.513
 22.585  22.624  22.635  22.654  22.656
 --------------------------------------------------------------
 
          Ground-State Mulliken Net Atomic Charges

     Atom                 Charge (a.u.)    Spin (a.u.)
  --------------------------------------------------------
      1 C                    -0.340014       1.033475
      2 C                    -0.118984      -0.083463
      3 C                    -0.210552       0.023118
      4 C                    -0.189954       0.001893
      5 C                    -0.190327      -0.000222
      6 C                    -0.185277      -0.000001
      7 C                    -0.202435       0.000012
      8 C                    -0.151595       0.000001
      9 C                    -0.340999       0.000006
     10 H                     0.137866      -0.029049
     11 H                     0.133969      -0.027286
     12 H                     0.103581       0.062489
     13 H                     0.101475       0.017180
     14 H                     0.102029       0.001819
     15 H                     0.094062      -0.000712
     16 H                     0.092714       0.000390
     17 H                     0.093380       0.000087
     18 H                     0.094544       0.000165
     19 H                     0.093966       0.000056
     20 H                     0.092577       0.000061
     21 H                     0.092717      -0.000017
     22 H                     0.091299      -0.000001
     23 H                     0.091085      -0.000001
     24 H                     0.090128      -0.000001
     25 H                     0.090299       0.000001
     26 H                     0.107667      -0.000000
     27 H                     0.119169       0.000001
     28 H                     0.107610      -0.000000
  --------------------------------------------------------
  Sum of atomic charges =     0.000000
  Sum of spin   charges =     1.000000

 -----------------------------------------------------------------
                    Cartesian Multipole Moments
 -----------------------------------------------------------------
    Charge (ESU x 10^10)
                 0.0000
    Dipole Moment (Debye)
         X       0.2662      Y      -0.0168      Z       0.2321
       Tot       0.3536
    Quadrupole Moments (Debye-Ang)
        XX     -64.4995     XY      -0.2439     YY     -60.0328
        XZ      -0.4828     YZ       0.1986     ZZ     -62.0113
    Octopole Moments (Debye-Ang^2)
       XXX      30.7858    XXY      20.9430    XYY       9.3793
       YYY      52.1092    XXZ       6.9983    XYZ      -3.8498
       YYZ      -1.4869    XZZ       7.2847    YZZ      17.6113
       ZZZ      -2.1422
    Hexadecapole Moments (Debye-Ang^3)
      XXXX   -4244.8858   XXXY    -120.4285   XXYY    -723.7454
      XYYY    -101.8962   YYYY    -166.7482   XXXZ     162.0863
      XXYZ      17.8661   XYYZ      57.0680   YYYZ       1.5096
      XXZZ    -743.1566   XYZZ     -31.0468   YYZZ     -62.8056
      XZZZ     165.4267   YZZZ      -5.9953   ZZZZ    -241.7349
 -----------------------------------------------------------------
 Calculating analytic gradient of the SCF energy
 Gradient of SCF Energy
            1           2           3           4           5           6
    1  -0.0005049   0.0006420  -0.0001391   0.0001805  -0.0000419  -0.0000144
    2   0.0000128   0.0003372   0.0000568   0.0000948  -0.0000854   0.0000688
    3  -0.0005613   0.0008464  -0.0002393   0.0002356  -0.0002794   0.0002601
            7           8           9          10          11          12
    1   0.0000517  -0.0002103   0.0002259   0.0001498  -0.0000211   0.0000084
    2  -0.0000473   0.0000550  -0.0000751   0.0001077  -0.0001818  -0.0000259
    3  -0.0001671   0.0002887  -0.0002062  -0.0000589   0.0002537  -0.0005099
           13          14          15          16          17          18
    1  -0.0000494  -0.0000182   0.0001572  -0.0000306  -0.0000581   0.0000251
    2  -0.0002007  -0.0001657   0.0001635   0.0000911  -0.0001463  -0.0000910
    3  -0.0003233   0.0002948   0.0003088  -0.0003170  -0.0003527   0.0003153
           19          20          21          22          23          24
    1   0.0000315  -0.0000095  -0.0000167  -0.0000181  -0.0000229  -0.0000733
    2   0.0001517   0.0000784  -0.0001483  -0.0000944   0.0001354   0.0001014
    3   0.0003402  -0.0003264  -0.0003421   0.0003094   0.0003360  -0.0002110
           25          26          27          28
    1  -0.0000774   0.0000010  -0.0001551  -0.0000122
    2  -0.0001474  -0.0001503  -0.0000180   0.0001229
    3  -0.0002128   0.0001770  -0.0000509   0.0001921
 Max gradient component =       8.464E-04
 RMS gradient           =       2.309E-04
 Gradient time:  CPU 389.99 s  wall 25.80 s
 Geometry Optimization Parameters
   NAtoms,    NIC,     NZ,  NCons,   NDum,   NFix, NCnnct, MaxDiis
       28     203       0       0       0       0       0       0

 Cartesian Hessian Update
 Hessian Updated using BFGS Update


** GEOMETRY OPTIMIZATION IN DELOCALIZED INTERNAL COORDINATES **
   Searching for a Minimum

   Optimization Cycle:   3

                       Coordinates (Angstroms)
     ATOM                X               Y               Z
      1  C        -5.2268014425   -0.6120596236    0.0886190210
      2  C        -3.9356988011   -0.3591668969    0.7695187580
      3  C        -2.7297901386   -0.4679892899   -0.1535746458
      4  C        -1.4139109151   -0.2416372834    0.5669347525
      5  C        -0.2072330498   -0.3554772297   -0.3457540422
      6  C         1.1090469596   -0.1299310032    0.3747501144
      7  C         2.3161114319   -0.2468058671   -0.5370336042
      8  C         3.6342421336   -0.0219351826    0.1815666513
      9  C         4.8318870794   -0.1448813576   -0.7442761005
     10  H        -6.1487919925   -0.1896385041    0.4624183434
     11  H        -5.2868279683   -1.3405927409   -0.7096866467
     12  H        -3.7990579084   -1.0780573682    1.5920586900
     13  H        -3.9474228889    0.6260774444    1.2443244893
     14  H        -2.8325583849    0.2553400988   -0.9664992990
     15  H        -2.7232865846   -1.4581528407   -0.6190681577
     16  H        -1.3185305067   -0.9644080497    1.3832593818
     17  H        -1.4229463124    0.7487385754    1.0326226136
     18  H        -0.3030332569    0.3673936609   -1.1616837529
     19  H        -0.1993552454   -1.3455758601   -0.8120041504
     20  H         1.2030012094   -0.8518405491    1.1919046089
     21  H         1.1011167005    0.8609473310    0.8393726567
     22  H         2.2212527739    0.4746292561   -1.3546927290
     23  H         2.3225993954   -1.2377654136   -1.0020410029
     24  H         3.7234163247   -0.7426838184    0.9989683334
     25  H         3.6236882930    0.9685674628    0.6445415243
     26  H         4.7697915443    0.5847180131   -1.5536858165
     27  H         5.7703688181    0.0177841600   -0.2139892280
     28  H         4.8687227321   -1.1375874137   -1.1968707628
   Point Group: c1    Number of degrees of freedom:    78


   Energy is   -354.433194246

 Hessian Updated using BFGS Update

 76 Hessian modes will be used to form the next step
  Hessian Eigenvalues:
     0.005196    0.005229    0.005261    0.005267    0.005295    0.005413
     0.006485    0.009444    0.011202    0.037940    0.037965    0.037985
     0.037987    0.038037    0.038410    0.041977    0.044781    0.049911
     0.049919    0.049934    0.049974    0.050366    0.053954    0.057086
     0.058034    0.081724    0.081839    0.081843    0.081847    0.081990
     0.082673    0.094548    0.120438    0.120720    0.120722    0.120724
     0.120744    0.121066    0.128069    0.158034    0.160026    0.160690
     0.218151    0.218922    0.218993    0.219001    0.219040    0.219588
     0.241767    0.294150    0.294591    0.294617    0.295358    0.295632
     0.302264    0.322392    0.335224    0.339680    0.339764    0.339983
     0.340334    0.340350    0.340362    0.340365    0.340367    0.340376
     0.340388    0.341016    0.341034    0.341594    0.342439    0.342767
     0.343798    0.350769    0.354968    0.356745

 Minimum Search - Taking Simple RFO Step
 Searching for Lamda that Minimizes Along All modes
 Value Taken    Lamda =  -0.00002943
 Step Taken.  Stepsize is  0.044618

                             Maximum     Tolerance    Cnvgd?
         Gradient           0.001046      0.000100      NO
         Displacement       0.022454      0.000400      NO
         Energy change     -0.000151      0.000000      NO


 New Cartesian Coordinates Obtained by Inverse Iteration

 Displacement from previous Coordinates is:  0.048680
 Adding empirical dispersion correction 
 ----------------------------------------------------------------
 Warning: No defaults exist for this functional-D3 combo.
 Verify that DFT_D3 parameters are correct.
 Doing -D3(BJ) with
 s6 =   1.00000
 s8 =   1.00000
 a1 =   1.00000
 a2 =   1.00000
 -D3 energy without 3body term =     -0.0598485261 hartrees
 ----------------------------------------------------------------
             Standard Nuclear Orientation (Angstroms)
    I     Atom           X                Y                Z
 ----------------------------------------------------------------
    1      C      -5.2269487245    -0.6169362619     0.0902815883
    2      C      -3.9374547368    -0.3589217941     0.7693041403
    3      C      -2.7308374403    -0.4657880376    -0.1539595505
    4      C      -1.4149667735    -0.2417510757     0.5675342858
    5      C      -0.2074081136    -0.3544652428    -0.3447893090
    6      C       1.1092965874    -0.1289136223     0.3756039832
    7      C       2.3167431606    -0.2469383864    -0.5361730941
    8      C       3.6357883775    -0.0208781363     0.1813112212
    9      C       4.8321841760    -0.1470354923    -0.7451476250
   10      H      -6.1520836889    -0.2029996757     0.4660104603
   11      H      -5.2812338843    -1.3334810905    -0.7193872922
   12      H      -3.7977516626    -1.0749444925     1.5948796783
   13      H      -3.9515251182     0.6265452148     1.2449854015
   14      H      -2.8327479744     0.2590362211    -0.9664559598
   15      H      -2.7261290821    -1.4548764102    -0.6229846096
   16      H      -1.3204106370    -0.9653487272     1.3839383137
   17      H      -1.4232229613     0.7476027300     1.0367249000
   18      H      -0.3032404850     0.3681211813    -1.1616983641
   19      H      -0.1994564279    -1.3440789390    -0.8133767283
   20      H       1.2028146959    -0.8493971640     1.1948062687
   21      H       1.1017326297     0.8621670287     0.8411327178
   22      H       2.2220047575     0.4724630875    -1.3563351254
   23      H       2.3233657204    -1.2384471906    -1.0012696290
   24      H       3.7255107743    -0.7390890190     1.0014508804
   25      H       3.6267343389     0.9708740588     0.6426615195
   26      H       4.7699752476     0.5805531072    -1.5568008037
   27      H       5.7716290305     0.0159157476    -0.2162833274
   28      H       4.8676382139    -1.1409779089    -1.1959639409
 ----------------------------------------------------------------
 Nuclear Repulsion Energy =   437.3038756721 hartrees
 There are       37 alpha and       36 beta electrons
 Applying Cartesian multipole field
    Component          Value
    ---------          -----
     (2,0,0)        1.00000E-12
     (0,2,0)        2.00000E-11
     (0,0,2)       -3.00000E-11
 Nucleus-field energy     =     0.0000000008 hartrees
 Requested basis set is def2-TZVP
 There are 175 shells and 393 basis functions
 A cutoff of  1.0D-11 yielded  11404 shell pairs
 There are     56220 function pairs (     69488 Cartesian)
 Smallest overlap matrix eigenvalue = 5.09E-05
 Guess MOs from SCF MO coefficient file
 Reading MOs from coefficient file
 Reading MOs from coefficient file

 -----------------------------------------------------------------------
  General SCF calculation program by
  Eric Jon Sundstrom, Paul Horn, Yuezhi Mao, Dmitri Zuev, Alec White,
  David Stuck, Shaama M.S., Shane Yost, Joonho Lee, David Small,
  Daniel Levine, Susi Lehtola, Hugh Burton, Evgeny Epifanovsky
 -----------------------------------------------------------------------
 Exchange:     0.1957 Hartree-Fock + 1.0000 wB97X-D3 + LR-HF
 Correlation:  1.0000 wB97X-D3
 Using SG-2 standard quadrature grid
 Dispersion:   Grimme D3
 using 16 threads for integral computing
 -------------------------------------------------------
 OpenMP Integral computing Module                
 Release: version 1.0, May 2013, Q-Chem Inc. Pittsburgh 
 -------------------------------------------------------
 using 16 threads for integral computing
 -------------------------------------------------------
 OpenMP Integral computing Module                
 Release: version 1.0, May 2013, Q-Chem Inc. Pittsburgh 
 -------------------------------------------------------
 -------------------------------------------------------
 OpenMP BLAS3 based DFT computing Module                
 Release: version 1.0, May 2013, Q-Chem Inc. Pittsburgh 
 -------------------------------------------------------
 A unrestricted SCF calculation will be
 performed using DIIS
 SCF converges when DIIS error is below 1.0e-08
 ---------------------------------------
  Cycle       Energy         DIIS error
 ---------------------------------------
    1    -354.4308890946      2.53e-05  
    2    -354.4332054100      4.97e-06  
    3    -354.4332117510      2.16e-06  
    4    -354.4332131461      1.20e-06  
    5    -354.4332135194      3.95e-07  
    6    -354.4332135739      1.17e-07  
    7    -354.4332135778      3.55e-08  
    8    -354.4332135781      1.26e-08  
    9    -354.4332135781      3.94e-09  Convergence criterion met
 ---------------------------------------
 SCF time:   CPU 1596.87s  wall 104.00s 
<S^2> =          0.754481474
 SCF   energy in the final basis set =     -354.4332135781
 Total energy in the final basis set =     -354.4332135781
 
 --------------------------------------------------------------
 
                    Orbital Energies (a.u.)
 --------------------------------------------------------------
 
 Alpha MOs
 -- Occupied --
-10.275 -10.272 -10.266 -10.264 -10.264 -10.263 -10.263 -10.262
-10.258  -0.936  -0.916  -0.883  -0.837  -0.783  -0.727  -0.691
 -0.686  -0.681  -0.593  -0.573  -0.548  -0.539  -0.532  -0.510
 -0.508  -0.494  -0.472  -0.456  -0.452  -0.440  -0.426  -0.425
 -0.416  -0.413  -0.411  -0.392  -0.292
 -- Virtual --
  0.113   0.124   0.138   0.141   0.143   0.159   0.164   0.168
  0.183   0.196   0.201   0.204   0.211   0.217   0.221   0.226
  0.228   0.233   0.239   0.250   0.253   0.262   0.273   0.283
  0.301   0.305   0.313   0.314   0.332   0.353   0.356   0.372
  0.375   0.381   0.386   0.389   0.391   0.393   0.406   0.410
  0.421   0.430   0.445   0.461   0.470   0.480   0.484   0.498
  0.503   0.513   0.518   0.527   0.538   0.540   0.546   0.547
  0.553   0.557   0.560   0.573   0.577   0.583   0.586   0.594
  0.600   0.601   0.606   0.614   0.619   0.623   0.630   0.663
  0.683   0.697   0.701   0.710   0.732   0.749   0.752   0.773
  0.811   0.820   0.845   0.861   0.890   0.910   0.917   0.925
  0.936   0.940   0.943   0.947   0.960   0.962   0.974   0.992
  0.999   1.012   1.034   1.088   1.091   1.103   1.113   1.127
  1.157   1.172   1.179   1.184   1.190   1.199   1.203   1.212
  1.221   1.234   1.235   1.248   1.255   1.302   1.336   1.361
  1.374   1.381   1.415   1.431   1.434   1.438   1.451   1.521
  1.574   1.579   1.590   1.620   1.630   1.632   1.636   1.651
  1.659   1.668   1.670   1.681   1.686   1.695   1.704   1.724
  1.729   1.732   1.766   1.792   1.835   1.837   1.868   1.878
  1.900   1.913   1.916   1.937   1.946   1.957   1.959   1.963
  1.965   1.978   1.991   2.005   2.018   2.020   2.029   2.045
  2.056   2.065   2.072   2.089   2.121   2.141   2.165   2.178
  2.201   2.219   2.224   2.257   2.261   2.327   2.339   2.358
  2.367   2.376   2.397   2.421   2.435   2.442   2.453   2.475
  2.502   2.513   2.519   2.533   2.554   2.565   2.571   2.576
  2.581   2.603   2.626   2.639   2.640   2.646   2.657   2.658
  2.667   2.669   2.675   2.697   2.700   2.714   2.719   2.726
  2.751   2.765   2.773   2.775   2.790   2.805   2.824   2.826
  2.832   2.842   2.851   2.853   2.858   2.868   2.877   2.889
  2.898   2.901   2.935   2.969   2.984   3.035   3.052   3.061
  3.087   3.109   3.120   3.155   3.172   3.184   3.198   3.211
  3.225   3.263   3.278   3.287   3.298   3.301   3.306   3.310
  3.318   3.338   3.340   3.355   3.360   3.367   3.378   3.387
  3.393   3.414   3.431   3.465   3.480   3.484   3.496   3.506
  3.518   3.535   3.538   3.543   3.556   3.574   3.582   3.599
  3.607   3.645   3.651   3.657   3.664   3.678   3.686   3.700
  3.708   3.715   3.735   3.740   3.747   3.780   3.809   3.821
  3.916   3.936   3.949   3.962   3.987   3.994   4.000   4.003
  4.010   4.024   4.027   4.066   4.078   4.121   4.134   4.186
  4.196   4.214   4.234   4.239   4.264   4.305   4.361   4.438
  4.455   4.463   4.513   4.547   4.579   4.594   4.630   4.670
  4.679   4.686   4.707   4.728   4.755   4.768   4.777   4.787
  4.793   4.816   4.826   4.841   4.875   4.975   4.991   5.167
  5.184   5.411   5.424  22.222  22.398  22.448  22.512  22.584
 22.622  22.634  22.652  22.654
 
 Beta MOs
 -- Occupied --
-10.272 -10.265 -10.265 -10.264 -10.264 -10.263 -10.263 -10.262
-10.258  -0.935  -0.914  -0.878  -0.830  -0.774  -0.718  -0.688
 -0.683  -0.673  -0.592  -0.571  -0.544  -0.536  -0.528  -0.506
 -0.505  -0.489  -0.469  -0.451  -0.448  -0.438  -0.425  -0.423
 -0.416  -0.412  -0.411  -0.390
 -- Virtual --
  0.029   0.113   0.124   0.138   0.141   0.143   0.161   0.165
  0.168   0.186   0.197   0.201   0.204   0.212   0.217   0.221
  0.226   0.228   0.233   0.240   0.250   0.253   0.263   0.273
  0.283   0.300   0.305   0.314   0.315   0.332   0.355   0.369
  0.376   0.376   0.385   0.387   0.390   0.394   0.398   0.408
  0.411   0.425   0.430   0.444   0.462   0.471   0.481   0.484
  0.499   0.504   0.515   0.521   0.528   0.539   0.542   0.547
  0.552   0.556   0.559   0.563   0.574   0.579   0.584   0.587
  0.596   0.600   0.602   0.608   0.617   0.620   0.625   0.632
  0.667   0.684   0.698   0.702   0.712   0.733   0.750   0.755
[...]
 C         -0.000  0.003  0.011   -0.003 -0.016 -0.046   -0.002 -0.004 -0.015
 C          0.001  0.011  0.034    0.003  0.011  0.033    0.002  0.006  0.021
 C         -0.003 -0.015 -0.046    0.000 -0.002 -0.005    0.003  0.011  0.037
 C          0.001  0.003  0.006   -0.000 -0.001 -0.003   -0.002 -0.004 -0.013
 C         -0.002  0.000  0.001   -0.001  0.000  0.001    0.001  0.000 -0.001
 H          0.001 -0.000 -0.001    0.000  0.000  0.000    0.003 -0.001 -0.003
 H          0.000  0.001  0.001   -0.000 -0.002 -0.002   -0.000  0.001  0.003
 H          0.000 -0.005  0.006   -0.002  0.012 -0.018   -0.001 -0.001 -0.000
 H         -0.001 -0.012 -0.005   -0.001  0.085  0.039   -0.002  0.051  0.024
 H         -0.006  0.041 -0.045    0.002 -0.006  0.008   -0.015  0.116 -0.124
 H          0.000 -0.074 -0.032    0.001 -0.005 -0.002    0.002 -0.225 -0.096
 H          0.025 -0.189  0.203   -0.025  0.202 -0.219    0.038 -0.278  0.300
 H         -0.003  0.292  0.125    0.006 -0.324 -0.140   -0.005  0.435  0.187
 H         -0.008  0.073 -0.079    0.041 -0.310  0.334    0.013 -0.104  0.112
 H          0.003 -0.107 -0.046   -0.005  0.502  0.218   -0.002  0.150  0.064
 H         -0.029  0.230 -0.247   -0.030  0.219 -0.235   -0.018  0.143 -0.154
 H          0.005 -0.361 -0.156    0.002 -0.356 -0.154    0.003 -0.211 -0.091
 H          0.041 -0.312  0.336    0.002 -0.028  0.030   -0.035  0.254 -0.274
 H         -0.004  0.491  0.213   -0.002  0.058  0.026    0.002 -0.387 -0.167
 H         -0.007  0.042 -0.046    0.003 -0.025  0.027    0.011 -0.091  0.098
 H         -0.001 -0.075 -0.033   -0.001  0.035  0.015   -0.002  0.145  0.062
 H         -0.003  0.016 -0.017   -0.001  0.008 -0.008    0.003 -0.012  0.013
 H          0.018  0.004  0.014    0.006  0.001  0.004   -0.019 -0.004 -0.014
 H         -0.001 -0.020 -0.008    0.000 -0.011 -0.005    0.001  0.013  0.005
 TransDip   0.002 -0.008 -0.041   -0.002 -0.007  0.020    0.008  0.003  0.009

 Mode:                64                     65                     66
 Frequency:      3043.11                3047.41                3053.73
 Force Cnst:      5.9001                 5.8121                 5.8355
 Red. Mass:       1.0814                 1.0622                 1.0621
 IR Active:          YES                    YES                    YES
 IR Intens:        8.064                 13.030                 27.725
 Raman Active:       YES                    YES                    YES
               X      Y      Z        X      Y      Z        X      Y      Z
 C         -0.001  0.001  0.002    0.000 -0.000 -0.001   -0.000  0.001  0.001
 C          0.003 -0.070 -0.022   -0.000  0.023  0.007    0.000 -0.022 -0.008
 C         -0.000  0.025  0.020    0.002  0.005  0.026   -0.003 -0.015 -0.047
 C          0.000 -0.002  0.004   -0.002 -0.005 -0.015   -0.001 -0.003 -0.023
 C          0.000  0.001  0.002   -0.002 -0.010 -0.036   -0.001 -0.006 -0.015
 C         -0.001 -0.003 -0.012   -0.002 -0.009 -0.033   -0.000  0.001 -0.002
 C         -0.001 -0.002 -0.007   -0.002 -0.005 -0.016    0.000  0.000  0.006
 C          0.000  0.002  0.005    0.002  0.007  0.022    0.002  0.010  0.032
 C         -0.000 -0.000 -0.000   -0.001 -0.001 -0.001   -0.001 -0.001 -0.004
 H          0.015 -0.004 -0.012   -0.003 -0.000  0.002    0.003  0.001 -0.000
 H         -0.002 -0.009 -0.006   -0.001  0.006  0.007    0.002 -0.008 -0.010
 H         -0.014  0.062 -0.104    0.003 -0.018  0.032   -0.003  0.006 -0.017
 H         -0.011  0.786  0.359    0.003 -0.259 -0.118   -0.005  0.256  0.116
 H         -0.007  0.070 -0.067   -0.025  0.189 -0.207    0.043 -0.317  0.345
 H          0.002 -0.373 -0.164    0.005 -0.252 -0.106   -0.005  0.493  0.210
 H         -0.005  0.037 -0.041    0.012 -0.099  0.107    0.022 -0.168  0.183
 H          0.002 -0.010 -0.002   -0.004  0.157  0.068   -0.002  0.201  0.085
 H         -0.001  0.012 -0.013    0.034 -0.248  0.268    0.011 -0.099  0.106
 H          0.001 -0.018 -0.008   -0.003  0.361  0.156   -0.004  0.174  0.077
 H          0.011 -0.085  0.092    0.030 -0.227  0.245    0.005 -0.022  0.025
 H         -0.001  0.123  0.053   -0.003  0.336  0.145    0.002  0.014  0.005
 H          0.007 -0.048  0.052    0.013 -0.107  0.115   -0.006  0.044 -0.048
 H         -0.001  0.073  0.032   -0.003  0.166  0.072   -0.000 -0.044 -0.018
 H         -0.004  0.034 -0.037   -0.018  0.151 -0.163   -0.027  0.214 -0.232
 H          0.001 -0.054 -0.023    0.003 -0.233 -0.100    0.003 -0.330 -0.142
 H         -0.000  0.000 -0.001   -0.002  0.002 -0.003    0.001 -0.019  0.020
 H          0.004  0.001  0.003    0.021  0.004  0.014    0.016  0.003  0.011
 H         -0.000  0.000  0.000   -0.001  0.001  0.000   -0.001  0.033  0.014
 TransDip   0.007 -0.085 -0.033   -0.012  0.002 -0.115   -0.005 -0.075 -0.151

 Mode:                67                     68                     69
 Frequency:      3055.88                3060.76                3063.02
 Force Cnst:      5.8343                 5.7203                 6.0715
 Red. Mass:       1.0604                 1.0363                 1.0984
 IR Active:          YES                    YES                    YES
 IR Intens:      141.887                 45.960                  0.083
 Raman Active:       YES                    YES                    YES
               X      Y      Z        X      Y      Z        X      Y      Z
 C         -0.000  0.000  0.000    0.000  0.000  0.000   -0.000  0.000  0.000
 C         -0.000 -0.009 -0.003    0.000 -0.000 -0.000    0.000 -0.001 -0.000
 C         -0.001 -0.007 -0.020   -0.000 -0.001 -0.001    0.001 -0.007  0.005
 C         -0.001 -0.003 -0.015   -0.000  0.001 -0.001   -0.002  0.029 -0.008
 C         -0.001 -0.005 -0.016   -0.000 -0.002 -0.002    0.003 -0.045  0.014
 C         -0.001 -0.007 -0.020   -0.000  0.002 -0.002   -0.004  0.052 -0.015
 C         -0.001 -0.003 -0.021   -0.000 -0.004 -0.006    0.003 -0.041  0.012
 C         -0.003 -0.015 -0.050   -0.002 -0.001 -0.007   -0.001  0.014 -0.006
 C         -0.001  0.003  0.010    0.034 -0.007 -0.036   -0.001 -0.001  0.002
 H          0.001  0.000 -0.000   -0.000  0.000  0.000    0.001 -0.000 -0.001
 H          0.001 -0.003 -0.004    0.000 -0.000 -0.001   -0.000  0.000  0.000
 H         -0.001  0.001 -0.005   -0.000 -0.000 -0.000   -0.001  0.003 -0.003
 H         -0.002  0.104  0.047   -0.000  0.005  0.002    0.000  0.011  0.005
 H          0.019 -0.134  0.146    0.001 -0.007  0.007   -0.008  0.061 -0.071
 H         -0.001  0.212  0.090   -0.000  0.015  0.007   -0.000  0.026  0.014
 H          0.013 -0.109  0.119    0.001 -0.011  0.013    0.023 -0.165  0.192
 H         -0.002  0.139  0.060   -0.000  0.002  0.001    0.002 -0.197 -0.094
 H          0.015 -0.113  0.122    0.001 -0.007  0.007   -0.036  0.262 -0.304
 H         -0.001  0.171  0.075   -0.000  0.033  0.015   -0.002  0.290  0.140
 H          0.017 -0.134  0.144    0.003 -0.025  0.029    0.041 -0.299  0.347
 H         -0.003  0.213  0.093   -0.001  0.007  0.003    0.002 -0.338 -0.162
 H          0.019 -0.149  0.163    0.005 -0.030  0.032   -0.033  0.234 -0.272
 H         -0.003  0.185  0.079    0.001  0.078  0.035   -0.001  0.273  0.131
 H          0.044 -0.337  0.365    0.009 -0.056  0.059    0.012 -0.091  0.106
 H         -0.004  0.521  0.225    0.001  0.065  0.026    0.001 -0.079 -0.039
 H         -0.007  0.070 -0.074    0.045 -0.396  0.432   -0.002  0.027 -0.030
 H          0.010  0.002  0.005   -0.425 -0.079 -0.252    0.017  0.003  0.010
 H          0.003 -0.109 -0.045   -0.010  0.563  0.243   -0.000 -0.015 -0.006
 TransDip  -0.033 -0.108 -0.364    0.139 -0.033 -0.163   -0.006  0.000  0.007

 Mode:                70                     71                     72
 Frequency:      3067.50                3077.25                3089.45
 Force Cnst:      6.0994                 6.1532                 6.2125
 Red. Mass:       1.1002                 1.1029                 1.1047
 IR Active:          YES                    YES                    YES
 IR Intens:        0.287                  0.196                  0.619
 Raman Active:       YES                    YES                    YES
               X      Y      Z        X      Y      Z        X      Y      Z
 C          0.000 -0.000 -0.000    0.000 -0.000 -0.000   -0.000  0.000  0.000
 C         -0.000  0.005  0.001   -0.000  0.008  0.001    0.001 -0.009 -0.001
 C         -0.002  0.019 -0.009   -0.002  0.031 -0.011    0.003 -0.043  0.014
 C          0.004 -0.054  0.014    0.003 -0.041  0.010   -0.001  0.008 -0.002
 C         -0.002  0.034 -0.010    0.002 -0.029  0.007   -0.003  0.046 -0.011
 C         -0.001  0.018 -0.005   -0.003  0.041 -0.010   -0.002  0.032 -0.008
 C          0.003 -0.049  0.013   -0.002  0.032 -0.008    0.001 -0.014  0.003
 C         -0.002  0.025 -0.008    0.003 -0.041  0.011    0.003 -0.051  0.013
 C         -0.000 -0.004  0.001   -0.000  0.009 -0.002   -0.001  0.016 -0.004
 H         -0.002  0.000  0.001   -0.003  0.001  0.002    0.003 -0.001 -0.002
 H          0.000  0.000 -0.000   -0.000  0.001  0.000    0.000 -0.001 -0.000
 H          0.003 -0.011  0.014    0.004 -0.019  0.024   -0.004  0.025 -0.033
 H          0.000 -0.047 -0.021    0.001 -0.071 -0.032   -0.002  0.084  0.039
 H          0.019 -0.141  0.164    0.025 -0.193  0.224   -0.033  0.251 -0.291
 H          0.001 -0.101 -0.049    0.003 -0.181 -0.086   -0.003  0.264  0.124
 H         -0.041  0.293 -0.341   -0.029  0.217 -0.251    0.002 -0.040  0.047
 H         -0.003  0.362  0.172   -0.004  0.274  0.129    0.004 -0.053 -0.025
 H          0.027 -0.191  0.221   -0.019  0.156 -0.179    0.034 -0.242  0.278
 H          0.001 -0.218 -0.104   -0.004  0.195  0.092    0.001 -0.304 -0.143
 H          0.014 -0.099  0.115    0.028 -0.219  0.252    0.026 -0.170  0.195
 H         -0.000 -0.114 -0.054    0.004 -0.269 -0.127   -0.001 -0.214 -0.100
 H         -0.038  0.266 -0.309    0.023 -0.174  0.202   -0.013  0.071 -0.081
 H         -0.001  0.325  0.155    0.002 -0.215 -0.102    0.003  0.089  0.041
 H          0.019 -0.148  0.172   -0.029  0.227 -0.264   -0.037  0.272 -0.315
 H          0.001 -0.156 -0.075   -0.003  0.270  0.128   -0.002  0.338  0.159
 H         -0.002  0.026 -0.030    0.005 -0.050  0.057    0.010 -0.085  0.097
 H          0.003  0.000  0.002   -0.002  0.002 -0.001   -0.002  0.005 -0.002
 H         -0.001  0.020  0.010    0.001 -0.059 -0.027    0.001 -0.111 -0.051
 TransDip  -0.002 -0.015 -0.007    0.001  0.013 -0.004    0.000 -0.024  0.008

 Mode:                73                     74                     75
 Frequency:      3099.25                3106.16                3131.91
 Force Cnst:      6.2554                 6.2825                 6.3727
 Red. Mass:       1.1053                 1.1052                 1.1027
 IR Active:          YES                    YES                    YES
 IR Intens:        1.545                154.649                 60.211
 Raman Active:       YES                    YES                    YES
               X      Y      Z        X      Y      Z        X      Y      Z
 C          0.000 -0.000 -0.000   -0.000  0.000  0.000   -0.000  0.000  0.000
 C         -0.001  0.010  0.000    0.000 -0.008 -0.000    0.000 -0.000  0.000
 C         -0.003  0.048 -0.015    0.003 -0.044  0.013    0.000 -0.000  0.000
 C         -0.002  0.027 -0.007    0.003 -0.043  0.010    0.000 -0.001  0.000
 C          0.000 -0.002  0.000    0.003 -0.044  0.011    0.000 -0.001  0.000
 C          0.002 -0.031  0.008    0.002 -0.037  0.009    0.000 -0.003  0.001
 C          0.003 -0.044  0.011    0.002 -0.027  0.007    0.001 -0.009  0.002
 C          0.003 -0.043  0.011    0.001 -0.018  0.004    0.002 -0.029  0.006
 C         -0.001  0.020 -0.004   -0.001  0.012 -0.003   -0.001 -0.087  0.013
 H         -0.004  0.001  0.002    0.003 -0.001 -0.002    0.000 -0.000 -0.000
 H         -0.001  0.001 -0.000    0.001 -0.001  0.000    0.000 -0.000  0.000
 H          0.003 -0.027  0.036   -0.002  0.025 -0.033   -0.000  0.000 -0.000
 H          0.003 -0.084 -0.039   -0.004  0.072  0.034   -0.000  0.001  0.000
 H          0.039 -0.275  0.319   -0.037  0.246 -0.286   -0.000  0.002 -0.002
 H          0.001 -0.303 -0.141    0.001  0.277  0.129    0.000  0.002  0.001
 H          0.022 -0.138  0.159   -0.029  0.223 -0.259   -0.000  0.003 -0.004
 H         -0.001 -0.175 -0.081   -0.004  0.286  0.135   -0.000  0.004  0.002
 H         -0.006  0.010 -0.011   -0.031  0.230 -0.266   -0.002  0.007 -0.009
 H          0.004  0.015  0.006   -0.003  0.288  0.137    0.000  0.009  0.005
 H         -0.018  0.160 -0.185   -0.028  0.193 -0.223   -0.001  0.018 -0.021
 H         -0.005  0.204  0.096   -0.000  0.246  0.116   -0.002  0.024  0.012
 H         -0.031  0.227 -0.262   -0.017  0.141 -0.164   -0.009  0.048 -0.057
 H         -0.002  0.288  0.136   -0.003  0.179  0.085    0.003  0.064  0.030
 H         -0.034  0.229 -0.266   -0.015  0.094 -0.110   -0.017  0.140 -0.162
 H          0.001  0.290  0.136    0.002  0.120  0.056   -0.003  0.197  0.091
 H          0.013 -0.103  0.117    0.008 -0.060  0.068   -0.044  0.419 -0.483
 H         -0.002  0.006 -0.002   -0.002  0.003 -0.002    0.077 -0.004  0.047
 H          0.001 -0.137 -0.062    0.001 -0.080 -0.036   -0.018  0.621  0.285
 TransDip   0.006 -0.037  0.012    0.022 -0.385  0.099   -0.001 -0.245  0.044

 Mode:                76                     77                     78
 Frequency:      3141.76                3175.75                3279.55
 Force Cnst:      6.4087                 6.2465                 7.0894
 Red. Mass:       1.1020                 1.0512                 1.1187
 IR Active:          YES                    YES                    YES
 IR Intens:       38.205                 19.011                 12.535
 Raman Active:       YES                    YES                    YES
               X      Y      Z        X      Y      Z        X      Y      Z
 C         -0.000 -0.000 -0.000   -0.052 -0.017 -0.030   -0.052  0.047  0.072
 C         -0.000 -0.000 -0.000    0.003  0.000  0.002   -0.000  0.002  0.002
 C         -0.000  0.000  0.000    0.000  0.000 -0.001    0.000  0.000 -0.000
 C         -0.000  0.000 -0.000   -0.000  0.000  0.000    0.000 -0.000  0.000
 C         -0.000  0.000 -0.000   -0.000 -0.000 -0.000    0.000 -0.000 -0.000
 C          0.000  0.000 -0.001   -0.000  0.000  0.000   -0.000  0.000  0.000
 C          0.000  0.001 -0.001   -0.000 -0.000 -0.000   -0.000  0.000 -0.000
 C         -0.001  0.001 -0.007   -0.000 -0.000  0.000    0.000  0.000  0.000
 C         -0.062 -0.010 -0.068    0.000  0.000  0.000    0.000  0.000  0.000
 H          0.001 -0.000 -0.000    0.578 -0.193 -0.282    0.644 -0.203 -0.298
 H          0.000  0.000  0.000    0.007  0.394  0.625   -0.022 -0.356 -0.563
 H          0.000 -0.000  0.000    0.002 -0.003  0.004   -0.002  0.003 -0.002
 H         -0.000  0.000  0.000   -0.001  0.000 -0.002   -0.002 -0.025 -0.012
 H          0.000 -0.000  0.000   -0.000 -0.007  0.008    0.001  0.001 -0.000
 H          0.000 -0.000 -0.000   -0.002  0.006  0.003    0.002 -0.004 -0.002
 H          0.000 -0.001  0.001    0.000  0.001 -0.001   -0.000  0.001 -0.001
 H         -0.000  0.000  0.000    0.000 -0.002 -0.001   -0.001 -0.001 -0.001
 H          0.000 -0.001  0.001    0.000 -0.001  0.001    0.000 -0.000  0.000
 H          0.000 -0.000 -0.000   -0.000  0.001  0.000    0.000 -0.000  0.000
 H         -0.000 -0.005  0.005   -0.000  0.000 -0.000   -0.000  0.000 -0.000
 H         -0.000  0.003  0.001    0.000 -0.000 -0.000   -0.000 -0.000 -0.000
 H          0.003 -0.009  0.010    0.000 -0.000  0.000    0.000 -0.000  0.000
 H          0.001  0.003  0.001   -0.000  0.000  0.000    0.000 -0.000 -0.000
 H          0.006 -0.051  0.059   -0.000  0.000 -0.000   -0.000  0.000 -0.000
 H         -0.001  0.038  0.017    0.000 -0.000 -0.000   -0.000 -0.000 -0.000
 H          0.016 -0.281  0.295    0.000  0.000  0.000    0.000 -0.000  0.000
 H          0.739  0.132  0.415   -0.001 -0.000 -0.000   -0.000 -0.000 -0.000
 H         -0.019  0.265  0.103    0.000  0.000  0.000    0.000 -0.000 -0.000
 TransDip  -0.143 -0.015 -0.136   -0.128 -0.030 -0.048   -0.072  0.048  0.074

 STANDARD THERMODYNAMIC QUANTITIES AT   298.15 K  AND     1.00 ATM

   This Molecule has  0 Imaginary Frequencies
   Zero point vibrational energy:      163.966 kcal/mol

   Atom    1 Element C  Has Mass   12.00000
   Atom    2 Element C  Has Mass   12.00000
   Atom    3 Element C  Has Mass   12.00000
   Atom    4 Element C  Has Mass   12.00000
   Atom    5 Element C  Has Mass   12.00000
   Atom    6 Element C  Has Mass   12.00000
   Atom    7 Element C  Has Mass   12.00000
   Atom    8 Element C  Has Mass   12.00000
   Atom    9 Element C  Has Mass   12.00000
   Atom   10 Element H  Has Mass    1.00783
   Atom   11 Element H  Has Mass    1.00783
   Atom   12 Element H  Has Mass    1.00783
   Atom   13 Element H  Has Mass    1.00783
   Atom   14 Element H  Has Mass    1.00783
   Atom   15 Element H  Has Mass    1.00783
   Atom   16 Element H  Has Mass    1.00783
   Atom   17 Element H  Has Mass    1.00783
   Atom   18 Element H  Has Mass    1.00783
   Atom   19 Element H  Has Mass    1.00783
   Atom   20 Element H  Has Mass    1.00783
   Atom   21 Element H  Has Mass    1.00783
   Atom   22 Element H  Has Mass    1.00783
   Atom   23 Element H  Has Mass    1.00783
   Atom   24 Element H  Has Mass    1.00783
   Atom   25 Element H  Has Mass    1.00783
   Atom   26 Element H  Has Mass    1.00783
   Atom   27 Element H  Has Mass    1.00783
   Atom   28 Element H  Has Mass    1.00783
   Molecular Mass:   127.148770 amu
   Principal axes and moments of inertia in amu*Bohr^2:
                             1           2           3
    Eigenvalues --      185.14207  5014.74660  5110.16125
          X               0.99560     0.06902    -0.06341
          Y               0.04520     0.23902     0.96996
          Z              -0.08211     0.96856    -0.23484
   Rotational Symmetry Number is   1
   The Molecule is an Asymmetric Top
   Translational Enthalpy:        0.889 kcal/mol
   Rotational Enthalpy:           0.889 kcal/mol
   Vibrational Enthalpy:        170.299 kcal/mol
   gas constant (RT):             0.592 kcal/mol
   Translational Entropy:        40.434  cal/mol.K
   Rotational Entropy:           29.940  cal/mol.K
   Vibrational Entropy:          43.661  cal/mol.K

   Total Enthalpy:              172.669 kcal/mol
   Total Entropy:               114.035  cal/mol.K
Archival summary:
1\1\nid00505\FREQ\ProcedureUnspecified\BasisUnspecified\919(2)\ampayne\WedNov2801:10:282018WedNov2801:10:282018\0\\#,FREQ,ProcedureUnspecified,BasisUnspecified,\\0,2\C\H,1,1.09478\H,1,1.09492,2,106.147\C,1,1.51777,2,109.22,3,-117.693,0\H,4,1.0949,1,109.32,2,-179.929,0\H,4,1.09494,1,109.318,2,-64.0726,0\C,4,1.51733,1,113.051,2,57.9532,0\H,7,1.09376,4,109.56,1,-57.8177,0\H,7,1.09457,4,109.429,1,58.3823,0\C,1,1.51782,2,109.368,3,117.822,0\H,10,1.09486,1,109.364,2,179.964,0\H,10,1.09491,1,109.305,2,64.1037,0\C,10,1.51772,1,113.099,2,-57.9744,0\H,13,1.095,10,109.252,1,57.8523,0\H,13,1.09512,10,109.283,1,-57.855,0\C,13,1.5185,10,113.346,1,-179.971,0\H,16,1.09379,13,109.129,10,57.6989,0\H,16,1.09379,13,109.092,10,-58.017,0\C,16,1.51863,13,112.551,10,179.825,0\H,19,1.0904,16,111.75,13,-179.916,0\H,19,1.09179,16,110.692,13,59.6005,0\H,19,1.09196,16,110.689,13,-59.5601,0\C,7,1.52124,4,113.054,1,-179.832,0\H,23,1.09597,7,109.586,4,57.9181,0\H,23,1.10122,7,108.448,4,-55.9429,0\C,23,1.48036,7,113.525,4,-178.569,0\H,26,1.08107,23,121.151,7,-163.79,0\H,26,1.08223,23,120.373,7,22.228,0\\\@

 Total job time:  14938.19s(wall), 58327.52s(cpu) 
 Wed Nov 28 01:10:28 2018

        *************************************************************
        *                                                           *
        *  Thank you very much for using Q-Chem.  Have a nice day.  *
        *                                                           *
        *************************************************************


