 *******************************************************************************
 ** Site#: 6189            For non-commercial use only        Version 11.053L **
 *******************************************************************************
 ** Cite this work as: MOPAC2009, James J. P. Stewart, Stewart Computational  **
 ** Chemistry, Version 11.053L web: HTTP://OpenMOPAC.net  Days remaining:  98 **
 *******************************************************************************
 **                                                                           **
 **                                MOPAC2009                                  **
 **                                                                           **
 *******************************************************************************

                            PM3 CALCULATION RESULTS


 *******************************************************************************
 *  CALCULATION DONE:                                Wed Nov 16 02:28:55 2011  *
 *  PM3      - The PM3 Hamiltonian to be used
 *  PRECISE  - CRITERIA TO BE INCREASED BY 100 TIMES
 *  NOSYM    - POINT-GROUP SYMMETRY SET TO C1
 *  T=       - A TIME OF 172800.0 SECONDS REQUESTED
 *  DUMP=N   - RESTART FILE WRITTEN EVERY  7200.000 SECONDS
 *******************************************************************************
pm3  precise nosym
 InChI=1/C10H16/c1-7-4-5-8-6-9(7)10(8,2)3/h4,8-9H,5-6H2,1-3H3

   ATOM   CHEMICAL          X               Y               Z
  NUMBER   SYMBOL      (ANGSTROMS)     (ANGSTROMS)     (ANGSTROMS)
 
     1       C         -1.02780000  *   0.32010000  *  -0.17880000  *
     2       C         -0.69350000  *  -1.14790000  *  -0.69310000  *
     3       C          0.43110000  *   0.61090000  *  -0.62780000  *
     4       C          0.28920000  *  -0.46920000  *  -1.66680000  *
     5       C          0.14340000  *  -1.97200000  *   0.33390000  *
     6       C         -1.38610000  *   0.50840000  *   1.31280000  *
     7       C         -2.11540000  *   1.04790000  *  -1.00590000  *
     8       C          2.57630000  *   0.99970000  *   0.88310000  *
     9       C          1.45950000  *   0.12340000  *   0.40240000  *
    10       C          1.31060000  *  -1.14400000  *   0.85970000  *
    11       H         -1.53110000  *  -1.70780000  *  -1.16920000  *
    12       H          0.61350000  *   1.63230000  *  -1.03510000  *
    13       H          1.21040000  *  -1.04570000  *  -1.92600000  *
    14       H         -0.16410000  *  -0.13780000  *  -2.63000000  *
    15       H          0.54000000  *  -2.88970000  *  -0.15690000  *
    16       H         -0.50390000  *  -2.29390000  *   1.18050000  *
    17       H         -1.41700000  *   1.59210000  *   1.56900000  *
    18       H         -2.38570000  *   0.06670000  *   1.52830000  *
    19       H         -0.69410000  *   0.05220000  *   2.05130000  *
    20       H         -1.99990000  *   0.98950000  *  -2.10970000  *
    21       H         -3.12160000  *   0.62320000  *  -0.78630000  *
    22       H         -2.13210000  *   2.13400000  *  -0.75820000  *
    23       H          3.55780000  *   0.53310000  *   0.64090000  *
    24       H          2.54490000  *   2.00480000  *   0.40570000  *
    25       H          2.50020000  *   1.14070000  *   1.98500000  *
    26       H          1.99550000  *  -1.57090000  *   1.59090000  *
 


          CARTESIAN COORDINATES 

    NO.       ATOM         X         Y         Z

     1         C       -1.0278    0.3201   -0.1788
     2         C       -0.6935   -1.1479   -0.6931
     3         C        0.4311    0.6109   -0.6278
     4         C        0.2892   -0.4692   -1.6668
     5         C        0.1434   -1.9720    0.3339
     6         C       -1.3861    0.5084    1.3128
     7         C       -2.1154    1.0479   -1.0059
     8         C        2.5763    0.9997    0.8831
     9         C        1.4595    0.1234    0.4024
    10         C        1.3106   -1.1440    0.8597
    11         H       -1.5311   -1.7078   -1.1692
    12         H        0.6135    1.6323   -1.0351
    13         H        1.2104   -1.0457   -1.9260
    14         H       -0.1641   -0.1378   -2.6300
    15         H        0.5400   -2.8897   -0.1569
    16         H       -0.5039   -2.2939    1.1805
    17         H       -1.4170    1.5921    1.5690
    18         H       -2.3857    0.0667    1.5283
    19         H       -0.6941    0.0522    2.0513
    20         H       -1.9999    0.9895   -2.1097
    21         H       -3.1216    0.6232   -0.7863
    22         H       -2.1321    2.1340   -0.7582
    23         H        3.5578    0.5331    0.6409
    24         H        2.5449    2.0048    0.4057
    25         H        2.5002    1.1407    1.9850
    26         H        1.9955   -1.5709    1.5909

  H: (PM3): J. J. P. STEWART, J. COMP. CHEM. 10, 209 (1989).
  C: (PM3): J. J. P. STEWART, J. COMP. CHEM. 10, 209 (1989).

           Empirical Formula: C10 H16  =    26 atoms



      MOLECULAR POINT GROUP   :   C1  


      RHF CALCULATION, NO. OF DOUBLY OCCUPIED LEVELS =   28

      Geometry optimization using EF

          DIAGONAL MATRIX USED AS START HESSIAN

 CYCLE:     1 TIME:   0.020 TIME LEFT:  2.00D  GRAD.:   107.077 HEAT: 15.13526
 CYCLE:     2 TIME:   0.030 TIME LEFT:  2.00D  GRAD.:    99.751 HEAT: 13.18585
 CYCLE:     3 TIME:   0.010 TIME LEFT:  2.00D  GRAD.:    95.205 HEAT: 11.89025
 CYCLE:     4 TIME:   0.040 TIME LEFT:  2.00D  GRAD.:    47.707 HEAT: 10.00355
 CYCLE:     5 TIME:   0.040 TIME LEFT:  2.00D  GRAD.:    35.125 HEAT: 9.506766
 CYCLE:     6 TIME:   0.020 TIME LEFT:  2.00D  GRAD.:    29.769 HEAT: 9.145379
 CYCLE:     7 TIME:   0.010 TIME LEFT:  2.00D  GRAD.:    38.709 HEAT: 8.991295
 CYCLE:     8 TIME:   0.020 TIME LEFT:  2.00D  GRAD.:    42.055 HEAT: 8.879204
 CYCLE:     9 TIME:   0.030 TIME LEFT:  2.00D  GRAD.:    18.384 HEAT: 8.481428
 CYCLE:    10 TIME:   0.030 TIME LEFT:  2.00D  GRAD.:    11.534 HEAT: 8.371303
 CYCLE:    11 TIME:   0.020 TIME LEFT:  2.00D  GRAD.:    16.353 HEAT: 8.320865
 CYCLE:    12 TIME:   0.010 TIME LEFT:  2.00D  GRAD.:    16.700 HEAT: 8.221640
 CYCLE:    13 TIME:   0.030 TIME LEFT:  2.00D  GRAD.:    20.385 HEAT: 8.208310
 CYCLE:    14 TIME:   0.010 TIME LEFT:  2.00D  GRAD.:    13.639 HEAT: 8.093528
 CYCLE:    15 TIME:   0.030 TIME LEFT:  2.00D  GRAD.:    14.733 HEAT: 8.071984
 CYCLE:    16 TIME:   0.020 TIME LEFT:  2.00D  GRAD.:    11.154 HEAT: 8.029419
 CYCLE:    17 TIME:   0.030 TIME LEFT:  2.00D  GRAD.:     6.097 HEAT: 7.992821
 CYCLE:    18 TIME:   0.020 TIME LEFT:  2.00D  GRAD.:     6.988 HEAT: 7.976983
 CYCLE:    19 TIME:   0.010 TIME LEFT:  2.00D  GRAD.:     5.255 HEAT: 7.947308
 CYCLE:    20 TIME:   0.030 TIME LEFT:  2.00D  GRAD.:     7.728 HEAT: 7.938829
 CYCLE:    21 TIME:   0.020 TIME LEFT:  2.00D  GRAD.:     9.665 HEAT: 7.933221
 CYCLE:    22 TIME:   0.010 TIME LEFT:  2.00D  GRAD.:     8.034 HEAT: 7.921001
 CYCLE:    23 TIME:   0.020 TIME LEFT:  2.00D  GRAD.:     5.495 HEAT: 7.899900
 CYCLE:    24 TIME:   0.020 TIME LEFT:  2.00D  GRAD.:     5.596 HEAT: 7.895560
 CYCLE:    25 TIME:   0.020 TIME LEFT:  2.00D  GRAD.:     2.332 HEAT: 7.883008
 CYCLE:    26 TIME:   0.020 TIME LEFT:  2.00D  GRAD.:     3.943 HEAT: 7.881309
 CYCLE:    27 TIME:   0.020 TIME LEFT:  2.00D  GRAD.:     2.009 HEAT: 7.873208
 CYCLE:    28 TIME:   0.020 TIME LEFT:  2.00D  GRAD.:     2.941 HEAT: 7.869017
 CYCLE:    29 TIME:   0.010 TIME LEFT:  2.00D  GRAD.:     2.940 HEAT: 7.865578
 CYCLE:    30 TIME:   0.020 TIME LEFT:  2.00D  GRAD.:     1.671 HEAT: 7.861674
 CYCLE:    31 TIME:   0.020 TIME LEFT:  2.00D  GRAD.:     1.870 HEAT: 7.858747
 CYCLE:    32 TIME:   0.020 TIME LEFT:  2.00D  GRAD.:     2.055 HEAT: 7.855505
 CYCLE:    33 TIME:   0.020 TIME LEFT:  2.00D  GRAD.:     1.319 HEAT: 7.852634
 CYCLE:    34 TIME:   0.020 TIME LEFT:  2.00D  GRAD.:     1.725 HEAT: 7.850091
 CYCLE:    35 TIME:   0.010 TIME LEFT:  2.00D  GRAD.:     2.174 HEAT: 7.847447
 CYCLE:    36 TIME:   0.030 TIME LEFT:  2.00D  GRAD.:     1.675 HEAT: 7.844109
 CYCLE:    37 TIME:   0.020 TIME LEFT:  2.00D  GRAD.:     1.214 HEAT: 7.840252
 CYCLE:    38 TIME:   0.020 TIME LEFT:  2.00D  GRAD.:     1.093 HEAT: 7.838619
 CYCLE:    39 TIME:   0.020 TIME LEFT:  2.00D  GRAD.:     1.153 HEAT: 7.835541
 CYCLE:    40 TIME:   0.010 TIME LEFT:  2.00D  GRAD.:     1.261 HEAT: 7.832187
 CYCLE:    41 TIME:   0.020 TIME LEFT:  2.00D  GRAD.:     1.185 HEAT: 7.830358
 CYCLE:    42 TIME:   0.020 TIME LEFT:  2.00D  GRAD.:     0.850 HEAT: 7.828509
 CYCLE:    43 TIME:   0.020 TIME LEFT:  2.00D  GRAD.:     0.954 HEAT: 7.826762
 CYCLE:    44 TIME:   0.020 TIME LEFT:  2.00D  GRAD.:     1.364 HEAT: 7.826030
 CYCLE:    45 TIME:   0.020 TIME LEFT:  2.00D  GRAD.:     0.852 HEAT: 7.824819
 CYCLE:    46 TIME:   0.020 TIME LEFT:  2.00D  GRAD.:     0.752 HEAT: 7.823625
 CYCLE:    47 TIME:   0.020 TIME LEFT:  2.00D  GRAD.:     0.766 HEAT: 7.822614
 CYCLE:    48 TIME:   0.020 TIME LEFT:  2.00D  GRAD.:     0.740 HEAT: 7.821370
 CYCLE:    49 TIME:   0.020 TIME LEFT:  2.00D  GRAD.:     0.860 HEAT: 7.819608
 CYCLE:    50 TIME:   0.020 TIME LEFT:  2.00D  GRAD.:     0.883 HEAT: 7.817639
 CYCLE:    51 TIME:   0.020 TIME LEFT:  2.00D  GRAD.:     0.799 HEAT: 7.816121
 CYCLE:    52 TIME:   0.020 TIME LEFT:  2.00D  GRAD.:     0.731 HEAT: 7.814738
 CYCLE:    53 TIME:   0.020 TIME LEFT:  2.00D  GRAD.:     0.689 HEAT: 7.813613
 CYCLE:    54 TIME:   0.020 TIME LEFT:  2.00D  GRAD.:     0.628 HEAT: 7.812586
 CYCLE:    55 TIME:   0.020 TIME LEFT:  2.00D  GRAD.:     0.494 HEAT: 7.811948
 CYCLE:    56 TIME:   0.010 TIME LEFT:  2.00D  GRAD.:     0.511 HEAT: 7.811425
 CYCLE:    57 TIME:   0.020 TIME LEFT:  2.00D  GRAD.:     0.550 HEAT: 7.810948
 CYCLE:    58 TIME:   0.020 TIME LEFT:  2.00D  GRAD.:     0.595 HEAT: 7.810206
 CYCLE:    59 TIME:   0.020 TIME LEFT:  2.00D  GRAD.:     0.592 HEAT: 7.809432
 CYCLE:    60 TIME:   0.020 TIME LEFT:  2.00D  GRAD.:     0.651 HEAT: 7.808359
 CYCLE:    61 TIME:   0.010 TIME LEFT:  2.00D  GRAD.:     0.707 HEAT: 7.807459
 CYCLE:    62 TIME:   0.020 TIME LEFT:  2.00D  GRAD.:     0.950 HEAT: 7.805490
 CYCLE:    63 TIME:   0.020 TIME LEFT:  2.00D  GRAD.:     0.767 HEAT: 7.804497
 CYCLE:    64 TIME:   0.020 TIME LEFT:  2.00D  GRAD.:     0.791 HEAT: 7.802606
 CYCLE:    65 TIME:   0.020 TIME LEFT:  2.00D  GRAD.:     0.469 HEAT: 7.801947
 CYCLE:    66 TIME:   0.010 TIME LEFT:  2.00D  GRAD.:     0.352 HEAT: 7.801121
 CYCLE:    67 TIME:   0.020 TIME LEFT:  2.00D  GRAD.:     0.482 HEAT: 7.800313
 CYCLE:    68 TIME:   0.020 TIME LEFT:  2.00D  GRAD.:     0.468 HEAT: 7.799538
 CYCLE:    69 TIME:   0.020 TIME LEFT:  2.00D  GRAD.:     0.436 HEAT: 7.798997
 CYCLE:    70 TIME:   0.020 TIME LEFT:  2.00D  GRAD.:     0.375 HEAT: 7.798621
 CYCLE:    71 TIME:   0.010 TIME LEFT:  2.00D  GRAD.:     0.359 HEAT: 7.798060
 CYCLE:    72 TIME:   0.020 TIME LEFT:  2.00D  GRAD.:     0.361 HEAT: 7.797779
 CYCLE:    73 TIME:   0.020 TIME LEFT:  2.00D  GRAD.:     0.339 HEAT: 7.797454
 CYCLE:    74 TIME:   0.020 TIME LEFT:  2.00D  GRAD.:     0.330 HEAT: 7.797199
 CYCLE:    75 TIME:   0.020 TIME LEFT:  2.00D  GRAD.:     0.385 HEAT: 7.796865
 CYCLE:    76 TIME:   0.020 TIME LEFT:  2.00D  GRAD.:     0.452 HEAT: 7.796436
 CYCLE:    77 TIME:   0.010 TIME LEFT:  2.00D  GRAD.:     0.626 HEAT: 7.795687
 CYCLE:    78 TIME:   0.020 TIME LEFT:  2.00D  GRAD.:     0.753 HEAT: 7.794712
 CYCLE:    79 TIME:   0.020 TIME LEFT:  2.00D  GRAD.:     1.067 HEAT: 7.792675
 CYCLE:    80 TIME:   0.020 TIME LEFT:  2.00D  GRAD.:     1.230 HEAT: 7.790396
 CYCLE:    81 TIME:   0.020 TIME LEFT:  2.00D  GRAD.:     4.629 HEAT: 7.788713
 CYCLE:    82 TIME:   0.020 TIME LEFT:  2.00D  GRAD.:     3.247 HEAT: 7.784272
 CYCLE:    83 TIME:   0.020 TIME LEFT:  2.00D  GRAD.:     1.506 HEAT: 7.774411
 CYCLE:    84 TIME:   0.020 TIME LEFT:  2.00D  GRAD.:     3.781 HEAT: 7.767369
 CYCLE:    85 TIME:   0.010 TIME LEFT:  2.00D  GRAD.:     2.524 HEAT: 7.758458
 CYCLE:    86 TIME:   0.020 TIME LEFT:  2.00D  GRAD.:     5.862 HEAT: 7.741934
 CYCLE:    87 TIME:   0.020 TIME LEFT:  2.00D  GRAD.:     3.750 HEAT: 7.733921
 CYCLE:    88 TIME:   0.020 TIME LEFT:  2.00D  GRAD.:     1.841 HEAT: 7.714355
 CYCLE:    89 TIME:   0.020 TIME LEFT:  2.00D  GRAD.:     5.939 HEAT: 7.705525
 CYCLE:    90 TIME:   0.020 TIME LEFT:  2.00D  GRAD.:     2.895 HEAT: 7.691667
 CYCLE:    91 TIME:   0.020 TIME LEFT:  2.00D  GRAD.:     2.775 HEAT: 7.667680
 CYCLE:    92 TIME:   0.020 TIME LEFT:  2.00D  GRAD.:     4.826 HEAT: 7.641131
 CYCLE:    93 TIME:   0.020 TIME LEFT:  2.00D  GRAD.:     5.454 HEAT: 7.610955
 CYCLE:    94 TIME:   0.020 TIME LEFT:  2.00D  GRAD.:     6.031 HEAT: 7.587443
 CYCLE:    95 TIME:   0.020 TIME LEFT:  2.00D  GRAD.:     9.496 HEAT: 7.563144
 CYCLE:    96 TIME:   0.020 TIME LEFT:  2.00D  GRAD.:     3.592 HEAT: 7.531016
 CYCLE:    97 TIME:   0.020 TIME LEFT:  2.00D  GRAD.:     2.635 HEAT: 7.509615
 CYCLE:    98 TIME:   0.020 TIME LEFT:  2.00D  GRAD.:     7.488 HEAT: 7.473118
 CYCLE:    99 TIME:   0.020 TIME LEFT:  2.00D  GRAD.:     2.923 HEAT: 7.443387
 CYCLE:   100 TIME:   0.020 TIME LEFT:  2.00D  GRAD.:     2.427 HEAT: 7.419275
 CYCLE:   101 TIME:   0.020 TIME LEFT:  2.00D  GRAD.:     2.577 HEAT: 7.405829
 CYCLE:   102 TIME:   0.010 TIME LEFT:  2.00D  GRAD.:     2.544 HEAT: 7.392041
 CYCLE:   103 TIME:   0.020 TIME LEFT:  2.00D  GRAD.:     1.941 HEAT: 7.385417
 CYCLE:   104 TIME:   0.020 TIME LEFT:  2.00D  GRAD.:     2.212 HEAT: 7.378482
 CYCLE:   105 TIME:   0.020 TIME LEFT:  2.00D  GRAD.:     1.961 HEAT: 7.371107
 CYCLE:   106 TIME:   0.020 TIME LEFT:  2.00D  GRAD.:     2.585 HEAT: 7.359616
 CYCLE:   107 TIME:   0.020 TIME LEFT:  2.00D  GRAD.:     3.323 HEAT: 7.342954
 CYCLE:   108 TIME:   0.030 TIME LEFT:  2.00D  GRAD.:     4.877 HEAT: 7.339164
 CYCLE:   109 TIME:   0.020 TIME LEFT:  2.00D  GRAD.:     1.855 HEAT: 7.326234
 CYCLE:   110 TIME:   0.020 TIME LEFT:  2.00D  GRAD.:     1.276 HEAT: 7.320951
 CYCLE:   111 TIME:   0.020 TIME LEFT:  2.00D  GRAD.:     1.671 HEAT: 7.315588
 CYCLE:   112 TIME:   0.020 TIME LEFT:  2.00D  GRAD.:     2.265 HEAT: 7.308897
 CYCLE:   113 TIME:   0.020 TIME LEFT:  2.00D  GRAD.:     1.842 HEAT: 7.303571
 CYCLE:   114 TIME:   0.020 TIME LEFT:  2.00D  GRAD.:     2.593 HEAT: 7.284275
 CYCLE:   115 TIME:   0.020 TIME LEFT:  2.00D  GRAD.:     2.124 HEAT: 7.277178
 CYCLE:   116 TIME:   0.020 TIME LEFT:  2.00D  GRAD.:     3.649 HEAT: 7.267567
 CYCLE:   117 TIME:   0.010 TIME LEFT:  2.00D  GRAD.:     1.145 HEAT: 7.262878
 CYCLE:   118 TIME:   0.020 TIME LEFT:  2.00D  GRAD.:     1.340 HEAT: 7.259902
 CYCLE:   119 TIME:   0.020 TIME LEFT:  2.00D  GRAD.:     1.594 HEAT: 7.256060
 CYCLE:   120 TIME:   0.020 TIME LEFT:  2.00D  GRAD.:     3.608 HEAT: 7.248711
 CYCLE:   121 TIME:   0.020 TIME LEFT:  2.00D  GRAD.:     1.302 HEAT: 7.241166
 CYCLE:   122 TIME:   0.020 TIME LEFT:  2.00D  GRAD.:     1.214 HEAT: 7.236142
 CYCLE:   123 TIME:   0.020 TIME LEFT:  2.00D  GRAD.:     1.418 HEAT: 7.228590
 CYCLE:   124 TIME:   0.020 TIME LEFT:  2.00D  GRAD.:     0.920 HEAT: 7.226386
 CYCLE:   125 TIME:   0.020 TIME LEFT:  2.00D  GRAD.:     0.831 HEAT: 7.224116
 CYCLE:   126 TIME:   0.020 TIME LEFT:  2.00D  GRAD.:     0.715 HEAT: 7.221846
 CYCLE:   127 TIME:   0.020 TIME LEFT:  2.00D  GRAD.:     0.491 HEAT: 7.220772
 CYCLE:   128 TIME:   0.020 TIME LEFT:  2.00D  GRAD.:     0.423 HEAT: 7.220282
 CYCLE:   129 TIME:   0.020 TIME LEFT:  2.00D  GRAD.:     0.300 HEAT: 7.220009
 CYCLE:   130 TIME:   0.020 TIME LEFT:  2.00D  GRAD.:     0.179 HEAT: 7.219842
 CYCLE:   131 TIME:   0.020 TIME LEFT:  2.00D  GRAD.:     0.126 HEAT: 7.219748
 CYCLE:   132 TIME:   0.020 TIME LEFT:  2.00D  GRAD.:     0.117 HEAT: 7.219705
 CYCLE:   133 TIME:   0.010 TIME LEFT:  2.00D  GRAD.:     0.112 HEAT: 7.219668
 CYCLE:   134 TIME:   0.020 TIME LEFT:  2.00D  GRAD.:     0.104 HEAT: 7.219639
 CYCLE:   135 TIME:   0.020 TIME LEFT:  2.00D  GRAD.:     0.103 HEAT: 7.219587
 CYCLE:   136 TIME:   0.020 TIME LEFT:  2.00D  GRAD.:     0.096 HEAT: 7.219566
 CYCLE:   137 TIME:   0.020 TIME LEFT:  2.00D  GRAD.:     0.134 HEAT: 7.219527
 CYCLE:   138 TIME:   0.020 TIME LEFT:  2.00D  GRAD.:     0.112 HEAT: 7.219517
 CYCLE:   139 TIME:   0.010 TIME LEFT:  2.00D  GRAD.:     0.102 HEAT: 7.219490
 CYCLE:   140 TIME:   0.010 TIME LEFT:  2.00D  GRAD.:     0.110 HEAT: 7.219477
 CYCLE:   141 TIME:   0.020 TIME LEFT:  2.00D  GRAD.:     0.156 HEAT: 7.219448
 CYCLE:   142 TIME:   0.020 TIME LEFT:  2.00D  GRAD.:     0.142 HEAT: 7.219424
 CYCLE:   143 TIME:   0.020 TIME LEFT:  2.00D  GRAD.:     0.131 HEAT: 7.219360
 CYCLE:   144 TIME:   0.020 TIME LEFT:  2.00D  GRAD.:     0.147 HEAT: 7.219302
 CYCLE:   145 TIME:   0.020 TIME LEFT:  2.00D  GRAD.:     0.113 HEAT: 7.219205
 CYCLE:   146 TIME:   0.020 TIME LEFT:  2.00D  GRAD.:     0.100 HEAT: 7.219146
 CYCLE:   147 TIME:   0.010 TIME LEFT:  2.00D  GRAD.:     0.097 HEAT: 7.219111
 CYCLE:   148 TIME:   0.020 TIME LEFT:  2.00D  GRAD.:     0.119 HEAT: 7.219072
 CYCLE:   149 TIME:   0.020 TIME LEFT:  2.00D  GRAD.:     0.067 HEAT: 7.219061
 CYCLE:   150 TIME:   0.020 TIME LEFT:  2.00D  GRAD.:     0.072 HEAT: 7.219048
 CYCLE:   151 TIME:   0.020 TIME LEFT:  2.00D  GRAD.:     0.025 HEAT: 7.219045

     RMS GRADIENT =  0.02516  IS LESS THAN CUTOFF =  0.05000



 -------------------------------------------------------------------------------
pm3  precise nosym
 InChI=1/C10H16/c1-7-4-5-8-6-9(7)10(8,2)3/h4,8-9H,5-6H2,1-3H3



     GEOMETRY OPTIMISED USING EIGENVECTOR FOLLOWING (EF).     
     SCF FIELD WAS ACHIEVED                                   


                                PM3    CALCULATION
                                                       MOPAC2009 (Version: 11.053L)
                                                       Wed Nov 16 02:28:59 2011
                                                       No. of days left =  98




          FINAL HEAT OF FORMATION =          7.21904 KCAL/MOL =      30.20448 KJ/MOL


          TOTAL ENERGY            =      -1431.41397 EV
          ELECTRONIC ENERGY       =      -8744.66597 EV  POINT GROUP:     C1  
          CORE-CORE REPULSION     =       7313.25200 EV
          COSMO AREA              =        182.00 SQUARE ANGSTROMS
          COSMO VOLUME            =        196.12 CUBIC ANGSTROMS

          GRADIENT NORM           =          0.02516
          IONIZATION POTENTIAL    =          9.295632 EV
          HOMO LUMO ENERGIES (EV) =         -9.296  1.020
          NO. OF FILLED LEVELS    =         28
          MOLECULAR WEIGHT        =        136.236

          MOLECULAR DIMENSIONS (Angstroms)

            Atom       Atom       Distance
            H    24    H    18     6.46149
            H    23    H    21     6.25783
            H    18    H    14     3.49001


          SCF CALCULATIONS        =        162
          COMPUTATION TIME        =          2.970 SECONDS




   ATOM   CHEMICAL          X               Y               Z
  NUMBER   SYMBOL      (ANGSTROMS)     (ANGSTROMS)     (ANGSTROMS)
 
     1       C         -1.01051546  *   0.30420411  *  -0.12955211  *
     2       C         -0.70647009  *  -1.12613264  *  -0.71201244  *
     3       C          0.44810223  *   0.66162123  *  -0.61026563  *
     4       C          0.30242752  *  -0.45584591  *  -1.68726525  *
     5       C          0.10955340  *  -1.94441606  *   0.29043265  *
     6       C         -1.34559980  *   0.43206250  *   1.33803157  *
     7       C         -2.07198635  *   1.03412794  *  -0.93560978  *
     8       C          2.52847372  *   1.01716396  *   0.84789639  *
     9       C          1.43652853  *   0.13117966  *   0.39176925  *
    10       C          1.26757521  *  -1.13911978  *   0.80370299  *
    11       H         -1.55754943  *  -1.67786332  *  -1.14494954  *
    12       H          0.63465543  *   1.69564565  *  -0.94339669  *
    13       H          1.20883266  *  -1.02891508  *  -1.92862122  *
    14       H         -0.14099999  *  -0.11466136  *  -2.63556388  *
    15       H          0.48403623  *  -2.86963457  *  -0.18855711  *
    16       H         -0.52481197  *  -2.26617500  *   1.13936085  *
    17       H         -1.51526547  *   1.48228844  *   1.61134632  *
    18       H         -2.25998283  *  -0.12791707  *   1.57526497  *
    19       H         -0.54874732  *   0.05343668  *   1.99289441  *
    20       H         -1.90766258  *   0.94461370  *  -2.01852539  *
    21       H         -3.07100501  *   0.63219686  *  -0.72134362  *
    22       H         -2.08219540  *   2.10518229  *  -0.69375418  *
    23       H          3.20572166  *   0.51647848  *   1.55183374  *
    24       H          3.12722627  *   1.36512576  *  -0.00475343  *
    25       H          2.11864756  *   1.90459341  *   1.34924549  *
    26       H          1.94273918  *  -1.62120322  *   1.51695050  *

           Empirical Formula: C10 H16  =    26 atoms



      MOLECULAR POINT GROUP   :   C1  


                  EIGENVALUES  
 -43.65479 -34.24528 -31.64266 -30.03315 -26.54952 -25.18723 -22.22630 -21.35421
 -19.19847 -17.09121 -16.53592 -15.64102 -15.35660 -14.84526 -14.73697 -14.18318
 -13.90099 -13.56127 -13.38997 -13.01326 -12.90586 -12.76300 -12.41775 -12.08149
 -11.44154 -11.32334 -10.87058  -9.29563   1.02039   3.13925   3.32556   3.42218
   3.61519   3.62921   3.77878   3.82465   3.92011   3.96887   4.16914   4.23358
   4.32244   4.39256   4.44364   4.48700   4.53973   4.60103   4.67119   4.68955
   4.91465   4.95821   4.99261   5.04755   5.25062   5.56111   5.83015   6.10460


              NET ATOMIC CHARGES AND DIPOLE CONTRIBUTIONS

  ATOM NO.   TYPE          CHARGE      No. of ELECS.   s-Pop       p-Pop       
    1          C          -0.059861        4.0599     1.20510     2.85476
    2          C          -0.086760        4.0868     1.19930     2.88746
    3          C          -0.043151        4.0432     1.18742     2.85573
    4          C          -0.119890        4.1199     1.18127     2.93862
    5          C          -0.050685        4.0507     1.14966     2.90102
    6          C          -0.108791        4.1088     1.13784     2.97096
    7          C          -0.106062        4.1061     1.14159     2.96447
    8          C          -0.057643        4.0576     1.12160     2.93605
    9          C          -0.116825        4.1168     1.19891     2.91791
   10          C          -0.155901        4.1559     1.19840     2.95750
   11          H           0.078728        0.9213     0.92127
   12          H           0.083279        0.9167     0.91672
   13          H           0.066638        0.9334     0.93336
   14          H           0.060439        0.9396     0.93956
   15          H           0.055961        0.9440     0.94404
   16          H           0.058156        0.9418     0.94184
   17          H           0.042084        0.9579     0.95792
   18          H           0.041798        0.9582     0.95820
   19          H           0.055342        0.9447     0.94466
   20          H           0.043323        0.9567     0.95668
   21          H           0.041725        0.9583     0.95827
   22          H           0.042012        0.9580     0.95799
   23          H           0.041134        0.9589     0.95887
   24          H           0.044893        0.9551     0.95511
   25          H           0.045625        0.9544     0.95437
   26          H           0.104433        0.8956     0.89557
 DIPOLE           X         Y         Z       TOTAL
 POINT-CHG.    -0.003     0.039    -0.013     0.042
 HYBRID         0.002     0.004     0.024     0.024
 SUM           -0.001     0.043     0.010     0.044


          CARTESIAN COORDINATES 

    NO.       ATOM               X         Y         Z

     1         C                 -1.0105    0.3042   -0.1296
     2         C                 -0.7065   -1.1261   -0.7120
     3         C                  0.4481    0.6616   -0.6103
     4         C                  0.3024   -0.4558   -1.6873
     5         C                  0.1096   -1.9444    0.2904
     6         C                 -1.3456    0.4321    1.3380
     7         C                 -2.0720    1.0341   -0.9356
     8         C                  2.5285    1.0172    0.8479
     9         C                  1.4365    0.1312    0.3918
    10         C                  1.2676   -1.1391    0.8037
    11         H                 -1.5575   -1.6779   -1.1449
    12         H                  0.6347    1.6956   -0.9434
    13         H                  1.2088   -1.0289   -1.9286
    14         H                 -0.1410   -0.1147   -2.6356
    15         H                  0.4840   -2.8696   -0.1886
    16         H                 -0.5248   -2.2662    1.1394
    17         H                 -1.5153    1.4823    1.6113
    18         H                 -2.2600   -0.1279    1.5753
    19         H                 -0.5487    0.0534    1.9929
    20         H                 -1.9077    0.9446   -2.0185
    21         H                 -3.0710    0.6322   -0.7213
    22         H                 -2.0822    2.1052   -0.6938
    23         H                  3.2057    0.5165    1.5518
    24         H                  3.1272    1.3651   -0.0048
    25         H                  2.1186    1.9046    1.3492
    26         H                  1.9427   -1.6212    1.5170


          ATOMIC ORBITAL ELECTRON POPULATIONS

   1.20510   0.94130   0.95965   0.95381   1.19930   0.97347   0.94808   0.96590
   1.18742   0.93310   0.97280   0.94982   1.18127   0.99736   0.98234   0.95892
   1.14966   0.95299   0.96768   0.98036   1.13784   1.01315   1.01074   0.94707
   1.14159   0.97705   0.99416   0.99325   1.12160   0.95862   0.98029   0.99714
   1.19891   0.97275   0.95812   0.98704   1.19840   0.99092   0.95631   1.01028
   0.92127   0.91672   0.93336   0.93956   0.94404   0.94184   0.95792   0.95820
   0.94466   0.95668   0.95827   0.95799   0.95887   0.95511   0.95437   0.89557



 TOTAL CPU TIME:             2.97 SECONDS

 == MOPAC DONE ==
 *******************************************************************************
 ** Site#: 6189            For non-commercial use only        Version 11.053L **
 *******************************************************************************
 ** Cite this work as: MOPAC2009, James J. P. Stewart, Stewart Computational  **
 ** Chemistry, Version 11.053L web: HTTP://OpenMOPAC.net  Days remaining:  98 **
 *******************************************************************************
 **                                                                           **
 **                                MOPAC2009                                  **
 **                                                                           **
 *******************************************************************************

                            PM3 CALCULATION RESULTS


 *******************************************************************************
 *  CALCULATION DONE:                                Wed Nov 16 02:28:59 2011  *
 *  PM3      - The PM3 Hamiltonian to be used
 *  OLDGEO   - PREVIOUS GEOMETRY TO BE USED
 *  PRECISE  - CRITERIA TO BE INCREASED BY 100 TIMES
 *  NOSYM    - POINT-GROUP SYMMETRY SET TO C1
 *  T=       - A TIME OF 172800.0 SECONDS REQUESTED
 *  DUMP=N   - RESTART FILE WRITTEN EVERY  7200.000 SECONDS
 *  THERMO   - THERMODYNAMIC QUANTITIES TO BE CALCULATED
 *******************************************************************************
oldgeo thermo nosym precise pm3

   ATOM   CHEMICAL          X               Y               Z
  NUMBER   SYMBOL      (ANGSTROMS)     (ANGSTROMS)     (ANGSTROMS)
 
     1       C         -1.01051546  *   0.30420411  *  -0.12955211  *
     2       C         -0.70647009  *  -1.12613264  *  -0.71201244  *
     3       C          0.44810223  *   0.66162123  *  -0.61026563  *
     4       C          0.30242752  *  -0.45584591  *  -1.68726525  *
     5       C          0.10955340  *  -1.94441606  *   0.29043265  *
     6       C         -1.34559980  *   0.43206250  *   1.33803157  *
     7       C         -2.07198635  *   1.03412794  *  -0.93560978  *
     8       C          2.52847372  *   1.01716396  *   0.84789639  *
     9       C          1.43652853  *   0.13117966  *   0.39176925  *
    10       C          1.26757521  *  -1.13911978  *   0.80370299  *
    11       H         -1.55754943  *  -1.67786332  *  -1.14494954  *
    12       H          0.63465543  *   1.69564565  *  -0.94339669  *
    13       H          1.20883266  *  -1.02891508  *  -1.92862122  *
    14       H         -0.14099999  *  -0.11466136  *  -2.63556388  *
    15       H          0.48403623  *  -2.86963457  *  -0.18855711  *
    16       H         -0.52481197  *  -2.26617500  *   1.13936085  *
    17       H         -1.51526547  *   1.48228844  *   1.61134632  *
    18       H         -2.25998283  *  -0.12791707  *   1.57526497  *
    19       H         -0.54874732  *   0.05343668  *   1.99289441  *
    20       H         -1.90766258  *   0.94461370  *  -2.01852539  *
    21       H         -3.07100501  *   0.63219686  *  -0.72134362  *
    22       H         -2.08219540  *   2.10518229  *  -0.69375418  *
    23       H          3.20572166  *   0.51647848  *   1.55183374  *
    24       H          3.12722627  *   1.36512576  *  -0.00475343  *
    25       H          2.11864756  *   1.90459341  *   1.34924549  *
    26       H          1.94273918  *  -1.62120322  *   1.51695050  *
 


          CARTESIAN COORDINATES 

    NO.       ATOM         X         Y         Z

     1         C       -1.0105    0.3042   -0.1296
     2         C       -0.7065   -1.1261   -0.7120
     3         C        0.4481    0.6616   -0.6103
     4         C        0.3024   -0.4558   -1.6873
     5         C        0.1096   -1.9444    0.2904
     6         C       -1.3456    0.4321    1.3380
     7         C       -2.0720    1.0341   -0.9356
     8         C        2.5285    1.0172    0.8479
     9         C        1.4365    0.1312    0.3918
    10         C        1.2676   -1.1391    0.8037
    11         H       -1.5575   -1.6779   -1.1449
    12         H        0.6347    1.6956   -0.9434
    13         H        1.2088   -1.0289   -1.9286
    14         H       -0.1410   -0.1147   -2.6356
    15         H        0.4840   -2.8696   -0.1886
    16         H       -0.5248   -2.2662    1.1394
    17         H       -1.5153    1.4823    1.6113
    18         H       -2.2600   -0.1279    1.5753
    19         H       -0.5487    0.0534    1.9929
    20         H       -1.9077    0.9446   -2.0185
    21         H       -3.0710    0.6322   -0.7213
    22         H       -2.0822    2.1052   -0.6938
    23         H        3.2057    0.5165    1.5518
    24         H        3.1272    1.3651   -0.0048
    25         H        2.1186    1.9046    1.3492
    26         H        1.9427   -1.6212    1.5170

  H: (PM3): J. J. P. STEWART, J. COMP. CHEM. 10, 209 (1989).
  C: (PM3): J. J. P. STEWART, J. COMP. CHEM. 10, 209 (1989).

           Empirical Formula: C10 H16  =    26 atoms



      MOLECULAR POINT GROUP   :   C1  


      RHF CALCULATION, NO. OF DOUBLY OCCUPIED LEVELS =   28



          HEAT OF FORMATION =       7.219045 KCALS/MOLE


          INTERNAL COORDINATE DERIVATIVES

   NUMBER  ATOM       BOND         ANGLE      DIHEDRAL

     1       C      0.000893     0.004582     0.000771
     2       C     -0.000860    -0.000202    -0.000768
     3       C      0.000454    -0.000702     0.000192
     4       C      0.000147    -0.002789     0.001325
     5       C     -0.001322    -0.003137    -0.001797
     6       C      0.000755     0.000333     0.001559
     7       C     -0.000038     0.003898     0.001389
     8       C     -0.002297     0.005718     0.002414
     9       C     -0.000538     0.004270     0.000627
    10       C     -0.001306    -0.000295     0.000536
    11       H      0.002528     0.001152     0.002433
    12       H      0.001852    -0.001471    -0.003130
    13       H     -0.000474    -0.001657     0.000586
    14       H     -0.002326     0.000123     0.000106
    15       H     -0.003752     0.000163    -0.000655
    16       H      0.003081    -0.007778    -0.002457
    17       H      0.000558    -0.002550    -0.001455
    18       H     -0.001139    -0.004394    -0.000151
    19       H      0.000004     0.001222    -0.000304
    20       H     -0.001384    -0.002436     0.000269
    21       H      0.000995     0.007704     0.003312
    22       H      0.001672    -0.001745    -0.000961
    23       H      0.001011    -0.001598    -0.002380
    24       H     -0.008545    -0.005273     0.004057
    25       H      0.007784     0.003164    -0.005270
    26       H      0.002246     0.003698    -0.000248


          GRADIENT NORM =   0.02496


          TIME FOR SCF CALCULATION =    0.01

          TIME FOR DERIVATIVES     =    0.01

          MOLECULAR WEIGHT =  136.24



          ROTATIONAL CONSTANTS IN CM(-1)

          A =    0.06480590   B =    0.04160405   C =    0.03813305



           PRINCIPAL MOMENTS OF INERTIA IN UNITS OF 10**(-40)*GRAM-CM**2

          A =      431.9479   B =      672.8378   C =      734.0817


          ORIENTATION OF MOLECULE IN FORCE CALCULATION

    NO.       ATOM         X         Y         Z

     1          C      -0.5309   -0.8459   -0.5924
     2          C       1.0431   -0.8459   -0.5924
     3          C      -0.3960    0.7252   -0.5924
     4          C       0.9898    0.5463   -1.2833
     5          C       1.5734   -0.6266    0.8258
     6          C      -1.2549   -1.5148    0.5525
     7          C      -1.1009   -1.3697   -1.9000
     8          C      -0.8569    2.3310    1.3543
     9          C      -0.0939    1.1897    0.8060
    10          C       0.8754    0.5346    1.4717
    11          H       1.5403   -1.6717   -1.1280
    12          H      -1.1764    1.3026   -1.1146
    13          H       1.7750    1.2639   -1.0061
    14          H       0.9450    0.5063   -2.3827
    15          H       2.6637   -0.4365    0.7994
    16          H       1.4291   -1.5362    1.4410
    17          H      -2.3431   -1.4236    0.4349
    18          H      -1.0104   -2.5847    0.5912
    19          H      -0.9992   -1.0834    1.5301
    20          H      -0.5871   -0.9503   -2.7762
    21          H      -1.0080   -2.4622   -1.9574
    22          H      -2.1657   -1.1182   -1.9937
    23          H      -0.5315    2.6025    2.3669
    24          H      -0.7419    3.2170    0.7154
    25          H      -1.9280    2.0909    1.3985
    26          H       1.1799    0.8074    2.4865


    FIRST DERIVATIVES WILL BE USED IN THE CALCULATION OF SECOND DERIVATIVES

          ESTIMATED TIME TO COMPLETE CALCULATION =        6.24 SECONDS

    FOR POINT-GROUP C1   THERE ARE   1 UNIQUE SYMMETRY FUNCTIONS.

 STEP:   1 TIME =     0.08 SECS, INTEGRAL =      0.08 TIME LEFT: 172799.90
 STEP:   2 TIME =     0.08 SECS, INTEGRAL =      0.16 TIME LEFT: 172799.82
 STEP:   3 TIME =     0.08 SECS, INTEGRAL =      0.24 TIME LEFT: 172799.74
 STEP:   4 TIME =     0.08 SECS, INTEGRAL =      0.32 TIME LEFT: 172799.66
 STEP:   5 TIME =     0.08 SECS, INTEGRAL =      0.40 TIME LEFT: 172799.58
 STEP:   6 TIME =     0.09 SECS, INTEGRAL =      0.49 TIME LEFT: 172799.49
 STEP:   7 TIME =     0.08 SECS, INTEGRAL =      0.57 TIME LEFT: 172799.41
 STEP:   8 TIME =     0.08 SECS, INTEGRAL =      0.65 TIME LEFT: 172799.33
 STEP:   9 TIME =     0.08 SECS, INTEGRAL =      0.73 TIME LEFT: 172799.25
 STEP:  10 TIME =     0.08 SECS, INTEGRAL =      0.81 TIME LEFT: 172799.17
 STEP:  11 TIME =     0.08 SECS, INTEGRAL =      0.89 TIME LEFT: 172799.09
 STEP:  12 TIME =     0.08 SECS, INTEGRAL =      0.97 TIME LEFT: 172799.01
 STEP:  13 TIME =     0.08 SECS, INTEGRAL =      1.05 TIME LEFT: 172798.93
 STEP:  14 TIME =     0.08 SECS, INTEGRAL =      1.13 TIME LEFT: 172798.85
 STEP:  15 TIME =     0.08 SECS, INTEGRAL =      1.21 TIME LEFT: 172798.77
 STEP:  16 TIME =     0.08 SECS, INTEGRAL =      1.29 TIME LEFT: 172798.69
 STEP:  17 TIME =     0.08 SECS, INTEGRAL =      1.37 TIME LEFT: 172798.61
 STEP:  18 TIME =     0.08 SECS, INTEGRAL =      1.45 TIME LEFT: 172798.53
 STEP:  19 TIME =     0.08 SECS, INTEGRAL =      1.53 TIME LEFT: 172798.45
 STEP:  20 TIME =     0.08 SECS, INTEGRAL =      1.61 TIME LEFT: 172798.37
 STEP:  21 TIME =     0.08 SECS, INTEGRAL =      1.69 TIME LEFT: 172798.29
 STEP:  22 TIME =     0.08 SECS, INTEGRAL =      1.77 TIME LEFT: 172798.21
 STEP:  23 TIME =     0.08 SECS, INTEGRAL =      1.85 TIME LEFT: 172798.13
 STEP:  24 TIME =     0.08 SECS, INTEGRAL =      1.93 TIME LEFT: 172798.05
 STEP:  25 TIME =     0.08 SECS, INTEGRAL =      2.01 TIME LEFT: 172797.97
 STEP:  26 TIME =     0.08 SECS, INTEGRAL =      2.09 TIME LEFT: 172797.89
 STEP:  27 TIME =     0.08 SECS, INTEGRAL =      2.17 TIME LEFT: 172797.81
 STEP:  28 TIME =     0.08 SECS, INTEGRAL =      2.25 TIME LEFT: 172797.73
 STEP:  29 TIME =     0.09 SECS, INTEGRAL =      2.34 TIME LEFT: 172797.64
 STEP:  30 TIME =     0.08 SECS, INTEGRAL =      2.42 TIME LEFT: 172797.56
 STEP:  31 TIME =     0.08 SECS, INTEGRAL =      2.50 TIME LEFT: 172797.48
 STEP:  32 TIME =     0.09 SECS, INTEGRAL =      2.59 TIME LEFT: 172797.39
 STEP:  33 TIME =     0.08 SECS, INTEGRAL =      2.67 TIME LEFT: 172797.31
 STEP:  34 TIME =     0.09 SECS, INTEGRAL =      2.76 TIME LEFT: 172797.22
 STEP:  35 TIME =     0.08 SECS, INTEGRAL =      2.84 TIME LEFT: 172797.14
 STEP:  36 TIME =     0.08 SECS, INTEGRAL =      2.92 TIME LEFT: 172797.06
 STEP:  37 TIME =     0.08 SECS, INTEGRAL =      3.00 TIME LEFT: 172796.98
 STEP:  38 TIME =     0.08 SECS, INTEGRAL =      3.08 TIME LEFT: 172796.90
 STEP:  39 TIME =     0.09 SECS, INTEGRAL =      3.17 TIME LEFT: 172796.81
 STEP:  40 TIME =     0.08 SECS, INTEGRAL =      3.25 TIME LEFT: 172796.73
 STEP:  41 TIME =     0.08 SECS, INTEGRAL =      3.33 TIME LEFT: 172796.65
 STEP:  42 TIME =     0.07 SECS, INTEGRAL =      3.40 TIME LEFT: 172796.58
 STEP:  43 TIME =     0.08 SECS, INTEGRAL =      3.48 TIME LEFT: 172796.50
 STEP:  44 TIME =     0.08 SECS, INTEGRAL =      3.56 TIME LEFT: 172796.42
 STEP:  45 TIME =     0.08 SECS, INTEGRAL =      3.64 TIME LEFT: 172796.34
 STEP:  46 TIME =     0.09 SECS, INTEGRAL =      3.73 TIME LEFT: 172796.25
 STEP:  47 TIME =     0.08 SECS, INTEGRAL =      3.81 TIME LEFT: 172796.17
 STEP:  48 TIME =     0.08 SECS, INTEGRAL =      3.89 TIME LEFT: 172796.09
 STEP:  49 TIME =     0.08 SECS, INTEGRAL =      3.97 TIME LEFT: 172796.01
 STEP:  50 TIME =     0.09 SECS, INTEGRAL =      4.06 TIME LEFT: 172795.92
 STEP:  51 TIME =     0.08 SECS, INTEGRAL =      4.14 TIME LEFT: 172795.84
 STEP:  52 TIME =     0.08 SECS, INTEGRAL =      4.22 TIME LEFT: 172795.76
 STEP:  53 TIME =     0.08 SECS, INTEGRAL =      4.30 TIME LEFT: 172795.68
 STEP:  54 TIME =     0.07 SECS, INTEGRAL =      4.37 TIME LEFT: 172795.61
 STEP:  55 TIME =     0.09 SECS, INTEGRAL =      4.46 TIME LEFT: 172795.52
 STEP:  56 TIME =     0.09 SECS, INTEGRAL =      4.55 TIME LEFT: 172795.43
 STEP:  57 TIME =     0.08 SECS, INTEGRAL =      4.63 TIME LEFT: 172795.35
 STEP:  58 TIME =     0.08 SECS, INTEGRAL =      4.71 TIME LEFT: 172795.27
 STEP:  59 TIME =     0.08 SECS, INTEGRAL =      4.79 TIME LEFT: 172795.19
 STEP:  60 TIME =     0.09 SECS, INTEGRAL =      4.88 TIME LEFT: 172795.10
 STEP:  61 TIME =     0.08 SECS, INTEGRAL =      4.96 TIME LEFT: 172795.02
 STEP:  62 TIME =     0.08 SECS, INTEGRAL =      5.04 TIME LEFT: 172794.94
 STEP:  63 TIME =     0.08 SECS, INTEGRAL =      5.12 TIME LEFT: 172794.86
 STEP:  64 TIME =     0.08 SECS, INTEGRAL =      5.20 TIME LEFT: 172794.78
 STEP:  65 TIME =     0.08 SECS, INTEGRAL =      5.28 TIME LEFT: 172794.70
 STEP:  66 TIME =     0.09 SECS, INTEGRAL =      5.37 TIME LEFT: 172794.61
 STEP:  67 TIME =     0.08 SECS, INTEGRAL =      5.45 TIME LEFT: 172794.53
 STEP:  68 TIME =     0.08 SECS, INTEGRAL =      5.53 TIME LEFT: 172794.45
 STEP:  69 TIME =     0.08 SECS, INTEGRAL =      5.61 TIME LEFT: 172794.37
 STEP:  70 TIME =     0.08 SECS, INTEGRAL =      5.69 TIME LEFT: 172794.29
 STEP:  71 TIME =     0.09 SECS, INTEGRAL =      5.78 TIME LEFT: 172794.20
 STEP:  72 TIME =     0.08 SECS, INTEGRAL =      5.86 TIME LEFT: 172794.12
 STEP:  73 TIME =     0.08 SECS, INTEGRAL =      5.94 TIME LEFT: 172794.04
 STEP:  74 TIME =     0.08 SECS, INTEGRAL =      6.02 TIME LEFT: 172793.96
 STEP:  75 TIME =     0.09 SECS, INTEGRAL =      6.11 TIME LEFT: 172793.87
 STEP:  76 TIME =     0.09 SECS, INTEGRAL =      6.20 TIME LEFT: 172793.78
 STEP:  77 TIME =     0.08 SECS, INTEGRAL =      6.28 TIME LEFT: 172793.70
 STEP:  78 TIME =     0.08 SECS, INTEGRAL =      6.36 TIME LEFT: 172793.62

(To convert to Hartree/Bohr^2, multiply by (10^(-21) x N x a0^2)/(4.184 x 627.51) = 0.0642)


           FORCE MATRIX IN MILLIDYNES/ANGSTROM


                  C  1       C  2       C  3       C  4       C  5       C  6
 ------------------------------------------------------------------------------
     C    1  14.251505
     C    2   2.714114  14.236692
     C    3   2.607753   1.989862  14.521990
     C    4   1.845014   3.267627   3.146972  14.359617
     C    5   0.585977   3.875699   0.139027   0.694290  14.539780
     C    6   4.394401   0.443934   0.438272   0.049727   0.058419  14.512569
     C    7   4.145304   0.549228   0.548478   0.101071   0.049574   0.728796
     C    8   0.028336   0.002836   0.559076   0.028581   0.130612   0.003198
     C    9   0.646153   0.137403   4.369639   0.771731   0.852951   0.074026
     C   10   0.085273   0.711647   0.906958   0.128149   4.528430   0.072015
     H   11   0.407850   4.632089   0.043828   0.403180   0.424885   0.015346
     H   12   0.402905   0.042875   4.648400   0.398647   0.003450   0.014268
     H   13   0.042025   0.432392   0.428158   4.721073   0.042235   0.007936
     H   14   0.050447   0.445756   0.446292   4.656822   0.048270   0.001778
     H   15   0.046552   0.436681   0.010671   0.018343   4.467429   0.004557
     H   16   0.013756   0.436886   0.010509   0.048724   4.450676   0.012237
     H   17   0.462001   0.042307   0.007524   0.005462   0.004842   4.718158
     H   18   0.459313   0.012950   0.042239   0.004539   0.006549   4.724068
     H   19   0.465365   0.009420   0.015290   0.003186   0.037444   4.690923
     H   20   0.462059   0.028256   0.023458   0.055082   0.001697   0.048859
     H   21   0.456319   0.012465   0.047395   0.003357   0.001993   0.035252
     H   22   0.456392   0.047046   0.014257   0.003102   0.008788   0.031837
     H   23   0.004599   0.000862   0.044035   0.004652   0.002518   0.000424
     H   24   0.001925   0.001126   0.018664   0.001078   0.017971   0.000553
     H   25   0.001370   0.001315   0.016318   0.001701   0.018148   0.000790
     H   26   0.009314   0.043298   0.102525   0.008277   0.419560   0.002324


                  C  7       C  8       C  9       C 10       H 11       H 12
 ------------------------------------------------------------------------------
     C    7  14.436453
     C    8   0.005955  14.798875
     C    9   0.050303   5.264833  18.349733
     C   10   0.007816   0.772966  10.014264  17.827820
     H   11   0.015677   0.001086   0.004282   0.047947   5.167370
     H   12   0.013924   0.027002   0.443454   0.046426   0.006964   5.175893
     H   13   0.003380   0.002841   0.053414   0.024234   0.015511   0.014741
     H   14   0.032367   0.004389   0.046728   0.006409   0.014290   0.013075
     H   15   0.009115   0.018215   0.034390   0.421308   0.023968   0.000591
     H   16   0.002491   0.018244   0.033274   0.424473   0.021150   0.000501
     H   17   0.048046   0.001002   0.002151   0.003825   0.002465   0.001485
     H   18   0.025884   0.000590   0.007536   0.001792   0.002611   0.002479
     H   19   0.048427   0.004122   0.066440   0.069036   0.000947   0.000959
     H   20   4.689832   0.000566   0.001382   0.001101   0.005389   0.003614
     H   21   4.732136   0.001407   0.008356   0.000918   0.006481   0.002604
     H   22   4.728286   0.000780   0.002255   0.001245   0.002566   0.007367
     H   23   0.001073   4.740831   0.470849   0.038461   0.000164   0.002040
     H   24   0.000904   4.701586   0.448175   0.032721   0.000281   0.009368
     H   25   0.000514   4.699757   0.446095   0.031575   0.000265   0.006990
     H   26   0.002035   0.066074   0.458416   4.873304   0.006782   0.006249


                  H 13       H 14       H 15       H 16       H 17       H 18
 ------------------------------------------------------------------------------
     H   13   5.365181
     H   14   0.534170   5.281396
     H   15   0.013366   0.002149   5.068371
     H   16   0.003565   0.008262   0.555617   5.055859
     H   17   0.001191   0.000329   0.000402   0.000874   5.452847
     H   18   0.001213   0.000430   0.000698   0.005937   0.564581   5.449841
     H   19   0.000560   0.000820   0.001025   0.029703   0.576570   0.567338
     H   20   0.000976   0.074231   0.000358   0.000553   0.002325   0.001488
     H   21   0.000402   0.000303   0.000612   0.000323   0.003037   0.020507
     H   22   0.000417   0.000348   0.001725   0.000470   0.029475   0.001697
     H   23   0.000464   0.000959   0.000512   0.000492   0.000125   0.000135
     H   24   0.000650   0.000210   0.003194   0.002129   0.000175   0.000200
     H   25   0.000441   0.000513   0.002137   0.003145   0.000782   0.000308
     H   26   0.001468   0.001967   0.022692   0.021391   0.000775   0.000739


                  H 19       H 20       H 21       H 22       H 23       H 24
 ------------------------------------------------------------------------------
     H   19   5.455146
     H   20   0.008301   5.412352
     H   21   0.002207   0.569760   5.462107
     H   22   0.001718   0.570007   0.564277   5.459539
     H   23   0.000517   0.000188   0.000301   0.000194   5.454070
     H   24   0.000560   0.000200   0.000237   0.000172   0.557802   5.415771
     H   25   0.001198   0.000195   0.000191   0.000245   0.558240   0.573597
     H   26   0.003070   0.000311   0.000459   0.000269   0.025254   0.007940


                  H 25       H 26
 ------------------------------
     H   25   5.411596
     H   26   0.007978   5.268713


          HEAT OF FORMATION =       7.219045 KCALS/MOLE

          ZERO POINT ENERGY     147.253 KCAL/MOL


           NORMAL COORDINATE ANALYSIS (Total motion = 1 Angstrom)


   Root No.       1         2         3         4         5         6         7         8

                 1 A       2 A       3 A       4 A       5 A       6 A       7 A       8 A   

                 121.5     136.0     150.3     184.9     203.3     239.2     309.1     330.0
  
           1   -0.0004    0.0006   -0.0022   -0.0034    0.0046   -0.0094    0.0000   -0.0021
           2   -0.0057    0.0033   -0.0052    0.0084   -0.0015   -0.0088    0.0012    0.0038
           3    0.0004    0.0025    0.0000   -0.0008    0.0032    0.0104    0.0112   -0.0050
           4   -0.0010    0.0014   -0.0025   -0.0031    0.0042   -0.0090    0.0018   -0.0052
           5    0.0058   -0.0034    0.0036   -0.0042   -0.0102   -0.0139   -0.0031   -0.0094
           6   -0.0026    0.0011    0.0018   -0.0011    0.0052    0.0183    0.0026    0.0068
           7   -0.0117    0.0072   -0.0117    0.0097    0.0138   -0.0061    0.0044    0.0089
           8   -0.0041    0.0019   -0.0044    0.0074   -0.0027   -0.0095   -0.0008    0.0113
           9    0.0069   -0.0051    0.0074   -0.0068   -0.0009    0.0120    0.0015   -0.0220
          10   -0.0120    0.0053   -0.0119    0.0102    0.0160   -0.0167   -0.0080    0.0105
          11    0.0081   -0.0060    0.0048   -0.0055   -0.0128   -0.0271   -0.0123   -0.0243
          12    0.0029   -0.0055    0.0038   -0.0028    0.0034   -0.0088   -0.0171   -0.0190
          13   -0.0053    0.0122   -0.0038   -0.0055   -0.0004    0.0109    0.0303   -0.0117
          14   -0.0004    0.0063   -0.0003   -0.0071    0.0025    0.0149    0.0210    0.0163
          15    0.0001   -0.0047    0.0024    0.0002    0.0085    0.0064   -0.0124    0.0057
          16    0.0136   -0.0150   -0.0060    0.0028    0.0311   -0.0248   -0.0136    0.0168
          17   -0.0236    0.0242   -0.0130    0.0131   -0.0297   -0.0229    0.0128   -0.0133
          18   -0.0012    0.0046   -0.0079    0.0067    0.0036   -0.0116    0.0086   -0.0040
          19    0.0001    0.0021    0.0158   -0.0056   -0.0387    0.0185    0.0096   -0.0004
          20   -0.0021   -0.0056   -0.0077    0.0017    0.0446    0.0287    0.0175   -0.0089
          21   -0.0014    0.0054   -0.0073    0.0036    0.0040   -0.0189    0.0011   -0.0014
          22    0.0226   -0.0186    0.0237   -0.0115   -0.0177   -0.0041    0.0040    0.0148
          23    0.0248   -0.0211    0.0226   -0.0128    0.0022   -0.0036    0.0001    0.0083
          24   -0.0102    0.0065   -0.0045    0.0050   -0.0266    0.0082   -0.0123    0.0487
          25   -0.0058    0.0030   -0.0037    0.0057   -0.0005    0.0100   -0.0036   -0.0107
          26   -0.0011   -0.0021   -0.0005    0.0035    0.0027    0.0084   -0.0130    0.0205
          27    0.0045   -0.0027    0.0047   -0.0047   -0.0031    0.0016    0.0057   -0.0194
          28   -0.0084    0.0073   -0.0052    0.0036   -0.0078    0.0323   -0.0287   -0.0311
          29   -0.0047    0.0030   -0.0027    0.0008    0.0018    0.0335   -0.0339    0.0060
          30    0.0045   -0.0039    0.0045   -0.0041    0.0059   -0.0078    0.0209   -0.0047
          31    0.0051   -0.0040    0.0021   -0.0101    0.0035   -0.0130   -0.0061   -0.0073
          32    0.0122   -0.0084    0.0081   -0.0101   -0.0160   -0.0255   -0.0114   -0.0259
          33   -0.0068    0.0037   -0.0012    0.0013    0.0142    0.0319    0.0078    0.0301
          34   -0.0182    0.0098   -0.0166    0.0169    0.0199   -0.0100    0.0021    0.0215
          35   -0.0088    0.0044   -0.0073    0.0133   -0.0029   -0.0103    0.0008    0.0116
          36    0.0114   -0.0063    0.0116   -0.0109   -0.0113    0.0161    0.0060   -0.0392
          37   -0.0164    0.0082   -0.0154    0.0156    0.0196   -0.0089   -0.0024    0.0214
          38    0.0125   -0.0074    0.0091   -0.0118   -0.0173   -0.0230   -0.0080   -0.0297
          39    0.0039   -0.0098    0.0017   -0.0013    0.0053   -0.0455   -0.0475   -0.0380
          40   -0.0140    0.0035   -0.0160    0.0131    0.0193   -0.0486   -0.0358    0.0055
          41    0.0116   -0.0109    0.0039   -0.0061   -0.0133   -0.0607   -0.0364   -0.0506
          42    0.0029   -0.0053    0.0038   -0.0028    0.0033   -0.0077   -0.0162   -0.0184
          43   -0.0058    0.0104   -0.0044   -0.0030   -0.0021    0.0129    0.0137   -0.0163
          44    0.0030    0.0161    0.0039   -0.0225    0.0130    0.0003    0.1164    0.0442
          45    0.0043   -0.0164    0.0028    0.0055    0.0065   -0.0148   -0.0526    0.0020
          46   -0.0046    0.0276    0.0007   -0.0230    0.0112    0.0071    0.1299    0.0136
          47   -0.0046    0.0081   -0.0031   -0.0039    0.0040    0.0324    0.0026    0.0191
          48   -0.0059    0.0013   -0.0007    0.0012    0.0132    0.0312   -0.0186    0.0154
          49    0.0110   -0.0106   -0.0043   -0.0006    0.0285   -0.0238   -0.0127    0.0145
          50   -0.0699    0.1366    0.0451   -0.0816   -0.0022   -0.0469   -0.0147   -0.0142
          51   -0.0124    0.0501    0.0215   -0.0355    0.0511   -0.0375   -0.0211    0.0190
          52    0.0573   -0.1183   -0.0575    0.0877    0.0107   -0.0028    0.0096    0.0208
          53   -0.0133   -0.0011   -0.0262    0.0347   -0.0365   -0.0175    0.0195   -0.0137
          54    0.0109   -0.0491   -0.0532    0.0711   -0.0525   -0.0041    0.0413   -0.0303
          55   -0.0135    0.0648    0.0388   -0.0681    0.0779   -0.0499   -0.0453    0.0349
          56   -0.0036   -0.0422   -0.0605    0.0845   -0.0767   -0.0101    0.0414   -0.0329
          57   -0.0030    0.0129    0.0013   -0.0060    0.0120   -0.0107    0.0044   -0.0002
          58   -0.0045   -0.0262   -0.0575   -0.0853   -0.0759    0.0472    0.0186    0.0025
          59    0.0063    0.0233    0.0932    0.0881    0.0852    0.0578    0.0353   -0.0188
          60   -0.0001    0.0025   -0.0024   -0.0017    0.0016    0.0097    0.0134   -0.0046
          61    0.0073    0.0444    0.1411    0.1065   -0.0374    0.0158    0.0127   -0.0019
          62   -0.0011   -0.0014    0.0056    0.0134    0.0478    0.0308    0.0191   -0.0098
          63   -0.0076   -0.0067   -0.0601   -0.0388   -0.0473   -0.0514   -0.0156    0.0096
          64   -0.0017   -0.0089   -0.0156   -0.0354   -0.0437    0.0228    0.0104    0.0001
          65   -0.0085   -0.0466   -0.1265   -0.1059    0.0452    0.0378    0.0180   -0.0087
          66    0.0022    0.0222    0.0342    0.0547    0.0580   -0.0399   -0.0049   -0.0054
          67   -0.0946   -0.0855    0.0680   -0.0268   -0.0296   -0.0175    0.0088    0.0533
          68   -0.0870   -0.0810    0.0582   -0.0270    0.0229   -0.0152    0.0188   -0.0451
          69    0.0573    0.0440   -0.0282    0.0137   -0.0286    0.0156   -0.0190    0.0521
          70    0.2049    0.0396    0.0019   -0.0146   -0.0241   -0.0052    0.0115    0.0041
          71    0.0634    0.0118   -0.0014   -0.0003   -0.0070    0.0065   -0.0149    0.0395
          72    0.0757    0.0626   -0.0418    0.0220   -0.0408    0.0222   -0.0320    0.0913
          73   -0.0076   -0.0251    0.0242   -0.0092   -0.0151   -0.0024    0.0018    0.0137
          74    0.1301   -0.0079    0.0307   -0.0265   -0.0109   -0.0139    0.0114    0.0206
          75   -0.1836   -0.0820    0.0497   -0.0118   -0.0322   -0.0066   -0.0056    0.0779
          76   -0.0070    0.0032   -0.0005    0.0018   -0.0178    0.0575   -0.0724   -0.0596
          77   -0.0057    0.0010    0.0002   -0.0017   -0.0001    0.0605   -0.0726   -0.0087
          78    0.0044   -0.0022    0.0024   -0.0029    0.0093   -0.0226    0.0443    0.0084


   Root No.       9        10        11        12        13        14        15        16

                 9 A      10 A      11 A      12 A      13 A      14 A      15 A      16 A   

                 368.2     419.6     442.9     492.0     515.2     591.5     660.8     740.8
  
           1    0.0003   -0.0173   -0.0229    0.0098    0.0280   -0.0007   -0.0134   -0.0263
           2    0.0077    0.0256    0.0063    0.0014   -0.0250   -0.0299   -0.0176   -0.0114
           3    0.0136    0.0055   -0.0004    0.0409    0.0012   -0.0058    0.0067   -0.0023
           4   -0.0046   -0.0205   -0.0296    0.0096    0.0177   -0.0025   -0.0128    0.0189
           5    0.0035    0.0036   -0.0227    0.0055   -0.0274   -0.0026    0.0133    0.0248
           6   -0.0072   -0.0019   -0.0017   -0.0082   -0.0408   -0.0004   -0.0284    0.0071
           7   -0.0040    0.0171   -0.0067   -0.0024    0.0253   -0.0079    0.0259    0.0162
           8    0.0079    0.0293    0.0042    0.0013   -0.0125   -0.0128   -0.0112    0.0113
           9    0.0011    0.0094    0.0003   -0.0167    0.0356    0.0048   -0.0042   -0.0077
          10   -0.0202    0.0031    0.0129    0.0126    0.0117   -0.0125    0.0255    0.0126
          11   -0.0051   -0.0001   -0.0052    0.0161   -0.0173    0.0106    0.0114    0.0068
          12   -0.0263   -0.0078    0.0345    0.0073   -0.0056    0.0170   -0.0192   -0.0034
          13   -0.0261   -0.0014    0.0059    0.0057   -0.0150   -0.0031   -0.0398    0.0331
          14   -0.0261   -0.0012   -0.0023   -0.0117   -0.0016    0.0006    0.0410   -0.0101
          15    0.0015   -0.0089   -0.0217   -0.0155   -0.0343    0.0028   -0.0162    0.0066
          16    0.0265   -0.0066    0.0151   -0.0337   -0.0053   -0.0031   -0.0173   -0.0208
          17    0.0095   -0.0274    0.0030   -0.0299    0.0032   -0.0038   -0.0180   -0.0176
          18    0.0298   -0.0175    0.0216    0.0092   -0.0035    0.0104    0.0311    0.0300
          19    0.0354    0.0040    0.0181    0.0190    0.0033   -0.0066    0.0026   -0.0163
          20    0.0191   -0.0212    0.0032    0.0209   -0.0040   -0.0070   -0.0003   -0.0125
          21   -0.0021    0.0143   -0.0168    0.0415    0.0038   -0.0227   -0.0077   -0.0291
          22   -0.0074   -0.0115   -0.0063    0.0012   -0.0313    0.0048    0.0182   -0.0142
          23   -0.0028    0.0043    0.0080   -0.0007    0.0443    0.0035   -0.0251    0.0170
          24   -0.0062   -0.0114   -0.0006    0.0002    0.0187   -0.0013   -0.0053    0.0080
          25    0.0077    0.0279   -0.0139   -0.0041   -0.0152    0.0536    0.0031   -0.0085
          26    0.0062    0.0185   -0.0001    0.0109    0.0292    0.0482   -0.0213    0.0023
          27   -0.0032    0.0127    0.0023   -0.0292    0.0339   -0.0254    0.0043    0.0073
          28   -0.0077    0.0081    0.0022   -0.0120   -0.0062   -0.0066    0.0012    0.0048
          29   -0.0134   -0.0069   -0.0004   -0.0095    0.0034   -0.0048    0.0233   -0.0087
          30    0.0000    0.0159   -0.0187   -0.0358   -0.0040    0.0101    0.0377   -0.0134
          31   -0.0088   -0.0418   -0.0550   -0.0041    0.0282    0.0200    0.0010    0.0296
          32    0.0024   -0.0101   -0.0333    0.0118   -0.0213    0.0170    0.0084    0.0453
          33   -0.0104   -0.0015   -0.0093   -0.0309   -0.0404   -0.0091   -0.0069   -0.0143
          34   -0.0139    0.0283    0.0135   -0.0078    0.0192   -0.0342    0.0345    0.0506
          35    0.0041    0.0512    0.0150   -0.0243   -0.0298   -0.0381   -0.0003    0.0392
          36    0.0111    0.0169   -0.0171   -0.0368    0.0250    0.0167   -0.0044   -0.0277
          37   -0.0119    0.0249    0.0187   -0.0007    0.0366   -0.0274    0.0363    0.0117
          38   -0.0009   -0.0183   -0.0311    0.0175   -0.0417    0.0164   -0.0122    0.0250
          39   -0.0681   -0.0232    0.0929    0.0475   -0.0147    0.0522    0.0187   -0.0513
          40   -0.0631   -0.0145    0.0599    0.0517   -0.0342    0.0198    0.0436   -0.0093
          41   -0.0397   -0.0038    0.0432    0.0417    0.0167    0.0417    0.0627   -0.0415
          42   -0.0252   -0.0072    0.0325    0.0060   -0.0053    0.0159   -0.0206   -0.0032
          43   -0.0190   -0.0027    0.0002    0.0071   -0.0140   -0.0084   -0.0375    0.0412
          44   -0.0674    0.0051    0.0294   -0.0188   -0.0068    0.0332    0.0228   -0.0532
          45    0.0354   -0.0301   -0.0718    0.0066   -0.0181   -0.0090   -0.0090    0.0523
          46   -0.0758    0.0162    0.0598   -0.0138   -0.0300    0.0310   -0.0676   -0.0183
          47   -0.0316   -0.0073    0.0058   -0.0122   -0.0019   -0.0063    0.0349   -0.0171
          48   -0.0159   -0.0143    0.0010   -0.0204   -0.0380   -0.0008   -0.0320   -0.0130
          49    0.0250   -0.0091    0.0108   -0.0296    0.0003   -0.0021   -0.0176   -0.0253
          50    0.0265   -0.0486   -0.0110   -0.0279    0.0330    0.0134   -0.0115   -0.0306
          51    0.0613   -0.0087    0.0603   -0.0350   -0.0414    0.0142    0.0388    0.0675
          52    0.0140    0.0179    0.0320   -0.0387   -0.0395   -0.0238   -0.0294   -0.0149
          53    0.0061   -0.0247    0.0064   -0.0321   -0.0024   -0.0064   -0.0201   -0.0160
          54    0.0139   -0.0681    0.0150   -0.0130    0.0336    0.0485    0.0453    0.0414
          55    0.0572   -0.0065    0.0470   -0.0716   -0.0279    0.0106   -0.0098    0.0072
          56   -0.0038   -0.0646    0.0057   -0.0552    0.0240    0.0276   -0.0089   -0.0058
          57    0.0282   -0.0020    0.0127    0.0291   -0.0067   -0.0062    0.0255    0.0183
          58    0.0748    0.0126    0.0501    0.0238   -0.0090   -0.0052    0.0251    0.0117
          59    0.0296   -0.0545    0.0041    0.0334    0.0034    0.0109    0.0183    0.0065
          60    0.0234    0.0041    0.0019    0.0499    0.0001   -0.0133    0.0134   -0.0051
          61    0.0354    0.0226    0.0305    0.0169   -0.0082   -0.0188    0.0047   -0.0127
          62    0.0200   -0.0235    0.0038    0.0219   -0.0041   -0.0060    0.0015   -0.0106
          63   -0.0100    0.0629   -0.0116    0.0242   -0.0115   -0.0531   -0.0313   -0.0522
          64    0.0412    0.0018    0.0207    0.0205    0.0040   -0.0043    0.0059   -0.0138
          65    0.0257   -0.0438   -0.0054    0.0279    0.0075    0.0060    0.0027   -0.0167
          66   -0.0388   -0.0142   -0.0585    0.0396    0.0251   -0.0163   -0.0315   -0.0630
          67   -0.0193   -0.0466   -0.0019    0.0158   -0.0433   -0.0300    0.0296   -0.0123
          68   -0.0004    0.0266    0.0111   -0.0273    0.0600   -0.0233   -0.0235    0.0288
          69   -0.0033   -0.0070   -0.0030    0.0030    0.0181    0.0170   -0.0091    0.0043
          70   -0.0174   -0.0293    0.0016   -0.0109   -0.0285   -0.0643    0.0358   -0.0027
          71    0.0000    0.0007    0.0032    0.0166    0.0373    0.0447   -0.0349    0.0095
          72   -0.0039   -0.0199   -0.0064    0.0227    0.0090    0.0456   -0.0153   -0.0015
          73   -0.0042   -0.0045   -0.0087    0.0027   -0.0326    0.0236    0.0156   -0.0192
          74   -0.0203   -0.0345    0.0197   -0.0053    0.0476   -0.0902   -0.0091    0.0401
          75   -0.0150   -0.0367    0.0019    0.0110    0.0111   -0.0238    0.0007    0.0117
          76   -0.0133   -0.0039    0.0216   -0.0283    0.0255   -0.0712    0.0102   -0.0172
          77   -0.0267   -0.0394    0.0037   -0.0189   -0.0282   -0.0648    0.0243   -0.0261
          78    0.0051    0.0279   -0.0258   -0.0284   -0.0053    0.0457    0.0344   -0.0020


   Root No.      17        18        19        20        21        22        23        24

                17 A      18 A      19 A      20 A      21 A      22 A      23 A      24 A   

                 814.2     852.0     875.2     924.0     930.8     957.2     965.1     973.6
  
           1    0.0095    0.0228   -0.0043    0.0019    0.0042   -0.0012    0.0055   -0.0011
           2   -0.0136   -0.0243   -0.0013    0.0030   -0.0036    0.0020    0.0062   -0.0010
           3   -0.0009   -0.0007   -0.0024    0.0003   -0.0006   -0.0063   -0.0068   -0.0067
           4   -0.0102   -0.0307    0.0208   -0.0001    0.0079    0.0183   -0.0068   -0.0003
           5    0.0078   -0.0021   -0.0102   -0.0282   -0.0039   -0.0131    0.0138   -0.0004
           6    0.0084    0.0160   -0.0108   -0.0131   -0.0103   -0.0075    0.0100    0.0035
           7    0.0134    0.0090    0.0117    0.0212   -0.0169    0.0010   -0.0091    0.0055
           8    0.0121    0.0326    0.0220    0.0037    0.0308    0.0064    0.0002   -0.0061
           9   -0.0069   -0.0114    0.0222    0.0072   -0.0159   -0.0118    0.0183    0.0013
          10    0.0050   -0.0109   -0.0123   -0.0171   -0.0224   -0.0154    0.0177   -0.0034
          11    0.0192    0.0142   -0.0058    0.0200   -0.0268   -0.0062   -0.0012    0.0009
          12   -0.0063    0.0041    0.0517   -0.0250   -0.0020   -0.0007    0.0003    0.0058
          13   -0.0216   -0.0007   -0.0118    0.0187    0.0172   -0.0192   -0.0003    0.0006
          14   -0.0254   -0.0005    0.0133   -0.0119    0.0142   -0.0102    0.0062    0.0017
          15    0.0120   -0.0023   -0.0090    0.0313   -0.0023    0.0056   -0.0051   -0.0078
          16   -0.0023    0.0089    0.0000   -0.0057    0.0004   -0.0112   -0.0018   -0.0233
          17   -0.0082   -0.0098    0.0000   -0.0039   -0.0071   -0.0069   -0.0207    0.0090
          18    0.0064   -0.0012   -0.0008    0.0071    0.0040    0.0033    0.0072   -0.0034
          19    0.0017    0.0093   -0.0066    0.0000    0.0089    0.0060    0.0097    0.0267
          20   -0.0053   -0.0106   -0.0028    0.0056   -0.0016    0.0133    0.0214   -0.0048
          21   -0.0012    0.0010    0.0033   -0.0089   -0.0024    0.0005   -0.0171   -0.0002
          22    0.0009   -0.0037    0.0161   -0.0053    0.0095   -0.0050    0.0070   -0.0046
          23    0.0059   -0.0068   -0.0216   -0.0018    0.0040   -0.0075   -0.0026    0.0049
          24   -0.0004    0.0021   -0.0160   -0.0053    0.0043    0.0123   -0.0042   -0.0118
          25   -0.0001   -0.0041   -0.0047   -0.0036    0.0010    0.0061   -0.0046   -0.0012
          26    0.0012   -0.0046    0.0005   -0.0014   -0.0018    0.0039    0.0000   -0.0030
          27    0.0004    0.0026   -0.0137   -0.0079    0.0056    0.0028   -0.0011   -0.0009
          28   -0.0110    0.0129   -0.0129   -0.0051   -0.0114    0.0124   -0.0060    0.0009
          29   -0.0146    0.0073    0.0038    0.0046   -0.0119    0.0103   -0.0073    0.0008
          30    0.0030   -0.0088   -0.0195   -0.0020    0.0148   -0.0036   -0.0150    0.0081
          31    0.0112   -0.0304    0.0740   -0.0341    0.0224    0.0774   -0.0208   -0.0016
          32    0.0291   -0.0037    0.0394   -0.0479   -0.0018    0.0289   -0.0117    0.0009
          33   -0.0056    0.0166   -0.0369   -0.0099   -0.0008   -0.0170    0.0358   -0.0001
          34    0.0208    0.0192    0.0708    0.0063    0.0208    0.0244   -0.0423    0.0183
          35    0.0153    0.0397    0.0790    0.0075    0.0770    0.0329   -0.0213    0.0096
          36   -0.0136   -0.0171   -0.0050    0.0311   -0.0205   -0.0183    0.0451   -0.0009
          37    0.0115    0.0152    0.0458    0.0303   -0.0106   -0.0658    0.0497   -0.0048
          38    0.0259   -0.0083   -0.0310   -0.0510   -0.0675    0.0408   -0.0233    0.0086
          39   -0.0474   -0.0135   -0.0592    0.0312    0.0830    0.0259   -0.0374   -0.0118
          40   -0.0192   -0.0236   -0.1728   -0.0817    0.0498    0.0413   -0.0040   -0.0232
          41   -0.0191   -0.0025   -0.0285    0.1967    0.0402   -0.0145   -0.0287   -0.0023
          42   -0.0056    0.0046    0.0542   -0.0264   -0.0048   -0.0021    0.0027    0.0064
          43   -0.0418    0.0053   -0.0159    0.0162    0.0232   -0.0302    0.0019    0.0042
          44    0.0987   -0.0445    0.0409    0.0033   -0.0159    0.0571   -0.0055   -0.0207
          45   -0.0603   -0.0515    0.0270    0.0467    0.0773   -0.0223    0.0054   -0.0117
          46    0.1226   -0.0125   -0.0211    0.0334   -0.0476    0.0475   -0.0191   -0.0123
          47   -0.0464    0.0238    0.0233    0.0176   -0.0044   -0.0024    0.0063   -0.0080
          48    0.0092    0.0321    0.0023    0.0782   -0.0428    0.0300   -0.0085   -0.0242
          49    0.0003    0.0165   -0.0003   -0.0070    0.0025   -0.0167    0.0007   -0.0417
          50    0.0079    0.0398    0.0007   -0.0116    0.0116   -0.0218    0.0256   -0.0761
          51   -0.0082   -0.0429    0.0008    0.0163   -0.0073    0.0480    0.0134    0.1242
          52   -0.0237   -0.0471   -0.0010   -0.0015   -0.0236   -0.0019   -0.0616    0.0673
          53   -0.0116   -0.0194   -0.0003   -0.0032   -0.0113   -0.0044   -0.0296    0.0263
          54    0.0351    0.0561    0.0006    0.0078    0.0284    0.0226    0.1018   -0.0465
          55   -0.0067   -0.0110    0.0001   -0.0002   -0.0073    0.0229    0.0118    0.0571
          56    0.0083    0.0242    0.0000   -0.0059    0.0057    0.0118    0.0392    0.0021
          57    0.0005   -0.0107   -0.0008    0.0068    0.0007   -0.0130   -0.0205   -0.0203
          58   -0.0051   -0.0215    0.0220   -0.0147   -0.0241   -0.0197   -0.0738   -0.0598
          59    0.0117    0.0208    0.0075   -0.0294   -0.0035   -0.0326   -0.0876   -0.0110
          60    0.0025   -0.0020    0.0232   -0.0327   -0.0214   -0.0348   -0.1134   -0.0513
          61   -0.0184   -0.0430    0.0078    0.0161   -0.0182    0.0225    0.0294   -0.0480
          62   -0.0048   -0.0104   -0.0019    0.0036   -0.0026    0.0103    0.0134   -0.0085
          63   -0.0311   -0.0629    0.0061    0.0329   -0.0198    0.0631    0.1228   -0.0281
          64    0.0042    0.0144   -0.0059   -0.0047    0.0095   -0.0006   -0.0064    0.0277
          65    0.0156    0.0427   -0.0150   -0.0178    0.0218   -0.0105   -0.0232    0.0625
          66    0.0212    0.0696   -0.0279   -0.0143    0.0419    0.0138    0.0415    0.1414
          67   -0.0143    0.0089    0.0353    0.0315   -0.0424   -0.0157   -0.0020    0.0375
          68   -0.0049    0.0159   -0.0530   -0.0309    0.0331    0.0489   -0.0094   -0.0555
          69    0.0073   -0.0084   -0.0141   -0.0082    0.0119   -0.0003   -0.0001   -0.0075
          70   -0.0280    0.0365    0.0096    0.0037   -0.0179    0.0486   -0.0086   -0.0275
          71    0.0225   -0.0337   -0.0112    0.0105   -0.0005   -0.0555    0.0028    0.0456
          72    0.0185   -0.0297   -0.0012    0.0135   -0.0065   -0.0471    0.0015    0.0417
          73    0.0079   -0.0133    0.0211   -0.0111    0.0203   -0.0154    0.0132   -0.0048
          74   -0.0307    0.0407   -0.0404    0.0316   -0.0561    0.0406   -0.0334    0.0126
          75   -0.0088    0.0073   -0.0101    0.0238   -0.0332   -0.0015   -0.0140    0.0254
          76    0.1535   -0.0663   -0.0209   -0.0403    0.0610   -0.0208   -0.0030    0.0152
          77    0.1316   -0.0682    0.0170    0.0506    0.0650   -0.0339   -0.0060   -0.0107
          78   -0.0857    0.0351   -0.0213   -0.0033   -0.0271    0.0184   -0.0169    0.0070


   Root No.      25        26        27        28        29        30        31        32

                25 A      26 A      27 A      28 A      29 A      30 A      31 A      32 A   

                 977.2     994.8    1000.8    1020.7    1032.3    1058.6    1060.2    1096.4
  
           1    0.0034    0.0036    0.0112   -0.0036   -0.0028    0.0045    0.0029   -0.0145
           2    0.0031    0.0013    0.0101   -0.0037   -0.0006   -0.0083    0.0002   -0.0070
           3    0.0028    0.0002    0.0101   -0.0006   -0.0036   -0.0011   -0.0028    0.0059
           4    0.0026    0.0040    0.0070    0.0009    0.0087   -0.0048    0.0011   -0.0251
           5   -0.0033   -0.0224   -0.0013   -0.0049    0.0022    0.0044   -0.0121    0.0321
           6    0.0052    0.0070    0.0031    0.0109    0.0065    0.0182   -0.0160    0.0131
           7    0.0001    0.0208   -0.0028    0.0114   -0.0036    0.0038   -0.0025    0.0239
           8   -0.0017   -0.0066    0.0102   -0.0003    0.0121    0.0004    0.0170   -0.0375
           9    0.0066   -0.0074    0.0062    0.0072    0.0130   -0.0150    0.0081    0.0324
          10    0.0087   -0.0138   -0.0044   -0.0029    0.0025   -0.0099    0.0088   -0.0118
          11    0.0094    0.0167   -0.0072    0.0079   -0.0027    0.0009    0.0008   -0.0199
          12   -0.0054    0.0029    0.0022    0.0014   -0.0183   -0.0006   -0.0019   -0.0157
          13   -0.0074    0.0011   -0.0075    0.0033   -0.0138   -0.0025    0.0108    0.0028
          14    0.0064    0.0108    0.0010    0.0152    0.0025    0.0098    0.0014    0.0024
          15    0.0007   -0.0114   -0.0050   -0.0108    0.0024   -0.0076    0.0015    0.0042
          16   -0.0077    0.0032    0.0050   -0.0006   -0.0016   -0.0029   -0.0060    0.0124
          17    0.0107   -0.0014    0.0079   -0.0033   -0.0028    0.0058   -0.0008    0.0085
          18    0.0082    0.0066    0.0280   -0.0126   -0.0049    0.0007    0.0005   -0.0070
          19    0.0034   -0.0031   -0.0005   -0.0031   -0.0041   -0.0059   -0.0003    0.0086
          20   -0.0104    0.0065   -0.0061   -0.0021   -0.0063    0.0096   -0.0037    0.0026
          21   -0.0091   -0.0056   -0.0276    0.0060    0.0082    0.0011    0.0019    0.0010
          22    0.0162    0.0104   -0.0129   -0.0147    0.0022   -0.0045    0.0001    0.0012
          23   -0.0052    0.0114   -0.0084   -0.0167    0.0056    0.0035   -0.0055   -0.0048
          24    0.0178   -0.0044   -0.0100    0.0045   -0.0146    0.0014   -0.0020    0.0028
          25   -0.0029   -0.0089    0.0087    0.0192   -0.0085    0.0048    0.0030    0.0013
          26    0.0035   -0.0085    0.0062    0.0199   -0.0100    0.0012    0.0042    0.0088
          27    0.0044    0.0081   -0.0029   -0.0087    0.0100    0.0010   -0.0035   -0.0045
          28   -0.0060   -0.0053    0.0018   -0.0166    0.0108   -0.0020   -0.0205   -0.0129
          29   -0.0070   -0.0068   -0.0026   -0.0211   -0.0062   -0.0177   -0.0072   -0.0094
          30   -0.0250    0.0021    0.0000   -0.0048   -0.0235    0.0039    0.0095   -0.0230
          31   -0.0067   -0.0297    0.0162   -0.0351    0.0598    0.1288    0.0186    0.0317
          32   -0.0288   -0.0611   -0.0052   -0.0644   -0.0126    0.0581    0.0522    0.1091
          33    0.0375    0.0366    0.0174    0.0706    0.0788    0.0608   -0.1012   -0.0504
          34   -0.0285    0.0657   -0.0217   -0.0068   -0.0198   -0.0181   -0.0802    0.1422
          35   -0.0302    0.0288    0.0153   -0.0041    0.0651   -0.0635    0.0046    0.0933
          36    0.0178   -0.0364    0.0410    0.0305    0.0980   -0.0538    0.1120    0.0041
          37    0.0220   -0.1123   -0.0190   -0.0400   -0.0075    0.0574   -0.0040   -0.0461
          38   -0.0012    0.1282    0.0050    0.0474   -0.0100   -0.0773    0.0179   -0.0060
          39   -0.0170   -0.0089    0.0149    0.0067    0.0377    0.0147   -0.0117    0.0560
          40   -0.0193    0.0056    0.0319    0.0061    0.0649   -0.0359    0.0743    0.0544
          41    0.0240   -0.0231   -0.0223    0.0042    0.0227    0.0564   -0.0850    0.0364
          42   -0.0044    0.0033    0.0027    0.0021   -0.0192   -0.0011   -0.0018   -0.0186
          43   -0.0108    0.0091   -0.0113    0.0059   -0.0206    0.0095    0.0231    0.0065
          44    0.0287   -0.0438    0.0250    0.0060    0.0507   -0.0642   -0.0852   -0.0241
          45    0.0220   -0.0280    0.0001    0.0603    0.0220   -0.0847   -0.0834   -0.0287
          46   -0.0115   -0.0468    0.0005   -0.0485    0.0058   -0.0258   -0.0189   -0.0043
          47    0.0312    0.0549   -0.0071    0.0080    0.0221    0.0467    0.1019    0.0168
          48    0.0366    0.0446   -0.0159   -0.0308    0.0365    0.0435    0.1422    0.0233
          49   -0.0125    0.0065    0.0149   -0.0045   -0.0040   -0.0054   -0.0099    0.0180
          50   -0.0354    0.0082    0.0034    0.0015   -0.0009   -0.0158   -0.0151    0.0268
          51    0.0239   -0.0198   -0.0783    0.0328    0.0195    0.0133    0.0283   -0.0463
          52    0.0422   -0.0088    0.0059   -0.0028   -0.0051    0.0225    0.0051    0.0104
          53    0.0182   -0.0045    0.0037   -0.0018   -0.0024    0.0097    0.0016    0.0081
          54   -0.0616   -0.0002   -0.0663    0.0282    0.0199   -0.0292    0.0028   -0.0254
          55   -0.0138   -0.0215   -0.0963    0.0418    0.0185    0.0017    0.0102   -0.0095
          56   -0.0405   -0.0161   -0.0915    0.0400    0.0196   -0.0145    0.0020    0.0007
          57    0.0315    0.0192    0.0957   -0.0415   -0.0194    0.0081   -0.0044    0.0012
          58   -0.0183   -0.0073   -0.0486    0.0183    0.0281    0.0096    0.0092   -0.0199
          59    0.0041   -0.0212   -0.0337    0.0143    0.0291   -0.0126    0.0090   -0.0101
          60   -0.0148   -0.0208   -0.0678    0.0260    0.0432   -0.0001    0.0129   -0.0200
          61   -0.0316    0.0171   -0.0225    0.0014   -0.0058    0.0269   -0.0041   -0.0022
          62   -0.0105    0.0052   -0.0086   -0.0009   -0.0036    0.0093   -0.0030    0.0012
          63   -0.0498    0.0355   -0.0233   -0.0077   -0.0349    0.0423   -0.0149    0.0105
          64    0.0062   -0.0074   -0.0041   -0.0010    0.0010   -0.0098    0.0017    0.0076
          65    0.0207   -0.0190   -0.0026   -0.0014    0.0042   -0.0236    0.0023    0.0138
          66    0.0304   -0.0187    0.0077   -0.0114   -0.0188   -0.0337   -0.0025    0.0351
          67   -0.0762   -0.0176    0.0587    0.0327    0.0241   -0.0010    0.0103    0.0007
          68    0.0910   -0.0103   -0.0518    0.0028   -0.0511    0.0038   -0.0078    0.0054
          69    0.0184    0.0104   -0.0201   -0.0160   -0.0061    0.0003   -0.0046   -0.0002
          70    0.0244   -0.0493    0.0217    0.0678   -0.0389   -0.0034    0.0118    0.0178
          71   -0.0623    0.0441    0.0003   -0.0594    0.0473    0.0046   -0.0098   -0.0202
          72   -0.0606    0.0323    0.0076   -0.0424    0.0374    0.0026   -0.0058   -0.0156
          73    0.0267    0.0261   -0.0272   -0.0357    0.0091   -0.0072   -0.0018    0.0009
          74   -0.0689   -0.0667    0.0704    0.0900   -0.0248    0.0157    0.0056   -0.0023
          75   -0.0617   -0.0200    0.0413    0.0289    0.0043    0.0056    0.0034   -0.0048
          76   -0.0157    0.0266    0.0351    0.0808    0.0120    0.0798   -0.0132   -0.0399
          77   -0.0067   -0.0161   -0.0165    0.0239   -0.0811   -0.0477    0.0772    0.0403
          78   -0.0230   -0.0049   -0.0060   -0.0465   -0.0036   -0.0124   -0.0153   -0.0301


   Root No.      33        34        35        36        37        38        39        40

                33 A      34 A      35 A      36 A      37 A      38 A      39 A      40 A   

                1106.9    1114.8    1176.1    1190.3    1211.3    1232.3    1250.5    1268.9
  
           1   -0.0104    0.0103   -0.0064   -0.0400   -0.0002   -0.0022   -0.0200    0.0207
           2    0.0085   -0.0185   -0.0137    0.0407    0.0035   -0.0045    0.0233    0.0218
           3    0.0002    0.0060   -0.0201   -0.0026    0.0039    0.0021    0.0001    0.0332
           4   -0.0027   -0.0286   -0.0185   -0.0036    0.0192    0.0212    0.0289    0.0083
           5    0.0044   -0.0117   -0.0164   -0.0178    0.0036    0.0410   -0.0088   -0.0214
           6   -0.0133    0.0096   -0.0007    0.0052    0.0251   -0.0059    0.0014    0.0338
           7   -0.0140    0.0366   -0.0111    0.0245    0.0149    0.0301    0.0164   -0.0170
           8   -0.0108    0.0138   -0.0208   -0.0029   -0.0104    0.0024   -0.0308   -0.0063
           9   -0.0067   -0.0044   -0.0211   -0.0085   -0.0240   -0.0183   -0.0025    0.0008
          10    0.0059   -0.0198    0.0110    0.0025    0.0005   -0.0216   -0.0493    0.0036
          11   -0.0020    0.0071    0.0177   -0.0055   -0.0137   -0.0206    0.0496    0.0087
          12    0.0024    0.0016    0.0068    0.0031    0.0036    0.0195    0.0016   -0.0098
          13   -0.0023    0.0055    0.0038    0.0024   -0.0041   -0.0170   -0.0011   -0.0099
          14    0.0086    0.0073    0.0076    0.0016    0.0036    0.0012   -0.0064    0.0038
          15    0.0118    0.0003   -0.0031   -0.0054    0.0045   -0.0050   -0.0054   -0.0179
          16    0.0057   -0.0025    0.0032    0.0144    0.0011    0.0001    0.0056   -0.0026
          17   -0.0036    0.0080    0.0039   -0.0133   -0.0024    0.0001   -0.0061   -0.0047
          18   -0.0011   -0.0045    0.0079    0.0001   -0.0011   -0.0014   -0.0001   -0.0099
          19    0.0071   -0.0048    0.0053    0.0134   -0.0020   -0.0005    0.0045   -0.0068
          20   -0.0026    0.0077    0.0089   -0.0130    0.0000    0.0015   -0.0055   -0.0048
          21    0.0008   -0.0024    0.0101    0.0014   -0.0017   -0.0008   -0.0003   -0.0092
          22   -0.0054    0.0041   -0.0079    0.0001    0.0039   -0.0044    0.0015   -0.0012
          23    0.0018    0.0011    0.0114    0.0028    0.0008    0.0085   -0.0007    0.0009
          24   -0.0022   -0.0035    0.0095    0.0013    0.0074    0.0030    0.0027   -0.0005
          25    0.0084   -0.0092    0.0156   -0.0010   -0.0123    0.0141   -0.0042    0.0098
          26    0.0021   -0.0052   -0.0151   -0.0056    0.0013   -0.0235    0.0057   -0.0108
          27    0.0072    0.0081   -0.0138    0.0010   -0.0145   -0.0031   -0.0026   -0.0005
          28    0.0073    0.0040    0.0088    0.0023   -0.0136    0.0168   -0.0086    0.0084
          29   -0.0149    0.0023   -0.0097   -0.0013    0.0185   -0.0212    0.0112   -0.0102
          30   -0.0024   -0.0107    0.0034   -0.0002    0.0041   -0.0080    0.0035    0.0010
          31   -0.0651    0.0028    0.0497    0.1191   -0.0874   -0.1070   -0.0187    0.0012
          32    0.0242    0.0756    0.0174    0.0566    0.0254   -0.0510   -0.0519    0.0485
          33   -0.1000   -0.0963    0.0114    0.0082   -0.1093    0.0186    0.0271   -0.0822
          34    0.0290   -0.0623    0.0059   -0.0740   -0.0452   -0.0468    0.0435    0.0308
          35   -0.0210   -0.0910    0.1175   -0.1038    0.0657   -0.0464    0.0203    0.0366
[...]
 FREQ.      1423.93        C  4 --  H 13          +16.4% ( 44.2%)     3.2%
 T-DIPOLE    0.0304        C  4 --  H 14          +12.2% ( 38.2%)     5.5%
 TRAVEL      0.1253        C  6 --  H 17          +11.5% ( 37.0%)     2.6%
 RED. MASS   0.2294        C  6 --  H 19          +10.5% ( 35.4%)     4.2%
 EFF. MASS   3.0184

 VIBRATION   54   54A       ATOM PAIR        ENERGY CONTRIBUTION    RADIAL
 FREQ.      1444.85        C  1 --  C  6          +18.0% ( 58.5%)    98.2%
 T-DIPOLE    0.1242        C  6 --  H 19          +15.0% ( 53.3%)     4.9%
 TRAVEL      0.0885        C  6 --  H 17          +11.8% ( 47.3%)     4.2%
 RED. MASS   1.0275        C  1 --  C  4           +9.4% ( 42.2%)    95.2%
 EFF. MASS   5.9601

 VIBRATION   55   55A       ATOM PAIR        ENERGY CONTRIBUTION    RADIAL
 FREQ.      1475.37        C  8 --  C  9          +26.0% ( 78.4%)    82.9%
 T-DIPOLE    0.1402        C  3 --  C  9          +20.5% ( 69.7%)    89.6%
 TRAVEL      0.0661        C  9 --  C 10          +14.0% ( 57.5%)     4.9%
 RED. MASS   3.3587        C  8 --  H 24           +8.0% ( 43.5%)     3.1%
 EFF. MASS  10.4484

 VIBRATION   56   56A       ATOM PAIR        ENERGY CONTRIBUTION    RADIAL
 FREQ.      1862.49        C  9 --  C 10          +43.7% ( 97.4%)    98.4%
 T-DIPOLE    0.0630        C  8 --  C  9          +16.4% ( 59.7%)    51.8%
 TRAVEL      0.0553        C  3 --  C  9          +15.3% ( 57.7%)    13.8%
 RED. MASS   5.5361        C  5 --  C 10          +12.0% ( 50.9%)    42.8%
 EFF. MASS  11.8284        C 10 --  H 26          +11.3% ( 49.5%)     5.6%

 VIBRATION   57   57A       ATOM PAIR        ENERGY CONTRIBUTION    RADIAL
 FREQ.      2959.40        C  5 --  H 16          +51.6% ( 74.5%)    97.0%
 T-DIPOLE    0.0283        C  5 --  H 15          +46.1% ( 70.4%)    96.3%
 TRAVEL      0.1215        C  5 --  C 10           +1.1% ( 11.1%)     0.0%
 RED. MASS   0.5200        C  2 --  C  5           +1.1% ( 11.1%)     0.0%
 EFF. MASS   1.5427

 VIBRATION   58   58A       ATOM PAIR        ENERGY CONTRIBUTION    RADIAL
 FREQ.      3027.68        C  2 --  H 11          +63.6% ( 80.9%)   100.0%
 T-DIPOLE    0.0766        C  5 --  H 15          +14.6% ( 38.7%)    97.8%
 TRAVEL      0.1260        C  5 --  H 16          +13.1% ( 36.7%)    97.2%
 RED. MASS   0.4405        C  3 --  H 12           +3.7% ( 19.5%)   100.0%
 EFF. MASS   1.4020

 VIBRATION   59   59A       ATOM PAIR        ENERGY CONTRIBUTION    RADIAL
 FREQ.      3033.05        C  3 --  H 12          +45.1% ( 67.7%)   100.0%
 T-DIPOLE    0.1706        C  5 --  H 15          +22.4% ( 47.7%)    97.9%
 TRAVEL      0.1274        C  5 --  H 16          +19.8% ( 44.8%)    97.1%
 RED. MASS   0.2987        C  2 --  H 11           +8.8% ( 29.8%)   100.0%
 EFF. MASS   1.3694

 VIBRATION   60   60A       ATOM PAIR        ENERGY CONTRIBUTION    RADIAL
 FREQ.      3033.94        C  3 --  H 12          +37.3% ( 62.3%)   100.0%
 T-DIPOLE    0.0314        C  2 --  H 11          +17.0% ( 42.1%)   100.0%
 TRAVEL      0.1237        C  4 --  H 14          +12.5% ( 36.1%)    98.3%
 RED. MASS   0.2172        C  5 --  H 15          +11.9% ( 35.2%)    98.0%
 EFF. MASS   1.4529        C  5 --  H 16          +10.1% ( 32.4%)    97.0%

 VIBRATION   61   61A       ATOM PAIR        ENERGY CONTRIBUTION    RADIAL
 FREQ.      3043.75        C  4 --  H 14          +50.1% ( 73.4%)    98.6%
 T-DIPOLE    0.1086        C  4 --  H 13          +24.8% ( 51.6%)    94.4%
 TRAVEL      0.1205        C  3 --  H 12          +10.7% ( 33.9%)   100.0%
 RED. MASS   0.3581        C  2 --  H 11           +7.4% ( 28.1%)   100.0%
 EFF. MASS   1.5251

 VIBRATION   62   62A       ATOM PAIR        ENERGY CONTRIBUTION    RADIAL
 FREQ.      3067.33        C  8 --  H 25          +51.0% ( 73.7%)    97.3%
 T-DIPOLE    0.0265        C  8 --  H 24          +47.0% ( 70.7%)    96.7%
 TRAVEL      0.1210        C  8 --  C  9           +1.0% ( 10.2%)     0.0%
 RED. MASS   0.5099        C  8 --  H 23           +1.0% ( 10.1%)     1.3%
 EFF. MASS   1.5025

 VIBRATION   63   63A       ATOM PAIR        ENERGY CONTRIBUTION    RADIAL
 FREQ.      3068.63        C  7 --  H 20          +58.4% ( 78.9%)    99.2%
 T-DIPOLE    0.0365        C  7 --  H 22          +13.8% ( 38.3%)    84.1%
 TRAVEL      0.1209        C  7 --  H 21          +11.5% ( 35.1%)    80.9%
 RED. MASS   0.4037        C  6 --  H 19           +7.8% ( 28.8%)    98.6%
 EFF. MASS   1.5037

 VIBRATION   64   64A       ATOM PAIR        ENERGY CONTRIBUTION    RADIAL
 FREQ.      3071.32        C  6 --  H 19          +54.7% ( 76.4%)    98.6%
 T-DIPOLE    0.0998        C  6 --  H 17          +25.2% ( 51.8%)    92.0%
 TRAVEL      0.1204        C  7 --  H 20           +8.0% ( 29.3%)    99.1%
 RED. MASS   0.3987        C  6 --  H 18           +6.7% ( 26.7%)    66.2%
 EFF. MASS   1.5148

 VIBRATION   65   65A       ATOM PAIR        ENERGY CONTRIBUTION    RADIAL
 FREQ.      3076.01        C 10 --  H 26          +50.1% ( 72.4%)   100.0%
 T-DIPOLE    0.2397        C  8 --  H 23          +30.0% ( 56.0%)    98.8%
 TRAVEL      0.1200        C  8 --  H 24           +9.7% ( 31.8%)    86.9%
 RED. MASS   0.3645        C  8 --  H 25           +7.8% ( 28.6%)    83.4%
 EFF. MASS   1.5215

 VIBRATION   66   66A       ATOM PAIR        ENERGY CONTRIBUTION    RADIAL
 FREQ.      3077.89        C 10 --  H 26          +43.8% ( 67.7%)   100.0%
 T-DIPOLE    0.1892        C  8 --  H 23          +32.5% ( 58.4%)    98.7%
 TRAVEL      0.1201        C  8 --  H 24          +10.9% ( 33.8%)    87.1%
 RED. MASS   0.3273        C  8 --  H 25           +9.2% ( 31.0%)    84.3%
 EFF. MASS   1.5186

 VIBRATION   67   67A       ATOM PAIR        ENERGY CONTRIBUTION    RADIAL
 FREQ.      3078.22        C  6 --  H 18          +56.2% ( 77.3%)    98.3%
 T-DIPOLE    0.0405        C  6 --  H 17          +34.6% ( 60.6%)    94.7%
 TRAVEL      0.1206        C  6 --  H 19           +3.2% ( 18.5%)    41.3%
 RED. MASS   0.4633        C  7 --  H 21           +1.9% ( 14.1%)    97.4%
 EFF. MASS   1.5069

 VIBRATION   68   68A       ATOM PAIR        ENERGY CONTRIBUTION    RADIAL
 FREQ.      3080.81        C  7 --  H 21          +48.7% ( 72.0%)    97.3%
 T-DIPOLE    0.0126        C  7 --  H 22          +45.4% ( 69.5%)    96.8%
 TRAVEL      0.1206        C  6 --  H 18           +2.0% ( 14.4%)    97.2%
 RED. MASS   0.4714        C  6 --  H 17           +1.8% ( 14.0%)    96.8%
 EFF. MASS   1.5060

 VIBRATION   69   69A       ATOM PAIR        ENERGY CONTRIBUTION    RADIAL
 FREQ.      3105.16        C  4 --  H 13          +64.6% ( 79.9%)    98.6%
 T-DIPOLE    0.1027        C  4 --  H 14          +32.2% ( 56.4%)    93.4%
 TRAVEL      0.1297        C  1 --  C  4           +0.7% (  8.3%)    98.6%
 RED. MASS   0.5193        C  3 --  C  4           +0.7% (  8.2%)    50.0%
 EFF. MASS   1.2904

 VIBRATION   70   70A       ATOM PAIR        ENERGY CONTRIBUTION    RADIAL
 FREQ.      3166.10        C  8 --  H 23          +36.9% ( 58.5%)    97.6%
 T-DIPOLE    0.0596        C  8 --  H 24          +31.7% ( 54.3%)    96.8%
 TRAVEL      0.1367        C  8 --  H 25          +31.1% ( 53.7%)    96.7%
 RED. MASS   0.3286        C  8 --  C  9           +0.3% (  5.4%)    99.7%
 EFF. MASS   1.1389

 VIBRATION   71   71A       ATOM PAIR        ENERGY CONTRIBUTION    RADIAL
 FREQ.      3171.19        C  7 --  H 21          +33.2% ( 55.5%)    97.4%
 T-DIPOLE    0.0103        C  7 --  H 22          +32.6% ( 54.9%)    97.3%
 TRAVEL      0.1367        C  7 --  H 20          +26.4% ( 49.4%)    96.0%
 RED. MASS   0.2832        C  6 --  H 19           +2.6% ( 15.4%)    97.4%
 EFF. MASS   1.1372

 VIBRATION   72   72A       ATOM PAIR        ENERGY CONTRIBUTION    RADIAL
 FREQ.      3173.59        C  6 --  H 17          +31.4% ( 53.9%)    97.2%
 T-DIPOLE    0.0646        C  6 --  H 19          +30.7% ( 53.3%)    97.2%
 TRAVEL      0.1368        C  6 --  H 18          +30.2% ( 52.9%)    97.0%
 RED. MASS   0.2819        C  7 --  H 22           +2.7% ( 15.8%)    97.6%
 EFF. MASS   1.1357

 SYMMETRY NUMBER FOR POINT-GROUP C1  =  1


          SYSTEM IS A GROUND STATE


    NULL                                                                                                                                                                                                                                         
                                                                                                                                                                                                                                                 


          MOLECULE IS NOT LINEAR

          THERE ARE 72 GENUINE VIBRATIONS IN THIS SYSTEM
          THIS THERMODYNAMICS CALCULATION IS LIMITED TO
          MOLECULES WHICH HAVE NO INTERNAL ROTATIONS




                    CALCULATED THERMODYNAMIC PROPERTIES
                                          *
   TEMP. (K)   PARTITION FUNCTION   H.O.F.    ENTHALPY  HEAT CAPACITY ENTROPY
                                   KCAL/MOL   CAL/MOLE    CAL/K/MOL  CAL/K/MOL


 298.00  VIB.     0.1531D+03                  4463.5278    34.0443    24.9758
         ROT.     0.5211D+06                   888.2813     2.9808    29.1396
         INT.     0.7976D+08                  5351.8091    37.0251    54.1155
         TRA.     0.1537D+28                  1480.4688     4.9680    40.6375
         TOT.                        7.219    6832.2779    41.9931    94.7530

 200.00  VIB.     0.1448D+02                  1802.6821    20.6631    14.3254
         ROT.     0.2865D+06                   596.1620     2.9808    27.9509
         INT.     0.4150D+07                  2398.8440    23.6439    42.2764
         TRA.     0.8452D+27                   993.6033     4.9680    38.6564
         TOT.                        3.779    3392.4473    28.6119    80.9327

 210.00  VIB.     0.1820D+02                  2015.4982    21.9053    15.3635
         ROT.     0.3082D+06                   625.9700     2.9808    28.0964
         INT.     0.5610D+07                  2641.4683    24.8861    43.4599
         TRA.     0.9094D+27                  1043.2834     4.9680    38.8988
         TOT.                        4.072    3684.7517    29.8541    82.3587

 220.00  VIB.     0.2294D+02                  2240.8932    23.1790    16.4118
         ROT.     0.3305D+06                   655.7781     2.9808    28.2350
         INT.     0.7583D+07                  2896.6714    26.1598    44.6469
         TRA.     0.9752D+27                  1092.9636     4.9680    39.1299
         TOT.                        4.376    3989.6349    31.1278    83.7767

 230.00  VIB.     0.2900D+02                  2479.1836    24.4843    17.4709
         ROT.     0.3533D+06                   685.5862     2.9808    28.3676
         INT.     0.1025D+08                  3164.7698    27.4651    45.8384
         TRA.     0.1042D+28                  1142.6437     4.9680    39.3507
         TOT.                        4.694    4307.4136    32.4331    85.1891

 240.00  VIB.     0.3677D+02                  2730.6822    25.8204    18.5410
         ROT.     0.3766D+06                   715.3943     2.9808    28.4944
         INT.     0.1385D+08                  3446.0765    28.8012    47.0354
         TRA.     0.1111D+28                  1192.3239     4.9680    39.5621
         TOT.                        5.025    4638.4004    33.7692    86.5976

 250.00  VIB.     0.4674D+02                  2995.6878    27.1853    19.6226
         ROT.     0.4004D+06                   745.2024     2.9808    28.6161
         INT.     0.1871D+08                  3740.8902    30.1662    48.2387
         TRA.     0.1181D+28                  1242.0041     4.9680    39.7650
         TOT.                        5.370    4982.8943    35.1342    88.0037

 260.00  VIB.     0.5956D+02                  3274.4769    28.5766    20.7159
         ROT.     0.4246D+06                   775.0105     2.9808    28.7330
         INT.     0.2529D+08                  4049.4874    31.5574    49.4489
         TRA.     0.1253D+28                  1291.6842     4.9680    39.9598
         TOT.                        5.728    5341.1716    36.5254    89.4087

 270.00  VIB.     0.7610D+02                  3567.2973    29.9911    21.8208
         ROT.     0.4494D+06                   804.8186     2.9808    28.8455
         INT.     0.3420D+08                  4372.1159    32.9719    50.6663
         TRA.     0.1326D+28                  1341.3644     4.9680    40.1473
         TOT.                        6.100    5713.4803    37.9399    90.8136

 280.00  VIB.     0.9746D+02                  3874.3635    31.4252    22.9374
         ROT.     0.4746D+06                   834.6267     2.9808    28.9539
         INT.     0.4625D+08                  4708.9903    34.4060    51.8913
         TRA.     0.1400D+28                  1391.0445     4.9680    40.3280
         TOT.                        6.487    6100.0348    39.3740    92.2193

 290.00  VIB.     0.1251D+03                  4195.8541    32.8753    24.0654
         ROT.     0.5002D+06                   864.4348     2.9808    29.0585
         INT.     0.6259D+08                  5060.2889    35.8561    53.1239
         TRA.     0.1476D+28                  1440.7247     4.9680    40.5023
         TOT.                        6.888    6501.0136    40.8241    93.6262

 300.00  VIB.     0.1610D+03                  4531.9095    34.3375    25.2045
         ROT.     0.5263D+06                   894.2429     2.9808    29.1596
         INT.     0.8475D+08                  5426.1525    37.3183    54.3641
         TRA.     0.1553D+28                  1490.4049     4.9680    40.6707
         TOT.                        7.303    6916.5573    42.2864    95.0348

 310.00  VIB.     0.2077D+03                  4882.6325    35.8081    26.3544
         ROT.     0.5528D+06                   924.0510     2.9808    29.2573
         INT.     0.1148D+09                  5806.6835    38.7890    55.6117
         TRA.     0.1631D+28                  1540.0850     4.9680    40.8336
         TOT.                        7.734    7346.7685    43.7570    96.4454

 320.00  VIB.     0.2685D+03                  5248.0879    37.2834    27.5146
         ROT.     0.5798D+06                   953.8591     2.9808    29.3519
         INT.     0.1557D+09                  6201.9470    40.2642    56.8665
         TRA.     0.1711D+28                  1589.7652     4.9680    40.9914
         TOT.                        8.178    7791.7122    45.2322    97.8579

 330.00  VIB.     0.3479D+03                  5628.3047    38.7598    28.6845
         ROT.     0.6072D+06                   983.6672     2.9808    29.4437
         INT.     0.2112D+09                  6611.9719    41.7406    58.1281
         TRA.     0.1791D+28                  1639.4454     4.9680    41.1442
         TOT.                        8.638    8251.4172    46.7087    99.2724

 340.00  VIB.     0.4517D+03                  6023.2773    40.2341    29.8635
         ROT.     0.6350D+06                  1013.4753     2.9808    29.5326
         INT.     0.2868D+09                  7036.7526    43.2149    59.3961
         TRA.     0.1874D+28                  1689.1255     4.9680    41.2926
         TOT.                        9.113    8725.8781    48.1829   100.6887

 350.00  VIB.     0.5878D+03                  6432.9684    41.7030    31.0509
         ROT.     0.6632D+06                  1043.2834     2.9808    29.6191
         INT.     0.3898D+09                  7476.2518    44.6838    60.6700
         TRA.     0.1957D+28                  1738.8057     4.9680    41.4366
         TOT.                        9.602    9215.0575    49.6519   102.1066

 360.00  VIB.     0.7663D+03                  6857.3112    43.1640    32.2463
         ROT.     0.6919D+06                  1073.0915     2.9808    29.7030
         INT.     0.5302D+09                  7930.4027    46.1448    61.9493
         TRA.     0.2041D+28                  1788.4859     4.9680    41.5765
         TOT.                       10.106    9718.8885    51.1128   103.5258

 370.00  VIB.     0.1001D+04                  7296.2122    44.6143    33.4487
         ROT.     0.7209D+06                  1102.8996     2.9808    29.7847
         INT.     0.7216D+09                  8399.1118    47.5951    63.2334
         TRA.     0.2127D+28                  1838.1660     4.9680    41.7126
         TOT.                       10.624   10237.2778    52.5631   104.9460

 380.00  VIB.     0.1310D+04                  7749.5542    46.0518    34.6576
         ROT.     0.7503D+06                  1132.7077     2.9808    29.8642
         INT.     0.9830D+09                  8882.2619    49.0326    64.5218
         TRA.     0.2214D+28                  1887.8462     4.9680    41.8451
         TOT.                       11.157   10770.1081    54.0006   106.3669

 390.00  VIB.     0.1718D+04                  8217.1988    47.4745    35.8723
         ROT.     0.7801D+06                  1162.5158     2.9808    29.9416
         INT.     0.1340D+10                  9379.7146    50.4553    65.8139
         TRA.     0.2302D+28                  1937.5263     4.9680    41.9742
         TOT.                       11.704   11317.2410    55.4233   107.7881

 400.00  VIB.     0.2257D+04                  8698.9895    48.8807    37.0920
         ROT.     0.8103D+06                  1192.3239     2.9808    30.0171
         INT.     0.1829D+10                  9891.3134    51.8615    67.1091
         TRA.     0.2391D+28                  1987.2065     4.9680    42.1000
         TOT.                       12.265   11878.5199    56.8296   109.2090

   *: NOTE: HEATS OF FORMATION ARE RELATIVE TO THE
            ELEMENTS IN THEIR STANDARD STATE AT 298K
              (=  Standard Enthalpy of Formation).

            Hvib:  Zero-point energy is not included.
                   frequencies of less than zero cm-1 are not included.
            Hrot = (3/2)RT
            Htra = (3/2)RT + pV = (5/2)RT

            Heat capacity is Cp, not Cv

           For more information, see: HTTP://OpenMOPAC.net/Manual/thermochemistry.html


           FORCE CONSTANT IN CARTESIAN COORDINATES (Millidynes/A)

    ATOM   CHEMICAL       X               Y               Z
   NUMBER   SYMBOL  FORCE CONSTANT  FORCE CONSTANT  FORCE CONSTANT

      1       C        7.739217        7.352524        9.014838
      2       C        7.242435        8.741783        7.902220
      3       C        8.310273        7.528214        8.357622
      4       C        7.695471        7.368431        9.119961
      5       C        8.621721        8.440855        8.080553
      6       C        8.283891        8.263457        8.583699
      7       C        8.338816        8.324202        8.337901
      8       C        8.350778        8.678471        8.559364
      9       C        9.461417        9.007686        9.648944
     10       C        8.839709        7.686941       10.379932
     11       H        1.587184        3.131075        1.726428
     12       H        2.861087        1.901952        1.679781
     13       H        2.999610        2.613907        1.082447
     14       H        0.671648        0.664363        5.185041
     15       H        4.818607        0.806391        0.699786
     16       H        0.768142        3.550770        2.002727
     17       H        5.249240        0.695550        0.813650
     18       H        0.921558        5.102650        0.702644
     19       H        1.030682        1.492826        4.315210
     20       H        1.733125        1.372320        3.593799
     21       H        0.697975        5.327414        0.729469
     22       H        5.082799        0.927685        0.747325
     23       H        1.145707        0.955809        4.657271
     24       H        0.709179        3.620325        2.320767
     25       H        5.057752        0.919874        0.660858
     26       H        0.908186        0.880783        4.524801



 TOTAL CPU TIME:             9.37 SECONDS

 == MOPAC DONE ==
