 Entering Gaussian System, Link 0=/Local/ce_dana/g09/g09
 Initial command:
 /Local/ce_dana/g09/l1.exe "/storage/ce_dana/alongd/scratch/g09/Gau-199403.inp" -scrdir="/storage/ce_dana/alongd/scratch/g09/"
 Entering Link 1 = /Local/ce_dana/g09/l1.exe PID=    199407.
  
 Copyright (c) 1988,1990,1992,1993,1995,1998,2003,2009,2013,
            Gaussian, Inc.  All Rights Reserved.
  
 This is part of the Gaussian(R) 09 program.  It is based on
 the Gaussian(R) 03 system (copyright 2003, Gaussian, Inc.),
 the Gaussian(R) 98 system (copyright 1998, Gaussian, Inc.),
 the Gaussian(R) 94 system (copyright 1995, Gaussian, Inc.),
 the Gaussian 92(TM) system (copyright 1992, Gaussian, Inc.),
 the Gaussian 90(TM) system (copyright 1990, Gaussian, Inc.),
 the Gaussian 88(TM) system (copyright 1988, Gaussian, Inc.),
 the Gaussian 86(TM) system (copyright 1986, Carnegie Mellon
 University), and the Gaussian 82(TM) system (copyright 1983,
 Carnegie Mellon University). Gaussian is a federally registered
 trademark of Gaussian, Inc.
  
 This software contains proprietary and confidential information,
 including trade secrets, belonging to Gaussian, Inc.
  
 This software is provided under written license and may be
 used, copied, transmitted, or stored only in accord with that
 written license.
  
 The following legend is applicable only to US Government
 contracts under FAR:
  
                    RESTRICTED RIGHTS LEGEND
  
 Use, reproduction and disclosure by the US Government is
 subject to restrictions as set forth in subparagraphs (a)
 and (c) of the Commercial Computer Software - Restricted
 Rights clause in FAR 52.227-19.
  
 Gaussian, Inc.
 340 Quinnipiac St., Bldg. 40, Wallingford CT 06492
  
  
 ---------------------------------------------------------------
 Warning -- This program may not be used in any manner that
 competes with the business of Gaussian, Inc. or will provide
 assistance to any competitor of Gaussian, Inc.  The licensee
 of this program is prohibited from giving any competitor of
 Gaussian, Inc. access to this program.  By using this program,
 the user acknowledges that Gaussian, Inc. is engaged in the
 business of creating and licensing software in the field of
 computational chemistry and represents and warrants to the
 licensee that it is not a competitor of Gaussian, Inc. and that
 it will not use this program in any manner prohibited above.
 ---------------------------------------------------------------
  

 Cite this work as:
 Gaussian 09, Revision D.01,
 M. J. Frisch, G. W. Trucks, H. B. Schlegel, G. E. Scuseria, 
 M. A. Robb, J. R. Cheeseman, G. Scalmani, V. Barone, B. Mennucci, 
 G. A. Petersson, H. Nakatsuji, M. Caricato, X. Li, H. P. Hratchian, 
 A. F. Izmaylov, J. Bloino, G. Zheng, J. L. Sonnenberg, M. Hada, 
 M. Ehara, K. Toyota, R. Fukuda, J. Hasegawa, M. Ishida, T. Nakajima, 
 Y. Honda, O. Kitao, H. Nakai, T. Vreven, J. A. Montgomery, Jr., 
 J. E. Peralta, F. Ogliaro, M. Bearpark, J. J. Heyd, E. Brothers, 
 K. N. Kudin, V. N. Staroverov, T. Keith, R. Kobayashi, J. Normand, 
 K. Raghavachari, A. Rendell, J. C. Burant, S. S. Iyengar, J. Tomasi, 
 M. Cossi, N. Rega, J. M. Millam, M. Klene, J. E. Knox, J. B. Cross, 
 V. Bakken, C. Adamo, J. Jaramillo, R. Gomperts, R. E. Stratmann, 
 O. Yazyev, A. J. Austin, R. Cammi, C. Pomelli, J. W. Ochterski, 
 R. L. Martin, K. Morokuma, V. G. Zakrzewski, G. A. Voth, 
 P. Salvador, J. J. Dannenberg, S. Dapprich, A. D. Daniels, 
 O. Farkas, J. B. Foresman, J. V. Ortiz, J. Cioslowski, 
 and D. J. Fox, Gaussian, Inc., Wallingford CT, 2013.
 
 ******************************************
 Gaussian 09:  ES64L-G09RevD.01 24-Apr-2013
                12-Nov-2022 
 ******************************************
 %chk=check.chk
 %mem=7168mb
 %NProcShared=10
 Will use up to   10 processors via shared memory.
 ----------------------------------------------------------------------
 #P guess=read ub2plypd3/def2tzvp freq IOp(7/33=1) scf=(tight, direct) 
 integral=(grid=ultrafine, Acc2E=12) IOp(2/9=2000) scf=xqc
 ----------------------------------------------------------------------
 1/10=4,30=1,38=1/1,3;
 2/9=2000,12=2,17=6,18=5,40=1/2;
 3/5=44,7=101,11=2,16=1,25=1,30=1,71=2,74=-60,75=-5,116=2,140=1/1,2,3;
 4/5=1/1;
 5/5=2,8=3,13=1,32=2,38=6,87=12,98=1/2,8;
 8/6=3,8=1,10=1,19=11,30=-1,87=12/1;
 9/15=3,16=-3,87=12/6;
 11/6=1,8=1,15=11,17=12,24=-1,27=1,28=-2,29=300,32=6,42=3,87=12/1,2,10;
 10/6=2,21=1,87=12/2;
 8/6=4,8=1,10=1,19=11,30=-1,87=12/11,4;
 10/5=1,20=4,87=12/2;
 11/12=2,14=11,16=1,17=2,28=-2,42=3,87=12/2,10,12;
 6/7=2,8=2,9=2,10=2/1;
 7/8=1,10=1,12=2,25=1,33=1,44=2,87=12/1,2,3,16;
 1/10=4,30=1/3;
 99//99;
 Leave Link    1 at Sat Nov 12 21:49:53 2022, MaxMem=   939524096 cpu:         0.1
 (Enter /Local/ce_dana/g09/l101.exe)
 ---------
 Hydrazino
 ---------
 Symbolic Z-matrix:
 Charge =  0 Multiplicity = 2
 N                    -0.42486   0.00193   0.16965 
 N                     0.78888  -0.52687  -0.08287 
 H                    -1.18373  -0.64514   0.02967 
 H                    -0.63118   0.95854  -0.08522 
 H                     1.43572   0.26253  -0.11179 
 
 NAtoms=      5 NQM=        5 NQMF=       0 NMMI=      0 NMMIF=      0
                NMic=       0 NMicF=      0.
                    Isotopes and Nuclear Properties:
 (Nuclear quadrupole moments (NQMom) in fm**2, nuclear magnetic moments (NMagM)
  in nuclear magnetons)

  Atom         1           2           3           4           5
 IAtWgt=          14          14           1           1           1
 AtmWgt=  14.0030740  14.0030740   1.0078250   1.0078250   1.0078250
 NucSpn=           2           2           1           1           1
 AtZEff=   0.0000000   0.0000000   0.0000000   0.0000000   0.0000000
 NQMom=    2.0440000   2.0440000   0.0000000   0.0000000   0.0000000
 NMagM=    0.4037610   0.4037610   2.7928460   2.7928460   2.7928460
 AtZNuc=   7.0000000   7.0000000   1.0000000   1.0000000   1.0000000
 Leave Link  101 at Sat Nov 12 21:49:53 2022, MaxMem=   939524096 cpu:         0.1
 (Enter /Local/ce_dana/g09/l103.exe)

 GradGradGradGradGradGradGradGradGradGradGradGradGradGradGradGradGradGrad
 Berny optimization.
 Initialization pass.
 Trust Radius=3.00D-01 FncErr=1.00D-07 GrdErr=1.00D-07
 Number of steps in this run=      2 maximum allowed number of steps=      2.
 GradGradGradGradGradGradGradGradGradGradGradGradGradGradGradGradGradGrad

 Leave Link  103 at Sat Nov 12 21:49:53 2022, MaxMem=   939524096 cpu:         0.1
 (Enter /Local/ce_dana/g09/l202.exe)
                          Input orientation:                          
 ---------------------------------------------------------------------
 Center     Atomic      Atomic             Coordinates (Angstroms)
 Number     Number       Type             X           Y           Z
 ---------------------------------------------------------------------
      1          7           0       -0.424857    0.001928    0.169650
      2          7           0        0.788879   -0.526866   -0.082867
      3          1           0       -1.183732   -0.645140    0.029666
      4          1           0       -0.631184    0.958544   -0.085218
      5          1           0        1.435724    0.262534   -0.111787
 ---------------------------------------------------------------------
                    Distance matrix (angstroms):
                    1          2          3          4          5
     1  N    0.000000
     2  N    1.347792   0.000000
     3  H    1.007067   1.979355   0.000000
     4  H    1.011258   2.055001   1.700091   0.000000
     5  H    1.899706   1.020979   2.775866   2.181111   0.000000
 Stoichiometry    H3N2(2)
 Framework group  C1[X(H3N2)]
 Deg. of freedom     9
 Full point group                 C1      NOp   1
 Largest Abelian subgroup         C1      NOp   1
 Largest concise Abelian subgroup C1      NOp   1
                         Standard orientation:                         
 ---------------------------------------------------------------------
 Center     Atomic      Atomic             Coordinates (Angstroms)
 Number     Number       Type             X           Y           Z
 ---------------------------------------------------------------------
      1          7           0        0.594914    0.024548   -0.072558
      2          7           0       -0.737934   -0.150898    0.023768
      3          1           0        1.127799   -0.797550    0.160621
      4          1           0        1.019315    0.898406    0.208332
      5          1           0       -1.145975    0.783596   -0.027425
 ---------------------------------------------------------------------
 Rotational constants (GHZ):    205.3724269     30.8120483     27.1858800
 Leave Link  202 at Sat Nov 12 21:49:53 2022, MaxMem=   939524096 cpu:         0.0
 (Enter /Local/ce_dana/g09/l301.exe)
 Standard basis: def2TZVP (5D, 7F)
 Ernie: Thresh=  0.10000D-02 Tol=  0.10000D-05 Strict=F.
 There are    90 symmetry adapted cartesian basis functions of A   symmetry.
 There are    80 symmetry adapted basis functions of A   symmetry.
    80 basis functions,   126 primitive gaussians,    90 cartesian basis functions
     9 alpha electrons        8 beta electrons
       nuclear repulsion energy        36.5764233089 Hartrees.
 IExCor=  419 DFT=T Ex+Corr=B2PLYPD3 ExCW=0 ScaHFX=  0.530000
 ScaDFX=  0.470000  0.470000  0.730000  0.730000 ScalE2=  0.270000  0.270000
 IRadAn=      5 IRanWt=     -1 IRanGd=            0 ICorTp=0 IEmpDi=141
 NAtoms=    5 NActive=    5 NUniq=    5 SFac= 1.00D+00 NAtFMM=   60 NAOKFM=F Big=F
 Integral buffers will be    131072 words long.
 Raffenetti 2 integral format.
 Two-electron integral symmetry is turned on.
 R6Disp:  Grimme-D3(BJ) Dispersion energy=       -0.0011073464 Hartrees.
 Nuclear repulsion after empirical dispersion term =       36.5753159625 Hartrees.
 Leave Link  301 at Sat Nov 12 21:49:53 2022, MaxMem=   939524096 cpu:         0.1
 (Enter /Local/ce_dana/g09/l302.exe)
 NPDir=0 NMtPBC=     1 NCelOv=     1 NCel=       1 NClECP=     1 NCelD=      1
         NCelK=      1 NCelE2=     1 NClLst=     1 CellRange=     0.0.
 One-electron integrals computed using PRISM.
   1 Symmetry operations used in ECPInt.
 ECPInt:  NShTT=     595 NPrTT=    1764 LenC2=     595 LenP2D=    1624.
 LDataN:  DoStor=T MaxTD1= 6 Len=  172
 NBasis=    80 RedAO= T EigKep=  1.40D-03  NBF=    80
 NBsUse=    80 1.00D-06 EigRej= -1.00D+00 NBFU=    80
 Precomputing XC quadrature grid using
 IXCGrd= 4 IRadAn=           5 IRanWt=          -1 IRanGd=           0 AccXCQ= 0.00D+00.
 Generated NRdTot=       0 NPtTot=           0 NUsed=           0 NTot=          32
 NSgBfM=    90    90    90    90    90 MxSgAt=     5 MxSgA2=     5.
 Leave Link  302 at Sat Nov 12 21:49:53 2022, MaxMem=   939524096 cpu:         1.5
 (Enter /Local/ce_dana/g09/l303.exe)
 DipDrv:  MaxL=1.
 Leave Link  303 at Sat Nov 12 21:49:53 2022, MaxMem=   939524096 cpu:         0.1
 (Enter /Local/ce_dana/g09/l401.exe)
 Initial guess from the checkpoint file:  "check.chk"
 B after Tr=     0.000000   -0.000000    0.000000
         Rot=    1.000000   -0.000000    0.000000   -0.000000 Ang=   0.00 deg.
 Guess basis will be translated and rotated to current coordinates.
 JPrj=2 DoOrth=T DoCkMO=T.
 Initial guess <Sx>= 0.0000 <Sy>= 0.0000 <Sz>= 0.5000 <S**2>= 0.7585 S= 0.5042
 Leave Link  401 at Sat Nov 12 21:49:53 2022, MaxMem=   939524096 cpu:         0.3
 (Enter /Local/ce_dana/g09/l502.exe)
 UHF open shell SCF:
 Using DIIS extrapolation, IDIIS=  1040.
 Integral symmetry usage will be decided dynamically.
 Keep R1 and R2 ints in memory in canonical form, NReq=12508135.
 IVT=       31806 IEndB=       31806 NGot=   939524096 MDV=   928991451
 LenX=   928991451 LenY=   928982910
 Requested convergence on RMS density matrix=1.00D-08 within  64 cycles.
 Requested convergence on MAX density matrix=1.00D-06.
 Requested convergence on             energy=1.00D-06.
 No special actions if energy rises.
 FoFCou: FMM=F IPFlag=           0 FMFlag=           0 FMFlg1=           0
         NFxFlg=           0 DoJE=F BraDBF=F KetDBF=F FulRan=T
         wScrn=  0.000000 ICntrl=     600 IOpCl=  0 I1Cent=           0 NGrid=           0
         NMat0=    1 NMatS0=   3240 NMatT0=    0 NMatD0=    1 NMtDS0=    0 NMtDT0=    0
 Symmetry not used in FoFCou.

 Cycle   1  Pass 1  IDiag  1:
 E= -111.057339465106    
 DIIS: error= 4.69D-08 at cycle   1 NSaved=   1.
 NSaved= 1 IEnMin= 1 EnMin= -111.057339465106     IErMin= 1 ErrMin= 4.69D-08
 ErrMax= 4.69D-08  0.00D+00 EMaxC= 1.00D-01 BMatC= 1.41D-12 BMatP= 1.41D-12
 IDIUse=1 WtCom= 1.00D+00 WtEn= 0.00D+00
 Coeff-Com:  0.100D+01
 Coeff:      0.100D+01
 Gap=     0.325 Goal=   None    Shift=    0.000
 Gap=     0.386 Goal=   None    Shift=    0.000
 RMSDP=6.54D-09 MaxDP=6.80D-08              OVMax= 2.91D-07

 SCF Done:  E(UB2PLYPD3) =  -111.057339465     A.U. after    1 cycles
            NFock=  1  Conv=0.65D-08     -V/T= 2.0029
 <Sx>= 0.0000 <Sy>= 0.0000 <Sz>= 0.5000 <S**2>= 0.7585 S= 0.5042
 <L.S>=  0.00000000000    
 KE= 1.107339659062D+02 PE=-3.333930120723D+02 EE= 7.502639073848D+01
 Annihilation of the first spin contaminant:
 S**2 before annihilation     0.7585,   after     0.7500
 Leave Link  502 at Sat Nov 12 21:49:54 2022, MaxMem=   939524096 cpu:         4.7
 (Enter /Local/ce_dana/g09/l508.exe)
 QCSCF skips out because SCF is already converged.
 Leave Link  508 at Sat Nov 12 21:49:54 2022, MaxMem=   939524096 cpu:         0.0
 (Enter /Local/ce_dana/g09/l801.exe)
 DoSCS=T DFT=T ScalE2(SS,OS)=  0.270000  0.270000
 ExpMin= 1.03D-01 ExpMax= 1.97D+04 ExpMxC= 6.73D+02 IAcc=3 IRadAn=         5 AccDes= 0.00D+00
 HarFok:  IExCor=  205 AccDes= 0.00D+00 IRadAn=         5 IDoV=-2 UseB2=F ITyADJ=14
 ICtDFT= 12500011 ScaDFX=  1.000000  1.000000  1.000000  1.000000
 Largest valence mixing into a core orbital is  8.53D-05
 Largest core mixing into a valence orbital is  1.65D-05
 Largest valence mixing into a core orbital is  1.10D-04
 Largest core mixing into a valence orbital is  2.07D-05
 Range of M.O.s used for correlation:     3    80
 NBasis=    80 NAE=     9 NBE=     8 NFC=     2 NFV=     0
 NROrb=     78 NOA=     7 NOB=     6 NVA=    71 NVB=    72

 **** Warning!!: The largest alpha MO coefficient is  0.10235281D+02


 **** Warning!!: The largest beta MO coefficient is  0.10214200D+02

 Leave Link  801 at Sat Nov 12 21:49:54 2022, MaxMem=   939524096 cpu:         0.4
 (Enter /Local/ce_dana/g09/l906.exe)
 DoSCS=T DFT=T ScalE2(SS,OS)=  0.270000  0.270000
 Frozen-core derivative calculation, NFC=   2 NFV=   0.
 FulOut=F Deriv=T AODrv=T NAtomX=     5
   MMem=           0  MDisk=           7 MDiskD=           7
  W3Min=      129600 MinDsk=      314105 NBas6D=          90
 NBas2D=        4272    NTT=        4095    LW2=     7400000
    MDV=   939408981 MDiskM=       52078 NBas2p=        4271
 Disk-based method using ON**2 memory for  7 occupieds at a time.
 Permanent disk used for amplitudes=      529092 words.
 Estimated scratch disk usage=     9755300 words.
 IMap=   1   2   3   4   5   6   7   8   9
 Actual    scratch disk usage=     9755300 words.
 JobTyp=2 Pass  1:  I=   3 to   9 NPSUse= 10 ParTrn=T ParDer=T DoDerP=T.
 (rs|ai) integrals will be sorted in core.
 IMap=   1   2   3   4   5   6   7   8
 Actual    scratch disk usage=     9755300 words.
 JobTyp=3 Pass  1:  I=   3 to   8 NPSUse= 10 ParTrn=T ParDer=T DoDerP=T.
 (rs|ai) integrals will be sorted in core.
 Spin components of T(2) and E(2):
     alpha-alpha T2 =       0.2155040392D-01 E2=     -0.1705590281D-01
     alpha-beta  T2 =       0.1244791498D+00 E2=     -0.9673725891D-01
     beta-beta   T2 =       0.2222682439D-01 E2=     -0.1468479449D-01
 The integrals were generated   2 times.
 E2(B2PLYPD3) =    -0.1284779562D+00 E(B2PLYPD3) =    -0.11118581742131D+03
 Leave Link  906 at Sat Nov 12 21:50:12 2022, MaxMem=   939524096 cpu:       177.0
 (Enter /Local/ce_dana/g09/l1101.exe)
 Using compressed Sx but separate Hx and Fx, NAtomX=     5.
 Will process      6 centers per pass.
   1 Symmetry operations used in ECPInt.
 ECPInt:  NShTT=     595 NPrTT=    1764 LenC2=     595 LenP2D=    1624.
 LDataN:  DoStor=T MaxTD1= 7 Len=  274
 R6Disp: Adding Grimme-D3(BJ) dispersion energy 1st derivatives to the gradient.
 Leave Link 1101 at Sat Nov 12 21:50:13 2022, MaxMem=   939524096 cpu:         4.3
 (Enter /Local/ce_dana/g09/l1102.exe)
 Leave Link 1102 at Sat Nov 12 21:50:13 2022, MaxMem=   939524096 cpu:         0.1
 (Enter /Local/ce_dana/g09/l1110.exe)
 Forming Gx(P) for the SCF density, NAtomX=     5.
 Integral derivatives from FoFJK, PRISM(SPDF).
 Do as many integral derivatives as possible in FoFJK.
 G2DrvN: MDV=     939523952.
 G2DrvN: will do     6 centers at a time, making    1 passes.
 Calling FoFCou, ICntrl=  3107 FMM=F I1Cent=   0 AccDes= 1.00D-12.
 FoFJK:  IHMeth= 1 ICntrl=    3107 DoSepK=F KAlg= 0 I1Cent=   0 FoldK=F
 IRaf=         0 NMat=   1 IRICut=       1 DoRegI=T DoRafI=F ISym2E= 0.
 FoFCou: FMM=F IPFlag=           0 FMFlag=      100000 FMFlg1=           0
         NFxFlg=           0 DoJE=F BraDBF=F KetDBF=F FulRan=T
         wScrn=  0.000000 ICntrl=    3107 IOpCl=  1 I1Cent=           0 NGrid=           0
         NMat0=    1 NMatS0=      1 NMatT0=    0 NMatD0=    1 NMtDS0=    0 NMtDT0=    0
 Symmetry not used in FoFCou.
 End of G2Drv F.D. properties file   721 does not exist.
 End of G2Drv F.D. properties file   722 does not exist.
 End of G2Drv F.D. properties file   788 does not exist.
 Leave Link 1110 at Sat Nov 12 21:50:18 2022, MaxMem=   939524096 cpu:        53.7
 (Enter /Local/ce_dana/g09/l1002.exe)
 Minotr:  UHF open shell wavefunction.
          IDoAtm=11111
          Frozen-core window.
          Direct CPHF calculation.
          Differentiating once with respect to electric field.
                with respect to dipole field.
          Differentiating once with respect to nuclear coordinates.
          Requested convergence is 1.0D-08 RMS, and 1.0D-07 maximum.
          Secondary convergence is 1.0D-12 RMS, and 1.0D-12 maximum.
          NewPWx=T KeepS1=T KeepF1=T KeepIn=T MapXYZ=F SortEE=F KeepMc=T.
          MDV=     939523886 using IRadAn=       1.
 Generate precomputed XC quadrature information.
 Keep R1 and R2 ints in memory in canonical form, NReq=12491202.
 FoFCou: FMM=F IPFlag=           0 FMFlag=           0 FMFlg1=           0
         NFxFlg=           0 DoJE=F BraDBF=F KetDBF=F FulRan=T
         wScrn=  0.000000 ICntrl=     600 IOpCl=  0 I1Cent=           0 NGrid=           0
         NMat0=    1 NMatS0=   3240 NMatT0=    0 NMatD0=    1 NMtDS0=    0 NMtDT0=    0
 Symmetry not used in FoFCou.
          Solving linear equations simultaneously, MaxMat=       0.
          There are    18 degrees of freedom in the 1st order CPHF.  IDoFFX=6 NUNeed=    18.
     15 vectors produced by pass  0 Test12= 6.75D-15 5.56D-09 XBig12= 1.90D+01 2.61D+00.
 AX will form    15 AO Fock derivatives at one time.
     15 vectors produced by pass  1 Test12= 6.75D-15 5.56D-09 XBig12= 1.56D+00 4.15D-01.
     15 vectors produced by pass  2 Test12= 6.75D-15 5.56D-09 XBig12= 9.84D-02 7.76D-02.
     15 vectors produced by pass  3 Test12= 6.75D-15 5.56D-09 XBig12= 1.33D-03 8.18D-03.
     15 vectors produced by pass  4 Test12= 6.75D-15 5.56D-09 XBig12= 3.79D-05 1.90D-03.
     15 vectors produced by pass  5 Test12= 6.75D-15 5.56D-09 XBig12= 5.77D-07 1.75D-04.
     15 vectors produced by pass  6 Test12= 6.75D-15 5.56D-09 XBig12= 3.29D-09 9.58D-06.
      7 vectors produced by pass  7 Test12= 6.75D-15 5.56D-09 XBig12= 1.95D-11 7.61D-07.
      3 vectors produced by pass  8 Test12= 6.75D-15 5.56D-09 XBig12= 1.21D-13 7.44D-08.
      1 vectors produced by pass  9 Test12= 6.75D-15 5.56D-09 XBig12= 9.62D-16 5.85D-09.
 InvSVY:  IOpt=1 It=  1 EMax= 1.33D-15
 Solved reduced A of dimension   116 with    15 vectors.
 FullF1:  Do perturbations    1 to    18.
 Saving first derivative matrices.
 End of Minotr F.D. properties file   721 does not exist.
 End of Minotr F.D. properties file   722 does not exist.
 End of Minotr F.D. properties file   788 does not exist.
 Leave Link 1002 at Sat Nov 12 21:50:28 2022, MaxMem=   939524096 cpu:        94.7
 (Enter /Local/ce_dana/g09/l811.exe)
 MDV=   939524096.
 DoSCS=T DFT=T ScalE2(SS,OS)=  0.270000  0.270000
 Form MO integral derivatives with frozen-active canonical formalism.
 MOERI=1 MOERIx=1 NAtoms=     5 NAtomX=     5.
 Discarding MO integrals.
 MO basis two electron integral derivatives will not be stored on disk.
 IAlg= 3 DoFC=T DoPWx=T Debug=F.
 Frozen-core window:  NFC=   2 NFV=   0.
 Reordered first order wavefunction length =      2163753
 In DefCFB: NBatch=  1 ICI=  9 ICA= 72 LFMax= 36
            Large arrays: LIAPS=    34992000 LIARS=    29393280 words.
 In StABat: MaxSiz= 36 MinSiz= 18 NAtomB=  3
 DoIAMN: NPSUse= 10.
 In DefCFB: NBatch=  1 ICI=  9 ICA= 72 LFMax= 36
            Large arrays: LIAPS=    34992000 LIARS=    29393280 words.
 In StABat: MaxSiz= 36 MinSiz= 18 NAtomB=  3
 Leave Link  811 at Sat Nov 12 21:50:41 2022, MaxMem=   939524096 cpu:        48.5
 (Enter /Local/ce_dana/g09/l804.exe)
 Frozen-core window:  NFC=   2 NFV=   0.
 Open-shell transformation, MDV=   939524096 ITran=4 ISComp=1.
 Semi-Direct transformation.
 ModeAB=           2 MOrb=             9 LenV=     939007002
 LASXX=      2109366 LTotXX=     2109366 LenRXX=     2109366
 LTotAB=     2216160 MaxLAS=     2948400 LenRXY=     2948400
 NonZer=     4218732 LenScr=     7073280 LnRSAI=           0
 LnScr1=           0 LExtra=           0 Total=     12131046
 MaxDsk=          -1 SrtSym=           F ITran=            4
 DoSDTr:  NPSUse= 10
 JobTyp=1 Pass  1:  I=   1 to   9.
 (rs|ai) integrals will be sorted in core.
 Complete sort for first half transformation.
 First half transformation complete.
 Complete sort for second half transformation.
 Second half transformation complete.
 ModeAB=           2 MOrb=             8 LenV=     939007002
 LASXX=      1892134 LTotXX=     1892134 LenRXX=     2620800
 LTotAB=     1564272 MaxLAS=     2620800 LenRXY=     1564272
 NonZer=     3784268 LenScr=     6382080 LnRSAI=           0
 LnScr1=           0 LExtra=           0 Total=     10567152
 MaxDsk=          -1 SrtSym=           F ITran=            4
 DoSDTr:  NPSUse= 10
 JobTyp=2 Pass  1:  I=   1 to   8.
 (rs|ai) integrals will be sorted in core.
 Complete sort for first half transformation.
 First half transformation complete.
 Complete sort for second half transformation.
 Second half transformation complete.
 SymMOI:  orbitals are not symmetric.
 DoSCS=T DFT=T ScalE2(SS,OS)=  0.270000  0.270000
 Spin components of T(2) and E(2):
     alpha-alpha T2 =       0.2155040392D-01 E2=     -0.1705590281D-01
     alpha-beta  T2 =       0.1244791498D+00 E2=     -0.9673725891D-01
     beta-beta   T2 =       0.2222682439D-01 E2=     -0.1468479449D-01
 E2(B2PLYPD3) =    -0.1284779562D+00 E(B2PLYPD3) =    -0.11118581742131D+03
 Leave Link  804 at Sat Nov 12 21:50:44 2022, MaxMem=   939524096 cpu:        21.5
 (Enter /Local/ce_dana/g09/l1002.exe)
 Minotr:  UHF open shell wavefunction.
          Computing MP2/KS-MP2 derivatives.
          Using Z-Vector for PSCF gradient.
          Skipping F1 and S1 gradient terms here.
          IDoAtm=11111
          Frozen-core window.
          Direct CPHF calculation.
          Differentiating once with respect to electric field.
                with respect to dipole field.
          Differentiating once with respect to nuclear coordinates.
          Requested convergence is 1.0D-10 RMS, and 1.0D-09 maximum.
          NewPWx=T KeepS1=F KeepF1=F KeepIn=T MapXYZ=F SortEE=F KeepMc=T.
          MDV=     939523886 using IRadAn=       5.
 Using stored XC quadrature information.
 Keep R1 and R2 ints in memory in canonical form, NReq=12489711.
 FoFCou: FMM=F IPFlag=           0 FMFlag=           0 FMFlg1=           0
         NFxFlg=           0 DoJE=F BraDBF=F KetDBF=F FulRan=T
         wScrn=  0.000000 ICntrl=     600 IOpCl=  0 I1Cent=           0 NGrid=           0
         NMat0=    1 NMatS0=   3240 NMatT0=    0 NMatD0=    1 NMtDS0=    0 NMtDT0=    0
 Symmetry not used in FoFCou.
          Solving linear equations separately, MaxMat=       0.
          There are     1 degrees of freedom in the 1st order CPHF.  IDoFFX=0 NUNeed=     1.
 LinEq1:  Iter=  0 NonCon=     1 RMS=1.56D-03 Max=3.75D-02 NDo=     1
 AX will form     1 AO Fock derivatives at one time.
 LinEq1:  Iter=  1 NonCon=     1 RMS=4.66D-04 Max=3.81D-03 NDo=     1
 LinEq1:  Iter=  2 NonCon=     1 RMS=3.43D-04 Max=5.74D-03 NDo=     1
 LinEq1:  Iter=  3 NonCon=     1 RMS=9.59D-05 Max=1.10D-03 NDo=     1
 LinEq1:  Iter=  4 NonCon=     1 RMS=7.11D-05 Max=1.25D-03 NDo=     1
 LinEq1:  Iter=  5 NonCon=     1 RMS=1.84D-05 Max=2.39D-04 NDo=     1
 LinEq1:  Iter=  6 NonCon=     1 RMS=6.41D-06 Max=9.02D-05 NDo=     1
 LinEq1:  Iter=  7 NonCon=     1 RMS=1.79D-06 Max=2.85D-05 NDo=     1
 LinEq1:  Iter=  8 NonCon=     1 RMS=4.02D-07 Max=4.12D-06 NDo=     1
 LinEq1:  Iter=  9 NonCon=     1 RMS=1.20D-07 Max=1.03D-06 NDo=     1
 LinEq1:  Iter= 10 NonCon=     1 RMS=2.67D-08 Max=1.97D-07 NDo=     1
 LinEq1:  Iter= 11 NonCon=     1 RMS=5.49D-09 Max=8.65D-08 NDo=     1
 LinEq1:  Iter= 12 NonCon=     1 RMS=1.36D-09 Max=1.92D-08 NDo=     1
 LinEq1:  Iter= 13 NonCon=     1 RMS=2.46D-10 Max=2.42D-09 NDo=     1
 LinEq1:  Iter= 14 NonCon=     0 RMS=5.17D-11 Max=4.15D-10 NDo=     1
 Linear equations converged to 1.000D-10 1.000D-09 after    14 iterations.
 End of Minotr F.D. properties file   721 does not exist.
 End of Minotr F.D. properties file   722 does not exist.
 End of Minotr F.D. properties file   788 does not exist.
 Leave Link 1002 at Sat Nov 12 21:50:51 2022, MaxMem=   939524096 cpu:        68.1
 (Enter /Local/ce_dana/g09/l1102.exe)
 Use density number 2.
 Symmetrizing basis deriv contribution to polar:
 IMax=3 JMax=2 DiffMx= 0.00D+00
 Leave Link 1102 at Sat Nov 12 21:50:51 2022, MaxMem=   939524096 cpu:         0.1
 (Enter /Local/ce_dana/g09/l1110.exe)
 Forming Gx(P) for generalized density number  2 NAtomX=     5.
 Integral derivatives from FoFJK, PRISM(SPDF).
 Do as many integral derivatives as possible in FoFJK.
 G2DrvN: MDV=     939523952.
 G2DrvN: will do     6 centers at a time, making    1 passes.
 Calling FoFCou, ICntrl=  3107 FMM=F I1Cent=   0 AccDes= 1.00D-12.
 FoFJK:  IHMeth= 1 ICntrl=    3107 DoSepK=F KAlg= 0 I1Cent=   0 FoldK=F
 IRaf=         0 NMat=   1 IRICut=       1 DoRegI=T DoRafI=F ISym2E= 0.
 FoFCou: FMM=F IPFlag=           0 FMFlag=      100000 FMFlg1=           0
         NFxFlg=           0 DoJE=F BraDBF=F KetDBF=F FulRan=T
         wScrn=  0.000000 ICntrl=    3107 IOpCl=  1 I1Cent=           0 NGrid=           0
         NMat0=    1 NMatS0=      1 NMatT0=    0 NMatD0=    1 NMtDS0=    0 NMtDT0=    0
 Symmetry not used in FoFCou.
 End of G2Drv F.D. properties file   721 does not exist.
 End of G2Drv F.D. properties file   722 does not exist.
 End of G2Drv F.D. properties file   788 does not exist.
 Leave Link 1110 at Sat Nov 12 21:50:57 2022, MaxMem=   939524096 cpu:        56.1
 (Enter /Local/ce_dana/g09/l1112.exe)
 MP22nd: MDV=     939524096
 DoSCS=T DFT=T ScalE2(SS,OS)=  0.270000  0.270000
 Using stored XC quadrature information.
 This link is doing NAtomX=     5 total of    18 degrees of freedom.
 Using ON3 I/O method in MakUI.
 Frozen-core window:  NFC=   2 NFV=   0.
 Using Ix for Sx.
 Use MO integrals over full window.
 Using OV2 memory method for fx*t*t/D, MaxI=     8 DoOO2=F NP=  10.
 R2 and R3 integrals will be kept in memory, NReq=    18713120.
 FoFCou: FMM=F IPFlag=           0 FMFlag=           0 FMFlg1=           0
         NFxFlg=           0 DoJE=F BraDBF=F KetDBF=F FulRan=T
         wScrn=  0.000000 ICntrl=     600 IOpCl=  0 I1Cent=           0 NGrid=           0
         NMat0=    1 NMatS0=      1 NMatT0=    0 NMatD0=    1 NMtDS0=    0 NMtDT0=    0
 Symmetry not used in FoFCou.
 DD1Dir will call FoFMem   1 times, MxPair=       208
 NAB=    72 NAA=    36 NBB=    28.
 Symmetry is being used.
 FoFJK:  IHMeth= 1 ICntrl=       0 DoSepK=F KAlg= 0 I1Cent=   0 FoldK=F
 IRaf=         0 NMat=  18 IRICut=      45 DoRegI=T DoRafI=T ISym2E= 2.
 R6Disp: Adding Grimme-D3(BJ) dispersion energy 1st derivatives to the gradient.
 Discarding MO integrals.
 Leave Link 1112 at Sat Nov 12 21:51:18 2022, MaxMem=   939524096 cpu:       169.2
 (Enter /Local/ce_dana/g09/l601.exe)
 Copying SCF densities to generalized density rwf, IOpCl= 1 IROHF=0.

 **********************************************************************

            Population analysis using the SCF density.

 **********************************************************************

 Orbital symmetries:
 Alpha Orbitals:
       Occupied  (A) (A) (A) (A) (A) (A) (A) (A) (A)
       Virtual   (A) (A) (A) (A) (A) (A) (A) (A) (A) (A) (A) (A)
                 (A) (A) (A) (A) (A) (A) (A) (A) (A) (A) (A) (A)
                 (A) (A) (A) (A) (A) (A) (A) (A) (A) (A) (A) (A)
                 (A) (A) (A) (A) (A) (A) (A) (A) (A) (A) (A) (A)
                 (A) (A) (A) (A) (A) (A) (A) (A) (A) (A) (A) (A)
                 (A) (A) (A) (A) (A) (A) (A) (A) (A) (A) (A)
 Beta  Orbitals:
       Occupied  (A) (A) (A) (A) (A) (A) (A) (A)
       Virtual   (A) (A) (A) (A) (A) (A) (A) (A) (A) (A) (A) (A)
                 (A) (A) (A) (A) (A) (A) (A) (A) (A) (A) (A) (A)
                 (A) (A) (A) (A) (A) (A) (A) (A) (A) (A) (A) (A)
                 (A) (A) (A) (A) (A) (A) (A) (A) (A) (A) (A) (A)
                 (A) (A) (A) (A) (A) (A) (A) (A) (A) (A) (A) (A)
                 (A) (A) (A) (A) (A) (A) (A) (A) (A) (A) (A) (A)
 The electronic state is 2-A.
 Alpha  occ. eigenvalues --  -14.87986 -14.85320  -1.11937  -0.85170  -0.62987
 Alpha  occ. eigenvalues --   -0.54588  -0.47680  -0.37118  -0.26172
 Alpha virt. eigenvalues --    0.06359   0.10235   0.13877   0.29479   0.35117
 Alpha virt. eigenvalues --    0.37935   0.42262   0.42895   0.45703   0.47432
 Alpha virt. eigenvalues --    0.49314   0.53420   0.57729   0.59230   0.64188
 Alpha virt. eigenvalues --    0.93250   1.03631   1.10476   1.22568   1.30826
 Alpha virt. eigenvalues --    1.42593   1.44546   1.48463   1.63241   1.68151
 Alpha virt. eigenvalues --    1.76919   1.94410   1.96176   1.97165   2.08806
 Alpha virt. eigenvalues --    2.09138   2.13277   2.16873   2.19971   2.25499
 Alpha virt. eigenvalues --    2.41364   2.46454   2.62235   2.62932   2.71287
 Alpha virt. eigenvalues --    2.83628   3.12658   3.18598   3.26460   3.63085
 Alpha virt. eigenvalues --    3.74642   3.94888   4.01802   4.10427   4.19610
 Alpha virt. eigenvalues --    4.39366   4.53970   4.68453   4.71740   4.76677
 Alpha virt. eigenvalues --    4.79692   4.80766   4.82122   4.90923   4.98545
 Alpha virt. eigenvalues --    5.09123   5.11602   5.39684   5.44137   5.66658
 Alpha virt. eigenvalues --    5.74609   5.89180   6.01815   6.91104  32.08050
 Alpha virt. eigenvalues --   32.17990
  Beta  occ. eigenvalues --  -14.87217 -14.83239  -1.08883  -0.80770  -0.62217
  Beta  occ. eigenvalues --   -0.53283  -0.37979  -0.34380
  Beta virt. eigenvalues --    0.04228   0.06727   0.10611   0.14169   0.30517
  Beta virt. eigenvalues --    0.35338   0.40105   0.42752   0.43560   0.47953
  Beta virt. eigenvalues --    0.50297   0.51108   0.54420   0.58356   0.60421
  Beta virt. eigenvalues --    0.65307   0.94646   1.06530   1.13064   1.23879
  Beta virt. eigenvalues --    1.31783   1.44324   1.45839   1.49111   1.66252
  Beta virt. eigenvalues --    1.70032   1.77116   1.95304   1.97699   1.98031
  Beta virt. eigenvalues --    2.09476   2.09615   2.16349   2.18546   2.23201
  Beta virt. eigenvalues --    2.26209   2.43801   2.49570   2.62705   2.63586
  Beta virt. eigenvalues --    2.72079   2.84313   3.13480   3.20093   3.27731
  Beta virt. eigenvalues --    3.64917   3.77067   3.98049   4.03439   4.13029
  Beta virt. eigenvalues --    4.20980   4.43542   4.56363   4.71608   4.74670
  Beta virt. eigenvalues --    4.79022   4.82846   4.84501   4.85595   4.95345
  Beta virt. eigenvalues --    5.01654   5.10716   5.13176   5.41036   5.45449
  Beta virt. eigenvalues --    5.67696   5.77175   5.90003   6.02310   6.92438
  Beta virt. eigenvalues --   32.09676  32.18683
          Condensed to atoms (all electrons):
               1          2          3          4          5
     1  N    6.452286   0.178570   0.383271   0.363911  -0.034993
     2  N    0.178570   6.913719  -0.050995  -0.022087   0.299770
     3  H    0.383271  -0.050995   0.458358  -0.043735   0.010131
     4  H    0.363911  -0.022087  -0.043735   0.496699  -0.021544
     5  H   -0.034993   0.299770   0.010131  -0.021544   0.554339
          Atomic-Atomic Spin Densities.
               1          2          3          4          5
     1  N    0.448708  -0.228094  -0.001611  -0.005433   0.005162
     2  N   -0.228094   1.065747  -0.003702  -0.003620  -0.006837
     3  H   -0.001611  -0.003702  -0.005190   0.003484  -0.000411
     4  H   -0.005433  -0.003620   0.003484   0.002559   0.000870
     5  H    0.005162  -0.006837  -0.000411   0.000870  -0.031438
 Mulliken charges and spin densities:
               1          2
     1  N   -0.343046   0.218732
     2  N   -0.318977   0.823493
     3  H    0.242969  -0.007431
     4  H    0.226757  -0.002140
     5  H    0.192297  -0.032654
 Sum of Mulliken charges =  -0.00000   1.00000
 Mulliken charges and spin densities with hydrogens summed into heavy atoms:
               1          2
     1  N    0.126680   0.209161
     2  N   -0.126680   0.790839
 APT charges:
               1
     1  N   -0.331445
     2  N   -0.150760
     3  H    0.192274
     4  H    0.167531
     5  H    0.122400
 Sum of APT charges =  -0.00000
 APT charges with hydrogens summed into heavy atoms:
               1
     1  N    0.028360
     2  N   -0.028360
 Electronic spatial extent (au):  <R**2>=             71.1663
 Charge=             -0.0000 electrons
 Dipole moment (field-independent basis, Debye):
    X=              1.8450    Y=              1.6539    Z=              0.7074  Tot=              2.5768
 Quadrupole moment (field-independent basis, Debye-Ang):
   XX=            -11.7247   YY=            -10.8529   ZZ=            -14.3279
   XY=             -2.2502   XZ=              1.0305   YZ=              0.1197
 Traceless Quadrupole moment (field-independent basis, Debye-Ang):
   XX=              0.5771   YY=              1.4489   ZZ=             -2.0260
   XY=             -2.2502   XZ=              1.0305   YZ=              0.1197
 Octapole moment (field-independent basis, Debye-Ang**2):
  XXX=              4.0837  YYY=              2.3302  ZZZ=              0.6452  XYY=              2.7336
  XXY=              2.4233  XXZ=              0.9616  XZZ=              0.2044  YZZ=              0.4219
  YYZ=              0.5709  XYZ=              0.0985
 Hexadecapole moment (field-independent basis, Debye-Ang**3):
 XXXX=            -52.5490 YYYY=            -17.3430 ZZZZ=            -14.6669 XXXY=             -4.5104
 XXXZ=              1.6389 YYYX=             -2.6234 YYYZ=              0.1749 ZZZX=              0.8923
 ZZZY=              0.1095 XXYY=             -9.9192 XXZZ=            -12.7189 YYZZ=             -5.7279
 XXYZ=              0.0454 YYXZ=              0.7885 ZZXY=             -0.6290
 N-N= 3.657531596250D+01 E-N=-3.333930116963D+02  KE= 1.107339659062D+02
  Exact polarizability:  24.811  -0.105  16.950  -0.170  -0.075  12.435
 Approx polarizability:  23.805  -0.217  18.073  -0.213  -0.080  13.104
                          Isotropic Fermi Contact Couplings
        Atom                 a.u.       MegaHertz       Gauss      10(-4) cm-1
     1  N(14)              0.08460      27.33310       9.75313       9.11734
     2  N(14)              0.09117      29.45862      10.51157       9.82634
     3  H(1)              -0.00228     -10.17894      -3.63210      -3.39533
     4  H(1)               0.00114       5.08913       1.81593       1.69755
     5  H(1)              -0.01073     -47.95258     -17.11067     -15.99526
 --------------------------------------------------------
       Center         ----  Spin Dipole Couplings  ----
                      3XX-RR        3YY-RR        3ZZ-RR
 --------------------------------------------------------
     1   Atom       -0.355865     -0.399782      0.755648
     2   Atom       -0.939768     -0.917952      1.857720
     3   Atom       -0.002834      0.013792     -0.010958
     4   Atom       -0.014438      0.024360     -0.009921
     5   Atom       -0.050556      0.063577     -0.013021
 --------------------------------------------------------
                        XY            XZ            YZ
 --------------------------------------------------------
     1   Atom        0.009636     -0.152267     -0.043339
     2   Atom       -0.023333      0.002987      0.105572
     3   Atom       -0.038773      0.005169     -0.009055
     4   Atom        0.035713      0.005030      0.008954
     5   Atom       -0.066193      0.002014     -0.000553
 --------------------------------------------------------


 ---------------------------------------------------------------------------------
              Anisotropic Spin Dipole Couplings in Principal Axis System
 ---------------------------------------------------------------------------------

       Atom             a.u.   MegaHertz   Gauss  10(-4) cm-1        Axes

              Baa    -0.4020   -15.504    -5.532    -5.172 -0.1490  0.9887  0.0174
     1 N(14)  Bbb    -0.3758   -14.494    -5.172    -4.835  0.9798  0.1453  0.1374
              Bcc     0.7778    29.998    10.704    10.006 -0.1333 -0.0375  0.9904
 
              Baa    -0.9559   -36.868   -13.155   -12.298  0.8232  0.5673 -0.0222
     2 N(14)  Bbb    -0.9058   -34.935   -12.466   -11.653 -0.5678  0.8226 -0.0308
              Bcc     1.8617    71.803    25.621    23.951  0.0007  0.0379  0.9993
 
              Baa    -0.0343   -18.302    -6.531    -6.105  0.7693  0.6344  0.0757
     3 H(1)   Bbb    -0.0127    -6.755    -2.410    -2.253 -0.1692  0.0880  0.9816
              Bcc     0.0470    25.057     8.941     8.358 -0.6161  0.7680 -0.1750
 
              Baa    -0.0357   -19.039    -6.794    -6.351  0.8587 -0.5123  0.0104
     4 H(1)   Bbb    -0.0118    -6.273    -2.238    -2.092 -0.0991 -0.1461  0.9843
              Bcc     0.0474    25.312     9.032     8.443  0.5028  0.8463  0.1762
 
              Baa    -0.0809   -43.177   -15.407   -14.402  0.9089  0.4163 -0.0236
     5 H(1)   Bbb    -0.0130    -6.936    -2.475    -2.314  0.0162  0.0212  0.9996
              Bcc     0.0939    50.113    17.882    16.716 -0.4166  0.9090 -0.0125
 

 ---------------------------------------------------------------------------------

 No NMR shielding tensors so no spin-rotation constants.
 Leave Link  601 at Sat Nov 12 21:51:18 2022, MaxMem=   939524096 cpu:         2.7
 (Enter /Local/ce_dana/g09/l701.exe)
 Compute integral second derivatives.
 ... and contract with generalized density number  2.
 Use density number 2.
 R6Disp: Adding Grimme-D3(BJ) dispersion energy 2nd derivatives to the Hessian.
 Entering OneElI...
 Calculate overlap and kinetic energy integrals
    NBasis =  90  MinDer = 2  MaxDer = 2
 Requested accuracy = 0.1000D-14
 PrsmSu:  NPrtUS=  10 ThrOK=T IAlg=1 NPAlg=1 LenDen=           0.
 Prism:   IPart=     0 DynPar=F LinDyn=F Incr=           1.
 PRISM was handed    93932299 working-precision words and   595 shell-pairs
 PRISM was handed    93932299 working-precision words and   595 shell-pairs
 PRISM was handed    93932299 working-precision words and   595 shell-pairs
 PRISM was handed    93932299 working-precision words and   595 shell-pairs
 PRISM was handed    93932299 working-precision words and   595 shell-pairs
 PRISM was handed    93932299 working-precision words and   595 shell-pairs
 PRISM was handed    93932299 working-precision words and   595 shell-pairs
 PRISM was handed    93932299 working-precision words and   595 shell-pairs
 PRISM was handed    93932299 working-precision words and   595 shell-pairs
 PRISM was handed    93932299 working-precision words and   595 shell-pairs
 IPart=  5 NShTot=          54 NBatch=          23 AvBLen=         2.3
 IPart=  1 NShTot=          79 NBatch=          39 AvBLen=         2.0
 IPart=  0 NShTot=          81 NBatch=          40 AvBLen=         2.0
 IPart=  9 NShTot=          42 NBatch=          17 AvBLen=         2.5
 IPart=  8 NShTot=          43 NBatch=          17 AvBLen=         2.5
 IPart=  4 NShTot=          54 NBatch=          23 AvBLen=         2.3
 IPart=  2 NShTot=          73 NBatch=          34 AvBLen=         2.1
 IPart=  6 NShTot=          52 NBatch=          22 AvBLen=         2.4
 IPart=  7 NShTot=          51 NBatch=          21 AvBLen=         2.4
 IPart=  3 NShTot=          66 NBatch=          27 AvBLen=         2.4
 PrSmSu:  NxtVal=             11.
 Entering OneElI...
 Calculate potential energy integrals
    NBasis =  90  MinDer = 2  MaxDer = 2
 Requested accuracy = 0.1000D-14
 PrsmSu:  NPrtUS=  10 ThrOK=T IAlg=1 NPAlg=1 LenDen=           0.
 Prism:   IPart=     0 DynPar=F LinDyn=F Incr=           2.
 PRISM was handed    93933715 working-precision words and   594 shell-pairs
 PRISM was handed    93933715 working-precision words and   594 shell-pairs
 PRISM was handed    93933715 working-precision words and   594 shell-pairs
 PRISM was handed    93933715 working-precision words and   594 shell-pairs
 PRISM was handed    93933715 working-precision words and   594 shell-pairs
 PRISM was handed    93933715 working-precision words and   594 shell-pairs
 PRISM was handed    93933715 working-precision words and   594 shell-pairs
 PRISM was handed    93933715 working-precision words and   594 shell-pairs
 PRISM was handed    93933715 working-precision words and   594 shell-pairs
 PRISM was handed    93933715 working-precision words and   594 shell-pairs
 IPart=  9 NShTot=         215 NBatch=          43 AvBLen=         5.0
 IPart=  8 NShTot=         220 NBatch=          44 AvBLen=         5.0
 IPart=  0 NShTot=         400 NBatch=          80 AvBLen=         5.0
 IPart=  2 NShTot=         355 NBatch=          71 AvBLen=         5.0
 IPart=  4 NShTot=         275 NBatch=          55 AvBLen=         5.0
 IPart=  5 NShTot=         265 NBatch=          53 AvBLen=         5.0
 IPart=  7 NShTot=         260 NBatch=          52 AvBLen=         5.0
 IPart=  1 NShTot=         390 NBatch=          78 AvBLen=         5.0
 IPart=  3 NShTot=         330 NBatch=          66 AvBLen=         5.0
 IPart=  6 NShTot=         260 NBatch=          52 AvBLen=         5.0
 PrSmSu:  NxtVal=             21.
   1 Symmetry operations used in ECPInt.
 ECPInt:  NShTT=     595 NPrTT=    1764 LenC2=     595 LenP2D=    1624.
 LDataN:  DoStor=F MaxTD1= 8 Len=  415
 LDataN:  DoStor=T MaxTD1= 8 Len=  415
 ECPSu:  NPrtUS=  10 ThrOK=T
 Polarizability after L701:
                1             2             3 
      1  0.248109D+02
      2 -0.104970D+00  0.169505D+02
      3 -0.170083D+00 -0.745269D-01  0.124354D+02
 Dipole Derivatives after L701:
                 1             2             3             4             5 
      1  -0.482845D+00 -0.111151D+00  0.260093D+00  0.825819D-01  0.496096D-01
      2  -0.398849D-02 -0.947621D-01  0.523161D-01  0.260497D-01 -0.104104D+00
      3   0.145910D+00  0.548271D-01 -0.416728D+00 -0.861373D-01 -0.418565D-01
                 6             7             8             9            10 
      1  -0.320233D-01  0.148916D+00 -0.229064D-01 -0.112648D+00  0.740745D-01
      2  -0.303060D-01 -0.401644D-02  0.158261D+00  0.403695D-01 -0.298976D-01
      3  -0.430759D+00 -0.248004D-01  0.271093D-01  0.269646D+00 -0.332592D-01
                11            12            13            14            15 
      1  -0.254656D-01 -0.116480D+00  0.177273D+00  0.109914D+00  0.105860D-02
      2   0.113712D+00 -0.816487D-01  0.118529D-01 -0.731063D-01  0.192690D-01
      3  -0.622884D-01  0.314808D+00 -0.171261D-02  0.222084D-01  0.263034D+00
 Hessian after L701:
                1             2             3             4             5 
      1  0.265444D+01
      2 -0.767615D+00  0.865507D+01
      3  0.439299D-01  0.129598D-01  0.120674D+02
      4  0.212975D+01  0.100762D+01 -0.722981D+00  0.294688D+00
      5  0.108815D+01 -0.614300D+01 -0.132321D+00 -0.889073D-01  0.710852D+01
      6 -0.680537D+00 -0.110175D+00 -0.600752D+01  0.585851D+00  0.165946D+00
      7 -0.232928D+01 -0.130147D+01  0.362780D+00 -0.122774D+00 -0.445343D-01
      8 -0.122174D+01 -0.142174D+01 -0.498347D+00 -0.120211D+00  0.150696D+00
      9  0.325903D+00 -0.465241D+00 -0.309476D+01  0.466749D-01 -0.328346D-01
     10 -0.253912D+01  0.106203D+01  0.331032D+00  0.537502D-01  0.132602D+00
     11  0.101848D+01 -0.112726D+01  0.609047D+00  0.179013D+00  0.206975D+00
     12  0.312644D+00  0.572134D+00 -0.293065D+01  0.464533D-01  0.590100D-01
     13  0.842163D-01 -0.563366D-03 -0.147612D-01 -0.235541D+01 -0.108731D+01
     14 -0.117274D+00  0.369399D-01  0.866127D-02 -0.977519D+00 -0.132319D+01
     15 -0.193962D-02 -0.967829D-02 -0.344656D-01  0.440019D-01 -0.598005D-01
                6             7             8             9            10 
      6  0.893102D+01
      7  0.204179D-01  0.227692D+01
      8 -0.276532D-01  0.139696D+01  0.144677D+01
      9  0.275742D-01 -0.396841D+00  0.528138D+00  0.299124D+01
     10  0.262967D-01  0.113189D+00  0.205975D-01  0.988889D-02  0.246391D+01
     11  0.384443D-01  0.209397D-01 -0.213694D+00 -0.197583D-01 -0.121347D+01
     12 -0.852613D-03  0.886388D-02  0.920701D-03  0.910556D-01 -0.354907D+00
     13  0.479716D-01  0.619450D-01 -0.755987D-01  0.143745D-01 -0.917261D-01
     14 -0.665629D-01 -0.718871D-01  0.379676D-01 -0.103041D-01 -0.175285D-02
     15 -0.295022D+01  0.477954D-02 -0.305798D-02 -0.151118D-01 -0.123107D-01
               11            12            13            14            15 
     11  0.110209D+01
     12 -0.629554D+00  0.281276D+01
     13 -0.495878D-02 -0.130538D-01  0.230098D+01
     14  0.318933D-01 -0.251021D-02  0.116843D+01  0.121639D+01
     15  0.182079D-02  0.276915D-01 -0.345311D-01  0.707160D-01  0.297210D+01
 Leave Link  701 at Sat Nov 12 21:51:19 2022, MaxMem=   939524096 cpu:         5.7
 (Enter /Local/ce_dana/g09/l702.exe)
 L702 exits ... SP integral derivatives will be done elsewhere.
 Leave Link  702 at Sat Nov 12 21:51:19 2022, MaxMem=   939524096 cpu:         0.0
 (Enter /Local/ce_dana/g09/l703.exe)
 Compute integral second derivatives, UseDBF=F ICtDFT=           0.
 Integral derivatives from FoFJK, PRISM(SPDF).
 ICntrl=  10100127.
 Calling FoFJK, ICntrl=  10100127 FMM=F ISym2X=0 I1Cent= 0 IOpClX= 1 NMat=1 NMatS=1 NMatT=0.
 FoFJK:  IHMeth= 1 ICntrl=10100127 DoSepK=F KAlg= 0 I1Cent=   0 FoldK=F
 IRaf=         0 NMat=   1 IRICut=       1 DoRegI=T DoRafI=F ISym2E= 0.
 FoFCou: FMM=F IPFlag=           0 FMFlag=      100000 FMFlg1=         800
         NFxFlg=           0 DoJE=F BraDBF=F KetDBF=F FulRan=T
         wScrn=  0.000000 ICntrl=10100127 IOpCl=  1 I1Cent=           0 NGrid=           0
         NMat0=    1 NMatS0=      1 NMatT0=    0 NMatD0=    1 NMtDS0=    0 NMtDT0=    0
 Symmetry not used in FoFCou.
 FoFCou:  KetSym=F NOpSet=  1 NOpAb=1 NOp=  1.
 FoFCou:  CnvScl= 1.00D+00 Thresh= 1.00D-12 IAcrcy=      10.
 PrismS was handed   939462574 working-precision words and   594 shell-pairs
 FoFCou: LinMIO=F DoNuc=F BraDBF=F KetDBF=F HaveP=T PDBF=F HaveZ=T HaveW=F
         NIJTC =      10 NIJTAt=       0 NIJTCD=       0 NIJTT =      10
         IJTBeg=       1 IJTEnd=      10 KLTBeg=       1 KLTEnd=      10
         IPTBeg=       1 IPTEnd=      10 IPTBCv=       1 IPTECv=      10
         IZTBeg=       1 IZTEnd=      10 IZTBCv=       1 IZTECv=      10
         IWTBeg=      11 IWTEnd=      10 IWTBCv=      11 IWTECv=      10
         INTBeg=       1 INTEnd=       0 IFTBCv=       1 IFTECv=      10
 NCel replicated for PrismC:     1
 CoulSu:  IncDef=  1024 NBBP=         176715 NTPThr=   100 NPartT=   10 Incr=         176 LDynOK=F.
 CoulSu:  NPrtUS=  10 ThrOK=T IAlg=1 NPAlg=1 LenDen=           0 LWGrdD=           0 DoCopy=F.
 Enter PrismC: JobTyp=22 DoJE=F Cont=F.
 PrismC:  IPart=     0 DynPar=T LinDyn=F Incr=         176 UseFst=F UseS4=T IGathr=2.
 PrismC was handed    93933797 working-precision words and   594 shell-pairs
 Enter PrismC: JobTyp=22 DoJE=F Cont=F.
 Enter PrismC: JobTyp=22 DoJE=F Cont=F.
 Enter PrismC: JobTyp=22 DoJE=F Cont=F.
 PrismC was handed    93933797 working-precision words and   594 shell-pairs
 Enter PrismC: JobTyp=22 DoJE=F Cont=F.
 PrismC was handed    93933797 working-precision words and   594 shell-pairs
 PrismC was handed    93933797 working-precision words and   594 shell-pairs
 Enter PrismC: JobTyp=22 DoJE=F Cont=F.
 Enter PrismC: JobTyp=22 DoJE=F Cont=F.
 PrismC was handed    93933797 working-precision words and   594 shell-pairs
 PrismC was handed    93933797 working-precision words and   594 shell-pairs
 Enter PrismC: JobTyp=22 DoJE=F Cont=F.
 PrismC was handed    93933797 working-precision words and   594 shell-pairs
 PrismC was handed    93933797 working-precision words and   594 shell-pairs
 Enter PrismC: JobTyp=22 DoJE=F Cont=F.
 Enter PrismC: JobTyp=22 DoJE=F Cont=F.
 PrismC was handed    93933797 working-precision words and   594 shell-pairs
 PrismC was handed    93933797 working-precision words and   594 shell-pairs
 IPart=  8 NShTot=       17036 NShNF=       17036 NShFF=           0 NBatch=         656 AvBLen=        26.0
 IPart=  5 NShTot=       20375 NShNF=       20375 NShFF=           0 NBatch=         665 AvBLen=        30.6
 IPart=  7 NShTot=       20323 NShNF=       20323 NShFF=           0 NBatch=         744 AvBLen=        27.3
 IPart=  3 NShTot=       17858 NShNF=       17858 NShFF=           0 NBatch=         660 AvBLen=        27.1
 IPart=  2 NShTot=       16578 NShNF=       16578 NShFF=           0 NBatch=         656 AvBLen=        25.3
 IPart=  1 NShTot=       18410 NShNF=       18410 NShFF=           0 NBatch=         659 AvBLen=        27.9
 IPart=  6 NShTot=       17834 NShNF=       17834 NShFF=           0 NBatch=         660 AvBLen=        27.0
 IPart=  9 NShTot=       15669 NShNF=       15669 NShFF=           0 NBatch=         600 AvBLen=        26.1
 IPart=  4 NShTot=       18924 NShNF=       18924 NShFF=           0 NBatch=         648 AvBLen=        29.2
 IPart=  0 NShTot=       13412 NShNF=       13412 NShFF=           0 NBatch=         431 AvBLen=        31.1
 CoulSu:  NxtVal=         189553.
 ReadGW:  IGet=0 IStart=           1 Next=           1 LGW=           0.
 Remaining memory in FofDFT      895.98 Mw
 CkSvGd:  ISavGI=        -1 IRadAn=       5 IRASav=       5 ISavGd=        -1.
 CalDSu:  NPrtUS=  10 ThrOK=T IAlg=1 NPAlg=2 DoDPD=T LenP=        4095 LenD1P=             0.
 IPart=  0 IRanGd=          0 ScrnBf=T ScrnGd=T RCrit=4.00D+00 DoMicB=T.
 IPart=  7        11736 of        12488 points in      11 batches and       59 microbatches, Max-NSigAt=       5 Max-NSgAt2=       5
 IPart=  5        10953 of        11686 points in      11 batches and       98 microbatches, Max-NSigAt=       5 Max-NSgAt2=       5
 IPart=  2         9913 of        10430 points in      10 batches and       64 microbatches, Max-NSigAt=       5 Max-NSgAt2=       5
 IPart=  3         9530 of        10072 points in      10 batches and       71 microbatches, Max-NSigAt=       5 Max-NSgAt2=       5
 IPart=  1         9960 of        10402 points in       9 batches and       73 microbatches, Max-NSigAt=       5 Max-NSgAt2=       5
 IPart=  8         9633 of        10072 points in      10 batches and       56 microbatches, Max-NSigAt=       5 Max-NSgAt2=       5
 IPart=  4        10189 of        10746 points in      11 batches and       77 microbatches, Max-NSigAt=       5 Max-NSgAt2=       5
 IPart=  6        10453 of        11266 points in      12 batches and       74 microbatches, Max-NSigAt=       5 Max-NSgAt2=       5
 IPart=  0        11113 of        11590 points in       9 batches and       39 microbatches, Max-NSigAt=       5 Max-NSgAt2=       5
 IPart=  9        11844 of        12438 points in       9 batches and       56 microbatches, Max-NSigAt=       5 Max-NSgAt2=       5
 Polarizability after L703:
                1             2             3 
      1  0.248109D+02
      2 -0.104970D+00  0.169505D+02
      3 -0.170083D+00 -0.745269D-01  0.124354D+02
 Dipole Derivatives after L703:
                 1             2             3             4             5 
      1  -0.482845D+00 -0.111151D+00  0.260093D+00  0.825819D-01  0.496096D-01
      2  -0.398849D-02 -0.947621D-01  0.523161D-01  0.260497D-01 -0.104104D+00
      3   0.145910D+00  0.548271D-01 -0.416728D+00 -0.861373D-01 -0.418565D-01
                 6             7             8             9            10 
      1  -0.320233D-01  0.148916D+00 -0.229064D-01 -0.112648D+00  0.740745D-01
      2  -0.303060D-01 -0.401644D-02  0.158261D+00  0.403695D-01 -0.298976D-01
      3  -0.430759D+00 -0.248004D-01  0.271093D-01  0.269646D+00 -0.332592D-01
                11            12            13            14            15 
      1  -0.254656D-01 -0.116480D+00  0.177273D+00  0.109914D+00  0.105860D-02
      2   0.113712D+00 -0.816487D-01  0.118529D-01 -0.731063D-01  0.192690D-01
      3  -0.622884D-01  0.314808D+00 -0.171261D-02  0.222084D-01  0.263034D+00
 Hessian after L703:
                1             2             3             4             5 
      1  0.676337D+00
      2 -0.322190D-01  0.800115D+00
      3  0.885863D-01  0.165997D-01  0.807501D-01
      4 -0.371676D+00 -0.549134D-01  0.106767D-01  0.513291D+00
      5  0.637697D-02 -0.115871D+00 -0.323149D-03 -0.944549D-01  0.463045D+00
      6  0.312970D-01  0.997381D-02 -0.534883D-02 -0.120114D-01 -0.225427D-01
      7 -0.153321D+00  0.150056D+00 -0.506015D-01 -0.284720D-01  0.350352D-01
      8  0.157365D+00 -0.334984D+00  0.673371D-01 -0.365672D-02  0.113086D-01
      9 -0.681952D-01  0.963497D-01 -0.333313D-01  0.501736D-02 -0.634903D-02
     10 -0.115319D+00 -0.114282D+00 -0.458439D-01 -0.258732D-01 -0.330684D-01
     11 -0.111387D+00 -0.350330D+00 -0.851376D-01 -0.602545D-02  0.521902D-02
     12 -0.542656D-01 -0.116442D+00 -0.398938D-01  0.300441D-02  0.825042D-02
     13 -0.360203D-01  0.513582D-01 -0.281758D-02 -0.872699D-01  0.861112D-01
     14 -0.201352D-01  0.106964D-02  0.152396D-02  0.159050D+00 -0.363702D+00
     15  0.257750D-02 -0.648165D-02 -0.217616D-02 -0.668709D-02  0.209644D-01
                6             7             8             9            10 
      6  0.206218D-01
      7 -0.662433D-02  0.179579D+00
      8 -0.313778D-02 -0.168785D+00  0.338349D+00
      9 -0.752646D-02  0.539292D-01 -0.772008D-01  0.343792D-01
     10 -0.938344D-02  0.105625D-01  0.172385D-01  0.728402D-02  0.128308D+00
     11 -0.192226D-02 -0.145436D-01 -0.175285D-01 -0.124543D-01  0.130694D+00
     12  0.578625D-02  0.456859D-02  0.113728D-01 -0.869232D-03  0.476581D-01
     13 -0.327786D-02 -0.834827D-02 -0.216151D-02  0.196467D-02  0.232248D-02
     14  0.176289D-01 -0.176256D-02  0.285424D-02 -0.345608D-03 -0.582654D-03
     15 -0.135328D-01 -0.127189D-02  0.162860D-02  0.734773D-02  0.285211D-03
               11            12            13            14            15 
     11  0.358285D+00
     12  0.970381D-01  0.386825D-01
     13  0.126211D-02 -0.965507D-03  0.129316D+00
     14  0.435447D-02 -0.219754D-03 -0.136570D+00  0.355424D+00
     15  0.247611D-02 -0.370575D-02  0.509628D-02 -0.185875D-01  0.120669D-01
 Leave Link  703 at Sat Nov 12 21:51:34 2022, MaxMem=   939524096 cpu:       155.5
 (Enter /Local/ce_dana/g09/l716.exe)
 FrcOut:
 IF    =    39 IFX   =    54 IFXYZ =    69
 IFFX  =    84 IFFFX =   204 IFLen =    15
 IFFLen=   120 IFFFLn=     0 IEDerv=   204
 LEDerv=   773 IFroze=  1166 ICStrt= 14190
 Dipole        = 7.88053512D-01 6.47915360D-01 2.64772770D-01
 DipoleDeriv   =-4.82845164D-01-3.98849191D-03 1.45909531D-01
                -1.11151263D-01-9.47621041D-02 5.48271326D-02
                 2.60092966D-01 5.23161225D-02-4.16728255D-01
                 8.25818973D-02 2.60496563D-02-8.61372836D-02
                 4.96095819D-02-1.04103822D-01-4.18564586D-02
                -3.20233096D-02-3.03059782D-02-4.30759210D-01
                 1.48916035D-01-4.01644215D-03-2.48004455D-02
                -2.29064179D-02 1.58260650D-01 2.71093397D-02
                -1.12647984D-01 4.03695432D-02 2.69646347D-01
                 7.40744935D-02-2.98975951D-02-3.32591900D-02
                -2.54656089D-02 1.13711528D-01-6.22884381D-02
                -1.16480268D-01-8.16486987D-02 3.14807545D-01
                 1.77272737D-01 1.18528728D-02-1.71261214D-03
                 1.09913708D-01-7.31062526D-02 2.22084244D-02
                 1.05859637D-03 1.92690112D-02 2.63033572D-01
 Polarizability= 2.48108755D+01-1.04969649D-01 1.69504858D+01
                -1.70083326D-01-7.45268717D-02 1.24353537D+01
 VibFq2-Diag1:  N=     15 IV=           6 MDV=   939508844 NE2=    62633922
 Full mass-weighted force constant matrix:
 Low frequencies ---   -8.9125   -5.1388   -4.1052   -0.0013   -0.0010    0.0004
 Low frequencies ---  572.9358  716.2465 1146.4610
 OrtVCM:  Ph=1 IPass= 1 DotMx1= 0.00D+00
 OrtVCM:  IS=    1 I=    1 IndO=    1 Dot= 1.00D+00 DotN= 1.00D+00 ElMax1= 6.72D-01 ElMax1N= 6.72D-01
 OrtVCM:  Ph=2 NNew=    0 IAdd=    2 IPass= 1 DotMx2= 0.00D+00
 OrtVCM:  IS=    1 I=    2 IndO=    2 Dot= 1.00D+00 DotN= 1.00D+00 ElMax1= 6.72D-01 ElMax1N= 6.72D-01
 OrtVCM:  Ph=2 NNew=    0 IAdd=    3 IPass= 1 DotMx2= 0.00D+00
 OrtVCM:  IS=    1 I=    3 IndO=    3 Dot= 1.00D+00 DotN= 1.00D+00 ElMax1= 6.72D-01 ElMax1N= 6.72D-01
 OrtVCM:  Ph=2 NNew=    0 IAdd=    4 IPass= 1 DotMx2= 2.78D-17
 OrtVCM:  IS=    1 I=    4 IndO=    4 Dot= 1.00D+00 DotN= 1.00D+00 ElMax1= 5.62D-01 ElMax1N= 5.62D-01
 OrtVCM:  Ph=2 NNew=    0 IAdd=    5 IPass= 1 DotMx2= 1.05D-15
 OrtVCM:  IS=    1 I=    5 IndO=    5 Dot= 1.00D+00 DotN= 1.00D+00 ElMax1= 6.58D-01 ElMax1N= 6.58D-01
 OrtVCM:  Ph=2 NNew=    0 IAdd=    6 IPass= 1 DotMx2= 6.42D-17
 OrtVCM:  IS=    1 I=    6 IndO=    6 Dot= 1.00D+00 DotN= 1.00D+00 ElMax1= 6.13D-01 ElMax1N= 6.13D-01
 OrtVCM:  Ph=1 IPass= 1 DotMx1= 6.72D-01
 OrtVCM:  Ph=1 IPass= 2 DotMx1= 1.70D-16
 OrtVCM:  IS=    1 I=    1 IndO=    7 Dot= 5.43D-01 DotN= 5.43D-01 ElMax1= 5.43D-01 ElMax1N= 5.43D-01
 OrtVCM:  Ph=2 NNew=    0 IAdd=    2 IPass= 1 DotMx2= 3.45D-02
 OrtVCM:  Ph=2 NNew=    0 IAdd=    2 IPass= 2 DotMx2= 4.12D-18
 OrtVCM:  IS=    1 I=    2 IndO=    8 Dot= 2.39D-01 DotN= 2.39D-01 ElMax1= 2.54D-01 ElMax1N= 2.54D-01
 OrtVCM:  Ph=2 NNew=    0 IAdd=    3 IPass= 1 DotMx2= 4.45D-02
 OrtVCM:  Ph=2 NNew=    0 IAdd=    3 IPass= 2 DotMx2= 9.65D-18
 OrtVCM:  IS=    1 I=    3 IndO=    9 Dot= 2.08D-01 DotN= 2.08D-01 ElMax1= 3.01D-01 ElMax1N= 3.01D-01
 OrtVCM:  Ph=2 NNew=    0 IAdd=    4 IPass= 1 DotMx2= 6.03D-01
 OrtVCM:  Ph=2 NNew=    0 IAdd=    4 IPass= 2 DotMx2= 2.32D-16
 OrtVCM:  IS=    1 I=    4 IndO=   10 Dot= 1.67D-01 DotN= 1.67D-01 ElMax1= 2.45D-01 ElMax1N= 2.45D-01
 OrtVCM:  Ph=2 NNew=    0 IAdd=    5 IPass= 1 DotMx2= 2.28D-01
 OrtVCM:  Ph=2 NNew=    0 IAdd=    5 IPass= 2 DotMx2= 6.94D-17
 OrtVCM:  IS=    1 I=    5 IndO=   11 Dot= 1.14D-01 DotN= 1.14D-01 ElMax1= 2.74D-01 ElMax1N= 2.74D-01
 OrtVCM:  Ph=2 NNew=    0 IAdd=    6 IPass= 1 DotMx2= 1.31D-01
 OrtVCM:  Ph=2 NNew=    0 IAdd=    6 IPass= 2 DotMx2= 2.78D-17
 OrtVCM:  IS=    1 I=    6 IndO=   12 Dot= 5.79D-02 DotN= 5.79D-02 ElMax1= 1.80D-01 ElMax1N= 1.80D-01
 OrtVCM:  Ph=2 NNew=    0 IAdd=    7 IPass= 1 DotMx2= 6.01D-01
 OrtVCM:  Ph=2 NNew=    0 IAdd=    7 IPass= 2 DotMx2= 1.59D-16
 OrtVCM:  IS=    1 I=    7 IndO=   13 Dot= 4.30D-01 DotN= 4.30D-01 ElMax1= 4.30D-01 ElMax1N= 4.30D-01
 OrtVCM:  Ph=2 NNew=    0 IAdd=    8 IPass= 1 DotMx2= 5.21D-01
 OrtVCM:  Ph=2 NNew=    0 IAdd=    8 IPass= 2 DotMx2= 1.67D-16
 OrtVCM:  IS=    1 I=    8 IndO=   14 Dot= 4.75D-01 DotN= 4.75D-01 ElMax1= 4.98D-01 ElMax1N= 4.98D-01
 OrtVCM:  Ph=2 NNew=    0 IAdd=    9 IPass= 1 DotMx2= 5.76D-01
 OrtVCM:  Ph=2 NNew=    0 IAdd=    9 IPass= 2 DotMx2= 1.56D-16
 OrtVCM:  IS=    1 I=    9 IndO=    0 Dot= 2.51D-33 DotN= 2.51D-33 ElMax1= 2.54D-17 ElMax1N= 2.54D-17
 SchOr2:  IPass= 1 Test2A= 1.00D-01 IOff=     0 NDo=     9 NNew=     8
 OrtVCM:  Ph=1 IPass= 1 DotMx1= 4.52D-01
 OrtVCM:  Ph=1 IPass= 2 DotMx1= 8.51D-17
 OrtVCM:  IS=    1 I=    1 IndO=   15 Dot= 4.93D-01 DotN= 4.93D-01 ElMax1= 4.93D-01 ElMax1N= 4.93D-01
 SchOr2:  IPass= 1 Test2A= 1.00D-01 IOff=     9 NDo=     1 NNew=     1
 VibFq2-Diag2:  N=      9 IV=           6 MDV=   939508844 NE2=   104389871
 Dipole derivatives wrt mode   1:  6.46072D+00  1.95221D+00 -9.40511D+00
 Vibrational polarizability contributions from mode   1       3.4220218       0.3124459       7.2518497
 Vibrational hyperpolarizability contributions from mode   1       0.0000000       0.0000000      -0.0000000
 Dipole derivatives wrt mode   2:  2.24170D+00 -2.41004D+00 -1.10338D+01
 Vibrational polarizability contributions from mode   2       0.2636104       0.3046900       6.3864238
 Vibrational hyperpolarizability contributions from mode   2       0.0000000      -0.0000000      -0.0000000
 Dipole derivatives wrt mode   3: -4.38755D+00 -1.35775D+00  5.69867D-01
 Vibrational polarizability contributions from mode   3       0.3941475       0.0377446       0.0066491
 Vibrational hyperpolarizability contributions from mode   3      -0.0000000      -0.0000000       0.0000000
 Dipole derivatives wrt mode   4: -1.88493D+00 -6.01225D-01  3.39642D-01
 Vibrational polarizability contributions from mode   4       0.0615016       0.0062570       0.0019968
 Vibrational hyperpolarizability contributions from mode   4      -0.0000000      -0.0000000       0.0000000
 Dipole derivatives wrt mode   5:  4.64421D+00 -8.05984D-01  1.43656D-01
 Vibrational polarizability contributions from mode   5       0.2607698       0.0078539       0.0002495
 Vibrational hyperpolarizability contributions from mode   5       0.0000000      -0.0000000       0.0000000
 Dipole derivatives wrt mode   6: -3.54734D+00 -2.26127D-01 -2.18699D+00
 Vibrational polarizability contributions from mode   6       0.1206984       0.0004905       0.0458761
 Vibrational hyperpolarizability contributions from mode   6      -0.0000000      -0.0000000      -0.0000000
 Dipole derivatives wrt mode   7: -8.99633D-01  2.23288D+00 -1.53807D-01
 Vibrational polarizability contributions from mode   7       0.0018477       0.0113824       0.0000540
 Vibrational hyperpolarizability contributions from mode   7      -0.0000000       0.0000000      -0.0000000
 Dipole derivatives wrt mode   8: -1.15901D+00  2.42021D-01 -5.85189D-01
 Vibrational polarizability contributions from mode   8       0.0029479       0.0001285       0.0007515
 Vibrational hyperpolarizability contributions from mode   8      -0.0000000       0.0000000      -0.0000000
 Dipole derivatives wrt mode   9:  2.13906D+00 -4.17463D+00  4.07388D-01
 Vibrational polarizability contributions from mode   9       0.0092535       0.0352449       0.0003356
 Vibrational hyperpolarizability contributions from mode   9       0.0000000      -0.0000000       0.0000000
 Diagonal vibrational polarizability:
        4.5367986       0.7162378      13.6941862
 NorSel:  MapVib=      1      2      3      4      5      6      7      8      9
 Harmonic frequencies (cm**-1), IR intensities (KM/Mole), Raman scattering
 activities (A**4/AMU), depolarization ratios for plane and unpolarized
 incident light, reduced masses (AMU), force constants (mDyne/A),
 and normal coordinates:
                      1                      2                      3
                      A                      A                      A
 Frequencies --    572.9358               716.2465              1146.4610
 Red. masses --      1.2930                 1.0712                 1.0807
 Frc consts  --      0.2501                 0.3238                 0.8369
 IR Inten    --    134.0081               132.5781                21.4188
  Atom  AN      X      Y      Z        X      Y      Z        X      Y      Z
     1   7    -0.03  -0.01   0.13    -0.02   0.02   0.04    -0.01   0.06   0.00
     2   7     0.00   0.00  -0.06     0.01  -0.00   0.05     0.05  -0.01  -0.01
     3   1     0.18  -0.01  -0.44     0.03  -0.12  -0.62    -0.53  -0.24   0.14
     4   1     0.16   0.16  -0.79     0.13  -0.08   0.13     0.53  -0.16  -0.10
     5   1     0.02   0.02   0.29    -0.04  -0.07  -0.74    -0.50  -0.25   0.07
                      4                      5                      6
                      A                      A                      A
 Frequencies --   1246.8652              1491.9347              1675.0172
 Red. masses --      6.3500                 1.2611                 1.0959
 Frc consts  --      5.8165                 1.6539                 1.8116
 IR Inten    --      4.0298                22.2389                17.4177
  Atom  AN      X      Y      Z        X      Y      Z        X      Y      Z
     1   7     0.41   0.09  -0.01    -0.06   0.08  -0.00     0.08   0.01   0.01
     2   7    -0.47  -0.10   0.02     0.00  -0.09   0.00    -0.00  -0.01   0.01
     3   1     0.21  -0.05  -0.03    -0.32  -0.05   0.09    -0.57  -0.43  -0.14
     4   1     0.71  -0.02  -0.11     0.33  -0.09  -0.05    -0.57   0.33  -0.13
     5   1    -0.07   0.13  -0.03     0.82   0.28  -0.04     0.07   0.02  -0.00
                      7                      8                      9
                      A                      A                      A
 Frequencies --   3433.3288              3501.8889              3647.8408
 Red. masses --      1.0746                 1.0464                 1.1001
 Frc consts  --      7.4635                 7.5602                 8.6253
 IR Inten    --      5.8188                 1.7443                22.1690
  Atom  AN      X      Y      Z        X      Y      Z        X      Y      Z
     1   7     0.00  -0.01  -0.00     0.04   0.03   0.02    -0.02   0.08  -0.00
     2   7    -0.03   0.06  -0.00    -0.00   0.00   0.00    -0.00   0.00  -0.00
     3   1    -0.01   0.02  -0.01    -0.25   0.42  -0.09     0.46  -0.72   0.20
     4   1     0.05   0.09   0.03    -0.34  -0.76  -0.22    -0.19  -0.41  -0.14
     5   1     0.41  -0.90   0.05     0.03  -0.08   0.00     0.03  -0.07   0.00

 -------------------
 - Thermochemistry -
 -------------------
 Temperature   298.150 Kelvin.  Pressure   1.00000 Atm.
 Atom     1 has atomic number  7 and mass  14.00307
 Atom     2 has atomic number  7 and mass  14.00307
 Atom     3 has atomic number  1 and mass   1.00783
 Atom     4 has atomic number  1 and mass   1.00783
 Atom     5 has atomic number  1 and mass   1.00783
 Molecular mass:    31.02962 amu.
 Principal axes and moments of inertia in atomic units:
                           1         2         3
     Eigenvalues --     8.78765  58.57258  66.38524
           X            0.99778  -0.06121   0.02634
           Y            0.06094   0.99808   0.01097
           Z           -0.02696  -0.00934   0.99959
 This molecule is an asymmetric top.
 Rotational symmetry number  1.
 Rotational temperatures (Kelvin)      9.85631     1.47874     1.30471
 Rotational constants (GHZ):         205.37243    30.81205    27.18588
 Zero-point vibrational energy     104269.6 (Joules/Mol)
                                   24.92104 (Kcal/Mol)
 Warning -- explicit consideration of   1 degrees of freedom as
           vibrations may cause significant error
 Vibrational temperatures:    824.33  1030.52  1649.50  1793.96  2146.56
          (Kelvin)           2409.97  4939.79  5038.43  5248.42
 
 Zero-point correction=                           0.039714 (Hartree/Particle)
 Thermal correction to Energy=                    0.042871
 Thermal correction to Enthalpy=                  0.043815
 Thermal correction to Gibbs Free Energy=         0.016888
 Sum of electronic and zero-point Energies=           -111.146103
 Sum of electronic and thermal Energies=              -111.142947
 Sum of electronic and thermal Enthalpies=            -111.142003
 Sum of electronic and thermal Free Energies=         -111.168929
 
                     E (Thermal)             CV                S
                      KCal/Mol        Cal/Mol-Kelvin    Cal/Mol-Kelvin
 Total                   26.902              8.386             56.672
 Electronic               0.000              0.000              1.377
 Translational            0.889              2.981             36.230
 Rotational               0.889              2.981             18.175
 Vibrational             25.124              2.424              0.889
 Vibration     1          0.929              1.090              0.499
                       Q            Log10(Q)             Ln(Q)
 Total Bot       0.170611D-07         -7.767994        -17.886467
 Total V=0       0.315668D+11         10.499231         24.175372
 Vib (Bot)       0.600054D-18        -18.221810        -41.957268
 Vib (Bot)    1  0.267846D+00         -0.572114         -1.317341
 Vib (V=0)       0.111024D+01          0.045415          0.104572
 Vib (V=0)    1  0.106722D+01          0.028255          0.065060
 Electronic      0.200000D+01          0.301030          0.693147
 Translational   0.679391D+07          6.832120         15.731538
 Rotational      0.209250D+04          3.320666          7.646115
 
                                                              Hydrazino
                                                             IR Spectrum
 
     3     3 3                                                            1      1       1   1                                       
     6     5 4                                                            6      4       2   1              7    5                   
     4     0 3                                                            7      9       4   4              1    7                   
     8     2 3                                                            5      2       7   6              6    3                   
 
     X     X X                                                            X      X       X   X              X    X                   
     X                                                                    X      X           X              X    X                   
     X                                                                    X      X           X              X    X                   
                                                                                                            X    X                   
                                                                                                            X    X                   
                                                                                                            X    X                   
                                                                                                            X    X                   
                                                                                                            X    X                   
                                                                                                            X    X                   
                                                                                                            X    X                   
                                                                                                            X    X                   
                                                                                                            X    X                   
                                                                                                            X    X                   
                                                                                                            X    X                   
                                                                                                            X    X                   
                                                                                                            X    X                   
                                                                                                            X    X                   
                                                                                                            X    X                   
                                                                                                            X    X                   
                                                                                                            X    X                   
 
 Forces in standard orientation:
 -------------------------------------------------------------------
 Center     Atomic                   Forces (Hartrees/Bohr)
 Number     Number              X              Y              Z
 -------------------------------------------------------------------
      1        7           0.000000714    0.000000216    0.000000099
      2        7          -0.000000172    0.000000158    0.000000103
      3        1          -0.000000096    0.000000168   -0.000000030
      4        1          -0.000000345   -0.000000454   -0.000000097
      5        1          -0.000000100   -0.000000088   -0.000000075
 -------------------------------------------------------------------
 ***** Axes restored to original set *****
 Rotating derivatives, DoTrsp=F IDiff=-2 LEDeriv=    772 LFDPrp=       0 LDFDPr=       0.
 -------------------------------------------------------------------
 Center     Atomic                   Forces (Hartrees/Bohr)
 Number     Number              X              Y              Z
 -------------------------------------------------------------------
      1        7           0.000000636   -0.000000401    0.000000018
      2        7          -0.000000194   -0.000000106    0.000000128
      3        1          -0.000000140   -0.000000136   -0.000000013
      4        1          -0.000000220    0.000000531   -0.000000068
      5        1          -0.000000081    0.000000112   -0.000000065
 -------------------------------------------------------------------
 Cartesian Forces:  Max     0.000000636 RMS     0.000000262
 Z-matrix is all fixed cartesians, so copy forces.
 Force constants in Cartesian coordinates: 
                1             2             3             4             5 
      1  0.712497D+00
      2  0.542178D-01  0.774487D+00
      3  0.611400D-03 -0.456365D-01  0.702176D-01
      4 -0.330279D+00  0.114630D+00  0.519150D-01  0.548873D+00
      5  0.557458D-01 -0.147121D+00 -0.998458D-02  0.703224D-01  0.417466D+00
      6  0.688561D-01 -0.330789D-01 -0.154956D-01 -0.724635D-01  0.170643D-01
      7 -0.263092D+00 -0.182764D+00 -0.381132D-01 -0.331881D-01 -0.216008D-01
      8 -0.187039D+00 -0.241493D+00 -0.282472D-01  0.167634D-01  0.165466D-01
      9 -0.629061D-01 -0.521579D-01 -0.170511D-01  0.984526D-02  0.759320D-02
     10 -0.784524D-01  0.523250D-01 -0.160995D-01 -0.140987D-01  0.369073D-01
     11  0.453656D-01 -0.392347D+00  0.885922D-01  0.117179D-01 -0.720963D-02
     12 -0.157572D-01  0.120384D+00 -0.347440D-01  0.321420D-02 -0.135450D-01
     13 -0.406737D-01 -0.384090D-01  0.168621D-02 -0.171307D+00 -0.141375D+00
     14  0.317099D-01  0.647375D-02 -0.472388D-02 -0.213434D+00 -0.279683D+00
     15  0.919587D-02  0.104897D-01 -0.292685D-02  0.748907D-02 -0.112789D-02
                6             7             8             9            10 
      6  0.306185D-01
      7 -0.231357D-02  0.293395D+00
      8  0.277034D-02  0.191401D+00  0.238700D+00
      9 -0.804836D-02  0.402841D-01  0.363515D-01  0.202130D-01
     10 -0.590713D-02  0.913279D-02 -0.257163D-01  0.905389D-02  0.813777D-01
     11  0.290367D-02  0.863153D-02 -0.147727D-01  0.897699D-02 -0.647302D-01
     12  0.644031D-02  0.701479D-04 -0.904326D-02 -0.219535D-02  0.140755D-01
     13  0.118282D-01 -0.624714D-02  0.459048D-02  0.372287D-02  0.204053D-02
     14  0.103406D-01  0.433187D-02  0.101900D-02 -0.763838D-03  0.121410D-02
     15 -0.135149D-01  0.724595D-04 -0.183139D-02  0.708184D-02 -0.112281D-02
               11            12            13            14            15 
     11  0.409942D+00
     12 -0.981345D-01  0.339555D-01
     13 -0.984838D-03 -0.160265D-02  0.216187D+00
     14  0.438710D-02  0.339290D-03  0.176178D+00  0.267803D+00
     15 -0.233832D-02 -0.345642D-02 -0.156346D-01 -0.519215D-02  0.128163D-01
 Final forces over variables, Energy=-1.11185817D+02:
  6.36169498D-07-1.94018600D-07-1.40472263D-07-2.20247812D-07
 -8.14308263D-08-4.00988336D-07-1.05659962D-07-1.35814474D-07
  5.30599660D-07 1.11863114D-07 1.77979496D-08 1.28322655D-07
 -1.27046933D-08-6.81921967D-08-6.52237142D-08
 Leave Link  716 at Sat Nov 12 21:51:34 2022, MaxMem=   939524096 cpu:         0.1
 (Enter /Local/ce_dana/g09/l103.exe)

 GradGradGradGradGradGradGradGradGradGradGradGradGradGradGradGradGradGrad
 Berny optimization.
 Search for a local minimum.
 Step number   1 out of a maximum of    2
 All quantities printed in internal units (Hartrees-Bohrs-Radians)
 Second derivative matrix not updated -- analytic derivatives used.
 The second derivative matrix:
                          X1        Y1        Z1        X2        Y2
           X1           0.71250
           Y1           0.05422   0.77449
           Z1           0.00061  -0.04564   0.07022
           X2          -0.33028   0.11463   0.05192   0.54887
           Y2           0.05575  -0.14712  -0.00998   0.07032   0.41747
           Z2           0.06886  -0.03308  -0.01550  -0.07246   0.01706
           X3          -0.26309  -0.18276  -0.03811  -0.03319  -0.02160
           Y3          -0.18704  -0.24149  -0.02825   0.01676   0.01655
           Z3          -0.06291  -0.05216  -0.01705   0.00985   0.00759
           X4          -0.07845   0.05233  -0.01610  -0.01410   0.03691
           Y4           0.04537  -0.39235   0.08859   0.01172  -0.00721
           Z4          -0.01576   0.12038  -0.03474   0.00321  -0.01355
           X5          -0.04067  -0.03841   0.00169  -0.17131  -0.14137
           Y5           0.03171   0.00647  -0.00472  -0.21343  -0.27968
           Z5           0.00920   0.01049  -0.00293   0.00749  -0.00113
                          Z2        X3        Y3        Z3        X4
           Z2           0.03062
           X3          -0.00231   0.29339
           Y3           0.00277   0.19140   0.23870
           Z3          -0.00805   0.04028   0.03635   0.02021
           X4          -0.00591   0.00913  -0.02572   0.00905   0.08138
           Y4           0.00290   0.00863  -0.01477   0.00898  -0.06473
           Z4           0.00644   0.00007  -0.00904  -0.00220   0.01408
           X5           0.01183  -0.00625   0.00459   0.00372   0.00204
           Y5           0.01034   0.00433   0.00102  -0.00076   0.00121
           Z5          -0.01351   0.00007  -0.00183   0.00708  -0.00112
                          Y4        Z4        X5        Y5        Z5
           Y4           0.40994
           Z4          -0.09813   0.03396
           X5          -0.00098  -0.00160   0.21619
           Y5           0.00439   0.00034   0.17618   0.26780
           Z5          -0.00234  -0.00346  -0.01563  -0.00519   0.01282
 ITU=  0
     Eigenvalues ---    0.02767   0.03978   0.05983   0.13121   0.18639
     Eigenvalues ---    0.45611   0.70591   1.02331   1.07989
 Angle between quadratic step and forces=  65.66 degrees.
 Linear search not attempted -- first point.
 TrRot=  0.000000 -0.000000 -0.000000 -0.000000 -0.000000 -0.000000
 Variable       Old X    -DE/DX   Delta X   Delta X   Delta X     New X
                                 (Linear)    (Quad)   (Total)
    X1       -0.80286   0.00000   0.00000   0.00000   0.00000  -0.80286
    Y1        0.00364  -0.00000   0.00000  -0.00000  -0.00000   0.00364
    Z1        0.32059   0.00000   0.00000  -0.00000  -0.00000   0.32059
    X2        1.49077  -0.00000   0.00000   0.00000   0.00000   1.49077
    Y2       -0.99563  -0.00000   0.00000  -0.00000  -0.00000  -0.99563
    Z2       -0.15660   0.00000   0.00000   0.00000   0.00000  -0.15659
    X3       -2.23693  -0.00000   0.00000  -0.00000  -0.00000  -2.23693
    Y3       -1.21914  -0.00000   0.00000  -0.00000  -0.00000  -1.21914
    Z3        0.05606  -0.00000   0.00000  -0.00000  -0.00000   0.05606
    X4       -1.19276  -0.00000   0.00000  -0.00000  -0.00000  -1.19277
    Y4        1.81139   0.00000   0.00000   0.00000   0.00000   1.81139
    Z4       -0.16104  -0.00000   0.00000   0.00000   0.00000  -0.16104
    X5        2.71313  -0.00000   0.00000  -0.00000  -0.00000   2.71312
    Y5        0.49612   0.00000   0.00000   0.00000   0.00000   0.49612
    Z5       -0.21125  -0.00000   0.00000  -0.00000  -0.00000  -0.21125
         Item               Value     Threshold  Converged?
 Maximum Force            0.000001     0.000450     YES
 RMS     Force            0.000000     0.000300     YES
 Maximum Displacement     0.000002     0.001800     YES
 RMS     Displacement     0.000001     0.001200     YES
 Predicted change in Energy=-8.936191D-13
 Optimization completed.
    -- Stationary point found.
 GradGradGradGradGradGradGradGradGradGradGradGradGradGradGradGradGradGrad

 Leave Link  103 at Sat Nov 12 21:51:34 2022, MaxMem=   939524096 cpu:         0.1
 (Enter /Local/ce_dana/g09/l9999.exe)

 Test job not archived.
 1\1\GINC-TECH-WN184\Freq\UB2PLYPD3-FC\def2TZVP\H3N2(2)\ALONGD\12-Nov-2
 022\0\\#P guess=read ub2plypd3/def2tzvp freq IOp(7/33=1) scf=(tight, d
 irect) integral=(grid=ultrafine, Acc2E=12) IOp(2/9=2000) scf=xqc\\Hydr
 azino\\0,2\N,-0.424857,0.001928,0.16965\N,0.788879,-0.526866,-0.082867
 \H,-1.183732,-0.64514,0.029666\H,-0.631184,0.958544,-0.085218\H,1.4357
 24,0.262534,-0.111787\\Version=ES64L-G09RevD.01\State=2-A\HF=-111.0573
 395\MP2=-111.1858174\S2=0.758466\S2-1=0.\S2A=0.750045\RMSD=6.537e-09\R
 MSF=2.617e-07\ZeroPoint=0.0397142\Thermal=0.0428706\Dipole=-0.6122147,
 0.8372842,-0.1872848\DipoleDeriv=-0.3790966,0.0803525,0.1210367,0.1900
 106,-0.1525828,-0.1165337,0.231881,-0.1312534,-0.4626561,0.0298119,-0.
 0635167,-0.1302899,-0.0837463,-0.0710166,0.0755005,-0.0813589,0.046981
 7,-0.4110765,0.1395704,0.0034166,-0.0146659,0.0209595,0.1506356,-0.022
 4774,-0.1027888,-0.0091938,0.286617,0.0817747,0.0497324,0.0145518,0.04
 03087,0.0960373,0.0639185,-0.0603537,0.1041746,0.3247816,0.1279395,-0.
 0699848,0.0093672,-0.1675324,-0.0230735,-0.0004079,0.0126204,-0.010709
 1,0.262334\Polar=24.0663056,-1.9228221,17.4690419,-1.6261535,0.3738833
 ,12.6613674\PG=C01 [X(H3N2)]\NImag=0\\0.71249725,0.05421778,0.77448685
 ,0.00061140,-0.04563652,0.07021755,-0.33027898,0.11463027,0.05191502,0
 .54887283,0.05574578,-0.14712078,-0.00998458,0.07032242,0.41746645,0.0
 6885608,-0.03307887,-0.01549558,-0.07246355,0.01706429,0.03061851,-0.2
 6309220,-0.18276404,-0.03811316,-0.03318810,-0.02160076,-0.00231357,0.
 29339465,-0.18703902,-0.24149286,-0.02824719,0.01676338,0.01654657,0.0
 0277034,0.19140140,0.23869994,-0.06290613,-0.05215786,-0.01705113,0.00
 984526,0.00759320,-0.00804836,0.04028411,0.03635150,0.02021300,-0.0784
 5236,0.05232501,-0.01609948,-0.01409866,0.03690732,-0.00590713,0.00913
 279,-0.02571625,0.00905389,0.08137770,0.04536559,-0.39234697,0.0885921
 7,0.01171788,-0.00720963,0.00290367,0.00863153,-0.01477265,0.00897699,
 -0.06473017,0.40994215,-0.01575722,0.12038350,-0.03474399,0.00321420,-
 0.01354502,0.00644031,0.00007015,-0.00904326,-0.00219535,0.01407552,-0
 .09813451,0.03395545,-0.04067371,-0.03840901,0.00168621,-0.17130708,-0
 .14137477,0.01182816,-0.00624714,0.00459048,0.00372287,0.00204053,-0.0
 0098484,-0.00160265,0.21618740,0.03170986,0.00647375,-0.00472388,-0.21
 343396,-0.27968262,0.01034057,0.00433187,0.00101900,-0.00076384,0.0012
 1410,0.00438710,0.00033929,0.17617813,0.26780277,0.00919587,0.01048974
 ,-0.00292685,0.00748907,-0.00112789,-0.01351488,0.00007246,-0.00183139
 ,0.00708184,-0.00112281,-0.00233832,-0.00345642,-0.01563459,-0.0051921
 5,0.01281632\\-0.00000064,0.00000040,-0.00000002,0.00000019,0.00000011
 ,-0.00000013,0.00000014,0.00000014,0.00000001,0.00000022,-0.00000053,0
 .00000007,0.00000008,-0.00000011,0.00000007\\\@


 IT IS BETTER TO THINK YOU ARE HALF DRY THAN TO KNOW YOU
 ARE ALL WET.  -- SNOOPY
 Job cpu time:       0 days  0 hours 14 minutes 26.3 seconds.
 File lengths (MBytes):  RWF=    538 Int=      0 D2E=      0 Chk=      2 Scr=      1
 Normal termination of Gaussian 09 at Sat Nov 12 21:51:35 2022.
