 Entering Gaussian System, Link 0=/Local/ce_dana/g09/g09
 Initial command:
 /Local/ce_dana/g09/l1.exe "/storage/ce_dana/alongd/scratch/g09/Gau-40407.inp" -scrdir="/storage/ce_dana/alongd/scratch/g09/"
 Entering Link 1 = /Local/ce_dana/g09/l1.exe PID=     40408.
  
 Copyright (c) 1988,1990,1992,1993,1995,1998,2003,2009,2013,
            Gaussian, Inc.  All Rights Reserved.
  
 This is part of the Gaussian(R) 09 program.  It is based on
 the Gaussian(R) 03 system (copyright 2003, Gaussian, Inc.),
 the Gaussian(R) 98 system (copyright 1998, Gaussian, Inc.),
 the Gaussian(R) 94 system (copyright 1995, Gaussian, Inc.),
 the Gaussian 92(TM) system (copyright 1992, Gaussian, Inc.),
 the Gaussian 90(TM) system (copyright 1990, Gaussian, Inc.),
 the Gaussian 88(TM) system (copyright 1988, Gaussian, Inc.),
 the Gaussian 86(TM) system (copyright 1986, Carnegie Mellon
 University), and the Gaussian 82(TM) system (copyright 1983,
 Carnegie Mellon University). Gaussian is a federally registered
 trademark of Gaussian, Inc.
  
 This software contains proprietary and confidential information,
 including trade secrets, belonging to Gaussian, Inc.
  
 This software is provided under written license and may be
 used, copied, transmitted, or stored only in accord with that
 written license.
  
 The following legend is applicable only to US Government
 contracts under FAR:
  
                    RESTRICTED RIGHTS LEGEND
  
 Use, reproduction and disclosure by the US Government is
 subject to restrictions as set forth in subparagraphs (a)
 and (c) of the Commercial Computer Software - Restricted
 Rights clause in FAR 52.227-19.
  
 Gaussian, Inc.
 340 Quinnipiac St., Bldg. 40, Wallingford CT 06492
  
  
 ---------------------------------------------------------------
 Warning -- This program may not be used in any manner that
 competes with the business of Gaussian, Inc. or will provide
 assistance to any competitor of Gaussian, Inc.  The licensee
 of this program is prohibited from giving any competitor of
 Gaussian, Inc. access to this program.  By using this program,
 the user acknowledges that Gaussian, Inc. is engaged in the
 business of creating and licensing software in the field of
 computational chemistry and represents and warrants to the
 licensee that it is not a competitor of Gaussian, Inc. and that
 it will not use this program in any manner prohibited above.
 ---------------------------------------------------------------
  

 Cite this work as:
 Gaussian 09, Revision D.01,
 M. J. Frisch, G. W. Trucks, H. B. Schlegel, G. E. Scuseria, 
 M. A. Robb, J. R. Cheeseman, G. Scalmani, V. Barone, B. Mennucci, 
 G. A. Petersson, H. Nakatsuji, M. Caricato, X. Li, H. P. Hratchian, 
 A. F. Izmaylov, J. Bloino, G. Zheng, J. L. Sonnenberg, M. Hada, 
 M. Ehara, K. Toyota, R. Fukuda, J. Hasegawa, M. Ishida, T. Nakajima, 
 Y. Honda, O. Kitao, H. Nakai, T. Vreven, J. A. Montgomery, Jr., 
 J. E. Peralta, F. Ogliaro, M. Bearpark, J. J. Heyd, E. Brothers, 
 K. N. Kudin, V. N. Staroverov, T. Keith, R. Kobayashi, J. Normand, 
 K. Raghavachari, A. Rendell, J. C. Burant, S. S. Iyengar, J. Tomasi, 
 M. Cossi, N. Rega, J. M. Millam, M. Klene, J. E. Knox, J. B. Cross, 
 V. Bakken, C. Adamo, J. Jaramillo, R. Gomperts, R. E. Stratmann, 
 O. Yazyev, A. J. Austin, R. Cammi, C. Pomelli, J. W. Ochterski, 
 R. L. Martin, K. Morokuma, V. G. Zakrzewski, G. A. Voth, 
 P. Salvador, J. J. Dannenberg, S. Dapprich, A. D. Daniels, 
 O. Farkas, J. B. Foresman, J. V. Ortiz, J. Cioslowski, 
 and D. J. Fox, Gaussian, Inc., Wallingford CT, 2013.
 
 ******************************************
 Gaussian 09:  ES64L-G09RevD.01 24-Apr-2013
                12-Nov-2022 
 ******************************************
 %chk=check.chk
 %mem=7168mb
 %NProcShared=10
 Will use up to   10 processors via shared memory.
 ----------------------------------------------------------------------
 #P opt=(modredundant, calcfc, noeigentest, maxStep=5) scf=(tight, dire
 ct) integral=(grid=ultrafine, Acc2E=12) guess=read ub2plypd3/def2tzvp 
 IOp(2/9=2000) scf=xqc
 ----------------------------------------------------------------------
 1/8=5,10=4,11=1,18=120,19=15,38=1/1,3;
 2/9=2000,12=2,17=6,18=5,40=1/2;
 3/5=44,7=101,11=2,16=1,25=1,30=1,71=2,74=-60,75=-5,116=2,140=1/1,2,3;
 4/5=1/1;
 5/5=2,8=3,13=1,32=2,38=6,87=12/2,8;
 8/6=3,8=1,10=1,19=11,30=-1,87=12/1;
 9/15=3,16=-3,87=12/6;
 11/6=1,8=1,15=11,17=12,24=-1,27=1,28=-2,29=300,32=6,42=3,87=12/1,2,10;
 10/6=2,21=1,87=12/2;
 8/6=4,8=1,10=1,19=11,30=-1,87=12/11,4;
 10/5=1,20=4,87=12/2;
 11/12=2,14=11,16=1,17=2,28=-2,42=3,87=12/2,10,12;
 6/7=2,8=2,9=2,10=2/1;
 7/10=1,12=2,25=1,44=2,87=12/1,2,3,16;
 1/8=5,10=4,11=1,18=20,19=15/3(2);
 2/9=2000/2;
 99//99;
 2/9=2000/2;
 3/5=44,7=101,11=2,16=1,25=1,30=1,71=1,74=-60,75=-5,116=2/1,2,3;
 4/5=5,16=3,69=1/1;
 5/5=2,8=3,13=1,32=2,38=5,87=12/2,8;
 8/6=4,10=1,87=12/1;
 9/15=2,16=-3,87=12/6;
 10/5=1,87=12/2;
 7/12=2,87=12/1,2,3,16;
 1/8=5,11=1,18=20,19=15/3(-8);
 2/9=2000/2;
 6/7=2,8=2,9=2,10=2/1;
 99//99;
 Leave Link    1 at Sat Nov 12 23:36:09 2022, MaxMem=   939524096 cpu:         0.1
 (Enter /Local/ce_dana/g09/l101.exe)
 ---------
 Hydrazino
 ---------
 Symbolic Z-matrix:
 Charge =  0 Multiplicity = 2
 N                    -0.42486   0.00193   0.16965 
 N                     0.78888  -0.52687  -0.08287 
 H                    -1.18373  -0.64514   0.02967 
 H                    -0.63118   0.95854  -0.08522 
 H                     1.43572   0.26253  -0.11179 
 
 The following ModRedundant input section has been read:
 D       3       1       2       5 S  45 8.0000                                
 A       2       1       3 F                                                   
 A       2       1       4 F                                                   
 D       2       1       3       4 F                                           
 A       2       1       3 F                                                   
 A       2       1       4 F                                                   
 D       2       1       3       4 F                                           
 
 Add atom      1 valence  3 ND=      2 dihedral       2      1      3      4
 NAtoms=      5 NQM=        5 NQMF=       0 NMMI=      0 NMMIF=      0
                NMic=       0 NMicF=      0.
                    Isotopes and Nuclear Properties:
 (Nuclear quadrupole moments (NQMom) in fm**2, nuclear magnetic moments (NMagM)
  in nuclear magnetons)

  Atom         1           2           3           4           5
 IAtWgt=          14          14           1           1           1
 AtmWgt=  14.0030740  14.0030740   1.0078250   1.0078250   1.0078250
 NucSpn=           2           2           1           1           1
 AtZEff=   0.0000000   0.0000000   0.0000000   0.0000000   0.0000000
 NQMom=    2.0440000   2.0440000   0.0000000   0.0000000   0.0000000
 NMagM=    0.4037610   0.4037610   2.7928460   2.7928460   2.7928460
 AtZNuc=   7.0000000   7.0000000   1.0000000   1.0000000   1.0000000
 Leave Link  101 at Sat Nov 12 23:36:10 2022, MaxMem=   939524096 cpu:         0.2
 (Enter /Local/ce_dana/g09/l103.exe)

 GradGradGradGradGradGradGradGradGradGradGradGradGradGradGradGradGradGrad
 Berny optimization.
 Initialization pass.
                           ----------------------------
                           !    Initial Parameters    !
                           ! (Angstroms and Degrees)  !
 --------------------------                            --------------------------
 ! Name  Definition              Value          Derivative Info.                !
 --------------------------------------------------------------------------------
 ! R1    R(1,2)                  1.3478         calculate D2E/DX2 analytically  !
 ! R2    R(1,3)                  1.0071         calculate D2E/DX2 analytically  !
 ! R3    R(1,4)                  1.0113         calculate D2E/DX2 analytically  !
 ! R4    R(2,5)                  1.021          calculate D2E/DX2 analytically  !
 ! A1    A(2,1,3)              113.6073         frozen, calculate D2E/DX2 analyt!
 ! A2    A(2,1,4)              120.508          frozen, calculate D2E/DX2 analyt!
 ! A3    A(3,1,4)              114.7733         calculate D2E/DX2 analytically  !
 ! A4    A(1,2,5)              105.8128         calculate D2E/DX2 analytically  !
 ! D1    D(3,1,2,5)            167.6218         Scan                            !
 ! D2    D(4,1,2,5)             25.5947         calculate D2E/DX2 analytically  !
 ! D3    D(2,1,3,4)           -144.2792         frozen, calculate D2E/DX2 analyt!
 --------------------------------------------------------------------------------
 Trust Radius=5.00D-02 FncErr=1.00D-07 GrdErr=1.00D-07
 Number of optimizations in scan=  46
 Number of steps in this run=     21 maximum allowed number of steps=    100.
 GradGradGradGradGradGradGradGradGradGradGradGradGradGradGradGradGradGrad

 Leave Link  103 at Sat Nov 12 23:36:10 2022, MaxMem=   939524096 cpu:         0.0
 (Enter /Local/ce_dana/g09/l202.exe)
                          Input orientation:                          
 ---------------------------------------------------------------------
 Center     Atomic      Atomic             Coordinates (Angstroms)
 Number     Number       Type             X           Y           Z
 ---------------------------------------------------------------------
      1          7           0       -0.424857    0.001928    0.169650
      2          7           0        0.788879   -0.526866   -0.082867
      3          1           0       -1.183732   -0.645140    0.029666
      4          1           0       -0.631184    0.958544   -0.085218
      5          1           0        1.435724    0.262534   -0.111787
 ---------------------------------------------------------------------
                    Distance matrix (angstroms):
                    1          2          3          4          5
     1  N    0.000000
     2  N    1.347792   0.000000
     3  H    1.007067   1.979355   0.000000
     4  H    1.011258   2.055001   1.700091   0.000000
     5  H    1.899706   1.020979   2.775866   2.181111   0.000000
 Stoichiometry    H3N2(2)
 Framework group  C1[X(H3N2)]
 Deg. of freedom     9
 Full point group                 C1      NOp   1
 Largest Abelian subgroup         C1      NOp   1
 Largest concise Abelian subgroup C1      NOp   1
                         Standard orientation:                         
 ---------------------------------------------------------------------
 Center     Atomic      Atomic             Coordinates (Angstroms)
 Number     Number       Type             X           Y           Z
 ---------------------------------------------------------------------
      1          7           0        0.594914    0.024548   -0.072558
      2          7           0       -0.737934   -0.150898    0.023768
      3          1           0        1.127799   -0.797550    0.160621
      4          1           0        1.019315    0.898406    0.208332
      5          1           0       -1.145975    0.783596   -0.027425
 ---------------------------------------------------------------------
 Rotational constants (GHZ):    205.3724269     30.8120483     27.1858800
 Leave Link  202 at Sat Nov 12 23:36:10 2022, MaxMem=   939524096 cpu:         0.0
 (Enter /Local/ce_dana/g09/l301.exe)
 Standard basis: def2TZVP (5D, 7F)
 Ernie: Thresh=  0.10000D-02 Tol=  0.10000D-05 Strict=F.
 There are    90 symmetry adapted cartesian basis functions of A   symmetry.
 There are    80 symmetry adapted basis functions of A   symmetry.
    80 basis functions,   126 primitive gaussians,    90 cartesian basis functions
     9 alpha electrons        8 beta electrons
       nuclear repulsion energy        36.5764233089 Hartrees.
 IExCor=  419 DFT=T Ex+Corr=B2PLYPD3 ExCW=0 ScaHFX=  0.530000
 ScaDFX=  0.470000  0.470000  0.730000  0.730000 ScalE2=  0.270000  0.270000
 IRadAn=      5 IRanWt=     -1 IRanGd=            0 ICorTp=0 IEmpDi=141
 NAtoms=    5 NActive=    5 NUniq=    5 SFac= 1.00D+00 NAtFMM=   60 NAOKFM=F Big=F
 Integral buffers will be    131072 words long.
 Raffenetti 2 integral format.
 Two-electron integral symmetry is turned on.
 R6Disp:  Grimme-D3(BJ) Dispersion energy=       -0.0011073464 Hartrees.
 Nuclear repulsion after empirical dispersion term =       36.5753159625 Hartrees.
 Leave Link  301 at Sat Nov 12 23:36:10 2022, MaxMem=   939524096 cpu:         0.1
 (Enter /Local/ce_dana/g09/l302.exe)
 NPDir=0 NMtPBC=     1 NCelOv=     1 NCel=       1 NClECP=     1 NCelD=      1
         NCelK=      1 NCelE2=     1 NClLst=     1 CellRange=     0.0.
 One-electron integrals computed using PRISM.
   1 Symmetry operations used in ECPInt.
 ECPInt:  NShTT=     595 NPrTT=    1764 LenC2=     595 LenP2D=    1624.
 LDataN:  DoStor=T MaxTD1= 6 Len=  172
 NBasis=    80 RedAO= T EigKep=  1.40D-03  NBF=    80
 NBsUse=    80 1.00D-06 EigRej= -1.00D+00 NBFU=    80
 Precomputing XC quadrature grid using
 IXCGrd= 4 IRadAn=           5 IRanWt=          -1 IRanGd=           0 AccXCQ= 0.00D+00.
 Generated NRdTot=       0 NPtTot=           0 NUsed=           0 NTot=          32
 NSgBfM=    90    90    90    90    90 MxSgAt=     5 MxSgA2=     5.
 Leave Link  302 at Sat Nov 12 23:36:10 2022, MaxMem=   939524096 cpu:         1.5
 (Enter /Local/ce_dana/g09/l303.exe)
 DipDrv:  MaxL=1.
 Leave Link  303 at Sat Nov 12 23:36:10 2022, MaxMem=   939524096 cpu:         0.1
 (Enter /Local/ce_dana/g09/l401.exe)
 Initial guess from the checkpoint file:  "check.chk"
 B after Tr=     0.000000    0.000000   -0.000000
         Rot=    1.000000   -0.000000    0.000000   -0.000000 Ang=   0.00 deg.
 Guess basis will be translated and rotated to current coordinates.
 JPrj=2 DoOrth=T DoCkMO=T.
 Initial guess <Sx>= 0.0000 <Sy>= 0.0000 <Sz>= 0.5000 <S**2>= 0.7585 S= 0.5042
 Leave Link  401 at Sat Nov 12 23:36:10 2022, MaxMem=   939524096 cpu:         0.3
 (Enter /Local/ce_dana/g09/l502.exe)
 UHF open shell SCF:
 Using DIIS extrapolation, IDIIS=  1040.
 Integral symmetry usage will be decided dynamically.
 Keep R1 and R2 ints in memory in canonical form, NReq=12508135.
 IVT=       31806 IEndB=       31806 NGot=   939524096 MDV=   928991451
 LenX=   928991451 LenY=   928982910
 Requested convergence on RMS density matrix=1.00D-08 within  64 cycles.
 Requested convergence on MAX density matrix=1.00D-06.
 Requested convergence on             energy=1.00D-06.
 No special actions if energy rises.
 FoFCou: FMM=F IPFlag=           0 FMFlag=           0 FMFlg1=           0
         NFxFlg=           0 DoJE=F BraDBF=F KetDBF=F FulRan=T
         wScrn=  0.000000 ICntrl=     600 IOpCl=  0 I1Cent=           0 NGrid=           0
         NMat0=    1 NMatS0=   3240 NMatT0=    0 NMatD0=    1 NMtDS0=    0 NMtDT0=    0
 Symmetry not used in FoFCou.

 Cycle   1  Pass 1  IDiag  1:
 E= -111.057339465107    
 DIIS: error= 4.69D-08 at cycle   1 NSaved=   1.
 NSaved= 1 IEnMin= 1 EnMin= -111.057339465107     IErMin= 1 ErrMin= 4.69D-08
 ErrMax= 4.69D-08  0.00D+00 EMaxC= 1.00D-01 BMatC= 1.41D-12 BMatP= 1.41D-12
 IDIUse=1 WtCom= 1.00D+00 WtEn= 0.00D+00
 Coeff-Com:  0.100D+01
 Coeff:      0.100D+01
 Gap=     0.325 Goal=   None    Shift=    0.000
 Gap=     0.386 Goal=   None    Shift=    0.000
 RMSDP=6.54D-09 MaxDP=6.80D-08              OVMax= 2.91D-07

 SCF Done:  E(UB2PLYPD3) =  -111.057339465     A.U. after    1 cycles
            NFock=  1  Conv=0.65D-08     -V/T= 2.0029
 <Sx>= 0.0000 <Sy>= 0.0000 <Sz>= 0.5000 <S**2>= 0.7585 S= 0.5042
 <L.S>=  0.00000000000    
 KE= 1.107339659062D+02 PE=-3.333930120723D+02 EE= 7.502639073848D+01
 Annihilation of the first spin contaminant:
 S**2 before annihilation     0.7585,   after     0.7500
 Leave Link  502 at Sat Nov 12 23:36:11 2022, MaxMem=   939524096 cpu:         4.6
 (Enter /Local/ce_dana/g09/l508.exe)
 QCSCF skips out because SCF is already converged.
 Leave Link  508 at Sat Nov 12 23:36:11 2022, MaxMem=   939524096 cpu:         0.0
 (Enter /Local/ce_dana/g09/l801.exe)
 DoSCS=T DFT=T ScalE2(SS,OS)=  0.270000  0.270000
 ExpMin= 1.03D-01 ExpMax= 1.97D+04 ExpMxC= 6.73D+02 IAcc=3 IRadAn=         5 AccDes= 0.00D+00
 HarFok:  IExCor=  205 AccDes= 0.00D+00 IRadAn=         5 IDoV=-2 UseB2=F ITyADJ=14
 ICtDFT= 12500011 ScaDFX=  1.000000  1.000000  1.000000  1.000000
 Largest valence mixing into a core orbital is  8.53D-05
 Largest core mixing into a valence orbital is  1.65D-05
 Largest valence mixing into a core orbital is  1.10D-04
 Largest core mixing into a valence orbital is  2.07D-05
 Range of M.O.s used for correlation:     3    80
 NBasis=    80 NAE=     9 NBE=     8 NFC=     2 NFV=     0
 NROrb=     78 NOA=     7 NOB=     6 NVA=    71 NVB=    72

 **** Warning!!: The largest alpha MO coefficient is  0.10235281D+02


 **** Warning!!: The largest beta MO coefficient is  0.10214200D+02

 Leave Link  801 at Sat Nov 12 23:36:11 2022, MaxMem=   939524096 cpu:         0.4
 (Enter /Local/ce_dana/g09/l906.exe)
 DoSCS=T DFT=T ScalE2(SS,OS)=  0.270000  0.270000
 Frozen-core derivative calculation, NFC=   2 NFV=   0.
 FulOut=F Deriv=T AODrv=T NAtomX=     5
   MMem=           0  MDisk=           7 MDiskD=           7
  W3Min=      129600 MinDsk=      314105 NBas6D=          90
 NBas2D=        4272    NTT=        4095    LW2=     7400000
    MDV=   939408981 MDiskM=       52078 NBas2p=        4271
 Disk-based method using ON**2 memory for  7 occupieds at a time.
 Permanent disk used for amplitudes=      529092 words.
 Estimated scratch disk usage=     9755300 words.
 IMap=   1   2   3   4   5   6   7   8   9
 Actual    scratch disk usage=     9755300 words.
 JobTyp=2 Pass  1:  I=   3 to   9 NPSUse= 10 ParTrn=T ParDer=T DoDerP=T.
 (rs|ai) integrals will be sorted in core.
 IMap=   1   2   3   4   5   6   7   8
 Actual    scratch disk usage=     9755300 words.
 JobTyp=3 Pass  1:  I=   3 to   8 NPSUse= 10 ParTrn=T ParDer=T DoDerP=T.
 (rs|ai) integrals will be sorted in core.
 Spin components of T(2) and E(2):
     alpha-alpha T2 =       0.2155040392D-01 E2=     -0.1705590281D-01
     alpha-beta  T2 =       0.1244791498D+00 E2=     -0.9673725891D-01
     beta-beta   T2 =       0.2222682439D-01 E2=     -0.1468479449D-01
 The integrals were generated   2 times.
 E2(B2PLYPD3) =    -0.1284779562D+00 E(B2PLYPD3) =    -0.11118581742131D+03
 Leave Link  906 at Sat Nov 12 23:36:27 2022, MaxMem=   939524096 cpu:       158.1
 (Enter /Local/ce_dana/g09/l1101.exe)
 Using compressed Sx but separate Hx and Fx, NAtomX=     5.
 Will process      6 centers per pass.
   1 Symmetry operations used in ECPInt.
 ECPInt:  NShTT=     595 NPrTT=    1764 LenC2=     595 LenP2D=    1624.
 LDataN:  DoStor=T MaxTD1= 7 Len=  274
 R6Disp: Adding Grimme-D3(BJ) dispersion energy 1st derivatives to the gradient.
 Leave Link 1101 at Sat Nov 12 23:36:27 2022, MaxMem=   939524096 cpu:         3.5
 (Enter /Local/ce_dana/g09/l1102.exe)
 Leave Link 1102 at Sat Nov 12 23:36:27 2022, MaxMem=   939524096 cpu:         0.0
 (Enter /Local/ce_dana/g09/l1110.exe)
 Forming Gx(P) for the SCF density, NAtomX=     5.
 Integral derivatives from FoFJK, PRISM(SPDF).
 Do as many integral derivatives as possible in FoFJK.
 G2DrvN: MDV=     939523952.
 G2DrvN: will do     6 centers at a time, making    1 passes.
 Calling FoFCou, ICntrl=  3107 FMM=F I1Cent=   0 AccDes= 1.00D-12.
 FoFJK:  IHMeth= 1 ICntrl=    3107 DoSepK=F KAlg= 0 I1Cent=   0 FoldK=F
 IRaf=         0 NMat=   1 IRICut=       1 DoRegI=T DoRafI=F ISym2E= 0.
 FoFCou: FMM=F IPFlag=           0 FMFlag=      100000 FMFlg1=           0
         NFxFlg=           0 DoJE=F BraDBF=F KetDBF=F FulRan=T
         wScrn=  0.000000 ICntrl=    3107 IOpCl=  1 I1Cent=           0 NGrid=           0
         NMat0=    1 NMatS0=      1 NMatT0=    0 NMatD0=    1 NMtDS0=    0 NMtDT0=    0
 Symmetry not used in FoFCou.
 End of G2Drv F.D. properties file   721 does not exist.
 End of G2Drv F.D. properties file   722 does not exist.
 End of G2Drv F.D. properties file   788 does not exist.
 Leave Link 1110 at Sat Nov 12 23:36:33 2022, MaxMem=   939524096 cpu:        49.3
 (Enter /Local/ce_dana/g09/l1002.exe)
 Minotr:  UHF open shell wavefunction.
          IDoAtm=11111
          Frozen-core window.
          Direct CPHF calculation.
          Differentiating once with respect to electric field.
                with respect to dipole field.
          Differentiating once with respect to nuclear coordinates.
          Requested convergence is 1.0D-08 RMS, and 1.0D-07 maximum.
          Secondary convergence is 1.0D-12 RMS, and 1.0D-12 maximum.
          NewPWx=T KeepS1=T KeepF1=T KeepIn=T MapXYZ=F SortEE=F KeepMc=T.
          MDV=     939523886 using IRadAn=       1.
 Generate precomputed XC quadrature information.
 Keep R1 and R2 ints in memory in canonical form, NReq=12491202.
 FoFCou: FMM=F IPFlag=           0 FMFlag=           0 FMFlg1=           0
         NFxFlg=           0 DoJE=F BraDBF=F KetDBF=F FulRan=T
         wScrn=  0.000000 ICntrl=     600 IOpCl=  0 I1Cent=           0 NGrid=           0
         NMat0=    1 NMatS0=   3240 NMatT0=    0 NMatD0=    1 NMtDS0=    0 NMtDT0=    0
 Symmetry not used in FoFCou.
          Solving linear equations simultaneously, MaxMat=       0.
          There are    18 degrees of freedom in the 1st order CPHF.  IDoFFX=6 NUNeed=    18.
     15 vectors produced by pass  0 Test12= 6.75D-15 5.56D-09 XBig12= 1.90D+01 2.61D+00.
 AX will form    15 AO Fock derivatives at one time.
     15 vectors produced by pass  1 Test12= 6.75D-15 5.56D-09 XBig12= 1.56D+00 4.15D-01.
     15 vectors produced by pass  2 Test12= 6.75D-15 5.56D-09 XBig12= 9.84D-02 7.76D-02.
     15 vectors produced by pass  3 Test12= 6.75D-15 5.56D-09 XBig12= 1.33D-03 8.18D-03.
     15 vectors produced by pass  4 Test12= 6.75D-15 5.56D-09 XBig12= 3.79D-05 1.90D-03.
     15 vectors produced by pass  5 Test12= 6.75D-15 5.56D-09 XBig12= 5.77D-07 1.75D-04.
     15 vectors produced by pass  6 Test12= 6.75D-15 5.56D-09 XBig12= 3.29D-09 9.58D-06.
      7 vectors produced by pass  7 Test12= 6.75D-15 5.56D-09 XBig12= 1.95D-11 7.61D-07.
      3 vectors produced by pass  8 Test12= 6.75D-15 5.56D-09 XBig12= 1.21D-13 7.44D-08.
      1 vectors produced by pass  9 Test12= 6.75D-15 5.56D-09 XBig12= 9.62D-16 5.85D-09.
 InvSVY:  IOpt=1 It=  1 EMax= 2.11D-15
 Solved reduced A of dimension   116 with    15 vectors.
 FullF1:  Do perturbations    1 to    18.
 Saving first derivative matrices.
 End of Minotr F.D. properties file   721 does not exist.
 End of Minotr F.D. properties file   722 does not exist.
 End of Minotr F.D. properties file   788 does not exist.
 Leave Link 1002 at Sat Nov 12 23:36:42 2022, MaxMem=   939524096 cpu:        89.7
 (Enter /Local/ce_dana/g09/l811.exe)
 MDV=   939524096.
 DoSCS=T DFT=T ScalE2(SS,OS)=  0.270000  0.270000
 Form MO integral derivatives with frozen-active canonical formalism.
 MOERI=1 MOERIx=1 NAtoms=     5 NAtomX=     5.
 Discarding MO integrals.
 MO basis two electron integral derivatives will not be stored on disk.
 IAlg= 3 DoFC=T DoPWx=T Debug=F.
 Frozen-core window:  NFC=   2 NFV=   0.
 Reordered first order wavefunction length =      2163753
 In DefCFB: NBatch=  1 ICI=  9 ICA= 72 LFMax= 36
            Large arrays: LIAPS=    34992000 LIARS=    29393280 words.
 In StABat: MaxSiz= 36 MinSiz= 18 NAtomB=  3
 DoIAMN: NPSUse= 10.
 In DefCFB: NBatch=  1 ICI=  9 ICA= 72 LFMax= 36
            Large arrays: LIAPS=    34992000 LIARS=    29393280 words.
 In StABat: MaxSiz= 36 MinSiz= 18 NAtomB=  3
 Leave Link  811 at Sat Nov 12 23:36:55 2022, MaxMem=   939524096 cpu:        46.8
 (Enter /Local/ce_dana/g09/l804.exe)
 Frozen-core window:  NFC=   2 NFV=   0.
 Open-shell transformation, MDV=   939524096 ITran=4 ISComp=1.
 Semi-Direct transformation.
 ModeAB=           2 MOrb=             9 LenV=     939007002
 LASXX=      2109366 LTotXX=     2109366 LenRXX=     2109366
 LTotAB=     2216160 MaxLAS=     2948400 LenRXY=     2948400
 NonZer=     4218732 LenScr=     7073280 LnRSAI=           0
 LnScr1=           0 LExtra=           0 Total=     12131046
 MaxDsk=          -1 SrtSym=           F ITran=            4
 DoSDTr:  NPSUse= 10
 JobTyp=1 Pass  1:  I=   1 to   9.
 (rs|ai) integrals will be sorted in core.
 Complete sort for first half transformation.
 First half transformation complete.
 Complete sort for second half transformation.
 Second half transformation complete.
 ModeAB=           2 MOrb=             8 LenV=     939007002
 LASXX=      1892134 LTotXX=     1892134 LenRXX=     2620800
 LTotAB=     1564272 MaxLAS=     2620800 LenRXY=     1564272
 NonZer=     3784268 LenScr=     6382080 LnRSAI=           0
 LnScr1=           0 LExtra=           0 Total=     10567152
 MaxDsk=          -1 SrtSym=           F ITran=            4
 DoSDTr:  NPSUse= 10
 JobTyp=2 Pass  1:  I=   1 to   8.
 (rs|ai) integrals will be sorted in core.
 Complete sort for first half transformation.
 First half transformation complete.
 Complete sort for second half transformation.
 Second half transformation complete.
 SymMOI:  orbitals are not symmetric.
 DoSCS=T DFT=T ScalE2(SS,OS)=  0.270000  0.270000
 Spin components of T(2) and E(2):
     alpha-alpha T2 =       0.2155040392D-01 E2=     -0.1705590281D-01
     alpha-beta  T2 =       0.1244791498D+00 E2=     -0.9673725891D-01
     beta-beta   T2 =       0.2222682439D-01 E2=     -0.1468479449D-01
 E2(B2PLYPD3) =    -0.1284779562D+00 E(B2PLYPD3) =    -0.11118581742131D+03
 Leave Link  804 at Sat Nov 12 23:36:57 2022, MaxMem=   939524096 cpu:        17.4
 (Enter /Local/ce_dana/g09/l1002.exe)
 Minotr:  UHF open shell wavefunction.
          Computing MP2/KS-MP2 derivatives.
          Using Z-Vector for PSCF gradient.
          Skipping F1 and S1 gradient terms here.
          IDoAtm=11111
          Frozen-core window.
          Direct CPHF calculation.
          Differentiating once with respect to electric field.
                with respect to dipole field.
          Differentiating once with respect to nuclear coordinates.
          Requested convergence is 1.0D-10 RMS, and 1.0D-09 maximum.
          NewPWx=T KeepS1=F KeepF1=F KeepIn=T MapXYZ=F SortEE=F KeepMc=T.
          MDV=     939523886 using IRadAn=       5.
 Using stored XC quadrature information.
 Keep R1 and R2 ints in memory in canonical form, NReq=12489711.
 FoFCou: FMM=F IPFlag=           0 FMFlag=           0 FMFlg1=           0
         NFxFlg=           0 DoJE=F BraDBF=F KetDBF=F FulRan=T
         wScrn=  0.000000 ICntrl=     600 IOpCl=  0 I1Cent=           0 NGrid=           0
         NMat0=    1 NMatS0=   3240 NMatT0=    0 NMatD0=    1 NMtDS0=    0 NMtDT0=    0
 Symmetry not used in FoFCou.
          Solving linear equations separately, MaxMat=       0.
          There are     1 degrees of freedom in the 1st order CPHF.  IDoFFX=0 NUNeed=     1.
 LinEq1:  Iter=  0 NonCon=     1 RMS=1.56D-03 Max=3.75D-02 NDo=     1
 AX will form     1 AO Fock derivatives at one time.
 LinEq1:  Iter=  1 NonCon=     1 RMS=4.66D-04 Max=3.81D-03 NDo=     1
 LinEq1:  Iter=  2 NonCon=     1 RMS=3.43D-04 Max=5.74D-03 NDo=     1
 LinEq1:  Iter=  3 NonCon=     1 RMS=9.59D-05 Max=1.10D-03 NDo=     1
 LinEq1:  Iter=  4 NonCon=     1 RMS=7.11D-05 Max=1.25D-03 NDo=     1
 LinEq1:  Iter=  5 NonCon=     1 RMS=1.84D-05 Max=2.39D-04 NDo=     1
 LinEq1:  Iter=  6 NonCon=     1 RMS=6.41D-06 Max=9.02D-05 NDo=     1
 LinEq1:  Iter=  7 NonCon=     1 RMS=1.79D-06 Max=2.85D-05 NDo=     1
 LinEq1:  Iter=  8 NonCon=     1 RMS=4.02D-07 Max=4.12D-06 NDo=     1
 LinEq1:  Iter=  9 NonCon=     1 RMS=1.20D-07 Max=1.03D-06 NDo=     1
 LinEq1:  Iter= 10 NonCon=     1 RMS=2.67D-08 Max=1.97D-07 NDo=     1
 LinEq1:  Iter= 11 NonCon=     1 RMS=5.49D-09 Max=8.65D-08 NDo=     1
 LinEq1:  Iter= 12 NonCon=     1 RMS=1.36D-09 Max=1.92D-08 NDo=     1
 LinEq1:  Iter= 13 NonCon=     1 RMS=2.46D-10 Max=2.42D-09 NDo=     1
 LinEq1:  Iter= 14 NonCon=     0 RMS=5.17D-11 Max=4.15D-10 NDo=     1
 Linear equations converged to 1.000D-10 1.000D-09 after    14 iterations.
 End of Minotr F.D. properties file   721 does not exist.
 End of Minotr F.D. properties file   722 does not exist.
 End of Minotr F.D. properties file   788 does not exist.
 Leave Link 1002 at Sat Nov 12 23:37:03 2022, MaxMem=   939524096 cpu:        65.2
 (Enter /Local/ce_dana/g09/l1102.exe)
 Use density number 2.
 Symmetrizing basis deriv contribution to polar:
 IMax=3 JMax=2 DiffMx= 0.00D+00
 Leave Link 1102 at Sat Nov 12 23:37:03 2022, MaxMem=   939524096 cpu:         0.1
 (Enter /Local/ce_dana/g09/l1110.exe)
 Forming Gx(P) for generalized density number  2 NAtomX=     5.
 Integral derivatives from FoFJK, PRISM(SPDF).
 Do as many integral derivatives as possible in FoFJK.
 G2DrvN: MDV=     939523952.
 G2DrvN: will do     6 centers at a time, making    1 passes.
 Calling FoFCou, ICntrl=  3107 FMM=F I1Cent=   0 AccDes= 1.00D-12.
 FoFJK:  IHMeth= 1 ICntrl=    3107 DoSepK=F KAlg= 0 I1Cent=   0 FoldK=F
 IRaf=         0 NMat=   1 IRICut=       1 DoRegI=T DoRafI=F ISym2E= 0.
 FoFCou: FMM=F IPFlag=           0 FMFlag=      100000 FMFlg1=           0
         NFxFlg=           0 DoJE=F BraDBF=F KetDBF=F FulRan=T
         wScrn=  0.000000 ICntrl=    3107 IOpCl=  1 I1Cent=           0 NGrid=           0
         NMat0=    1 NMatS0=      1 NMatT0=    0 NMatD0=    1 NMtDS0=    0 NMtDT0=    0
 Symmetry not used in FoFCou.
 End of G2Drv F.D. properties file   721 does not exist.
 End of G2Drv F.D. properties file   722 does not exist.
 End of G2Drv F.D. properties file   788 does not exist.
 Leave Link 1110 at Sat Nov 12 23:37:09 2022, MaxMem=   939524096 cpu:        53.4
 (Enter /Local/ce_dana/g09/l1112.exe)
 MP22nd: MDV=     939524096
 DoSCS=T DFT=T ScalE2(SS,OS)=  0.270000  0.270000
 Using stored XC quadrature information.
 This link is doing NAtomX=     5 total of    18 degrees of freedom.
 Using ON3 I/O method in MakUI.
 Frozen-core window:  NFC=   2 NFV=   0.
 Using Ix for Sx.
 Use MO integrals over full window.
 Using OV2 memory method for fx*t*t/D, MaxI=     8 DoOO2=F NP=  10.
 R2 and R3 integrals will be kept in memory, NReq=    18713120.
 FoFCou: FMM=F IPFlag=           0 FMFlag=           0 FMFlg1=           0
         NFxFlg=           0 DoJE=F BraDBF=F KetDBF=F FulRan=T
         wScrn=  0.000000 ICntrl=     600 IOpCl=  0 I1Cent=           0 NGrid=           0
         NMat0=    1 NMatS0=      1 NMatT0=    0 NMatD0=    1 NMtDS0=    0 NMtDT0=    0
 Symmetry not used in FoFCou.
 DD1Dir will call FoFMem   1 times, MxPair=       208
 NAB=    72 NAA=    36 NBB=    28.
 Symmetry is being used.
 FoFJK:  IHMeth= 1 ICntrl=       0 DoSepK=F KAlg= 0 I1Cent=   0 FoldK=F
 IRaf=         0 NMat=  18 IRICut=      45 DoRegI=T DoRafI=T ISym2E= 2.
 R6Disp: Adding Grimme-D3(BJ) dispersion energy 1st derivatives to the gradient.
 Discarding MO integrals.
 Leave Link 1112 at Sat Nov 12 23:37:28 2022, MaxMem=   939524096 cpu:       160.4
 (Enter /Local/ce_dana/g09/l601.exe)
 Copying SCF densities to generalized density rwf, IOpCl= 1 IROHF=0.

 **********************************************************************

            Population analysis using the SCF density.

 **********************************************************************

 Orbital symmetries:
 Alpha Orbitals:
       Occupied  (A) (A) (A) (A) (A) (A) (A) (A) (A)
       Virtual   (A) (A) (A) (A) (A) (A) (A) (A) (A) (A) (A) (A)
                 (A) (A) (A) (A) (A) (A) (A) (A) (A) (A) (A) (A)
                 (A) (A) (A) (A) (A) (A) (A) (A) (A) (A) (A) (A)
                 (A) (A) (A) (A) (A) (A) (A) (A) (A) (A) (A) (A)
                 (A) (A) (A) (A) (A) (A) (A) (A) (A) (A) (A) (A)
                 (A) (A) (A) (A) (A) (A) (A) (A) (A) (A) (A)
 Beta  Orbitals:
       Occupied  (A) (A) (A) (A) (A) (A) (A) (A)
       Virtual   (A) (A) (A) (A) (A) (A) (A) (A) (A) (A) (A) (A)
                 (A) (A) (A) (A) (A) (A) (A) (A) (A) (A) (A) (A)
                 (A) (A) (A) (A) (A) (A) (A) (A) (A) (A) (A) (A)
                 (A) (A) (A) (A) (A) (A) (A) (A) (A) (A) (A) (A)
                 (A) (A) (A) (A) (A) (A) (A) (A) (A) (A) (A) (A)
                 (A) (A) (A) (A) (A) (A) (A) (A) (A) (A) (A) (A)
 The electronic state is 2-A.
 Alpha  occ. eigenvalues --  -14.87986 -14.85320  -1.11937  -0.85170  -0.62987
 Alpha  occ. eigenvalues --   -0.54588  -0.47680  -0.37118  -0.26172
 Alpha virt. eigenvalues --    0.06359   0.10235   0.13877   0.29479   0.35117
 Alpha virt. eigenvalues --    0.37935   0.42262   0.42895   0.45703   0.47432
 Alpha virt. eigenvalues --    0.49314   0.53420   0.57729   0.59230   0.64188
 Alpha virt. eigenvalues --    0.93250   1.03631   1.10476   1.22568   1.30826
 Alpha virt. eigenvalues --    1.42593   1.44546   1.48463   1.63241   1.68151
 Alpha virt. eigenvalues --    1.76919   1.94410   1.96176   1.97165   2.08806
 Alpha virt. eigenvalues --    2.09138   2.13277   2.16873   2.19971   2.25499
 Alpha virt. eigenvalues --    2.41364   2.46454   2.62235   2.62932   2.71287
 Alpha virt. eigenvalues --    2.83628   3.12658   3.18598   3.26460   3.63085
 Alpha virt. eigenvalues --    3.74642   3.94888   4.01802   4.10427   4.19610
 Alpha virt. eigenvalues --    4.39366   4.53970   4.68453   4.71740   4.76677
 Alpha virt. eigenvalues --    4.79692   4.80766   4.82122   4.90923   4.98545
 Alpha virt. eigenvalues --    5.09123   5.11602   5.39684   5.44137   5.66658
 Alpha virt. eigenvalues --    5.74609   5.89180   6.01815   6.91104  32.08050
 Alpha virt. eigenvalues --   32.17990
  Beta  occ. eigenvalues --  -14.87217 -14.83239  -1.08883  -0.80770  -0.62217
  Beta  occ. eigenvalues --   -0.53283  -0.37979  -0.34380
  Beta virt. eigenvalues --    0.04228   0.06727   0.10611   0.14169   0.30517
  Beta virt. eigenvalues --    0.35338   0.40105   0.42752   0.43560   0.47953
  Beta virt. eigenvalues --    0.50297   0.51108   0.54420   0.58356   0.60421
  Beta virt. eigenvalues --    0.65307   0.94646   1.06530   1.13064   1.23879
  Beta virt. eigenvalues --    1.31783   1.44324   1.45839   1.49111   1.66252
  Beta virt. eigenvalues --    1.70032   1.77116   1.95304   1.97699   1.98031
  Beta virt. eigenvalues --    2.09476   2.09615   2.16349   2.18546   2.23201
  Beta virt. eigenvalues --    2.26209   2.43801   2.49570   2.62705   2.63586
  Beta virt. eigenvalues --    2.72079   2.84313   3.13480   3.20093   3.27731
  Beta virt. eigenvalues --    3.64917   3.77067   3.98049   4.03439   4.13029
  Beta virt. eigenvalues --    4.20980   4.43542   4.56363   4.71608   4.74670
  Beta virt. eigenvalues --    4.79022   4.82846   4.84501   4.85595   4.95345
  Beta virt. eigenvalues --    5.01654   5.10716   5.13176   5.41036   5.45449
  Beta virt. eigenvalues --    5.67696   5.77175   5.90003   6.02310   6.92438
  Beta virt. eigenvalues --   32.09676  32.18683
          Condensed to atoms (all electrons):
               1          2          3          4          5
     1  N    6.452286   0.178570   0.383271   0.363911  -0.034993
     2  N    0.178570   6.913719  -0.050995  -0.022087   0.299770
     3  H    0.383271  -0.050995   0.458358  -0.043735   0.010131
     4  H    0.363911  -0.022087  -0.043735   0.496699  -0.021544
     5  H   -0.034993   0.299770   0.010131  -0.021544   0.554339
          Atomic-Atomic Spin Densities.
               1          2          3          4          5
     1  N    0.448708  -0.228094  -0.001611  -0.005433   0.005162
     2  N   -0.228094   1.065747  -0.003702  -0.003620  -0.006837
     3  H   -0.001611  -0.003702  -0.005190   0.003484  -0.000411
     4  H   -0.005433  -0.003620   0.003484   0.002559   0.000870
     5  H    0.005162  -0.006837  -0.000411   0.000870  -0.031438
 Mulliken charges and spin densities:
               1          2
     1  N   -0.343046   0.218732
     2  N   -0.318977   0.823493
     3  H    0.242969  -0.007431
     4  H    0.226757  -0.002140
     5  H    0.192297  -0.032654
 Sum of Mulliken charges =  -0.00000   1.00000
 Mulliken charges and spin densities with hydrogens summed into heavy atoms:
               1          2
     1  N    0.126680   0.209161
     2  N   -0.126680   0.790839
 APT charges:
               1
     1  N   -0.331445
     2  N   -0.150760
     3  H    0.192274
     4  H    0.167531
     5  H    0.122400
 Sum of APT charges =  -0.00000
 APT charges with hydrogens summed into heavy atoms:
               1
     1  N    0.028360
     2  N   -0.028360
 Electronic spatial extent (au):  <R**2>=             71.1663
 Charge=             -0.0000 electrons
 Dipole moment (field-independent basis, Debye):
    X=              1.8450    Y=              1.6539    Z=              0.7074  Tot=              2.5768
 Quadrupole moment (field-independent basis, Debye-Ang):
   XX=            -11.7247   YY=            -10.8529   ZZ=            -14.3279
   XY=             -2.2502   XZ=              1.0305   YZ=              0.1197
 Traceless Quadrupole moment (field-independent basis, Debye-Ang):
   XX=              0.5771   YY=              1.4489   ZZ=             -2.0260
   XY=             -2.2502   XZ=              1.0305   YZ=              0.1197
 Octapole moment (field-independent basis, Debye-Ang**2):
  XXX=              4.0837  YYY=              2.3302  ZZZ=              0.6452  XYY=              2.7336
  XXY=              2.4233  XXZ=              0.9616  XZZ=              0.2044  YZZ=              0.4219
  YYZ=              0.5709  XYZ=              0.0985
 Hexadecapole moment (field-independent basis, Debye-Ang**3):
 XXXX=            -52.5490 YYYY=            -17.3430 ZZZZ=            -14.6669 XXXY=             -4.5104
 XXXZ=              1.6389 YYYX=             -2.6234 YYYZ=              0.1749 ZZZX=              0.8923
 ZZZY=              0.1095 XXYY=             -9.9192 XXZZ=            -12.7189 YYZZ=             -5.7279
 XXYZ=              0.0454 YYXZ=              0.7885 ZZXY=             -0.6290
 N-N= 3.657531596250D+01 E-N=-3.333930116963D+02  KE= 1.107339659062D+02
  Exact polarizability:  24.811  -0.105  16.950  -0.170  -0.075  12.435
 Approx polarizability:  23.805  -0.217  18.073  -0.213  -0.080  13.104
                          Isotropic Fermi Contact Couplings
        Atom                 a.u.       MegaHertz       Gauss      10(-4) cm-1
     1  N(14)              0.08460      27.33310       9.75313       9.11734
     2  N(14)              0.09117      29.45862      10.51157       9.82634
     3  H(1)              -0.00228     -10.17894      -3.63210      -3.39533
     4  H(1)               0.00114       5.08913       1.81593       1.69755
     5  H(1)              -0.01073     -47.95258     -17.11067     -15.99526
 --------------------------------------------------------
       Center         ----  Spin Dipole Couplings  ----
                      3XX-RR        3YY-RR        3ZZ-RR
 --------------------------------------------------------
     1   Atom       -0.355865     -0.399782      0.755648
     2   Atom       -0.939768     -0.917952      1.857720
     3   Atom       -0.002834      0.013792     -0.010958
     4   Atom       -0.014438      0.024360     -0.009921
     5   Atom       -0.050556      0.063577     -0.013021
 --------------------------------------------------------
                        XY            XZ            YZ
 --------------------------------------------------------
     1   Atom        0.009636     -0.152267     -0.043339
     2   Atom       -0.023333      0.002987      0.105572
     3   Atom       -0.038773      0.005169     -0.009055
     4   Atom        0.035713      0.005030      0.008954
     5   Atom       -0.066193      0.002014     -0.000553
 --------------------------------------------------------


 ---------------------------------------------------------------------------------
              Anisotropic Spin Dipole Couplings in Principal Axis System
 ---------------------------------------------------------------------------------

       Atom             a.u.   MegaHertz   Gauss  10(-4) cm-1        Axes

              Baa    -0.4020   -15.504    -5.532    -5.172 -0.1490  0.9887  0.0174
     1 N(14)  Bbb    -0.3758   -14.494    -5.172    -4.835  0.9798  0.1453  0.1374
              Bcc     0.7778    29.998    10.704    10.006 -0.1333 -0.0375  0.9904
 
              Baa    -0.9559   -36.868   -13.155   -12.298  0.8232  0.5673 -0.0222
     2 N(14)  Bbb    -0.9058   -34.935   -12.466   -11.653 -0.5678  0.8226 -0.0308
              Bcc     1.8617    71.803    25.621    23.951  0.0007  0.0379  0.9993
 
              Baa    -0.0343   -18.302    -6.531    -6.105  0.7693  0.6344  0.0757
     3 H(1)   Bbb    -0.0127    -6.755    -2.410    -2.253 -0.1692  0.0880  0.9816
              Bcc     0.0470    25.057     8.941     8.358 -0.6161  0.7680 -0.1750
 
              Baa    -0.0357   -19.039    -6.794    -6.351  0.8587 -0.5123  0.0104
     4 H(1)   Bbb    -0.0118    -6.273    -2.238    -2.092 -0.0991 -0.1461  0.9843
              Bcc     0.0474    25.312     9.032     8.443  0.5028  0.8463  0.1762
 
              Baa    -0.0809   -43.177   -15.407   -14.402  0.9089  0.4163 -0.0236
     5 H(1)   Bbb    -0.0130    -6.936    -2.475    -2.314  0.0162  0.0212  0.9996
              Bcc     0.0939    50.113    17.882    16.716 -0.4166  0.9090 -0.0125
 

 ---------------------------------------------------------------------------------

 No NMR shielding tensors so no spin-rotation constants.
 Leave Link  601 at Sat Nov 12 23:37:29 2022, MaxMem=   939524096 cpu:         2.6
 (Enter /Local/ce_dana/g09/l701.exe)
 Compute integral second derivatives.
 ... and contract with generalized density number  2.
 R6Disp: Adding Grimme-D3(BJ) dispersion energy 2nd derivatives to the Hessian.
   1 Symmetry operations used in ECPInt.
 ECPInt:  NShTT=     595 NPrTT=    1764 LenC2=     595 LenP2D=    1624.
 LDataN:  DoStor=T MaxTD1= 8 Len=  415
 Leave Link  701 at Sat Nov 12 23:37:29 2022, MaxMem=   939524096 cpu:         5.1
 (Enter /Local/ce_dana/g09/l702.exe)
 L702 exits ... SP integral derivatives will be done elsewhere.
 Leave Link  702 at Sat Nov 12 23:37:29 2022, MaxMem=   939524096 cpu:         0.1
 (Enter /Local/ce_dana/g09/l703.exe)
 Compute integral second derivatives, UseDBF=F ICtDFT=           0.
 Integral derivatives from FoFJK, PRISM(SPDF).
 Calling FoFJK, ICntrl=  10100127 FMM=F ISym2X=0 I1Cent= 0 IOpClX= 1 NMat=1 NMatS=1 NMatT=0.
 FoFJK:  IHMeth= 1 ICntrl=10100127 DoSepK=F KAlg= 0 I1Cent=   0 FoldK=F
 IRaf=         0 NMat=   1 IRICut=       1 DoRegI=T DoRafI=F ISym2E= 0.
 FoFCou: FMM=F IPFlag=           0 FMFlag=      100000 FMFlg1=         800
         NFxFlg=           0 DoJE=F BraDBF=F KetDBF=F FulRan=T
         wScrn=  0.000000 ICntrl=10100127 IOpCl=  1 I1Cent=           0 NGrid=           0
         NMat0=    1 NMatS0=      1 NMatT0=    0 NMatD0=    1 NMtDS0=    0 NMtDT0=    0
 Symmetry not used in FoFCou.
 Leave Link  703 at Sat Nov 12 23:37:44 2022, MaxMem=   939524096 cpu:       142.6
 (Enter /Local/ce_dana/g09/l716.exe)
 Dipole        = 7.88053512D-01 6.47915360D-01 2.64772770D-01
 Polarizability= 2.48108755D+01-1.04969649D-01 1.69504858D+01
                -1.70083326D-01-7.45268716D-02 1.24353537D+01
 ***** Axes restored to original set *****
 -------------------------------------------------------------------
 Center     Atomic                   Forces (Hartrees/Bohr)
 Number     Number              X              Y              Z
 -------------------------------------------------------------------
      1        7           0.000000636   -0.000000401    0.000000018
      2        7          -0.000000194   -0.000000106    0.000000128
      3        1          -0.000000140   -0.000000136   -0.000000013
      4        1          -0.000000220    0.000000531   -0.000000068
      5        1          -0.000000081    0.000000112   -0.000000065
 -------------------------------------------------------------------
 Cartesian Forces:  Max     0.000000636 RMS     0.000000262
 Force constants in Cartesian coordinates: 
                1             2             3             4             5 
      1  0.712497D+00
      2  0.542178D-01  0.774487D+00
      3  0.611400D-03 -0.456365D-01  0.702176D-01
      4 -0.330279D+00  0.114630D+00  0.519150D-01  0.548873D+00
      5  0.557458D-01 -0.147121D+00 -0.998458D-02  0.703224D-01  0.417466D+00
      6  0.688561D-01 -0.330789D-01 -0.154956D-01 -0.724635D-01  0.170643D-01
      7 -0.263092D+00 -0.182764D+00 -0.381132D-01 -0.331881D-01 -0.216008D-01
      8 -0.187039D+00 -0.241493D+00 -0.282472D-01  0.167634D-01  0.165466D-01
      9 -0.629061D-01 -0.521579D-01 -0.170511D-01  0.984526D-02  0.759320D-02
     10 -0.784524D-01  0.523250D-01 -0.160995D-01 -0.140987D-01  0.369073D-01
     11  0.453656D-01 -0.392347D+00  0.885922D-01  0.117179D-01 -0.720963D-02
     12 -0.157572D-01  0.120384D+00 -0.347440D-01  0.321420D-02 -0.135450D-01
     13 -0.406737D-01 -0.384090D-01  0.168621D-02 -0.171307D+00 -0.141375D+00
     14  0.317099D-01  0.647375D-02 -0.472388D-02 -0.213434D+00 -0.279683D+00
     15  0.919587D-02  0.104897D-01 -0.292685D-02  0.748907D-02 -0.112789D-02
                6             7             8             9            10 
      6  0.306185D-01
      7 -0.231357D-02  0.293395D+00
      8  0.277034D-02  0.191401D+00  0.238700D+00
      9 -0.804836D-02  0.402841D-01  0.363515D-01  0.202130D-01
     10 -0.590713D-02  0.913279D-02 -0.257163D-01  0.905389D-02  0.813777D-01
     11  0.290367D-02  0.863153D-02 -0.147727D-01  0.897699D-02 -0.647302D-01
     12  0.644031D-02  0.701479D-04 -0.904326D-02 -0.219535D-02  0.140755D-01
     13  0.118282D-01 -0.624714D-02  0.459048D-02  0.372287D-02  0.204053D-02
     14  0.103406D-01  0.433187D-02  0.101900D-02 -0.763838D-03  0.121410D-02
     15 -0.135149D-01  0.724595D-04 -0.183139D-02  0.708184D-02 -0.112281D-02
               11            12            13            14            15 
     11  0.409942D+00
     12 -0.981345D-01  0.339555D-01
     13 -0.984838D-03 -0.160265D-02  0.216187D+00
     14  0.438710D-02  0.339290D-03  0.176178D+00  0.267803D+00
     15 -0.233832D-02 -0.345642D-02 -0.156346D-01 -0.519215D-02  0.128163D-01
 FormGI is forming the generalized inverse of G from B-inverse, IUseBI=4.
 Force constants in internal coordinates: 
                1             2             3             4             5 
      1  0.465390D+00
      2  0.121729D-01  0.465813D+00
      3  0.135586D-01 -0.159254D-02  0.445609D+00
      4 -0.554215D-02 -0.216634D-02  0.238480D-02  0.420271D+00
      5  0.288110D-01  0.395079D-02 -0.332252D-02  0.654258D-02  0.121220D+00
      6  0.101711D-01 -0.732842D-02 -0.502630D-02 -0.508648D-02 -0.612151D-01
      7 -0.274576D-01  0.911955D-02  0.135076D-01 -0.730743D-04 -0.431897D-01
      8  0.779061D-01  0.637114D-02 -0.559258D-02  0.190025D-01  0.215077D-01
      9  0.616153D-02  0.680736D-02  0.492251D-02  0.658233D-03  0.100216D-01
     10 -0.113953D-02 -0.549721D-02 -0.791963D-02 -0.168127D-02 -0.351375D-02
     11 -0.201490D-01 -0.520480D-02 -0.521927D-02 -0.244176D-04 -0.865447D-03
                6             7             8             9            10 
      6  0.856402D-01
      7 -0.347918D-01  0.771812D-01
      8 -0.102023D-01 -0.764482D-02  0.243846D+00
      9 -0.178206D-01  0.139081D-01  0.451214D-02  0.183834D-01
     10  0.146308D-01 -0.138407D-01  0.111104D-02  0.328829D-02  0.130549D-01
     11 -0.179363D-01  0.147910D-01 -0.134764D-02 -0.174069D-02 -0.179453D-02
               11 
     11  0.124593D-01
 Leave Link  716 at Sat Nov 12 23:37:44 2022, MaxMem=   939524096 cpu:         0.1
 (Enter /Local/ce_dana/g09/l103.exe)

 GradGradGradGradGradGradGradGradGradGradGradGradGradGradGradGradGradGrad
 Berny optimization.
 Red2BG is reusing G-inverse.
 Internal  Forces:  Max     0.000000572 RMS     0.000000213
 Search for a local minimum.
 Step number   1 out of a maximum of   21 on scan point     1 out of    46
 All quantities printed in internal units (Hartrees-Bohrs-Radians)
 RMS Force = .25966D-06 SwitMx=.10000D-02 MixMth= 2
 Mixed Optimization -- En-DIIS/RFO-DIIS
 Second derivative matrix not updated -- analytic derivatives used.
 The second derivative matrix:
                          R1        R2        R3        R4        A1
           R1           0.46539
           R2           0.01217   0.46581
           R3           0.01356  -0.00159   0.44561
           R4          -0.00554  -0.00217   0.00238   0.42027
           A1           0.02881   0.00395  -0.00332   0.00654   0.12122
           A2           0.01017  -0.00733  -0.00503  -0.00509  -0.06122
           A3          -0.02746   0.00912   0.01351  -0.00007  -0.04319
           A4           0.07791   0.00637  -0.00559   0.01900   0.02151
           D1           0.00616   0.00681   0.00492   0.00066   0.01002
           D2          -0.00114  -0.00550  -0.00792  -0.00168  -0.00351
           D3          -0.02015  -0.00520  -0.00522  -0.00002  -0.00087
                          A2        A3        A4        D1        D2
           A2           0.08564
           A3          -0.03479   0.07718
           A4          -0.01020  -0.00764   0.24385
           D1          -0.01782   0.01391   0.00451   0.01838
           D2           0.01463  -0.01384   0.00111   0.00329   0.01305
           D3          -0.01794   0.01479  -0.00135  -0.00174  -0.00179
                          D3
           D3           0.01246
 ITU=  0
     Eigenvalues ---    0.21683   0.42203   0.44221   0.46196   0.49789
     Eigenvalues --- 1000.000001000.000001000.000001000.000001000.00000
     Eigenvalues --- 1000.00000
 RFO step:  Lambda= 0.00000000D+00 EMin= 2.16834460D-01
 Linear search not attempted -- first point.
 Iteration  1 RMS(Cart)=  0.00000049 RMS(Int)=  0.00000000
 Iteration  1 RMS(Cart)=  0.00000000 RMS(Int)=  0.00000000
 ITry= 1 IFail=0 DXMaxC= 9.29D-07 DCOld= 1.00D+10 DXMaxT= 5.00D-02 DXLimC= 3.00D+00 Rises=F
 Variable       Old X    -DE/DX   Delta X   Delta X   Delta X     New X
                                 (Linear)    (Quad)   (Total)
    R1        2.54696  -0.00000   0.00000  -0.00000  -0.00000   2.54696
    R2        1.90308   0.00000   0.00000   0.00000   0.00000   1.90308
    R3        1.91100   0.00000   0.00000   0.00000   0.00000   1.91100
    R4        1.92937   0.00000   0.00000   0.00000   0.00000   1.92937
    A1        1.98282  -0.00000   0.00000   0.00000   0.00000   1.98282
    A2        2.10326   0.00000   0.00000   0.00000   0.00000   2.10326
    A3        2.00317  -0.00000   0.00000   0.00000  -0.00000   2.00317
    A4        1.84678  -0.00000   0.00000  -0.00000  -0.00000   1.84678
    D1        2.92555  -0.00000   0.00000   0.00000  -0.00000   2.92555
    D2        0.44671  -0.00000   0.00000  -0.00000   0.00000   0.44671
    D3       -2.51815  -0.00000   0.00000   0.00000   0.00000  -2.51815
         Item               Value     Threshold  Converged?
 Maximum Force            0.000001     0.000450     YES
 RMS     Force            0.000000     0.000300     YES
 Maximum Displacement     0.000001     0.001800     YES
 RMS     Displacement     0.000000     0.001200     YES
 Predicted change in Energy=-5.425984D-13
 Optimization completed.
    -- Stationary point found.
                           ----------------------------
                           !   Optimized Parameters   !
                           ! (Angstroms and Degrees)  !
 --------------------------                            --------------------------
 ! Name  Definition              Value          Derivative Info.                !
 --------------------------------------------------------------------------------
 ! R1    R(1,2)                  1.3478         -DE/DX =    0.0                 !
 ! R2    R(1,3)                  1.0071         -DE/DX =    0.0                 !
 ! R3    R(1,4)                  1.0113         -DE/DX =    0.0                 !
 ! R4    R(2,5)                  1.021          -DE/DX =    0.0                 !
 ! A1    A(2,1,3)              113.6073         -DE/DX =    0.0                 !
 ! A2    A(2,1,4)              120.508          -DE/DX =    0.0                 !
 ! A3    A(3,1,4)              114.7733         -DE/DX =    0.0                 !
 ! A4    A(1,2,5)              105.8128         -DE/DX =    0.0                 !
 ! D1    D(3,1,2,5)            167.6218         -DE/DX =    0.0                 !
 ! D2    D(4,1,2,5)             25.5947         -DE/DX =    0.0                 !
 ! D3    D(2,1,3,4)           -144.2792         -DE/DX =    0.0                 !
 --------------------------------------------------------------------------------
 Lowest energy point so far.  Saving SCF results.
 Iteration  1 RMS(Cart)=  0.02792432 RMS(Int)=  0.02338215
 Iteration  2 RMS(Cart)=  0.00109467 RMS(Int)=  0.02335946
 Iteration  3 RMS(Cart)=  0.00001619 RMS(Int)=  0.02335946
 Iteration  4 RMS(Cart)=  0.00000051 RMS(Int)=  0.02335946
 Iteration  1 RMS(Cart)=  0.00760759 RMS(Int)=  0.01424173
 Iteration  2 RMS(Cart)=  0.00413116 RMS(Int)=  0.01551836
 Iteration  3 RMS(Cart)=  0.00262990 RMS(Int)=  0.01743041
 Iteration  4 RMS(Cart)=  0.00200293 RMS(Int)=  0.01912329
 Iteration  5 RMS(Cart)=  0.00167799 RMS(Int)=  0.02056633
 Iteration  6 RMS(Cart)=  0.00144369 RMS(Int)=  0.02181244
 Iteration  7 RMS(Cart)=  0.00124504 RMS(Int)=  0.02289971
 Iteration  8 RMS(Cart)=  0.00107078 RMS(Int)=  0.02385159
 Iteration  9 RMS(Cart)=  0.00091847 RMS(Int)=  0.02468428
 Iteration 10 RMS(Cart)=  0.00078648 RMS(Int)=  0.02541094
 Iteration 11 RMS(Cart)=  0.00067286 RMS(Int)=  0.02604327
 Iteration 12 RMS(Cart)=  0.00057544 RMS(Int)=  0.02659205
 Iteration 13 RMS(Cart)=  0.00049210 RMS(Int)=  0.02706725
 Iteration 14 RMS(Cart)=  0.00042086 RMS(Int)=  0.02747794
 Iteration 15 RMS(Cart)=  0.00036001 RMS(Int)=  0.02783234
 Iteration 16 RMS(Cart)=  0.00030801 RMS(Int)=  0.02813777
 Iteration 17 RMS(Cart)=  0.00026358 RMS(Int)=  0.02840075
 Iteration 18 RMS(Cart)=  0.00022560 RMS(Int)=  0.02862699
 Iteration 19 RMS(Cart)=  0.00019313 RMS(Int)=  0.02882149
 Iteration 20 RMS(Cart)=  0.00016535 RMS(Int)=  0.02898863
 Iteration 21 RMS(Cart)=  0.00014159 RMS(Int)=  0.02913217
 Iteration 22 RMS(Cart)=  0.00012126 RMS(Int)=  0.02925542
 Iteration 23 RMS(Cart)=  0.00010386 RMS(Int)=  0.02936121
 Iteration 24 RMS(Cart)=  0.00008896 RMS(Int)=  0.02945199
 Iteration 25 RMS(Cart)=  0.00007621 RMS(Int)=  0.02952988
 Iteration 26 RMS(Cart)=  0.00006529 RMS(Int)=  0.02959669
 Iteration 27 RMS(Cart)=  0.00005593 RMS(Int)=  0.02965400
 Iteration 28 RMS(Cart)=  0.00004792 RMS(Int)=  0.02970314
 Iteration 29 RMS(Cart)=  0.00004106 RMS(Int)=  0.02974528
 Iteration 30 RMS(Cart)=  0.00003518 RMS(Int)=  0.02978142
 Iteration 31 RMS(Cart)=  0.00003015 RMS(Int)=  0.02981240
 Iteration 32 RMS(Cart)=  0.00002583 RMS(Int)=  0.02983896
 Iteration 33 RMS(Cart)=  0.00002214 RMS(Int)=  0.02986172
 Iteration 34 RMS(Cart)=  0.00001897 RMS(Int)=  0.02988124
 Iteration 35 RMS(Cart)=  0.00001626 RMS(Int)=  0.02989797
 Iteration 36 RMS(Cart)=  0.00001393 RMS(Int)=  0.02991232
 Iteration 37 RMS(Cart)=  0.00001194 RMS(Int)=  0.02992461
 Iteration 38 RMS(Cart)=  0.00001023 RMS(Int)=  0.02993515
 Iteration 39 RMS(Cart)=  0.00000877 RMS(Int)=  0.02994418
 Iteration 40 RMS(Cart)=  0.00000751 RMS(Int)=  0.02995192
 Iteration 41 RMS(Cart)=  0.00000644 RMS(Int)=  0.02995855
 Iteration 42 RMS(Cart)=  0.00000552 RMS(Int)=  0.02996424
 Iteration 43 RMS(Cart)=  0.00000473 RMS(Int)=  0.02996911
 Iteration 44 RMS(Cart)=  0.00000405 RMS(Int)=  0.02997329
 Iteration 45 RMS(Cart)=  0.00000347 RMS(Int)=  0.02997687
 Iteration 46 RMS(Cart)=  0.00000298 RMS(Int)=  0.02997994
 Iteration 47 RMS(Cart)=  0.00000255 RMS(Int)=  0.02998257
 Iteration 48 RMS(Cart)=  0.00000219 RMS(Int)=  0.02998482
 Iteration 49 RMS(Cart)=  0.00000187 RMS(Int)=  0.02998675
 Iteration 50 RMS(Cart)=  0.00000161 RMS(Int)=  0.02998841
 Iteration 51 RMS(Cart)=  0.00000138 RMS(Int)=  0.02998983
 Iteration 52 RMS(Cart)=  0.00000118 RMS(Int)=  0.02999104
 Iteration 53 RMS(Cart)=  0.00000101 RMS(Int)=  0.02999209
 Iteration 54 RMS(Cart)=  0.00000087 RMS(Int)=  0.02999298
 GradGradGradGradGradGradGradGradGradGradGradGradGradGradGradGradGradGrad

 Leave Link  103 at Sat Nov 12 23:37:44 2022, MaxMem=   939524096 cpu:         0.1
 (Enter /Local/ce_dana/g09/l202.exe)
                          Input orientation:                          
 ---------------------------------------------------------------------
 Center     Atomic      Atomic             Coordinates (Angstroms)
 Number     Number       Type             X           Y           Z
 ---------------------------------------------------------------------
      1          7           0       -0.421704    0.006662    0.160019
      2          7           0        0.784015   -0.519818   -0.132832
      3          1           0       -1.181757   -0.646714    0.061611
      4          1           0       -0.643921    0.957826   -0.101972
      5          1           0        1.448197    0.253045   -0.067381
 ---------------------------------------------------------------------
                    Distance matrix (angstroms):
                    1          2          3          4          5
     1  N    0.000000
     2  N    1.347850   0.000000
     3  H    1.007107   1.979436   0.000000
     4  H    1.011303   2.055088   1.700170   0.000000
     5  H    1.899722   1.021146   2.782600   2.207910   0.000000
 Stoichiometry    H3N2(2)
 Framework group  C1[X(H3N2)]
 Deg. of freedom     9
 Full point group                 C1      NOp   1
 RotChk:  IX=0 Diff= 4.13D-02
 Largest Abelian subgroup         C1      NOp   1
 Largest concise Abelian subgroup C1      NOp   1
                         Standard orientation:                         
 ---------------------------------------------------------------------
 Center     Atomic      Atomic             Coordinates (Angstroms)
 Number     Number       Type             X           Y           Z
 ---------------------------------------------------------------------
      1          7           0        0.594297    0.028159   -0.072749
      2          7           0       -0.737275   -0.150135    0.036008
      3          1           0        1.129102   -0.805311    0.110485
      4          1           0        1.024979    0.886355    0.244656
      5          1           0       -1.153229    0.772783   -0.097952
 ---------------------------------------------------------------------
 Rotational constants (GHZ):    205.8497417     30.7507871     27.2058824
 Leave Link  202 at Sat Nov 12 23:37:44 2022, MaxMem=   939524096 cpu:         0.0
 (Enter /Local/ce_dana/g09/l301.exe)
 Standard basis: def2TZVP (5D, 7F)
 Ernie: Thresh=  0.10000D-02 Tol=  0.10000D-05 Strict=F.
 There are    90 symmetry adapted cartesian basis functions of A   symmetry.
 There are    80 symmetry adapted basis functions of A   symmetry.
    80 basis functions,   126 primitive gaussians,    90 cartesian basis functions
     9 alpha electrons        8 beta electrons
       nuclear repulsion energy        36.5710932425 Hartrees.
 IExCor=  419 DFT=T Ex+Corr=B2PLYPD3 ExCW=0 ScaHFX=  0.530000
 ScaDFX=  0.470000  0.470000  0.730000  0.730000 ScalE2=  0.270000  0.270000
 IRadAn=      5 IRanWt=     -1 IRanGd=            0 ICorTp=0 IEmpDi=141
 NAtoms=    5 NActive=    5 NUniq=    5 SFac= 1.00D+00 NAtFMM=   60 NAOKFM=F Big=F
 Integral buffers will be    131072 words long.
 Raffenetti 2 integral format.
 Two-electron integral symmetry is turned on.
 R6Disp:  Grimme-D3(BJ) Dispersion energy=       -0.0011068854 Hartrees.
 Nuclear repulsion after empirical dispersion term =       36.5699863572 Hartrees.
 Leave Link  301 at Sat Nov 12 23:37:44 2022, MaxMem=   939524096 cpu:         0.1
 (Enter /Local/ce_dana/g09/l302.exe)
 NPDir=0 NMtPBC=     1 NCelOv=     1 NCel=       1 NClECP=     1 NCelD=      1
         NCelK=      1 NCelE2=     1 NClLst=     1 CellRange=     0.0.
 One-electron integrals computed using PRISM.
   1 Symmetry operations used in ECPInt.
 ECPInt:  NShTT=     595 NPrTT=    1764 LenC2=     595 LenP2D=    1624.
 LDataN:  DoStor=T MaxTD1= 6 Len=  172
 NBasis=    80 RedAO= T EigKep=  1.40D-03  NBF=    80
 NBsUse=    80 1.00D-06 EigRej= -1.00D+00 NBFU=    80
 Precomputing XC quadrature grid using
 IXCGrd= 4 IRadAn=           5 IRanWt=          -1 IRanGd=           0 AccXCQ= 0.00D+00.
 Generated NRdTot=       0 NPtTot=           0 NUsed=           0 NTot=          32
 NSgBfM=    90    90    90    90    90 MxSgAt=     5 MxSgA2=     5.
 Leave Link  302 at Sat Nov 12 23:37:44 2022, MaxMem=   939524096 cpu:         1.6
 (Enter /Local/ce_dana/g09/l303.exe)
 DipDrv:  MaxL=1.
 Leave Link  303 at Sat Nov 12 23:37:44 2022, MaxMem=   939524096 cpu:         0.1
 (Enter /Local/ce_dana/g09/l401.exe)
 Initial guess from the checkpoint file:  "check.chk"
 B after Tr=     0.000000    0.000000   -0.000000
         Rot=    0.999998   -0.002059   -0.000236   -0.000201 Ang=  -0.24 deg.
 Guess basis will be translated and rotated to current coordinates.
 JPrj=2 DoOrth=T DoCkMO=T.
 Initial guess <Sx>= 0.0000 <Sy>= 0.0000 <Sz>= 0.5000 <S**2>= 0.7585 S= 0.5042
 Generating alternative initial guess.
 ExpMin= 1.03D-01 ExpMax= 1.97D+04 ExpMxC= 6.73D+02 IAcc=2 IRadAn=         4 AccDes= 0.00D+00
 Harris functional with IExCor=  419 and IRadAn=       4 diagonalized for initial guess.
 HarFok:  IExCor=  419 AccDes= 0.00D+00 IRadAn=         4 IDoV= 1 UseB2=F ITyADJ=14
 ICtDFT=  3500011 ScaDFX=  1.000000  1.000000  1.000000  1.000000
 FoFCou: FMM=F IPFlag=           0 FMFlag=      100000 FMFlg1=           0
         NFxFlg=           0 DoJE=T BraDBF=F KetDBF=T FulRan=T
         wScrn=  0.000000 ICntrl=     500 IOpCl=  0 I1Cent=   200000004 NGrid=           0
         NMat0=    1 NMatS0=      1 NMatT0=    0 NMatD0=    1 NMtDS0=    0 NMtDT0=    0
 Petite list used in FoFCou.
 Harris En= -111.259325244461    
 Leave Link  401 at Sat Nov 12 23:37:44 2022, MaxMem=   939524096 cpu:         2.0
 (Enter /Local/ce_dana/g09/l502.exe)
 UHF open shell SCF:
 Using DIIS extrapolation, IDIIS=  1040.
 Integral symmetry usage will be decided dynamically.
 Keep R1 and R2 ints in memory in canonical form, NReq=12508135.
 IVT=       31806 IEndB=       31806 NGot=   939524096 MDV=   928991451
 LenX=   928991451 LenY=   928982910
 Requested convergence on RMS density matrix=1.00D-08 within  64 cycles.
 Requested convergence on MAX density matrix=1.00D-06.
 Requested convergence on             energy=1.00D-06.
 No special actions if energy rises.
 FoFCou: FMM=F IPFlag=           0 FMFlag=           0 FMFlg1=           0
         NFxFlg=           0 DoJE=F BraDBF=F KetDBF=F FulRan=T
         wScrn=  0.000000 ICntrl=     600 IOpCl=  0 I1Cent=           0 NGrid=           0
         NMat0=    1 NMatS0=   3240 NMatT0=    0 NMatD0=    1 NMtDS0=    0 NMtDT0=    0
 Symmetry not used in FoFCou.
 Integral accuracy reduced to 1.0D-05 until final iterations.

 Cycle   1  Pass 0  IDiag  1:
 E= -111.055691715579    
 DIIS: error= 3.51D-03 at cycle   1 NSaved=   1.
 NSaved= 1 IEnMin= 1 EnMin= -111.055691715579     IErMin= 1 ErrMin= 3.51D-03
 ErrMax= 3.51D-03  0.00D+00 EMaxC= 1.00D-01 BMatC= 3.59D-03 BMatP= 3.59D-03
 IDIUse=3 WtCom= 9.65D-01 WtEn= 3.51D-02
 Coeff-Com:  0.100D+01
 Coeff-En:   0.100D+01
 Coeff:      0.100D+01
 Gap=     0.773 Goal=   None    Shift=    0.000
 Gap=     0.859 Goal=   None    Shift=    0.000
 GapD=    0.773 DampG=2.000 DampE=1.000 DampFc=2.0000 IDamp=-1.
 RMSDP=4.15D-04 MaxDP=8.94D-03              OVMax= 1.78D-02

 Cycle   2  Pass 0  IDiag  1:
 E= -111.056836392959     Delta-E=       -0.001144677380 Rises=F Damp=F
 DIIS: error= 7.84D-04 at cycle   2 NSaved=   2.
 NSaved= 2 IEnMin= 2 EnMin= -111.056836392959     IErMin= 2 ErrMin= 7.84D-04
 ErrMax= 7.84D-04  0.00D+00 EMaxC= 1.00D-01 BMatC= 1.30D-04 BMatP= 3.59D-03
 IDIUse=3 WtCom= 9.92D-01 WtEn= 7.84D-03
 Coeff-Com: -0.147D+00 0.115D+01
 Coeff-En:   0.000D+00 0.100D+01
 Coeff:     -0.146D+00 0.115D+01
 Gap=     0.328 Goal=   None    Shift=    0.000
 Gap=     0.379 Goal=   None    Shift=    0.000
 RMSDP=1.49D-04 MaxDP=3.37D-03 DE=-1.14D-03 OVMax= 7.24D-03

 Cycle   3  Pass 0  IDiag  1:
 E= -111.056933934827     Delta-E=       -0.000097541868 Rises=F Damp=F
 DIIS: error= 3.30D-04 at cycle   3 NSaved=   3.
 NSaved= 3 IEnMin= 3 EnMin= -111.056933934827     IErMin= 3 ErrMin= 3.30D-04
 ErrMax= 3.30D-04  0.00D+00 EMaxC= 1.00D-01 BMatC= 1.41D-05 BMatP= 1.30D-04
 IDIUse=3 WtCom= 9.97D-01 WtEn= 3.30D-03
 Coeff-Com:  0.436D-01-0.509D+00 0.147D+01
 Coeff-En:   0.000D+00 0.000D+00 0.100D+01
 Coeff:      0.434D-01-0.508D+00 0.146D+01
 Gap=     0.328 Goal=   None    Shift=    0.000
 Gap=     0.379 Goal=   None    Shift=    0.000
 RMSDP=7.16D-05 MaxDP=1.45D-03 DE=-9.75D-05 OVMax= 3.44D-03

 Cycle   4  Pass 0  IDiag  1:
 E= -111.056949914723     Delta-E=       -0.000015979896 Rises=F Damp=F
 DIIS: error= 7.76D-05 at cycle   4 NSaved=   4.
 NSaved= 4 IEnMin= 4 EnMin= -111.056949914723     IErMin= 4 ErrMin= 7.76D-05
 ErrMax= 7.76D-05  0.00D+00 EMaxC= 1.00D-01 BMatC= 1.76D-06 BMatP= 1.41D-05
 IDIUse=1 WtCom= 1.00D+00 WtEn= 0.00D+00
 Coeff-Com:  0.120D-01-0.950D-01 0.299D-01 0.105D+01
 Coeff:      0.120D-01-0.950D-01 0.299D-01 0.105D+01
 Gap=     0.328 Goal=   None    Shift=    0.000
 Gap=     0.379 Goal=   None    Shift=    0.000
 RMSDP=2.03D-05 MaxDP=4.42D-04 DE=-1.60D-05 OVMax= 1.31D-03

 Cycle   5  Pass 0  IDiag  1:
 E= -111.056951661658     Delta-E=       -0.000001746935 Rises=F Damp=F
 DIIS: error= 4.39D-05 at cycle   5 NSaved=   5.
 NSaved= 5 IEnMin= 5 EnMin= -111.056951661658     IErMin= 5 ErrMin= 4.39D-05
 ErrMax= 4.39D-05  0.00D+00 EMaxC= 1.00D-01 BMatC= 6.84D-07 BMatP= 1.76D-06
 IDIUse=1 WtCom= 1.00D+00 WtEn= 0.00D+00
 Coeff-Com: -0.632D-02 0.864D-01-0.329D+00 0.391D+00 0.858D+00
 Coeff:     -0.632D-02 0.864D-01-0.329D+00 0.391D+00 0.858D+00
 Gap=     0.328 Goal=   None    Shift=    0.000
 Gap=     0.379 Goal=   None    Shift=    0.000
 RMSDP=9.99D-06 MaxDP=1.79D-04 DE=-1.75D-06 OVMax= 9.01D-04

 Initial convergence to 1.0D-05 achieved.  Increase integral accuracy.
 Cycle   6  Pass 1  IDiag  1:
 E= -111.056953582366     Delta-E=       -0.000001920708 Rises=F Damp=F
 DIIS: error= 2.85D-05 at cycle   1 NSaved=   1.
 NSaved= 1 IEnMin= 1 EnMin= -111.056953582366     IErMin= 1 ErrMin= 2.85D-05
 ErrMax= 2.85D-05  0.00D+00 EMaxC= 1.00D-01 BMatC= 1.59D-07 BMatP= 1.59D-07
 IDIUse=1 WtCom= 1.00D+00 WtEn= 0.00D+00
 Coeff-Com:  0.100D+01
 Coeff:      0.100D+01
 Gap=     0.328 Goal=   None    Shift=    0.000
 Gap=     0.379 Goal=   None    Shift=    0.000
 RMSDP=9.99D-06 MaxDP=1.79D-04 DE=-1.92D-06 OVMax= 3.07D-04

 Cycle   7  Pass 1  IDiag  1:
 E= -111.056953688387     Delta-E=       -0.000000106021 Rises=F Damp=F
 DIIS: error= 1.83D-05 at cycle   2 NSaved=   2.
 NSaved= 2 IEnMin= 2 EnMin= -111.056953688387     IErMin= 2 ErrMin= 1.83D-05
 ErrMax= 1.83D-05  0.00D+00 EMaxC= 1.00D-01 BMatC= 1.02D-07 BMatP= 1.59D-07
 IDIUse=1 WtCom= 1.00D+00 WtEn= 0.00D+00
 Coeff-Com:  0.395D+00 0.605D+00
 Coeff:      0.395D+00 0.605D+00
 Gap=     0.328 Goal=   None    Shift=    0.000
 Gap=     0.379 Goal=   None    Shift=    0.000
 RMSDP=1.71D-06 MaxDP=2.58D-05 DE=-1.06D-07 OVMax= 1.77D-04

 Cycle   8  Pass 1  IDiag  1:
 E= -111.056953733017     Delta-E=       -0.000000044630 Rises=F Damp=F
 DIIS: error= 1.56D-05 at cycle   3 NSaved=   3.
 NSaved= 3 IEnMin= 3 EnMin= -111.056953733017     IErMin= 3 ErrMin= 1.56D-05
 ErrMax= 1.56D-05  0.00D+00 EMaxC= 1.00D-01 BMatC= 3.34D-08 BMatP= 1.02D-07
 IDIUse=1 WtCom= 1.00D+00 WtEn= 0.00D+00
 Coeff-Com: -0.755D+00-0.860D-01 0.184D+01
 Coeff:     -0.755D+00-0.860D-01 0.184D+01
 Gap=     0.328 Goal=   None    Shift=    0.000
 Gap=     0.379 Goal=   None    Shift=    0.000
 RMSDP=4.08D-06 MaxDP=7.45D-05 DE=-4.46D-08 OVMax= 4.53D-04

 Cycle   9  Pass 1  IDiag  1:
 E= -111.056953791169     Delta-E=       -0.000000058152 Rises=F Damp=F
 DIIS: error= 4.17D-06 at cycle   4 NSaved=   4.
 NSaved= 4 IEnMin= 4 EnMin= -111.056953791169     IErMin= 4 ErrMin= 4.17D-06
 ErrMax= 4.17D-06  0.00D+00 EMaxC= 1.00D-01 BMatC= 3.01D-09 BMatP= 3.34D-08
 IDIUse=1 WtCom= 1.00D+00 WtEn= 0.00D+00
 Coeff-Com: -0.306D+00-0.122D+00 0.512D+00 0.915D+00
 Coeff:     -0.306D+00-0.122D+00 0.512D+00 0.915D+00
 Gap=     0.328 Goal=   None    Shift=    0.000
 Gap=     0.379 Goal=   None    Shift=    0.000
 RMSDP=1.24D-06 MaxDP=2.25D-05 DE=-5.82D-08 OVMax= 1.38D-04

 Cycle  10  Pass 1  IDiag  1:
 E= -111.056953795213     Delta-E=       -0.000000004045 Rises=F Damp=F
 DIIS: error= 6.52D-07 at cycle   5 NSaved=   5.
 NSaved= 5 IEnMin= 5 EnMin= -111.056953795213     IErMin= 5 ErrMin= 6.52D-07
 ErrMax= 6.52D-07  0.00D+00 EMaxC= 1.00D-01 BMatC= 1.58D-10 BMatP= 3.01D-09
 IDIUse=1 WtCom= 1.00D+00 WtEn= 0.00D+00
 Coeff-Com:  0.161D-01-0.391D-03-0.649D-01 0.714D-01 0.978D+00
 Coeff:      0.161D-01-0.391D-03-0.649D-01 0.714D-01 0.978D+00
 Gap=     0.328 Goal=   None    Shift=    0.000
 Gap=     0.379 Goal=   None    Shift=    0.000
 RMSDP=1.71D-07 MaxDP=2.72D-06 DE=-4.04D-09 OVMax= 1.38D-05

 Cycle  11  Pass 1  IDiag  1:
 E= -111.056953795314     Delta-E=       -0.000000000100 Rises=F Damp=F
 DIIS: error= 3.11D-07 at cycle   6 NSaved=   6.
 NSaved= 6 IEnMin= 6 EnMin= -111.056953795314     IErMin= 6 ErrMin= 3.11D-07
 ErrMax= 3.11D-07  0.00D+00 EMaxC= 1.00D-01 BMatC= 4.89D-11 BMatP= 1.58D-10
 IDIUse=1 WtCom= 1.00D+00 WtEn= 0.00D+00
 Coeff-Com:  0.883D-01 0.356D-01-0.164D+00-0.219D+00 0.354D+00 0.904D+00
 Coeff:      0.883D-01 0.356D-01-0.164D+00-0.219D+00 0.354D+00 0.904D+00
 Gap=     0.328 Goal=   None    Shift=    0.000
 Gap=     0.379 Goal=   None    Shift=    0.000
 RMSDP=8.91D-08 MaxDP=1.46D-06 DE=-1.00D-10 OVMax= 4.11D-06

 Cycle  12  Pass 1  IDiag  1:
 E= -111.056953795337     Delta-E=       -0.000000000023 Rises=F Damp=F
 DIIS: error= 8.19D-08 at cycle   7 NSaved=   7.
 NSaved= 7 IEnMin= 7 EnMin= -111.056953795337     IErMin= 7 ErrMin= 8.19D-08
 ErrMax= 8.19D-08  0.00D+00 EMaxC= 1.00D-01 BMatC= 1.98D-12 BMatP= 4.89D-11
 IDIUse=1 WtCom= 1.00D+00 WtEn= 0.00D+00
 Coeff-Com: -0.405D-01-0.143D-01 0.747D-01 0.970D-01-0.222D+00-0.422D+00
 Coeff-Com:  0.153D+01
 Coeff:     -0.405D-01-0.143D-01 0.747D-01 0.970D-01-0.222D+00-0.422D+00
 Coeff:      0.153D+01
 Gap=     0.328 Goal=   None    Shift=    0.000
 Gap=     0.379 Goal=   None    Shift=    0.000
 RMSDP=2.20D-08 MaxDP=4.18D-07 DE=-2.34D-11 OVMax= 1.29D-06

 Cycle  13  Pass 1  IDiag  1:
 E= -111.056953795339     Delta-E=       -0.000000000002 Rises=F Damp=F
 DIIS: error= 2.31D-08 at cycle   8 NSaved=   8.
 NSaved= 8 IEnMin= 8 EnMin= -111.056953795339     IErMin= 8 ErrMin= 2.31D-08
 ErrMax= 2.31D-08  0.00D+00 EMaxC= 1.00D-01 BMatC= 1.48D-13 BMatP= 1.98D-12
 IDIUse=1 WtCom= 1.00D+00 WtEn= 0.00D+00
 Coeff-Com:  0.959D-02 0.356D-02-0.186D-01-0.212D-01 0.596D-01 0.101D+00
 Coeff-Com: -0.579D+00 0.144D+01
 Coeff:      0.959D-02 0.356D-02-0.186D-01-0.212D-01 0.596D-01 0.101D+00
 Coeff:     -0.579D+00 0.144D+01
 Gap=     0.328 Goal=   None    Shift=    0.000
 Gap=     0.379 Goal=   None    Shift=    0.000
 RMSDP=6.26D-09 MaxDP=1.17D-07 DE=-2.13D-12 OVMax= 4.37D-07

 SCF Done:  E(UB2PLYPD3) =  -111.056953795     A.U. after   13 cycles
            NFock= 13  Conv=0.63D-08     -V/T= 2.0029
 <Sx>= 0.0000 <Sy>= 0.0000 <Sz>= 0.5000 <S**2>= 0.7584 S= 0.5042
 <L.S>=  0.00000000000    
 KE= 1.107327225712D+02 PE=-3.333827107320D+02 EE= 7.502304800835D+01
 Annihilation of the first spin contaminant:
 S**2 before annihilation     0.7584,   after     0.7500
 Leave Link  502 at Sat Nov 12 23:37:47 2022, MaxMem=   939524096 cpu:        25.3
 (Enter /Local/ce_dana/g09/l508.exe)
 QCSCF skips out because SCF is already converged.
 Leave Link  508 at Sat Nov 12 23:37:47 2022, MaxMem=   939524096 cpu:         0.0
 (Enter /Local/ce_dana/g09/l801.exe)
 DoSCS=T DFT=T ScalE2(SS,OS)=  0.270000  0.270000
 ExpMin= 1.03D-01 ExpMax= 1.97D+04 ExpMxC= 6.73D+02 IAcc=3 IRadAn=         5 AccDes= 0.00D+00
 HarFok:  IExCor=  205 AccDes= 0.00D+00 IRadAn=         5 IDoV=-2 UseB2=F ITyADJ=14
 ICtDFT= 12500011 ScaDFX=  1.000000  1.000000  1.000000  1.000000
 Largest valence mixing into a core orbital is  8.53D-05
 Largest core mixing into a valence orbital is  1.66D-05
 Largest valence mixing into a core orbital is  1.10D-04
 Largest core mixing into a valence orbital is  2.07D-05
 Range of M.O.s used for correlation:     3    80
 NBasis=    80 NAE=     9 NBE=     8 NFC=     2 NFV=     0
 NROrb=     78 NOA=     7 NOB=     6 NVA=    71 NVB=    72

 **** Warning!!: The largest alpha MO coefficient is  0.10228860D+02


 **** Warning!!: The largest beta MO coefficient is  0.10207848D+02

 Leave Link  801 at Sat Nov 12 23:37:47 2022, MaxMem=   939524096 cpu:         0.3
 (Enter /Local/ce_dana/g09/l906.exe)
 DoSCS=T DFT=T ScalE2(SS,OS)=  0.270000  0.270000
 Frozen-core derivative calculation, NFC=   2 NFV=   0.
 FulOut=F Deriv=T AODrv=T NAtomX=     5
   MMem=        2442  MDisk=           7 MDiskD=           7
  W3Min=      129600 MinDsk=      192605 NBas6D=          90
 NBas2D=        4272    NTT=        4095    LW2=     3500000
    MDV=   939409488 MDiskM=       52078 NBas2p=        4271
 Fully direct method using O(ONN) memory.
 IMap=   1   2   3   4   5   6   7   8   9
 JobTyp=2 Pass  1:  I=   3 to   9 NPSUse= 10 ParTrn=T ParDer=T DoDerP=T.
 IMap=   1   2   3   4   5   6   7   8
 JobTyp=3 Pass  1:  I=   3 to   8 NPSUse= 10 ParTrn=T ParDer=T DoDerP=T.
 Spin components of T(2) and E(2):
     alpha-alpha T2 =       0.2155351711D-01 E2=     -0.1705642946D-01
     alpha-beta  T2 =       0.1245129009D+00 E2=     -0.9674550124D-01
     beta-beta   T2 =       0.2222589660D-01 E2=     -0.1468220056D-01
 The integrals were generated   2 times.
 E2(B2PLYPD3) =    -0.1284841313D+00 E(B2PLYPD3) =    -0.11118543792661D+03
 Leave Link  906 at Sat Nov 12 23:37:48 2022, MaxMem=   939524096 cpu:        10.5
 (Enter /Local/ce_dana/g09/l1002.exe)
 Minotr:  UHF open shell wavefunction.
          Computing MP2/KS-MP2 derivatives.
          Using Z-Vector for PSCF gradient.
          Skipping F1 and S1 gradient terms here.
          IDoAtm=11111
          Frozen-core window.
          Direct CPHF calculation.
          Differentiating once with respect to electric field.
                with respect to dipole field.
          Differentiating once with respect to nuclear coordinates.
          Requested convergence is 1.0D-10 RMS, and 1.0D-09 maximum.
          NewPWx=F KeepS1=T KeepF1=T KeepIn=T MapXYZ=F SortEE=F KeepMc=T.
          MDV=     939523886 using IRadAn=       5.
 Using stored XC quadrature information.
 Keep R1 and R2 ints in memory in canonical form, NReq=12489711.
 FoFCou: FMM=F IPFlag=           0 FMFlag=           0 FMFlg1=           0
         NFxFlg=           0 DoJE=F BraDBF=F KetDBF=F FulRan=T
         wScrn=  0.000000 ICntrl=     600 IOpCl=  0 I1Cent=           0 NGrid=           0
         NMat0=    1 NMatS0=   3240 NMatT0=    0 NMatD0=    1 NMtDS0=    0 NMtDT0=    0
 Symmetry not used in FoFCou.
          Solving linear equations separately, MaxMat=       0.
          There are     1 degrees of freedom in the 1st order CPHF.  IDoFFX=0 NUNeed=     1.
 LinEq1:  Iter=  0 NonCon=     1 RMS=1.57D-03 Max=3.57D-02 NDo=     1
 AX will form     1 AO Fock derivatives at one time.
 LinEq1:  Iter=  1 NonCon=     1 RMS=4.69D-04 Max=3.69D-03 NDo=     1
 LinEq1:  Iter=  2 NonCon=     1 RMS=3.48D-04 Max=5.07D-03 NDo=     1
 LinEq1:  Iter=  3 NonCon=     1 RMS=9.87D-05 Max=1.09D-03 NDo=     1
 LinEq1:  Iter=  4 NonCon=     1 RMS=7.50D-05 Max=1.15D-03 NDo=     1
 LinEq1:  Iter=  5 NonCon=     1 RMS=2.10D-05 Max=3.19D-04 NDo=     1
 LinEq1:  Iter=  6 NonCon=     1 RMS=7.46D-06 Max=9.68D-05 NDo=     1
 LinEq1:  Iter=  7 NonCon=     1 RMS=2.03D-06 Max=2.33D-05 NDo=     1
 LinEq1:  Iter=  8 NonCon=     1 RMS=4.30D-07 Max=3.03D-06 NDo=     1
 LinEq1:  Iter=  9 NonCon=     1 RMS=1.24D-07 Max=9.76D-07 NDo=     1
 LinEq1:  Iter= 10 NonCon=     1 RMS=2.72D-08 Max=2.17D-07 NDo=     1
 LinEq1:  Iter= 11 NonCon=     1 RMS=5.64D-09 Max=8.75D-08 NDo=     1
 LinEq1:  Iter= 12 NonCon=     1 RMS=1.38D-09 Max=1.85D-08 NDo=     1
 LinEq1:  Iter= 13 NonCon=     1 RMS=2.42D-10 Max=2.24D-09 NDo=     1
 LinEq1:  Iter= 14 NonCon=     0 RMS=4.33D-11 Max=3.89D-10 NDo=     1
 Linear equations converged to 1.000D-10 1.000D-09 after    14 iterations.
 End of Minotr F.D. properties file   721 does not exist.
 End of Minotr F.D. properties file   722 does not exist.
 End of Minotr F.D. properties file   788 does not exist.
 Leave Link 1002 at Sat Nov 12 23:37:55 2022, MaxMem=   939524096 cpu:        64.5
 (Enter /Local/ce_dana/g09/l701.exe)
 Compute integral first derivatives.
 ... and contract with generalized density number  2.
 R6Disp: Adding Grimme-D3(BJ) dispersion energy 1st derivatives to the gradient.
   1 Symmetry operations used in ECPInt.
 ECPInt:  NShTT=     595 NPrTT=    1764 LenC2=     595 LenP2D=    1624.
 LDataN:  DoStor=T MaxTD1= 7 Len=  274
 Leave Link  701 at Sat Nov 12 23:37:56 2022, MaxMem=   939524096 cpu:         4.1
 (Enter /Local/ce_dana/g09/l702.exe)
 L702 exits ... SP integral derivatives will be done elsewhere.
 Leave Link  702 at Sat Nov 12 23:37:56 2022, MaxMem=   939524096 cpu:         0.0
 (Enter /Local/ce_dana/g09/l703.exe)
 Compute integral first derivatives, UseDBF=F ICtDFT=           0.
 Integral derivatives from FoFJK, PRISM(SPDF).
 Calling FoFJK, ICntrl=  10002127 FMM=F ISym2X=0 I1Cent= 0 IOpClX= 1 NMat=1 NMatS=1 NMatT=0.
 FoFJK:  IHMeth= 1 ICntrl=10002127 DoSepK=F KAlg= 0 I1Cent=   0 FoldK=F
 IRaf=         0 NMat=   1 IRICut=       1 DoRegI=T DoRafI=F ISym2E= 0.
 FoFCou: FMM=F IPFlag=           0 FMFlag=      100000 FMFlg1=         800
         NFxFlg=           0 DoJE=F BraDBF=F KetDBF=F FulRan=T
         wScrn=  0.000000 ICntrl=10002127 IOpCl=  1 I1Cent=           0 NGrid=           0
         NMat0=    1 NMatS0=      1 NMatT0=    0 NMatD0=    1 NMtDS0=    0 NMtDT0=    0
 Symmetry not used in FoFCou.
 Leave Link  703 at Sat Nov 12 23:37:57 2022, MaxMem=   939524096 cpu:        12.6
 (Enter /Local/ce_dana/g09/l716.exe)
 Dipole        = 7.86729305D-01 6.28497106D-01 2.16274549D-01
 ***** Axes restored to original set *****
 -------------------------------------------------------------------
 Center     Atomic                   Forces (Hartrees/Bohr)
 Number     Number              X              Y              Z
 -------------------------------------------------------------------
      1        7           0.000138297   -0.000996469    0.000527858
      2        7          -0.000090702   -0.000916183    0.003299020
      3        1           0.000203213    0.000304543   -0.002023947
      4        1           0.000298325    0.000768242    0.000999636
      5        1          -0.000549132    0.000839867   -0.002802566
 -------------------------------------------------------------------
 Cartesian Forces:  Max     0.003299020 RMS     0.001361177
 Leave Link  716 at Sat Nov 12 23:37:57 2022, MaxMem=   939524096 cpu:         0.1
 (Enter /Local/ce_dana/g09/l103.exe)

 GradGradGradGradGradGradGradGradGradGradGradGradGradGradGradGradGradGrad
 Berny optimization.
 FormGI is forming the generalized inverse of G from B-inverse, IUseBI=4.
 Internal  Forces:  Max     0.003107770 RMS     0.001254107
 Search for a local minimum.
 Step number   1 out of a maximum of   21 on scan point     2 out of    46
 All quantities printed in internal units (Hartrees-Bohrs-Radians)
 RMS Force = .34663D-03 SwitMx=.10000D-02 MixMth= 1
 Mixed Optimization -- RFO/linear search
 Second derivative matrix not updated -- first step.
 The second derivative matrix:
                          R1        R2        R3        R4        A1
           R1           0.46539
           R2           0.01217   0.46581
           R3           0.01356  -0.00159   0.44561
           R4          -0.00554  -0.00217   0.00238   0.42027
           A1           0.02881   0.00395  -0.00332   0.00654   0.12122
           A2           0.01017  -0.00733  -0.00503  -0.00509  -0.06122
           A3          -0.02746   0.00912   0.01351  -0.00007  -0.04319
           A4           0.07791   0.00637  -0.00559   0.01900   0.02151
           D1           0.00616   0.00681   0.00492   0.00066   0.01002
           D2          -0.00114  -0.00550  -0.00792  -0.00168  -0.00351
           D3          -0.02015  -0.00520  -0.00522  -0.00002  -0.00087
[...]
           A2         120.50164 120.50135 120.50106 120.50076 120.50047
           A3         114.78975 114.79051 114.79126 114.79201 114.79277
           A4         106.50324 107.00580 107.52447 108.04921 108.55313
           D1           7.62166  15.62166  23.62166  31.62166  39.62166
           D2        -134.42097-126.42168-118.42239-110.42310-102.42381
           D3        -144.28537-144.28565-144.28593-144.28621-144.28650
                          31        32        33        34        35
     Eigenvalues --  -111.15577-111.14913-111.14360-111.14170-111.14425
           R1           1.35963   1.37474   1.40055   1.41269   1.39721
           R2           1.01351   1.01265   1.01055   1.00860   1.00856
           R3           1.00869   1.00769   1.00695   1.00762   1.00985
           R4           1.02802   1.03065   1.03356   1.03486   1.03389
           A1         113.60257 113.60242 113.60227 113.60209 113.60194
           A2         120.50018 120.49994 120.49968 120.49939 120.49915
           A3         114.79352 114.79415 114.79481 114.79556 114.79619
           A4         108.92998 108.65357 107.73013 107.40844 108.30068
           D1          47.62166  55.62169  63.62168  71.62166  79.62169
           D2         -94.42452 -86.42509 -78.42572 -70.42645 -62.42702
           D3        -144.28678-144.28701-144.28726-144.28754-144.28777
                          36        37        38        39        40
     Eigenvalues --  -111.15024-111.15707-111.16334-111.16878-111.17340
           R1           1.37119   1.35797   1.35263   1.35054   1.34959
           R2           1.00908   1.00971   1.00987   1.00974   1.00943
           R3           1.01238   1.01330   1.01314   1.01248   1.01180
           R4           1.03090   1.02848   1.02700   1.02544   1.02412
           A1         113.60179 113.60164 113.60146 113.60128 113.60110
           A2         120.49890 120.49865 120.49836 120.49807 120.49778
           A3         114.79682 114.79748 114.79823 114.79899 114.79974
           A4         109.54224 109.79701 109.42438 108.82639 108.26732
           D1          87.62169  95.62168 103.62166 111.62166 119.62166
           D2         -54.42762 -46.42824 -38.42897 -30.42968 -22.43039
           D3        -144.28801-144.28826-144.28854-144.28882-144.28910
                          41        42        43        44        45
     Eigenvalues --  -111.17722-111.18030-111.18268-111.18440-111.18546
           R1           1.34916   1.34899   1.34887   1.34865   1.34827
           R2           1.00901   1.00853   1.00805   1.00763   1.00729
           R3           1.01120   1.01077   1.01055   1.01057   1.01082
           R4           1.02296   1.02201   1.02133   1.02094   1.02083
           A1         113.60092 113.60075 113.60057 113.60039 113.60021
           A2         120.49748 120.49719 120.49690 120.49661 120.49632
           A3         114.80049 114.80125 114.80200 114.80275 114.80351
           A4         107.73225 107.22579 106.76199 106.35874 106.03683
           D1         127.62166 135.62166 143.62166 151.62166 159.62166
           D2         -14.43110  -6.43182   1.56747   9.56676  17.56605
           D3        -144.28939-144.28967-144.28995-144.29023-144.29051
                          46
     Eigenvalues --  -111.18582
           R1           1.34776
           R2           1.00706
           R3           1.01124
           R4           1.02097
           A1         113.60003
           A2         120.49603
           A3         114.80426
           A4         105.81641
           D1         167.62166
           D2          25.56534
           D3        -144.29079
 Largest change from initial coordinates is atom    4       0.000 Angstoms.
 Leave Link  103 at Sun Nov 13 00:01:32 2022, MaxMem=   939524096 cpu:         0.1
 (Enter /Local/ce_dana/g09/l202.exe)
                          Input orientation:                          
 ---------------------------------------------------------------------
 Center     Atomic      Atomic             Coordinates (Angstroms)
 Number     Number       Type             X           Y           Z
 ---------------------------------------------------------------------
      1          7           0       -0.388717    0.212799    0.134759
      2          7           0        0.870540   -0.242139    0.288914
      3          1           0       -1.005252   -0.043932    0.888512
      4          1           0       -0.820283    0.228708   -0.779627
      5          1           0        1.328542   -0.104436   -0.613115
 ---------------------------------------------------------------------
                    Distance matrix (angstroms):
                    1          2          3          4          5
     1  N    0.000000
     2  N    1.347761   0.000000
     3  H    1.007060   1.979242   0.000000
     4  H    1.011239   2.054838   1.700363   0.000000
     5  H    1.899718   1.020972   2.775813   2.180862   0.000000
 Stoichiometry    H3N2(2)
 Framework group  C1[X(H3N2)]
 Deg. of freedom     9
 Full point group                 C1      NOp   1
 RotChk:  IX=0 Diff= 1.54D-15
 Largest Abelian subgroup         C1      NOp   1
 Largest concise Abelian subgroup C1      NOp   1
                         Standard orientation:                         
 ---------------------------------------------------------------------
 Center     Atomic      Atomic             Coordinates (Angstroms)
 Number     Number       Type             X           Y           Z
 ---------------------------------------------------------------------
      1          7           0        0.594927    0.024551   -0.072509
      2          7           0       -0.737894   -0.150909    0.023734
      3          1           0        1.127692   -0.797638    0.160596
      4          1           0        1.019066    0.898585    0.208158
      5          1           0       -1.145991    0.783560   -0.027334
 ---------------------------------------------------------------------
 Rotational constants (GHZ):    205.3509412     30.8148697     27.1871583
 Leave Link  202 at Sun Nov 13 00:01:32 2022, MaxMem=   939524096 cpu:         0.0
 (Enter /Local/ce_dana/g09/l601.exe)
 Copying SCF densities to generalized density rwf, IOpCl= 1 IROHF=0.

 **********************************************************************

            Population analysis using the SCF density.

 **********************************************************************

 Orbital symmetries:
 Alpha Orbitals:
       Occupied  (A) (A) (A) (A) (A) (A) (A) (A) (A)
       Virtual   (A) (A) (A) (A) (A) (A) (A) (A) (A) (A) (A) (A)
                 (A) (A) (A) (A) (A) (A) (A) (A) (A) (A) (A) (A)
                 (A) (A) (A) (A) (A) (A) (A) (A) (A) (A) (A) (A)
                 (A) (A) (A) (A) (A) (A) (A) (A) (A) (A) (A) (A)
                 (A) (A) (A) (A) (A) (A) (A) (A) (A) (A) (A) (A)
                 (A) (A) (A) (A) (A) (A) (A) (A) (A) (A) (A)
 Beta  Orbitals:
       Occupied  (A) (A) (A) (A) (A) (A) (A) (A)
       Virtual   (A) (A) (A) (A) (A) (A) (A) (A) (A) (A) (A) (A)
                 (A) (A) (A) (A) (A) (A) (A) (A) (A) (A) (A) (A)
                 (A) (A) (A) (A) (A) (A) (A) (A) (A) (A) (A) (A)
                 (A) (A) (A) (A) (A) (A) (A) (A) (A) (A) (A) (A)
                 (A) (A) (A) (A) (A) (A) (A) (A) (A) (A) (A) (A)
                 (A) (A) (A) (A) (A) (A) (A) (A) (A) (A) (A) (A)
 The electronic state is 2-A.
 Alpha  occ. eigenvalues --  -14.87986 -14.85318  -1.11938  -0.85168  -0.62991
 Alpha  occ. eigenvalues --   -0.54588  -0.47679  -0.37117  -0.26170
 Alpha virt. eigenvalues --    0.06359   0.10235   0.13877   0.29480   0.35115
 Alpha virt. eigenvalues --    0.37934   0.42267   0.42892   0.45703   0.47434
 Alpha virt. eigenvalues --    0.49317   0.53421   0.57730   0.59231   0.64189
 Alpha virt. eigenvalues --    0.93247   1.03636   1.10479   1.22568   1.30824
 Alpha virt. eigenvalues --    1.42593   1.44550   1.48464   1.63247   1.68153
 Alpha virt. eigenvalues --    1.76910   1.94398   1.96172   1.97163   2.08811
 Alpha virt. eigenvalues --    2.09138   2.13283   2.16881   2.19974   2.25504
 Alpha virt. eigenvalues --    2.41360   2.46433   2.62237   2.62936   2.71293
 Alpha virt. eigenvalues --    2.83636   3.12656   3.18605   3.26475   3.63091
 Alpha virt. eigenvalues --    3.74632   3.94894   4.01807   4.10427   4.19611
 Alpha virt. eigenvalues --    4.39365   4.53987   4.68457   4.71751   4.76680
 Alpha virt. eigenvalues --    4.79693   4.80766   4.82125   4.90929   4.98548
 Alpha virt. eigenvalues --    5.09134   5.11602   5.39674   5.44113   5.66668
 Alpha virt. eigenvalues --    5.74618   5.89204   6.01822   6.91110  32.08054
 Alpha virt. eigenvalues --   32.17992
  Beta  occ. eigenvalues --  -14.87216 -14.83237  -1.08884  -0.80768  -0.62221
  Beta  occ. eigenvalues --   -0.53284  -0.37978  -0.34379
  Beta virt. eigenvalues --    0.04230   0.06727   0.10611   0.14169   0.30517
  Beta virt. eigenvalues --    0.35337   0.40104   0.42757   0.43555   0.47955
  Beta virt. eigenvalues --    0.50298   0.51109   0.54420   0.58357   0.60422
  Beta virt. eigenvalues --    0.65308   0.94643   1.06535   1.13068   1.23878
  Beta virt. eigenvalues --    1.31780   1.44325   1.45842   1.49112   1.66259
  Beta virt. eigenvalues --    1.70035   1.77107   1.95292   1.97692   1.98031
  Beta virt. eigenvalues --    2.09481   2.09616   2.16358   2.18553   2.23201
  Beta virt. eigenvalues --    2.26214   2.43789   2.49559   2.62709   2.63589
  Beta virt. eigenvalues --    2.72084   2.84320   3.13479   3.20099   3.27746
  Beta virt. eigenvalues --    3.64923   3.77057   3.98054   4.03444   4.13030
  Beta virt. eigenvalues --    4.20979   4.43541   4.56381   4.71611   4.74681
  Beta virt. eigenvalues --    4.79025   4.82851   4.84500   4.85595   4.95351
  Beta virt. eigenvalues --    5.01656   5.10728   5.13176   5.41023   5.45428
  Beta virt. eigenvalues --    5.67707   5.77185   5.90026   6.02317   6.92444
  Beta virt. eigenvalues --   32.09680  32.18686
          Condensed to atoms (all electrons):
               1          2          3          4          5
     1  N    6.452243   0.178559   0.383277   0.363929  -0.034990
     2  N    0.178559   6.913791  -0.051005  -0.022096   0.299773
     3  H    0.383277  -0.051005   0.458319  -0.043713   0.010132
     4  H    0.363929  -0.022096  -0.043713   0.496665  -0.021552
     5  H   -0.034990   0.299773   0.010132  -0.021552   0.554355
          Atomic-Atomic Spin Densities.
               1          2          3          4          5
     1  N    0.448792  -0.228142  -0.001608  -0.005427   0.005162
     2  N   -0.228142   1.065765  -0.003704  -0.003613  -0.006837
     3  H   -0.001608  -0.003704  -0.005189   0.003481  -0.000411
     4  H   -0.005427  -0.003613   0.003481   0.002531   0.000870
     5  H    0.005162  -0.006837  -0.000411   0.000870  -0.031440
 Mulliken charges and spin densities:
               1          2
     1  N   -0.343018   0.218777
     2  N   -0.319022   0.823469
     3  H    0.242991  -0.007432
     4  H    0.226767  -0.002158
     5  H    0.192282  -0.032656
 Sum of Mulliken charges =   0.00000   1.00000
 Mulliken charges and spin densities with hydrogens summed into heavy atoms:
               1          2
     1  N    0.126740   0.209187
     2  N   -0.126740   0.790813
 Electronic spatial extent (au):  <R**2>=             71.1638
 Charge=              0.0000 electrons
 Dipole moment (field-independent basis, Debye):
    X=              1.8450    Y=              1.6541    Z=              0.7071  Tot=              2.5769
 Quadrupole moment (field-independent basis, Debye-Ang):
   XX=            -11.7257   YY=            -10.8519   ZZ=            -14.3280
   XY=             -2.2504   XZ=              1.0297   YZ=              0.1196
 Traceless Quadrupole moment (field-independent basis, Debye-Ang):
   XX=              0.5761   YY=              1.4500   ZZ=             -2.0261
   XY=             -2.2504   XZ=              1.0297   YZ=              0.1196
 Octapole moment (field-independent basis, Debye-Ang**2):
  XXX=              4.0819  YYY=              2.3308  ZZZ=              0.6449  XYY=              2.7346
  XXY=              2.4230  XXZ=              0.9611  XZZ=              0.2044  YZZ=              0.4219
  YYZ=              0.5709  XYZ=              0.0981
 Hexadecapole moment (field-independent basis, Debye-Ang**3):
 XXXX=            -52.5479 YYYY=            -17.3420 ZZZZ=            -14.6663 XXXY=             -4.5111
 XXXZ=              1.6374 YYYX=             -2.6233 YYYZ=              0.1748 ZZZX=              0.8916
 ZZZY=              0.1093 XXYY=             -9.9186 XXZZ=            -12.7185 YYZZ=             -5.7280
 XXYZ=              0.0452 YYXZ=              0.7880 ZZXY=             -0.6292
 N-N= 3.657609422569D+01 E-N=-3.333946909000D+02  KE= 1.107340747151D+02
                          Isotropic Fermi Contact Couplings
        Atom                 a.u.       MegaHertz       Gauss      10(-4) cm-1
     1  N(14)              0.08455      27.31925       9.74819       9.11272
     2  N(14)              0.09117      29.45849      10.51152       9.82629
     3  H(1)              -0.00228     -10.18232      -3.63331      -3.39646
     4  H(1)               0.00113       5.04488       1.80014       1.68279
     5  H(1)              -0.01073     -47.95565     -17.11177     -15.99628
 --------------------------------------------------------
       Center         ----  Spin Dipole Couplings  ----
                      3XX-RR        3YY-RR        3ZZ-RR
 --------------------------------------------------------
     1   Atom       -0.355936     -0.399846      0.755782
     2   Atom       -0.939736     -0.917941      1.857677
     3   Atom       -0.002845      0.013807     -0.010962
     4   Atom       -0.014460      0.024385     -0.009925
     5   Atom       -0.050549      0.063566     -0.013018
 --------------------------------------------------------
                        XY            XZ            YZ
 --------------------------------------------------------
     1   Atom        0.009628     -0.152207     -0.043253
     2   Atom       -0.023328      0.003074      0.105396
     3   Atom       -0.038775      0.005166     -0.009051
     4   Atom        0.035706      0.005022      0.008951
     5   Atom       -0.066199      0.002011     -0.000548
 --------------------------------------------------------


 ---------------------------------------------------------------------------------
              Anisotropic Spin Dipole Couplings in Principal Axis System
 ---------------------------------------------------------------------------------

       Atom             a.u.   MegaHertz   Gauss  10(-4) cm-1        Axes

              Baa    -0.4021   -15.506    -5.533    -5.172 -0.1492  0.9886  0.0173
     1 N(14)  Bbb    -0.3758   -14.495    -5.172    -4.835  0.9798  0.1455  0.1373
              Bcc     0.7779    30.002    10.705    10.008 -0.1333 -0.0375  0.9904
 
              Baa    -0.9559   -36.867   -13.155   -12.297  0.8231  0.5674 -0.0222
     2 N(14)  Bbb    -0.9058   -34.934   -12.465   -11.653 -0.5678  0.8226 -0.0307
              Bcc     1.8617    71.801    25.620    23.950  0.0008  0.0379  0.9993
 
              Baa    -0.0343   -18.303    -6.531    -6.105  0.7694  0.6343  0.0757
     3 H(1)   Bbb    -0.0127    -6.756    -2.411    -2.254 -0.1691  0.0880  0.9817
              Bcc     0.0470    25.060     8.942     8.359 -0.6160  0.7681 -0.1749
 
              Baa    -0.0357   -19.041    -6.794    -6.351  0.8589 -0.5121  0.0105
     4 H(1)   Bbb    -0.0118    -6.273    -2.238    -2.092 -0.0990 -0.1459  0.9843
              Bcc     0.0474    25.314     9.033     8.444  0.5025  0.8465  0.1761
 
              Baa    -0.0809   -43.177   -15.407   -14.402  0.9089  0.4163 -0.0236
     5 H(1)   Bbb    -0.0130    -6.934    -2.474    -2.313  0.0162  0.0212  0.9996
              Bcc     0.0939    50.112    17.881    16.715 -0.4167  0.9090 -0.0125
 

 ---------------------------------------------------------------------------------

 No NMR shielding tensors so no spin-rotation constants.
 Leave Link  601 at Sun Nov 13 00:01:32 2022, MaxMem=   939524096 cpu:         2.6
 (Enter /Local/ce_dana/g09/l9999.exe)

 Test job not archived.
 1\1\GINC-TECH-WN227\Scan\UB2PLYPD3-FC\def2TZVP\H3N2(2)\ALONGD\13-Nov-2
 022\0\\#P opt=(modredundant, calcfc, noeigentest, maxStep=5) scf=(tigh
 t, direct) integral=(grid=ultrafine, Acc2E=12) guess=read ub2plypd3/de
 f2tzvp IOp(2/9=2000) scf=xqc\\Hydrazino\\0,2\N,-0.388716756,0.21279902
 58,0.1347592597\N,0.8705400003,-0.2421386165,0.2889139404\H,-1.0052521
 806,-0.0439323535,0.8885122327\H,-0.8202828191,0.228707824,-0.77962684
 46\H,1.3285417554,-0.1044358798,-0.6131145882\\Version=ES64L-G09RevD.0
 1\State=2-A\HF=-111.0573395,-111.0569533,-111.0557743,-111.0537439,-11
 1.0508255,-111.0469969,-111.0422706,-111.0367132,-111.0305143,-111.024
 4575,-111.0204957,-111.0200569,-111.0233173,-111.0288918,-111.0348838,
 -111.0403113,-111.0449308,-111.0486654,-111.051501,-111.0534611,-111.0
 545941,-111.0549614,-111.0546242,-111.053633,-111.052016,-111.0497739,
 -111.0468831,-111.0433086,-111.0390275,-111.0340694,-111.0286082,-111.
 0232614,-111.0193317,-111.0180448,-111.0199112,-111.0242991,-111.02992
 27,-111.0355463,-111.040653,-111.0450858,-111.0488163,-111.0518558,-11
 1.0542258,-111.0559383,-111.056986,-111.0573403\MP2=-111.1858174,-111.
 1854389,-111.1842618,-111.1822253,-111.1792724,-111.1753609,-111.17046
 54,-111.1645799,-111.1577219,-111.1501206,-111.1442884,-111.1437001,-1
 11.1485106,-111.1558036,-111.16256,-111.1683549,-111.1731616,-111.1769
 888,-111.1798663,-111.1818424,-111.18298,-111.1833492,-111.1830166,-11
 1.1820337,-111.1804255,-111.1781848,-111.1752726,-111.171628,-111.1671
 844,-111.1618923,-111.1557677,-111.1491296,-111.1436,-111.1417018,-111
 .1442517,-111.1502415,-111.157074,-111.1633388,-111.1687842,-111.17339
 73,-111.1772179,-111.1802983,-111.1826846,-111.1844036,-111.1854563,-1
 11.1858174\S2=0.758466,0.758402,0.758298,0.758156,0.757981,0.757771,0.
 757519,0.757203,0.756781,0.756201,0.755899,0.755883,0.756059,0.756608,
 0.757045,0.757369,0.757631,0.757855,0.758051,0.75822,0.758358,0.758458
 ,0.758514,0.758519,0.75847,0.758369,0.758217,0.758016,0.757759,0.75743
 ,0.756999,0.756469,0.75612,0.756045,0.756054,0.756334,0.756796,0.7572,
 0.75753,0.757806,0.758036,0.758221,0.75836,0.758447,0.758482,0.758466\
 S2-1=0.,0.,0.,0.,0.,0.,0.,0.,0.,0.,0.,0.,0.,0.,0.,0.,0.,0.,0.,0.,0.,0.
 ,0.,0.,0.,0.,0.,0.,0.,0.,0.,0.,0.,0.,0.,0.,0.,0.,0.,0.,0.,0.,0.,0.,0.,
 0.\S2A=0.750045,0.750044,0.750043,0.750041,0.750039,0.750037,0.750035,
 0.750033,0.750031,0.750027,0.750023,0.750022,0.750026,0.75003,0.750032
 ,0.750035,0.750037,0.750039,0.750041,0.750043,0.750044,0.750045,0.7500
 46,0.750045,0.750045,0.750043,0.750042,0.75004,0.750038,0.750036,0.750
 033,0.75003,0.750025,0.750023,0.750025,0.750029,0.750032,0.750034,0.75
 0036,0.750038,0.75004,0.750042,0.750044,0.750045,0.750045,0.750045\RMS
 D=6.537e-09,5.620e-09,3.902e-09,4.512e-09,2.959e-09,6.321e-09,4.553e-0
 9,4.474e-09,4.070e-09,8.598e-09,5.743e-09,4.298e-09,3.148e-09,3.637e-0
 9,3.584e-09,4.699e-09,9.999e-09,5.171e-09,2.630e-09,5.905e-09,5.166e-0
 9,6.060e-09,6.641e-09,6.979e-09,3.045e-09,4.891e-09,8.037e-09,2.029e-0
 9,2.711e-09,8.892e-09,3.489e-09,2.907e-09,3.149e-09,5.442e-09,7.962e-0
 9,4.941e-09,5.814e-09,9.517e-09,8.401e-09,2.028e-09,9.206e-09,5.617e-0
 9,3.312e-09,7.109e-09,5.836e-09,5.127e-09\PG=C01 [X(H3N2)]\\@


 IT IS A CAPITAL MISTAKE TO THEORIZE BEFORE ONE HAS
 DATA.  INSENSIBLY ONE BEGINS TO TWIST FACTS TO SUIT
 THEORIES RATHER THAN THEORIES TO SUIT FACTS.

                                         -- SHERLOCK HOLMES
 Job cpu time:       0 days  3 hours 46 minutes 49.9 seconds.
 File lengths (MBytes):  RWF=    539 Int=      0 D2E=      0 Chk=      3 Scr=      1
 Normal termination of Gaussian 09 at Sun Nov 13 00:01:32 2022.
