
 Working directory              : /var/lib/condor/execute/dir_68169/molpro.lKYO23gSW8/
 Global scratch directory       : /var/lib/condor/execute/dir_68169/molpro.lKYO23gSW8/
 Wavefunction directory         : /srv01/technion/alongd/wfu/
 Main file repository           : /var/lib/condor/execute/dir_68169/molpro.lKYO23gSW8/

 id        : dana

 Nodes     nprocs
 tech-wn004    9
 Distribution of processes:   nprocs(total)=   10   nprocs(compute)=    9   nprocs(helper)=    1
 GA implementation: MPI file
 GA implementation (serial work in mppx): MPI file

 Using customized tuning parameters: mindgm=1; mindgv=20; mindgc=4; mindgr=1; noblas=0; minvec=7
 default implementation of scratch files=sf  


 Variables initialized (1009), CPU time= 0.01 sec
 ***,Hydrazino
 memory,90,m;
 file,1,file1.int                                                                !allocate permanent integral file
 file,2,file2.wfu                                                                !allocate permanent wave-function (dump) file
 
 geometry={angstrom;
 N      -0.42485700    0.00192800    0.16965000
 N       0.78887900   -0.52686600   -0.08286700
 H      -1.18373200   -0.64514000    0.02966600
 H      -0.63118400    0.95854400   -0.08521800
 H       1.43572400    0.26253400   -0.11178700}
 
 basis=cc-pvtz-f12
 
 
 
 int;
 {hf;
 maxit,1000;
 wf,spin=1,charge=0;}
 
 uccsd(t)-f12;
 
 
 
 Commands initialized (810), CPU time= 0.01 sec, 661 directives.
 Default parameters read. Elapsed time= 0.19 sec

 Checking input...
 Passed
1


                                         ***  PROGRAM SYSTEM MOLPRO  ***
                                       Copyright, TTI GmbH Stuttgart, 2015
                                    Version 2021.2 linked Jul 16 2021 12:17:16


 **********************************************************************************************************************************
 LABEL *   Hydrazino                                                                     
  64 bit mpp version                                                                     DATE: 12-Nov-22          TIME: 21:49:53  
 **********************************************************************************************************************************

 SHA1:             dade016a989826d9d859d6207854b99675d53db3
 **********************************************************************************************************************************

 Memory per process:        90 MW
 Total memory per node:    810 MW

 GA preallocation disabled
 GA check disabled

 Variable memory set to 90.0 MW



 Permanent file  1  file1.int        assigned.  Implementation=df  
 Permanent file  2  file2.wfu        assigned.  Implementation=df    Size= 15.22 MB


 PROGRAM * RESTART 


 Reading variables from file 2

 _FNUC           =      0.00000000
 _BASIS          =    CC-PVTZ-F12
 _NELEC          =     22.00000000
 _PROGRAM        =    CCSD(T)-F12
 _DMX_SCF        =     -0.28013998
 _DMY_SCF        =     -0.49241384
 _DMZ_SCF        =     -0.33628956
 _HOMO           =     11.10000000
 _EHOMO          =     -0.37872173
 _LUMO           =     12.10000000
 _ELUMO          =      0.04278138
 _EMP2           =   -152.30276257
 _EMP2_SING      =     -0.35304273
 _EMP2_TRIP      =     -0.21002686
 _EMP2_SINGLES   =      0.00000000
 _EMP2_SCS       =   -152.29402764
 _ECSING(1:2)    =     -0.41941747    -0.41162650
 _ECTRIP(1:2)    =     -0.18816296    -0.18757905
 _EF12           =     -0.04735888
 _EF12_SING      =     -0.04242384
 _EF12_TRIP      =     -0.00493505
 _EF12_RHFRELAX  =     -0.00126054
 _EF12_SINGLES   =     -0.00126054
 _EF12_SCS       =     -0.05397930
 _EF12_STRONG    =     -0.04735888
 _EF12_CLOSE     =      0.00000000
 _EF12_WEAK      =      0.00000000
 _EF12_DIST      =      0.00000000
 _EF12S          =     -0.04728462
 _EF12S_SING     =     -0.04249796
 _EF12S_TRIP     =     -0.00478665
 _EF12S_SCS      =     -0.05397592
 _EF12S_STRONG   =     -0.04728462
 _EF12S_CLOSE    =      0.00000000
 _EF12S_WEAK     =      0.00000000
 _EF12S_DIST     =      0.00000000
 _EF12D          =     -0.04969314
 _EF12D_SING     =     -0.04459596
 _EF12D_TRIP     =     -0.00509718
 _EF12D_SCS      =     -0.05668673
 _EF12D_STRONG   =     -0.04969314
 _EF12D_CLOSE    =      0.00000000
 _EF12D_WEAK     =      0.00000000
 _EF12D_DIST     =      0.00000000
 _ENERGC(1:2)    =   -152.34727259  -152.33889772
 _ENERG_CC(1:2)  =      0.00000000     0.00000000
 _ENERG_CV(1:2)  =      0.00000000     0.00000000
 _ENERG_VV(1:2)  =     -0.60757962    -0.59920474
 _ENERGR         =   -151.73969298
 _ENERGT(1:3)    =   -152.36580392  -152.36682586  -152.36537395
 _ENERGY(1:2)    =   -152.37417880  -152.36580392
 _ENERGY_METHOD  =    CCSD(T)-F12
 _ENERGY_BASIS   =    cc-pVTZ-F12
 _ENUC           =     58.20114233
 _IPROC_MPP      =      0.00000000
 _IPROC_MPPX     =      0.00000000
 _ORBITAL        =   2100.20000000
 _ECDIAG(1:2)    =     -0.15718011    -0.15438166
 _EPDIAG(1:2)    =     -0.15718011    -0.15438166
 _STATUS         =      1.00000000
 _T1DIAG         =      0.01346573
 _D1DIAG         =      0.03078742
 _D2DIAG         =      0.17516384
 !DFBASIS_MP2    =    CC-PVTZ-F12-MP2FIT
 !DFBASIS_F12K   =    VTZ-F12-JKFIT
 !RIBASIS_MP2    =    CC-PVTZ-F12_OPT
 !RIBASIS_EXCH   =     
 _METHODC        =    CCSD-F12a
 _METHODC        =    CCSD-F12b
 _METHODT        =    CCSD(T)-F12b
 _METHODT        =    CCSD[T]-F12b
 _METHODT        =    CCSD-T-F12b
 _OUTPUT         =    /storage/ce_dana/alongd/runs/ARC/arkane_examples/thermo3/calcs/Species/Ethynol/sp_a48600/input.out
 _PGROUP         =    C1  
 _TIME           =    20:17:33
 _ANSATZ         =    F12/3C(FIX)
 _SVDDEL         =      0.00000000
 _SYM_CATION     =      1.00000000

 Geometry written to block  1 of record 700


 **********************************************************************************************************************************
 DATASETS  * FILE   NREC   LENGTH (MB)   RECORD NAMES
              1       2       11.48       500      700   
                                          VAR     GEOM   

              2       8       15.22       500      610      700     1000      520     2100     7360     7350   
                                          VAR    BASINP    GEOM     BASIS   MCVARS     RHF    F12ABS    EF12   

 PROGRAMS   *        TOTAL   RESTART
 CPU TIMES  *         0.29      0.09
 REAL TIME  *         0.42 SEC
 DISK USED  *        26.70 MB (local),      240.31 MB (total)
 **********************************************************************************************************************************

 Geometry recognized as XYZ

 SETTING BASIS          =    CC-PVTZ-F12


 Using spherical harmonics

 Library entry N      S cc-pVTZ-F12          selected for orbital group  1
 Library entry N      P cc-pVTZ-F12          selected for orbital group  1
 Library entry N      D cc-pVTZ-F12          selected for orbital group  1
 Library entry N      F cc-pVTZ-F12          selected for orbital group  1
 Library entry H      S cc-pVTZ-F12          selected for orbital group  2
 Library entry H      P cc-pVTZ-F12          selected for orbital group  2
 Library entry H      D cc-pVTZ-F12          selected for orbital group  2


 PROGRAM * SEWARD (Integral evaluation for generally contracted gaussian basis sets)     Author: Roland Lindh, 1990

 Geometry written to block  1 of record 701


 Point group  C1  



 ATOMIC COORDINATES

 NR  ATOM    CHARGE       X              Y              Z

   1  N       7.00   -0.802863372    0.003643392    0.320592037
   2  N       7.00    1.490765255   -0.995632444   -0.156595935
   3  H       1.00   -2.236929285   -1.219137912    0.056060615
   4  H       1.00   -1.192764894    1.811385638   -0.161038681
   5  H       1.00    2.713125151    0.496117358   -0.211246814

 Bond lengths in Bohr (Angstrom)

 1-2  2.546957565  1-3  1.903080669  1-4  1.911000621  2-5  1.929369821
     ( 1.347791901)     ( 1.007066921)     ( 1.011257979)     ( 1.020978541)

 Bond angles

  1-2-5  105.81281398   2-1-3  113.60734707   2-1-4  120.50798320   3-1-4  114.77334620

 NUCLEAR CHARGE:                   17
 NUMBER OF PRIMITIVE AOS:         207
 NUMBER OF SYMMETRY AOS:          186
 NUMBER OF CONTRACTIONS:          160   (  160A   )
 NUMBER OF INNER CORE ORBITALS:     0   (    0A   )
 NUMBER OF OUTER CORE ORBITALS:     2   (    2A   )
 NUMBER OF VALENCE ORBITALS:       11   (   11A   )

 MOLECULE CHANGED: INITIALIZING OCCUPATION AND DUMP RECORDS


 NUCLEAR REPULSION ENERGY   36.57642347

 Eigenvalues of metric

         1 0.130E-03 0.247E-03 0.290E-03 0.375E-03 0.403E-03 0.537E-03 0.557E-03 0.569E-03


 Contracted 2-electron integrals neglected if value below      1.0D-11
 AO integral compression algorithm  1   Integral accuracy      1.0D-11

     421.265 MB (compressed) written to integral file ( 52.8%)

     Node minimum: 33.292 MB, node maximum: 53.477 MB


 NUMBER OF SORTED TWO-ELECTRON INTEGRALS:    9221364.     BUFFER LENGTH:  32768
 NUMBER OF SEGMENTS:   1  SEGMENT LENGTH:    9221364      RECORD LENGTH: 524288

 Memory used in sort:       9.78 MW

 SORT1 READ    99704137. AND WROTE     9007775. INTEGRALS IN     26 RECORDS. CPU TIME:     1.41 SEC, REAL TIME:     1.52 SEC
 SORT2 READ    81029534. AND WROTE    82953640. INTEGRALS IN   1755 RECORDS. CPU TIME:     0.19 SEC, REAL TIME:     0.28 SEC

 Node minimum:     9211347.  Node maximum:     9222796. integrals

 OPERATOR DM      FOR CENTER  0  COORDINATES:    0.000000    0.000000    0.000000


 **********************************************************************************************************************************
 DATASETS  * FILE   NREC   LENGTH (MB)   RECORD NAMES
              1      19       29.79       500      700      610      701      900      950      970     1001      129      960   
                                          VAR     GEOM    BASINP    GEOM    SYMINP    ZMAT    AOBASIS   BASIS     P2S    ABASIS    
                                         1100     1400     1410     1200     1210     1080     1600     1650     1700   
                                           S        T        V       H0       H01     AOSYM     SMH    MOLCAS    OPER   

              2      10       15.49       500      610      700     1000      520     2100     7360     7350      701     1001   
                                          VAR    BASINP    GEOM     BASIS   MCVARS     RHF    F12ABS    EF12     GEOM     BASIS   

 PROGRAMS   *        TOTAL       INT   RESTART
 CPU TIMES  *         2.39      2.09      0.09
 REAL TIME  *         2.89 SEC
 DISK USED  *        45.34 MB (local),        1.68 GB (total)
 GA USED    *         0.00 MB       (max)       0.00 MB       (current)
 **********************************************************************************************************************************


 Program * Restricted Hartree-Fock

 Orbital guess generated from atomic densities. Full valence occupancy:   13

 Initial alpha occupancy:   9
 Initial beta  occupancy:   8

 NELEC=   17   SYM=1   MS2= 1   THRE=1.0D-08   THRD=3.2D-06   THRG=3.2D-06  HFMA2=F  DIIS_START=2   DIIS_MAX=10   DIIS_INCORE=F

 Level shifts:    0.00 (CLOSED)    0.00 (OPEN)    0.30 (GAP_MIN)

 ITER           ETOT              DE          GRAD        DDIFF     DIIS  NEXP   TIME(IT)  TIME(TOT)  DIAG
   1     -110.58340249    -110.58340249     0.00D+00     0.50D-01     0     0       0.09      0.15    start
   2     -110.61053765      -0.02713517     0.43D-02     0.48D-02     1     0       0.06      0.21    diag2
   3     -110.61805698      -0.00751933     0.24D-02     0.18D-02     2     0       0.07      0.28    diag2
   4     -110.62058957      -0.00253259     0.58D-03     0.60D-03     3     0       0.08      0.36    diag2
   5     -110.62217730      -0.00158773     0.42D-03     0.47D-03     4     0       0.06      0.42    diag2
   6     -110.62332651      -0.00114921     0.27D-03     0.66D-03     5     0       0.06      0.48    diag2
   7     -110.62341224      -0.00008573     0.87D-04     0.19D-03     6     0       0.07      0.55    diag2
   8     -110.62341621      -0.00000397     0.26D-04     0.44D-04     7     0       0.06      0.61    diag2
   9     -110.62341710      -0.00000090     0.12D-04     0.14D-04     8     0       0.07      0.68    diag2
  10     -110.62341781      -0.00000071     0.61D-05     0.13D-04     9     0       0.08      0.76    diag2/orth
  11     -110.62341816      -0.00000035     0.36D-05     0.97D-05     9     0       0.07      0.83    diag2
  12     -110.62341825      -0.00000009     0.17D-05     0.56D-05     9     0       0.07      0.90    diag2
  13     -110.62341826      -0.00000001     0.60D-06     0.19D-05     9     0       0.07      0.97    diag2
  14     -110.62341826      -0.00000000     0.23D-06     0.28D-06     0     0       0.08      1.05    diag

 Final alpha occupancy:   9
 Final beta  occupancy:   8

 !RHF STATE 1.1 Energy               -110.623418257371
  RHF One-electron energy            -222.506752821288
  RHF Two-electron energy              75.306911095177
  RHF Kinetic energy                  110.515427564022
  RHF Nuclear energy                   36.576423468739
  RHF Virial quotient                  -1.000977154916

 !RHF STATE 1.1 Dipole moment          -0.42093239     0.76823847    -0.24091783
 Dipole moment /Debye                  -1.06990342     1.95266742    -0.61235205

 Orbital energies:

           1.1          2.1          3.1          4.1          5.1          6.1          7.1          8.1          9.1         10.1
    -15.591327   -15.580570    -1.283740    -0.973350    -0.727331    -0.634258    -0.504596    -0.457958    -0.386667     0.067112

          11.1
      0.082739


 HOMO      9.1    -0.386667 =     -10.5218eV
 LUMO     10.1     0.067112 =       1.8262eV
 LUMO-HOMO         0.453779 =      12.3480eV

 Orbitals saved in record  2101.2


 **********************************************************************************************************************************
 DATASETS  * FILE   NREC   LENGTH (MB)   RECORD NAMES
              1      19       29.79       500      700      610      701      900      950      970     1001      129      960   
                                          VAR     GEOM    BASINP    GEOM    SYMINP    ZMAT    AOBASIS   BASIS     P2S    ABASIS    
                                         1100     1400     1410     1200     1210     1080     1600     1650     1700   
                                           S        T        V       H0       H01     AOSYM     SMH    MOLCAS    OPER   

              2      11       18.65       500      610      700     1000      520     2100     7360     7350      701     1001   
                                          VAR    BASINP    GEOM     BASIS   MCVARS     RHF    F12ABS    EF12     GEOM     BASIS   
                                         2101   
                                          RHF  

 PROGRAMS   *        TOTAL    HF-SCF       INT   RESTART
 CPU TIMES  *         3.48      1.08      2.09      0.09
 REAL TIME  *         4.14 SEC
 DISK USED  *        52.04 MB (local),        1.74 GB (total)
 GA USED    *         0.00 MB       (max)       0.00 MB       (current)
 **********************************************************************************************************************************


 PROGRAM * CCSD (Unrestricted open-shell coupled cluster)     Authors: C. Hampel, H.-J. Werner, 1991, M. Deegan, P.J. Knowles, 1992

                           UCCSD-F12 implementation by G. Knizia and H.-J. Werner, 2008

                   Density fitting integral evaluation by F.R. Manby, 2003,2007, G. Knizia, 2010


 Basis set VTZ-F12/JKFIT generated.      Number of basis functions:   346 
 Basis set CC-PVTZ-F12/OPTRI generated.  Number of basis functions:   273 
 Basis set CC-PVTZ-F12/MP2FIT generated. Number of basis functions:   350 

 Convergence thresholds:  THRVAR = 1.00D-08  THRDEN = 1.00D-06

 CCSD(T)     terms to be evaluated (factor= 1.000)


 Number of core orbitals:           2 (   2 )
 Number of closed-shell orbitals:   6 (   6 )
 Number of active  orbitals:        1 (   1 )
 Number of external orbitals:     151 ( 151 )

 Memory could be reduced to 51.34 Mwords without degradation in triples

 Number of N-1 electron functions:              13
 Number of N-2 electron functions:              78
 Number of singly external CSFs:              1976
 Number of doubly external CSFs:           1383504
 Total number of CSFs:                     1385480

 Molecular orbitals read from record     2101.2  Type=RHF/CANONICAL  

 Integral transformation finished. Total CPU:   1.48 sec, npass=  1  Memory used:  18.25 MW

 Geminal basis:    OPTFULL  GEM_TYPE=SLATER  BETA=1.0  NGEM=6

 Optimizing Gaussian exponents for each gem_beta

 Geminal optimization for beta= 1.0000
 Weight function:   m=0, omega= 1.4646

 Augmented Hessian optimization of geminal fit. Trust ratio= 0.40000
 Convergence reached after   2 iterations. Final gradient= 8.66D-16, Step= 4.23D-06, Delta= 1.28D-09

 Alpha:                 0.19532     0.81920     2.85917     9.50073    35.69989   197.79328
 Coeff:                 0.27070     0.30552     0.18297     0.10986     0.06810     0.04224


 WFN_F12=FIX,EG    DECOUPLE_EXPL=F   HYBRID=0    NOX=F   SEMIINT_F12=T   CORE_SINGLES=F


 AO(A)-basis ORBITAL           loaded. Number of functions:     160
 RI(R)-basis CC-PVTZ-F12/OPTRI loaded. Number of functions:     273
 DF-basis VTZ-F12/JKFIT        loaded. Number of functions:     346

 Screening thresholds:   THRAO=  1.00D-10  THRMO=  1.00D-09  THRPROD=  1.00D-09
                         THRSW=  1.00D-05  THROV=  1.00D-12  THRAOF12= 1.00D-08

 CPU time for one-electron matrices               0.24 sec

 Construction of ABS:
 Pseudo-inverse stability          3.66E-12
 Smallest eigenvalue of S          2.36E-04  (threshold= 1.00E-08)
 Ratio eigmin/eigmax               3.23E-05  (threshold= 1.00E-09)
 Smallest eigenvalue of S kept     2.36E-04  (threshold= 2.36E-04, 0 functions deleted, 273 kept)

 Construction of CABS:
 Pseudo-inverse stability          1.26E-10
 Smallest eigenvalue of S          8.16E-07  (threshold= 1.00E-08)
 Ratio eigmin/eigmax               8.16E-07  (threshold= 1.00E-09)
 Smallest eigenvalue of S kept     8.16E-07  (threshold= 8.16E-07, 0 functions deleted, 273 kept)

 CPU time for basis constructions                 0.03 sec
 Fock operators(MO) rebuilt from dump record.
 CPU time for Fock operator transformation        0.05 sec

                                      TOTAL          ALPHA          BETA    
  Singles Contributions MO        -0.004247161   -0.002117582   -0.002129578
  Singles Contributions CABS      -0.001251178   -0.000681501   -0.000569677
  Pure DF-RHF relaxation          -0.001234860

 CPU time for RHF CABS relaxation                 0.05 sec
 CPU time for singles (tot)                       0.09 sec

 AO(A)-basis ORBITAL           loaded. Number of functions:     160
 RI(R)-basis CC-PVTZ-F12/OPTRI loaded. Number of functions:     273
 DF-basis CC-PVTZ-F12/MP2FIT   loaded. Number of functions:     350

 Screening thresholds:   THRAO=  1.00D-10  THRMO=  1.00D-09  THRPROD=  1.00D-09
                         THRSW=  1.00D-05  THROV=  1.00D-12  THRAOF12= 1.00D-08

 CPU time for transformed integrals               0.82 sec
 CPU time for F12 matrices                        0.57 sec

 Diagonal F12 ansatz with fixed amplitudes:   TS= 0.5000  TT= 0.2500  TN= 0.3750

 ITER.     SQ.NORM      CORR.ENERGY   TOTAL ENERGY  ENERGY CHANGE      VAR         CPU   MICRO    DIIS
   1      1.11820716    -0.46101675  -111.08566987    -4.6225E-01   1.16E-01      0.04  1  1  1   0  0
   2      1.11715803    -0.45943697  -111.08409009     1.5798E-03   1.26E-04      0.13  0  0  0   1  1
   3      1.11742096    -0.45973775  -111.08439087    -3.0078E-04   8.00E-07      0.24  0  0  0   2  2
   4      1.11742252    -0.45973926  -111.08439238    -1.5078E-06   6.06E-09      0.38  0  0  0   3  3
   5      1.11742317    -0.45973927  -111.08439239    -1.0674E-08   5.85E-11      0.57  0  0  0   4  4

 - - Continuing with F12/conv. amplitude coupling turned on.

   6      1.11739831    -0.46000514  -111.08465826    -2.6588E-04   4.11E-05      0.68  1  1  1   1  1
   7      1.11739766    -0.46000535  -111.08465847    -2.0672E-07   2.91E-09      0.81  1  1  1   2  2

 CPU time for iterative RMP2-F12                  0.81 sec


 DF-RMP2-F12 doubles corrections:
 - - - - - - - - - - - - - - - - 
  Approx.                             TOTAL           A-B            A-A            B-B    
  RMP2-F12/3C(FIX)                -0.035753688   -0.033295333   -0.001482247   -0.000976108
  RMP2-F12/3*C(FIX)               -0.035487612   -0.033117217   -0.001432767   -0.000937627
  RMP2-F12/3*C(DX)                -0.035551236   -0.033177798   -0.001434693   -0.000938745
  RMP2-F12/3*C(FIX,DX)            -0.037032607   -0.034586176   -0.001479858   -0.000966573

 DF-RMP2-F12 doubles energies:
 - - - - - - - - - - - - - - -
  Approx.                             TOTAL           A-B            A-A            B-B    
  RMP2                            -0.420004500   -0.319507781   -0.055698501   -0.044798218
  RMP2-F12/3C(FIX)                -0.455758188   -0.352803114   -0.057180748   -0.045774326
  RMP2-F12/3*C(FIX)               -0.455492112   -0.352624998   -0.057131268   -0.045735845
  RMP2-F12/3*C(DX)                -0.455555736   -0.352685579   -0.057133194   -0.045736963
  RMP2-F12/3*C(FIX,DX)            -0.457037107   -0.354093957   -0.057178359   -0.045764791


  Reference energy                   -110.623418257371
  CABS relaxation correction to RHF    -0.001234859919
  New reference energy               -110.624653117290

  RMP2-F12 singles (MO) energy         -0.004247160840
  RMP2-F12 pair energy                 -0.455758188159
  RMP2-F12 correlation energy          -0.460005348999

 !RMP2-F12/3C(FIX) energy            -111.084658466289

 Starting RMP2 calculation, locsing= 0

 ITER.      SQ.NORM     CORR.ENERGY   TOTAL ENERGY   ENERGY CHANGE        DEN1      VAR(S)    VAR(P)  DIIS     TIME
   1      1.11609613    -0.42278361  -111.04620187    -0.42278361    -0.00137314  0.38D-04  0.48D-03  1  1     4.42
   2      1.11736485    -0.42426845  -111.04768671    -0.00148484    -0.00000449  0.14D-05  0.15D-05  2  2     4.50
   3      1.11742246    -0.42430053  -111.04771879    -0.00003208    -0.00000007  0.58D-07  0.96D-08  3  3     4.62
   4      1.11742628    -0.42430139  -111.04771965    -0.00000086    -0.00000000  0.10D-08  0.12D-09  4  4     4.74

 Norm of t1 vector:      0.05181310      S-energy:    -0.00424701      T1 diagnostic:  0.00118538
 Norm of t2 vector:      0.33873541      P-energy:    -0.42005438
                                         Alpha-Beta:  -0.31966169
                                         Alpha-Alpha: -0.05563290
                                         Beta-Beta:   -0.04475979

 Spin contamination <S**2-Sz**2-Sz>     0.00047069
  Reference energy                   -110.623418257371
  CABS singles correction              -0.001234859919
  New reference energy               -110.624653117290
  RHF-RMP2 correlation energy          -0.424301394359
 !RHF-RMP2 energy                    -111.048954511649

  F12/3C(FIX) correction               -0.035753688469
  RHF-RMP2-F12 correlation energy      -0.460055082828
 !RHF-RMP2-F12 total energy          -111.084708200118

 Starting UCCSD calculation

 ITER.      SQ.NORM     CORR.ENERGY   TOTAL ENERGY   ENERGY CHANGE        DEN1      VAR(S)    VAR(P)  DIIS     TIME
   1      1.11853348    -0.42089179  -111.04431005    -0.42089179    -0.01146609  0.27D-02  0.19D-02  1  1     5.99
   2      1.12886271    -0.43107390  -111.05449216    -0.01018211    -0.00136587  0.32D-03  0.35D-03  2  2     7.18
   3      1.13530370    -0.43352785  -111.05694611    -0.00245395    -0.00031626  0.26D-03  0.37D-04  3  3     8.29
   4      1.14031402    -0.43490231  -111.05832057    -0.00137446    -0.00010051  0.83D-04  0.11D-04  4  4     9.45
   5      1.14495309    -0.43547650  -111.05889476    -0.00057419    -0.00002200  0.20D-04  0.20D-05  5  5    10.60
   6      1.14771387    -0.43572416  -111.05914242    -0.00024766    -0.00000253  0.14D-05  0.51D-06  6  6    11.72
   7      1.14827707    -0.43576761  -111.05918586    -0.00004345    -0.00000046  0.26D-06  0.10D-06  6  2    12.88
   8      1.14839157    -0.43578012  -111.05919837    -0.00001251    -0.00000011  0.91D-07  0.17D-07  6  1    14.02
   9      1.14844782    -0.43578515  -111.05920341    -0.00000503    -0.00000004  0.37D-07  0.40D-08  6  3    15.27
  10      1.14842200    -0.43577874  -111.05919700     0.00000641    -0.00000001  0.11D-07  0.15D-08  6  4    16.47
  11      1.14845235    -0.43578109  -111.05919935    -0.00000235    -0.00000000  0.28D-08  0.59D-09  6  5    17.68
  12      1.14844563    -0.43578013  -111.05919839     0.00000096    -0.00000000  0.57D-09  0.19D-09  6  6    18.91

 Norm of t1 vector:      0.14054259      S-energy:    -0.00459279      T1 diagnostic:  0.02506125
                                                                       D1 diagnostic:  0.08315820
                                                                       D2 diagnostic:  0.15515358 (internal)
 Norm of t2 vector:      0.35873864      P-energy:    -0.43118734
                                         Alpha-Beta:  -0.33918890
                                         Alpha-Alpha: -0.05098570
                                         Beta-Beta:   -0.04101275

 Singles amplitudes (print threshold =  0.500E-01):

         I         SYM. A    A   T(IA) [Beta-Beta]

         5         1         1      0.11160426

 Spin contamination <S**2-Sz**2-Sz>     0.00040230

 Memory could be reduced to 54.02 Mwords without degradation in triples


 RESULTS
 =======

  Reference energy                   -110.623418257371
  CABS relaxation correction to RHF    -0.001234859919
  New reference energy               -110.624653117290

  F12 corrections for ansatz 3C(FIX) added to UCCSD energy. Coupling mode: 15

  UCCSD-F12a singles energy            -0.004592788081
  UCCSD-F12a pair energy               -0.466361873874
  UCCSD-F12a correlation energy        -0.470954661955
  Triples (T) contribution             -0.017512688992
  Total correlation energy             -0.488467350947

  RHF-UCCSD-F12a energy              -111.095607779245
  RHF-UCCSD[T]-F12a energy           -111.113917587375
  RHF-UCCSD-T-F12a energy            -111.112962553216
 !RHF-UCCSD(T)-F12a energy           -111.113120468237

  F12 corrections for ansatz 3C(FIX) added to UCCSD energy. Coupling mode: 15

  UCCSD-F12b singles energy            -0.004592788081
  UCCSD-F12b pair energy               -0.459923116078
  UCCSD-F12b correlation energy        -0.464515904159
  Triples (T) contribution             -0.017512688992
  Total correlation energy             -0.482028593151

  RHF-UCCSD-F12b energy              -111.089169021449
  RHF-UCCSD[T]-F12b energy           -111.107478829580
  RHF-UCCSD-T-F12b energy            -111.106523795421
 !RHF-UCCSD(T)-F12b energy           -111.106681710441

 Program statistics:

 Available memory in ccsd:                89998729
 Min. memory needed in ccsd:               4432692
 Max. memory used in ccsd:                 6057732
 Max. memory used in cckext:               4497317 (13 integral passes)
 Max. memory used in cckint:              18247314 ( 1 integral passes)



 **********************************************************************************************************************************
 DATASETS  * FILE   NREC   LENGTH (MB)   RECORD NAMES
              1      19       29.79       500      700      610      701      900      950      970     1001      129      960   
                                          VAR     GEOM    BASINP    GEOM    SYMINP    ZMAT    AOBASIS   BASIS     P2S    ABASIS    
                                         1100     1400     1410     1200     1210     1080     1600     1650     1700   
                                           S        T        V       H0       H01     AOSYM     SMH    MOLCAS    OPER   

              2      11       18.65       500      610      700     1000      520     2100     7360     7350      701     1001   
                                          VAR    BASINP    GEOM     BASIS   MCVARS     RHF    F12ABS    EF12     GEOM     BASIS   
                                         2101   
                                          RHF  

 PROGRAMS   *        TOTAL  UCCSD(T)    HF-SCF       INT   RESTART
 CPU TIMES  *        32.72     29.22      1.08      2.09      0.09
 REAL TIME  *        38.67 SEC
 DISK USED  *       213.68 MB (local),        3.16 GB (total)
 SF USED    *         1.40 GB
 GA USED    *         3.05 MB       (max)       0.00 MB       (current)
 **********************************************************************************************************************************

 UCCSD(T)-F12/cc-pVTZ-F12 energy=   -111.106681710441

    UCCSD(T)-F12          HF-SCF
   -111.10668171   -110.62341826
 **********************************************************************************************************************************
 Molpro calculation terminated
