
 Working directory              : /var/lib/condor/execute/dir_183604/molpro.9XgfV42Imx/
 Global scratch directory       : /var/lib/condor/execute/dir_183604/molpro.9XgfV42Imx/
 Wavefunction directory         : /srv01/technion/alongd/wfu/
 Main file repository           : /var/lib/condor/execute/dir_183604/molpro.9XgfV42Imx/

 id        : dana

 Nodes     nprocs
 tech-wn198    9
 Distribution of processes:   nprocs(total)=   10   nprocs(compute)=    9   nprocs(helper)=    1
 GA implementation: MPI file
 GA implementation (serial work in mppx): MPI file

 Using customized tuning parameters: mindgm=1; mindgv=20; mindgc=4; mindgr=1; noblas=0; minvec=7
 default implementation of scratch files=sf  


 Variables initialized (1009), CPU time= 0.01 sec
 ***,NH2
 memory,90,m;
 file,1,file1.int                                                                !allocate permanent integral file
 file,2,file2.wfu                                                                !allocate permanent wave-function (dump) file
 
 geometry={angstrom;
 N       0.00024300    0.42368500   -0.00000000
 H      -0.80494100   -0.21138100   -0.00000000
 H       0.80469800   -0.21230400    0.00000000}
 
 basis=cc-pvtz-f12
 
 
 
 int;
 {hf;
 maxit,1000;
 wf,spin=1,charge=0;}
 
 uccsd(t)-f12;
 
 
 
 Commands initialized (810), CPU time= 0.02 sec, 661 directives.
 Default parameters read. Elapsed time= 0.27 sec

 Checking input...
 Passed
1


                                         ***  PROGRAM SYSTEM MOLPRO  ***
                                       Copyright, TTI GmbH Stuttgart, 2015
                                    Version 2021.2 linked Jul 16 2021 12:17:16


 **********************************************************************************************************************************
 LABEL *   NH2                                                                           
  64 bit mpp version                                                                     DATE: 12-Nov-22          TIME: 21:58:19  
 **********************************************************************************************************************************

 SHA1:             dade016a989826d9d859d6207854b99675d53db3
 **********************************************************************************************************************************

 Memory per process:        90 MW
 Total memory per node:    810 MW

 GA preallocation disabled
 GA check disabled

 Variable memory set to 90.0 MW



 Permanent file  1  file1.int        assigned.  Implementation=df  
 Permanent file  2  file2.wfu        assigned.  Implementation=df    Size= 22.26 MB


 PROGRAM * RESTART 


 Reading variables from file 2

 _FNUC           =      0.00000000
 _BASIS          =    CC-PVTZ-F12
 _NELEC          =     24.00000000
 _PROGRAM        =    CCSD(T)-F12
 _DMX_SCF        =      0.07479082
 _DMY_SCF        =     -0.20642464
 _DMZ_SCF        =      0.69249554
 _HOMO           =     12.10000000
 _EHOMO          =     -0.39492431
 _LUMO           =     13.10000000
 _ELUMO          =      0.05069212
 _EMP2           =   -133.66937515
 _EMP2_SING      =     -0.37105387
 _EMP2_TRIP      =     -0.19792269
 _EMP2_SINGLES   =      0.00000000
 _EMP2_SCS       =   -133.66881512
 _ECSING(1:2)    =     -0.44390169    -0.43569170
 _ECTRIP(1:2)    =     -0.18325662    -0.18271604
 _ECTRIPAB(1:2)  =     -0.04604182    -0.04589467
 _ECTRIPAA(1:2)  =     -0.05241435    -0.05224119
 _ECTRIPBB(1:2)  =     -0.04194683    -0.04182579
 _ECSINGLES      =     -0.00459279
 _EF12           =     -0.04588765
 _EF12_SING      =     -0.04149219
 _EF12_TRIP      =     -0.00439547
 _ECSING_F12(1:2)=     -0.03162856    -0.02563115
 _ECTRIP_F12(1:2)=     -0.00354597    -0.00310462
 _ECTRIPAB_F12(1:2)   =     -0.00118323    -0.00103609
 _ECTRIPAA_F12(1:2)   =     -0.00142865    -0.00125550
 _ECTRIPBB_F12(1:2)   =     -0.00093408    -0.00081304
 _EF12_RHFRELAX  =     -0.00136291
 _EF12_CONVSUPPRS=     -0.00043897
 _EF12_CONVSUPPRT=     -0.00013803
 _EF12_SINGLES   =     -0.00136291
 _EF12_SCS       =     -0.05252558
 _EF12_STRONG    =     -0.04588765
 _EF12_CLOSE     =      0.00000000
 _EF12_WEAK      =      0.00000000
 _EF12_DIST      =      0.00000000
 _EF12S          =     -0.04562165
 _EF12S_SING     =     -0.04136844
 _EF12S_TRIP     =     -0.00425322
 _EF12S_SCS      =     -0.05228857
 _EF12S_STRONG   =     -0.04562165
 _EF12S_CLOSE    =      0.00000000
 _EF12S_WEAK     =      0.00000000
 _EF12S_DIST     =      0.00000000
 _EF12D          =     -0.04699339
 _EF12D_SING     =     -0.04271552
 _EF12D_TRIP     =     -0.00427787
 _EF12D_SCS      =     -0.05392041
 _EF12D_STRONG   =     -0.04699339
 _EF12D_CLOSE    =      0.00000000
 _EF12D_WEAK     =      0.00000000
 _EF12D_DIST     =      0.00000000
 _EF12F          =     -0.03703261
 _EF12F_SING     =     -0.03336182
 _EF12F_TRIP     =     -0.00367078
 _EF12F_SCS      =     -0.04231889
 _ENERGC(1:2)    =   -133.72755713  -133.71880657
 _ENERG_CC(1:2)  =      0.00000000     0.00000000
 _ENERG_CV(1:2)  =      0.00000000     0.00000000
 _ENERG_VV(1:2)  =     -0.62715855    -0.61840798
 _ENERGR         =   -133.10039859
 _ENERGT(1:3)    =   -133.74405326  -133.74467574  -133.74378284
 _ENERGY(1:2)    =   -133.75280382  -133.74405326
 _ENERGY_METHOD  =    CCSD(T)-F12
 _ENERGY_BASIS   =    cc-pVTZ-F12
 _ENUC           =     76.28151009
 _IPROC_MPP      =      0.00000000
 _IPROC_MPPX     =      0.00000000
 _ORBITAL        =   2102.20000000
 _ECDIAG(1:2)    =     -0.11233461    -0.11038206
 _EPDIAG(1:2)    =     -0.11233461    -0.11038206
 _STATUS         =      1.00000000
 _T1DIAG         =      0.00915715
 _D1DIAG         =      0.02076602
 _D2DIAG         =      0.15297523
 !DFBASIS_MP2    =    CC-PVTZ-F12-MP2FIT
 !DFBASIS_F12K   =    VTZ-F12-JKFIT
 !RIBASIS_MP2    =    CC-PVTZ-F12_OPT
 !RIBASIS_EXCH   =     
 _METHODC        =    CCSD-F12a
 _METHODC        =    CCSD-F12b
 _METHODT        =    CCSD(T)-F12b
 _METHODT        =    CCSD[T]-F12b
 _METHODT        =    CCSD-T-F12b
 _OUTPUT         =    /storage/ce_dana/alongd/runs/ARC/arkane_examples/thermo3/calcs/Species/Ethynol/sp_a48600/input.out
 _PGROUP         =    C1  
 _TIME           =    20:17:33
 _ANSATZ         =    F12/3C(FIX)
 _SVDDEL         =      0.00000000
 _SYM_CATION     =      1.00000000

 Geometry written to block  1 of record 701


 **********************************************************************************************************************************
 DATASETS  * FILE   NREC   LENGTH (MB)   RECORD NAMES
              1       2       11.48       500      701   
                                          VAR     GEOM   

              2      14       22.26       500      610      700     1000      520     2100     7360     7350      701     1001   
                                          VAR    BASINP    GEOM     BASIS   MCVARS     RHF    F12ABS    EF12     GEOM     BASIS   
                                         2101      701(1)  1002     2102   
                                          RHF     GEOM     BASIS     RHF  

 PROGRAMS   *        TOTAL   RESTART
 CPU TIMES  *         0.59      0.31
 REAL TIME  *         0.82 SEC
 DISK USED  *        33.74 MB (local),      303.66 MB (total)
 **********************************************************************************************************************************

 Geometry recognized as XYZ

 SETTING BASIS          =    CC-PVTZ-F12


 Using spherical harmonics

 Library entry N      S cc-pVTZ-F12          selected for orbital group  1
 Library entry N      P cc-pVTZ-F12          selected for orbital group  1
 Library entry N      D cc-pVTZ-F12          selected for orbital group  1
 Library entry N      F cc-pVTZ-F12          selected for orbital group  1
 Library entry H      S cc-pVTZ-F12          selected for orbital group  2
 Library entry H      P cc-pVTZ-F12          selected for orbital group  2
 Library entry H      D cc-pVTZ-F12          selected for orbital group  2


 PROGRAM * SEWARD (Integral evaluation for generally contracted gaussian basis sets)     Author: Roland Lindh, 1990

 Geometry written to block  1 of record 702


 Point group  Cs  



 ATOMIC COORDINATES

 NR  ATOM    CHARGE       X              Y              Z

   1  N       7.00    0.000459203    0.800648613    0.000000000
   2  H       1.00   -1.521118036   -0.399452198    0.000000000
   3  H       1.00    1.520658833   -0.401196415    0.000000000

 Bond lengths in Bohr (Angstrom)

 1-2  1.937895573  1-3  1.937895350
     ( 1.025490175)     ( 1.025490056)

 Bond angles

  2-1-3  103.40707174

 NUCLEAR CHARGE:                    9
 NUMBER OF PRIMITIVE AOS:         114
 NUMBER OF SYMMETRY AOS:          103
 NUMBER OF CONTRACTIONS:           89   (   61A'  +   28A"  )
 NUMBER OF INNER CORE ORBITALS:     0   (    0A'  +    0A"  )
 NUMBER OF OUTER CORE ORBITALS:     1   (    1A'  +    0A"  )
 NUMBER OF VALENCE ORBITALS:        6   (    5A'  +    1A"  )

 MOLECULE CHANGED: INITIALIZING OCCUPATION AND DUMP RECORDS


 NUCLEAR REPULSION ENERGY    7.55308706

 Eigenvalues of metric

         1 0.228E-03 0.436E-03 0.576E-03 0.690E-03 0.767E-03 0.158E-02 0.222E-02 0.279E-02
         2 0.582E-03 0.979E-02 0.110E-01 0.439E-01 0.842E-01 0.872E-01 0.135E+00 0.195E+00


 Contracted 2-electron integrals neglected if value below      1.0D-11
 AO integral compression algorithm  1   Integral accuracy      1.0D-11

     24.904 MB (compressed) written to integral file ( 57.7%)

     Node minimum: 2.359 MB, node maximum: 3.670 MB


 NUMBER OF SORTED TWO-ELECTRON INTEGRALS:     463995.     BUFFER LENGTH:  32768
 NUMBER OF SEGMENTS:   1  SEGMENT LENGTH:     463995      RECORD LENGTH: 524288

 Memory used in sort:       1.02 MW

 SORT1 READ     5187997. AND WROTE      415503. INTEGRALS IN      2 RECORDS. CPU TIME:     0.11 SEC, REAL TIME:     0.13 SEC
 SORT2 READ     3739513. AND WROTE     4174745. INTEGRALS IN    108 RECORDS. CPU TIME:     0.02 SEC, REAL TIME:     0.04 SEC

 Node minimum:      462210.  Node maximum:      469925. integrals

 OPERATOR DM      FOR CENTER  0  COORDINATES:    0.000000    0.000000    0.000000


 **********************************************************************************************************************************
 DATASETS  * FILE   NREC   LENGTH (MB)   RECORD NAMES
              1      19       29.05       500      701      610      702      900      950      970     1003      129      960   
                                          VAR     GEOM    BASINP    GEOM    SYMINP    ZMAT    AOBASIS   BASIS     P2S    ABASIS    
                                         1100     1400     1410     1200     1210     1080     1600     1650     1700   
                                           S        T        V       H0       H01     AOSYM     SMH    MOLCAS    OPER   

              2      16       23.19       500      610      700     1000      520     2100     7360     7350      701     1001   
                                          VAR    BASINP    GEOM     BASIS   MCVARS     RHF    F12ABS    EF12     GEOM     BASIS   
                                         2101      701(1)  1002     2102      702     1003   
                                          RHF     GEOM     BASIS     RHF     GEOM     BASIS   

 PROGRAMS   *        TOTAL       INT   RESTART
 CPU TIMES  *         1.04      0.44      0.31
 REAL TIME  *         1.78 SEC
 DISK USED  *        52.29 MB (local),      560.69 MB (total)
 GA USED    *         0.00 MB       (max)       0.00 MB       (current)
 **********************************************************************************************************************************


 Program * Restricted Hartree-Fock

 Orbital guess generated from atomic densities. Full valence occupancy:    6   1

 Initial alpha occupancy:   4   1
 Initial beta  occupancy:   4   0

 NELEC=    9   SYM=2   MS2= 1   THRE=1.0D-08   THRD=3.2D-06   THRG=3.2D-06  HFMA2=F  DIIS_START=2   DIIS_MAX=10   DIIS_INCORE=F

 Level shifts:    0.00 (CLOSED)    0.00 (OPEN)    0.30 (GAP_MIN)

 ITER           ETOT              DE          GRAD        DDIFF     DIIS  NEXP   TIME(IT)  TIME(TOT)  DIAG
   1      -55.57333915     -55.57333915     0.00D+00     0.87D-01     0     0       0.03      0.04    start
   2      -55.58512674      -0.01178759     0.64D-02     0.68D-02     1     0       0.01      0.05    diag2
   3      -55.58572063      -0.00059389     0.13D-02     0.99D-03     2     0       0.01      0.06    diag2
   4      -55.58583610      -0.00011547     0.42D-03     0.63D-03     3     0       0.00      0.06    diag2
   5      -55.58585082      -0.00001472     0.13D-03     0.17D-03     4     0       0.01      0.07    diag2
   6      -55.58585355      -0.00000274     0.55D-04     0.10D-03     5     0       0.01      0.08    diag2
   7      -55.58585365      -0.00000010     0.88D-05     0.18D-04     6     0       0.01      0.09    diag2
   8      -55.58585365      -0.00000000     0.17D-05     0.38D-05     7     0       0.00      0.09    diag2
   9      -55.58585365      -0.00000000     0.28D-06     0.61D-06     8     0       0.01      0.10    diag2
  10      -55.58585365      -0.00000000     0.60D-07     0.86D-07     0     0       0.01      0.11    diag/orth

 Final alpha occupancy:   4   1
 Final beta  occupancy:   4   0

 !RHF STATE 1.2 Energy                -55.585853654032
  RHF One-electron energy             -90.163031139442
  RHF Two-electron energy              27.024090428117
  RHF Kinetic energy                   55.528540588717
  RHF Nuclear energy                    7.553087057294
  RHF Virial quotient                  -1.001032137072

 !RHF STATE 1.2 Dipole moment          -0.00042764    -0.74572204     0.00000000
 Dipole moment /Debye                  -0.00108696    -1.89543637     0.00000000

 Orbital energies:

           1.1          2.1          3.1          4.1          5.1          6.1
    -15.581227    -1.102418    -0.635398    -0.486177     0.075423     0.102057

           1.2          2.2          3.2
     -0.504410     0.115142     0.454659


 HOMO      4.1    -0.486177 =     -13.2295eV
 LUMO      5.1     0.075423 =       2.0524eV
 LUMO-HOMO         0.561600 =      15.2819eV

 Orbitals saved in record  2103.2


 **********************************************************************************************************************************
 DATASETS  * FILE   NREC   LENGTH (MB)   RECORD NAMES
              1      19       29.06       500      701      610      702      900      950      970     1003      129      960   
                                          VAR     GEOM    BASINP    GEOM    SYMINP    ZMAT    AOBASIS   BASIS     P2S    ABASIS    
                                         1100     1400     1410     1200     1210     1080     1600     1650     1700   
                                           S        T        V       H0       H01     AOSYM     SMH    MOLCAS    OPER   

              2      17       25.70       500      610      700     1000      520     2100     7360     7350      701     1001   
                                          VAR    BASINP    GEOM     BASIS   MCVARS     RHF    F12ABS    EF12     GEOM     BASIS   
                                         2101      701(1)  1002     2102      702     1003     2103   
                                          RHF     GEOM     BASIS     RHF     GEOM     BASIS     RHF  

 PROGRAMS   *        TOTAL    HF-SCF       INT   RESTART
 CPU TIMES  *         1.21      0.16      0.44      0.31
 REAL TIME  *         2.06 SEC
 DISK USED  *        55.40 MB (local),      588.68 MB (total)
 GA USED    *         0.00 MB       (max)       0.00 MB       (current)
 **********************************************************************************************************************************


 PROGRAM * CCSD (Unrestricted open-shell coupled cluster)     Authors: C. Hampel, H.-J. Werner, 1991, M. Deegan, P.J. Knowles, 1992

                           UCCSD-F12 implementation by G. Knizia and H.-J. Werner, 2008

                   Density fitting integral evaluation by F.R. Manby, 2003,2007, G. Knizia, 2010


 Basis set VTZ-F12/JKFIT generated.      Number of basis functions:   196 
 Basis set CC-PVTZ-F12/OPTRI generated.  Number of basis functions:   157 
 Basis set CC-PVTZ-F12/MP2FIT generated. Number of basis functions:   198 

 Convergence thresholds:  THRVAR = 1.00D-08  THRDEN = 1.00D-06

 CCSD(T)     terms to be evaluated (factor= 1.000)


 Number of core orbitals:           1 (   1   0 )
 Number of closed-shell orbitals:   3 (   3   0 )
 Number of active  orbitals:        1 (   0   1 )
 Number of external orbitals:      84 (  57  27 )

 Memory could be reduced to 3.52 Mwords without degradation in triples

 Number of N-1 electron functions:               7
 Number of N-2 electron functions:              21
 Number of singly external CSFs:               370
 Number of doubly external CSFs:             62505
 Total number of CSFs:                       62875

 Molecular orbitals read from record     2103.2  Type=RHF/CANONICAL  

 Integral transformation finished. Total CPU:   0.07 sec, npass=  1  Memory used:   0.62 MW

 Geminal basis:    OPTFULL  GEM_TYPE=SLATER  BETA=1.0  NGEM=6

 Optimizing Gaussian exponents for each gem_beta

 Geminal optimization for beta= 1.0000
 Weight function:   m=0, omega= 1.4646

 Augmented Hessian optimization of geminal fit. Trust ratio= 0.40000
 Convergence reached after   2 iterations. Final gradient= 8.66D-16, Step= 4.23D-06, Delta= 1.28D-09

 Alpha:                 0.19532     0.81920     2.85917     9.50073    35.69989   197.79328
 Coeff:                 0.27070     0.30552     0.18297     0.10986     0.06810     0.04224


 WFN_F12=FIX,EG    DECOUPLE_EXPL=F   HYBRID=0    NOX=F   SEMIINT_F12=T   CORE_SINGLES=F


 AO(A)-basis ORBITAL           loaded. Number of functions:      89
 RI(R)-basis CC-PVTZ-F12/OPTRI loaded. Number of functions:     157
 DF-basis VTZ-F12/JKFIT        loaded. Number of functions:     196

 Screening thresholds:   THRAO=  1.00D-10  THRMO=  1.00D-09  THRPROD=  1.00D-09
                         THRSW=  1.00D-05  THROV=  1.00D-12  THRAOF12= 1.00D-08

 CPU time for one-electron matrices               0.12 sec

 Construction of ABS:
 Pseudo-inverse stability          8.45E-13
 Smallest eigenvalue of S          1.03E-03  (threshold= 1.00E-08)
 Ratio eigmin/eigmax               1.76E-04  (threshold= 1.00E-09)
 Smallest eigenvalue of S kept     1.03E-03  (threshold= 1.03E-03, 0 functions deleted, 157 kept)

 Construction of CABS:
 Pseudo-inverse stability          2.41E-11
 Smallest eigenvalue of S          1.66E-06  (threshold= 1.00E-08)
 Ratio eigmin/eigmax               1.66E-06  (threshold= 1.00E-09)
 Smallest eigenvalue of S kept     1.66E-06  (threshold= 1.66E-06, 0 functions deleted, 157 kept)

 CPU time for basis constructions                 0.01 sec
 Fock operators(MO) rebuilt from dump record.
 CPU time for Fock operator transformation        0.01 sec

                                      TOTAL          ALPHA          BETA    
  Singles Contributions MO        -0.003155936   -0.001579859   -0.001576078
  Singles Contributions CABS      -0.000615033   -0.000369225   -0.000245808
  Pure DF-RHF relaxation          -0.000604211

 CPU time for RHF CABS relaxation                 0.02 sec
 CPU time for singles (tot)                       0.04 sec

 AO(A)-basis ORBITAL           loaded. Number of functions:      89
 RI(R)-basis CC-PVTZ-F12/OPTRI loaded. Number of functions:     157
 DF-basis CC-PVTZ-F12/MP2FIT   loaded. Number of functions:     198

 Screening thresholds:   THRAO=  1.00D-10  THRMO=  1.00D-09  THRPROD=  1.00D-09
                         THRSW=  1.00D-05  THROV=  1.00D-12  THRAOF12= 1.00D-08

 CPU time for transformed integrals               0.24 sec
 CPU time for F12 matrices                        0.04 sec

 Diagonal F12 ansatz with fixed amplitudes:   TS= 0.5000  TT= 0.2500  TN= 0.3750

 ITER.     SQ.NORM      CORR.ENERGY   TOTAL ENERGY  ENERGY CHANGE      VAR         CPU   MICRO    DIIS
   1      1.05502193    -0.21564763   -55.80210549    -2.1625E-01   5.35E-02      0.00  1  1  1   0  0
   2      1.05443031    -0.21468808   -55.80114595     9.5955E-04   2.21E-05      0.00  0  0  0   1  1
   3      1.05448021    -0.21475505   -55.80121292    -6.6973E-05   9.16E-08      0.01  0  0  0   2  2
   4      1.05448016    -0.21475525   -55.80121312    -2.0145E-07   3.21E-10      0.01  0  0  0   3  3

 - - Continuing with F12/conv. amplitude coupling turned on.

   5      1.05442076    -0.21475977   -55.80121763    -4.7146E-06   2.04E-05      0.01  1  1  1   1  1
   6      1.05442016    -0.21475987   -55.80121773    -9.7350E-08   6.16E-10      0.02  1  1  1   2  2

 CPU time for iterative RMP2-F12                  0.02 sec


 DF-RMP2-F12 doubles corrections:
 - - - - - - - - - - - - - - - - 
  Approx.                             TOTAL           A-B            A-A            B-B    
  RMP2-F12/3C(FIX)                -0.017469740   -0.016410991   -0.000754392   -0.000304357
  RMP2-F12/3*C(FIX)               -0.017465130   -0.016425987   -0.000741216   -0.000297927
  RMP2-F12/3*C(DX)                -0.017489236   -0.016449060   -0.000741987   -0.000298189
  RMP2-F12/3*C(FIX,DX)            -0.018100964   -0.017029283   -0.000765244   -0.000306436

 DF-RMP2-F12 doubles energies:
 - - - - - - - - - - - - - - -
  Approx.                             TOTAL           A-B            A-A            B-B    
  RMP2                            -0.194134189   -0.152298995   -0.029149993   -0.012685202
  RMP2-F12/3C(FIX)                -0.211603929   -0.168709986   -0.029904385   -0.012989559
  RMP2-F12/3*C(FIX)               -0.211599319   -0.168724982   -0.029891208   -0.012983129
  RMP2-F12/3*C(DX)                -0.211623425   -0.168748055   -0.029891980   -0.012983391
  RMP2-F12/3*C(FIX,DX)            -0.212235153   -0.169328278   -0.029915236   -0.012991639


  Reference energy                    -55.585853654032
  CABS relaxation correction to RHF    -0.000604210740
  New reference energy                -55.586457864772

  RMP2-F12 singles (MO) energy         -0.003155936067
  RMP2-F12 pair energy                 -0.211603929191
  RMP2-F12 correlation energy          -0.214759865257

 !RMP2-F12/3C(FIX) energy             -55.801217730029

 Starting RMP2 calculation, locsing= 0

 ITER.      SQ.NORM     CORR.ENERGY   TOTAL ENERGY   ENERGY CHANGE        DEN1      VAR(S)    VAR(P)  DIIS     TIME
   1      1.05398464    -0.19670640   -55.78256005    -0.19670640    -0.00055776  0.67D-05  0.20D-03  1  1     0.62
   2      1.05447002    -0.19730330   -55.78315695    -0.00059690    -0.00000068  0.34D-07  0.27D-06  2  2     0.63
   3      1.05448179    -0.19731136   -55.78316501    -0.00000806    -0.00000000  0.38D-09  0.94D-09  3  3     0.63
   4      1.05448192    -0.19731136   -55.78316501     0.00000000    -0.00000000  0.29D-11  0.55D-11  4  4     0.63

 Norm of t1 vector:      0.03885178      S-energy:    -0.00315593      T1 diagnostic:  0.00012814
 Norm of t2 vector:      0.23015747      P-energy:    -0.19415542
                                         Alpha-Beta:  -0.15236293
                                         Alpha-Alpha: -0.02911493
                                         Beta-Beta:   -0.01267756

 Spin contamination <S**2-Sz**2-Sz>     0.00022290
  Reference energy                    -55.585853654032
  CABS singles correction              -0.000604210740
  New reference energy                -55.586457864772
  RHF-RMP2 correlation energy          -0.197311356051
 !RHF-RMP2 energy                     -55.783769220823

  F12/3C(FIX) correction               -0.017469740077
  RHF-RMP2-F12 correlation energy      -0.214781096127
 !RHF-RMP2-F12 total energy           -55.801238960899

 Starting UCCSD calculation

 ITER.      SQ.NORM     CORR.ENERGY   TOTAL ENERGY   ENERGY CHANGE        DEN1      VAR(S)    VAR(P)  DIIS     TIME
   1      1.05973597    -0.20349707   -55.78935072    -0.20349707    -0.00503912  0.42D-03  0.11D-02  1  1     0.68
   2      1.06454986    -0.20847563   -55.79432929    -0.00497856    -0.00035339  0.42D-04  0.11D-03  2  2     0.71
   3      1.06646422    -0.20967211   -55.79552576    -0.00119648    -0.00003509  0.50D-05  0.12D-04  3  3     0.73
   4      1.06711071    -0.20995675   -55.79581040    -0.00028464    -0.00000471  0.59D-06  0.20D-05  4  4     0.77
   5      1.06730482    -0.20998850   -55.79584215    -0.00003175    -0.00000063  0.39D-07  0.30D-06  5  5     0.80
   6      1.06735510    -0.21000103   -55.79585468    -0.00001253    -0.00000006  0.92D-08  0.27D-07  6  6     0.84
   7      1.06735894    -0.21000086   -55.79585452     0.00000017    -0.00000001  0.25D-08  0.26D-08  6  1     0.87

 Norm of t1 vector:      0.05496765      S-energy:    -0.00351219      T1 diagnostic:  0.00761618
                                                                       D1 diagnostic:  0.01172791
                                                                       D2 diagnostic:  0.14055603 (internal)
 Norm of t2 vector:      0.25364838      P-energy:    -0.20648867
                                         Alpha-Beta:  -0.16677993
                                         Alpha-Alpha: -0.02806044
                                         Beta-Beta:   -0.01164830

 Spin contamination <S**2-Sz**2-Sz>     0.00009131

 Memory could be reduced to 3.68 Mwords without degradation in triples


 RESULTS
 =======

  Reference energy                    -55.585853654032
  CABS relaxation correction to RHF    -0.000604210740
  New reference energy                -55.586457864772

  F12 corrections for ansatz 3C(FIX) added to UCCSD energy. Coupling mode: 15

  UCCSD-F12a singles energy            -0.003512188464
  UCCSD-F12a pair energy               -0.223758955949
  UCCSD-F12a correlation energy        -0.227271144413
  Triples (T) contribution             -0.006358836044
  Total correlation energy             -0.233629980457

  RHF-UCCSD-F12a energy               -55.813729009185
  RHF-UCCSD[T]-F12a energy            -55.820208697683
  RHF-UCCSD-T-F12a energy             -55.820026058282
 !RHF-UCCSD(T)-F12a energy            -55.820087845229

  F12 corrections for ansatz 3C(FIX) added to UCCSD energy. Coupling mode: 15

  UCCSD-F12b singles energy            -0.003512188464
  UCCSD-F12b pair energy               -0.220418110013
  UCCSD-F12b correlation energy        -0.223930298477
  Triples (T) contribution             -0.006358836044
  Total correlation energy             -0.230289134521

  RHF-UCCSD-F12b energy               -55.810388163249
  RHF-UCCSD[T]-F12b energy            -55.816867851747
  RHF-UCCSD-T-F12b energy             -55.816685212346
 !RHF-UCCSD(T)-F12b energy            -55.816746999293

 Program statistics:

 Available memory in ccsd:                89999028
 Min. memory needed in ccsd:                287114
 Max. memory used in ccsd:                  350228
 Max. memory used in cckext:                384487 ( 8 integral passes)
 Max. memory used in cckint:                617728 ( 1 integral passes)



 **********************************************************************************************************************************
 DATASETS  * FILE   NREC   LENGTH (MB)   RECORD NAMES
              1      19       29.06       500      701      610      702      900      950      970     1003      129      960   
                                          VAR     GEOM    BASINP    GEOM    SYMINP    ZMAT    AOBASIS   BASIS     P2S    ABASIS    
                                         1100     1400     1410     1200     1210     1080     1600     1650     1700   
                                           S        T        V       H0       H01     AOSYM     SMH    MOLCAS    OPER   

              2      17       25.70       500      610      700     1000      520     2100     7360     7350      701     1001   
                                          VAR    BASINP    GEOM     BASIS   MCVARS     RHF    F12ABS    EF12     GEOM     BASIS   
                                         2101      701(1)  1002     2102      702     1003     2103   
                                          RHF     GEOM     BASIS     RHF     GEOM     BASIS     RHF  

 PROGRAMS   *        TOTAL  UCCSD(T)    HF-SCF       INT   RESTART
 CPU TIMES  *         2.37      1.13      0.16      0.44      0.31
 REAL TIME  *         3.99 SEC
 DISK USED  *        62.13 MB (local),      649.27 MB (total)
 SF USED    *       106.87 MB
 GA USED    *         3.05 MB       (max)       0.00 MB       (current)
 **********************************************************************************************************************************

 UCCSD(T)-F12/cc-pVTZ-F12 energy=    -55.816746999293

    UCCSD(T)-F12          HF-SCF
    -55.81674700    -55.58585365
 **********************************************************************************************************************************
 Molpro calculation terminated
