 Entering Gaussian System, Link 0=g03
 Input=TS_freq.com
 Output=TS_freq.log
 Initial command:
 /home/g03/l1.exe /scratch/jwallen/g03/Gau-28089.inp -scrdir=/scratch/jwallen/g03/
 Entering Link 1 = /home/g03/l1.exe PID=     28091.
  
 Copyright (c) 1988,1990,1992,1993,1995,1998,2003,2004, Gaussian, Inc.
                  All Rights Reserved.
  
 This is the Gaussian(R) 03 program.  It is based on the
 the Gaussian(R) 98 system (copyright 1998, Gaussian, Inc.),
 the Gaussian(R) 94 system (copyright 1995, Gaussian, Inc.),
 the Gaussian 92(TM) system (copyright 1992, Gaussian, Inc.),
 the Gaussian 90(TM) system (copyright 1990, Gaussian, Inc.),
 the Gaussian 88(TM) system (copyright 1988, Gaussian, Inc.),
 the Gaussian 86(TM) system (copyright 1986, Carnegie Mellon
 University), and the Gaussian 82(TM) system (copyright 1983,
 Carnegie Mellon University). Gaussian is a federally registered
 trademark of Gaussian, Inc.
  
 This software contains proprietary and confidential information,
 including trade secrets, belonging to Gaussian, Inc.
  
 This software is provided under written license and may be
 used, copied, transmitted, or stored only in accord with that
 written license.
  
 The following legend is applicable only to US Government
 contracts under FAR:
  
                    RESTRICTED RIGHTS LEGEND
  
 Use, reproduction and disclosure by the US Government is
 subject to restrictions as set forth in subparagraphs (a)
 and (c) of the Commercial Computer Software - Restricted
 Rights clause in FAR 52.227-19.
  
 Gaussian, Inc.
 340 Quinnipiac St., Bldg. 40, Wallingford CT 06492
  
  
 ---------------------------------------------------------------
 Warning -- This program may not be used in any manner that
 competes with the business of Gaussian, Inc. or will provide
 assistance to any competitor of Gaussian, Inc.  The licensee
 of this program is prohibited from giving any competitor of
 Gaussian, Inc. access to this program.  By using this program,
 the user acknowledges that Gaussian, Inc. is engaged in the
 business of creating and licensing software in the field of
 computational chemistry and represents and warrants to the
 licensee that it is not a competitor of Gaussian, Inc. and that
 it will not use this program in any manner prohibited above.
 ---------------------------------------------------------------
  

 Cite this work as:
 Gaussian 03, Revision D.01,
 M. J. Frisch, G. W. Trucks, H. B. Schlegel, G. E. Scuseria, 
 M. A. Robb, J. R. Cheeseman, J. A. Montgomery, Jr., T. Vreven, 
 K. N. Kudin, J. C. Burant, J. M. Millam, S. S. Iyengar, J. Tomasi, 
 V. Barone, B. Mennucci, M. Cossi, G. Scalmani, N. Rega, 
 G. A. Petersson, H. Nakatsuji, M. Hada, M. Ehara, K. Toyota, 
 R. Fukuda, J. Hasegawa, M. Ishida, T. Nakajima, Y. Honda, O. Kitao, 
 H. Nakai, M. Klene, X. Li, J. E. Knox, H. P. Hratchian, J. B. Cross, 
 V. Bakken, C. Adamo, J. Jaramillo, R. Gomperts, R. E. Stratmann, 
 O. Yazyev, A. J. Austin, R. Cammi, C. Pomelli, J. W. Ochterski, 
 P. Y. Ayala, K. Morokuma, G. A. Voth, P. Salvador, J. J. Dannenberg, 
 V. G. Zakrzewski, S. Dapprich, A. D. Daniels, M. C. Strain, 
 O. Farkas, D. K. Malick, A. D. Rabuck, K. Raghavachari, 
 J. B. Foresman, J. V. Ortiz, Q. Cui, A. G. Baboul, S. Clifford, 
 J. Cioslowski, B. B. Stefanov, G. Liu, A. Liashenko, P. Piskorz, 
 I. Komaromi, R. L. Martin, D. J. Fox, T. Keith, M. A. Al-Laham, 
 C. Y. Peng, A. Nanayakkara, M. Challacombe, P. M. W. Gill, 
 B. Johnson, W. Chen, M. W. Wong, C. Gonzalez, and J. A. Pople, 
 Gaussian, Inc., Wallingford CT, 2004.
 
 ******************************************
 Gaussian 03:  AM64L-G03RevD.01 13-Oct-2005
                18-Jan-2012 
 ******************************************
 %chk=TS_cbsqb3_freq.chk
 %mem=1000mb
 %nproc=8
 Will use up to    8 processors via shared memory.
 ----------------------------------------------------------------
 # freq b3lyp/6-311g(d,p) iop(7/33=1) scf=tight nosym scfcyc=6000
 ----------------------------------------------------------------
 1/10=4,30=1,38=1/1,3;
 2/15=1,17=6,18=5,40=1/2;
 3/5=4,6=6,7=101,11=2,16=1,25=1,30=1,74=-5/1,2,3;
 4//1;
 5/5=2,7=6000,32=2,38=5/2;
 8/6=4,10=90,11=11/1;
 11/6=1,8=1,9=11,15=111,16=1,31=1/1,2,10;
 10/6=1,31=1/2;
 6/7=2,8=2,9=2,10=2,18=1,28=1/1;
 7/8=1,10=1,25=1,30=1,33=1/1,2,3,16;
 1/10=4,30=1/3;
 99//99;
 --------
 H + C2H4
 --------
 Symbolic Z-matrix:
 Charge =  0 Multiplicity = 2
 C                    -0.1043    0.74462   0. 
 C                    -0.1043   -0.60102   0. 
 H                    -0.08367   1.31235   0.92335 
 H                    -0.08367   1.31235  -0.92335 
 H                    -0.19865  -1.16553  -0.9205 
 H                    -0.19865  -1.16553   0.9205 
 H                     1.81617  -1.15527   0. 
 

 GradGradGradGradGradGradGradGradGradGradGradGradGradGradGradGradGradGrad
 Berny optimization.
 Initialization pass.
 Trust Radius=3.00D-01 FncErr=1.00D-07 GrdErr=1.00D-07
 Number of steps in this run=   2 maximum allowed number of steps=   2.
 GradGradGradGradGradGradGradGradGradGradGradGradGradGradGradGradGradGrad

                          Input orientation:                          
 ---------------------------------------------------------------------
 Center     Atomic     Atomic              Coordinates (Angstroms)
 Number     Number      Type              X           Y           Z
 ---------------------------------------------------------------------
    1          6             0       -0.104295    0.744624    0.000000
    2          6             0       -0.104295   -0.601018    0.000000
    3          1             0       -0.083668    1.312347    0.923347
    4          1             0       -0.083668    1.312347   -0.923347
    5          1             0       -0.198645   -1.165529   -0.920501
    6          1             0       -0.198645   -1.165529    0.920501
    7          1             0        1.816168   -1.155271    0.000000
 ---------------------------------------------------------------------
                    Distance matrix (angstroms):
                    1          2          3          4          5
     1  C    0.000000
     2  C    1.345642   0.000000
     3  H    1.084115   2.124608   0.000000
     4  H    1.084115   2.124608   1.846694   0.000000
     5  H    2.122477   1.083927   3.090771   2.480544   0.000000
     6  H    2.122477   1.083927   2.480544   3.090771   1.841002
     7  H    2.701440   1.998843   3.248243   3.248243   2.215152
                    6          7
     6  H    0.000000
     7  H    2.215152   0.000000
 Symmetry turned off by external request.
 Stoichiometry    C2H5(2)
 Framework group  CS[SG(C2H),X(H4)]
 Deg. of freedom     9
 Full point group                 CS
 Rotational constants (GHZ):     74.4834201     22.8226986     22.7531834
 Standard basis: 6-311G(d,p) (5D, 7F)
 Integral buffers will be    131072 words long.
 Raffenetti 2 integral format.
 Two-electron integral symmetry is turned off.
    66 basis functions,   104 primitive gaussians,    68 cartesian basis functions
     9 alpha electrons        8 beta electrons
       nuclear repulsion energy        36.7641202396 Hartrees.
 NAtoms=    7 NActive=    7 NUniq=    7 SFac= 7.50D-01 NAtFMM=   80 NAOKFM=F Big=F
 One-electron integrals computed using PRISM.
 NBasis=    66 RedAO= T  NBF=    66
 NBsUse=    66 1.00D-06 NBFU=    66
 Harris functional with IExCor=  402 diagonalized for initial guess.
 ExpMin= 1.03D-01 ExpMax= 4.56D+03 ExpMxC= 6.82D+02 IAcc=1 IRadAn=         1 AccDes= 1.00D-06
 HarFok:  IExCor= 402 AccDes= 1.00D-06 IRadAn=         1 IDoV=1
 ScaDFX=  1.000000  1.000000  1.000000  1.000000
 <S**2> of initial guess= 0.7500
 Requested convergence on RMS density matrix=1.00D-08 within6000 cycles.
 Requested convergence on MAX density matrix=1.00D-06.
 Requested convergence on             energy=1.00D-06.
 No special actions if energy rises.
 Keep R1 and R2 integrals in memory in canonical form, NReq=    43319882.
 Integral accuracy reduced to 1.0D-05 until final iterations.
 Initial convergence to 1.0D-05 achieved.  Increase integral accuracy.
 SCF Done:  E(UB+HF-LYP) =  -79.1166134112     A.U. after   16 cycles
             Convg  =    0.4926D-08             -V/T =  2.0053
             S**2   =   0.7728
 Annihilation of the first spin contaminant:
 S**2 before annihilation     0.7728,   after     0.7500
 Range of M.O.s used for correlation:     1    66
 NBasis=    66 NAE=     9 NBE=     8 NFC=     0 NFV=     0
 NROrb=     66 NOA=     9 NOB=     8 NVA=    57 NVB=    58
 Symmetrizing basis deriv contribution to polar:
 IMax=3 JMax=2 DiffMx= 0.00D+00
 G2DrvN: will do    8 centers at a time, making    1 passes doing MaxLOS=2.
 FoFDir/FoFCou used for L=0 through L=2.
 DoAtom=TTTTTTT
          Differentiating once with respect to electric field.
                with respect to dipole field.
          Differentiating once with respect to nuclear coordinates.
          Store integrals in memory, NReq=     6328169.
          There are  24 degrees of freedom in the 1st order CPHF.
    21 vectors were produced by pass  0.
 AX will form  21 AO Fock derivatives at one time.
    21 vectors were produced by pass  1.
    21 vectors were produced by pass  2.
    21 vectors were produced by pass  3.
    21 vectors were produced by pass  4.
    18 vectors were produced by pass  5.
     7 vectors were produced by pass  6.
     2 vectors were produced by pass  7.
 Inv2:  IOpt= 1 Iter= 1 AM= 2.00D-15 Conv= 1.00D-12.
 Inverted reduced A of dimension  132 with in-core refinement.
 Isotropic polarizability for W=    0.000000       30.13 Bohr**3.
 End of Minotr Frequency-dependent properties file   721 does not exist.

 **********************************************************************

            Population analysis using the SCF density.

 **********************************************************************

 Alpha  occ. eigenvalues --  -10.18634 -10.18261  -0.77540  -0.59636  -0.48103
 Alpha  occ. eigenvalues --   -0.43504  -0.36946  -0.33554  -0.23364
 Alpha virt. eigenvalues --   -0.00126   0.06104   0.08089   0.08769   0.15369
 Alpha virt. eigenvalues --    0.26171   0.28768   0.30209   0.30433   0.37600
 Alpha virt. eigenvalues --    0.40995   0.43865   0.54906   0.57630   0.59966
 Alpha virt. eigenvalues --    0.65955   0.67915   0.68214   0.81620   1.00837
 Alpha virt. eigenvalues --    1.06425   1.10269   1.27377   1.29120   1.36607
 Alpha virt. eigenvalues --    1.38080   1.46578   1.49408   1.56033   1.58012
 Alpha virt. eigenvalues --    1.58249   1.64492   1.78167   1.81647   1.91114
 Alpha virt. eigenvalues --    1.94957   2.04361   2.13076   2.14045   2.14250
 Alpha virt. eigenvalues --    2.25642   2.30777   2.38919   2.52428   2.56184
 Alpha virt. eigenvalues --    2.59197   2.65273   2.70368   2.82645   2.86534
 Alpha virt. eigenvalues --    3.08118   3.36904   3.63992   3.79605   4.10196
 Alpha virt. eigenvalues --   23.71676  24.20307
  Beta  occ. eigenvalues --  -10.18808 -10.17752  -0.76978  -0.59154  -0.47936
  Beta  occ. eigenvalues --   -0.43204  -0.36806  -0.29560
  Beta virt. eigenvalues --   -0.08545   0.01427   0.06429   0.08107   0.08852
  Beta virt. eigenvalues --    0.15372   0.28839   0.30279   0.30530   0.31629
  Beta virt. eigenvalues --    0.38102   0.41976   0.45843   0.55148   0.57683
  Beta virt. eigenvalues --    0.60112   0.66626   0.68545   0.69012   0.82706
  Beta virt. eigenvalues --    1.01406   1.07294   1.10500   1.31268   1.33647
  Beta virt. eigenvalues --    1.38974   1.42695   1.48764   1.53456   1.59281
  Beta virt. eigenvalues --    1.59406   1.59991   1.66186   1.78434   1.84341
  Beta virt. eigenvalues --    1.91911   1.95191   2.04958   2.13606   2.14458
  Beta virt. eigenvalues --    2.16493   2.28503   2.30827   2.45854   2.52540
  Beta virt. eigenvalues --    2.56375   2.59600   2.67844   2.70649   2.83114
  Beta virt. eigenvalues --    2.87705   3.08307   3.37281   3.64190   3.79828
  Beta virt. eigenvalues --    4.10573  23.71864  24.20508
          Condensed to atoms (all electrons):
              1          2          3          4          5          6
     1  C    4.873272   0.591776   0.410222   0.410222  -0.037265  -0.037265
     2  C    0.591776   4.886311  -0.037042  -0.037042   0.412988   0.412988
     3  H    0.410222  -0.037042   0.554223  -0.040245   0.007313  -0.011215
     4  H    0.410222  -0.037042  -0.040245   0.554223  -0.011215   0.007313
     5  H   -0.037265   0.412988   0.007313  -0.011215   0.543299  -0.037801
     6  H   -0.037265   0.412988  -0.011215   0.007313  -0.037801   0.543299
     7  H   -0.024966   0.029984  -0.000009  -0.000009  -0.012765  -0.012765
              7
     1  C   -0.024966
     2  C    0.029984
     3  H   -0.000009
     4  H   -0.000009
     5  H   -0.012765
     6  H   -0.012765
     7  H    1.078968
 Mulliken atomic charges:
              1
     1  C   -0.185996
     2  C   -0.259964
     3  H    0.116754
     4  H    0.116754
     5  H    0.135445
     6  H    0.135445
     7  H   -0.058439
 Sum of Mulliken charges=   0.00000
 Atomic charges with hydrogens summed into heavy atoms:
              1
     1  C    0.047512
     2  C   -0.047512
     3  H    0.000000
     4  H    0.000000
     5  H    0.000000
     6  H    0.000000
     7  H    0.000000
 Sum of Mulliken charges=   0.00000
          Atomic-Atomic Spin Densities.
              1          2          3          4          5          6
     1  C    0.399296   0.016610   0.001209   0.001209  -0.000279  -0.000279
     2  C    0.016610  -0.164320  -0.000565  -0.000565   0.006750   0.006750
     3  H    0.001209  -0.000565  -0.019305   0.001524  -0.000096   0.000230
     4  H    0.001209  -0.000565   0.001524  -0.019305   0.000230  -0.000096
     5  H   -0.000279   0.006750  -0.000096   0.000230   0.014549   0.000511
     6  H   -0.000279   0.006750   0.000230  -0.000096   0.000511   0.014549
     7  H   -0.041116  -0.066759  -0.000255  -0.000255  -0.010926  -0.010926
              7
     1  C   -0.041116
     2  C   -0.066759
     3  H   -0.000255
     4  H   -0.000255
     5  H   -0.010926
     6  H   -0.010926
     7  H    0.968727
 Mulliken atomic spin densities:
              1
     1  C    0.376651
     2  C   -0.202100
     3  H   -0.017259
     4  H   -0.017259
     5  H    0.010738
     6  H    0.010738
     7  H    0.838490
 Sum of Mulliken spin densities=   1.00000
 APT atomic charges:
              1
     1  C   -0.057655
     2  C   -0.084496
     3  H    0.034811
     4  H    0.034811
     5  H    0.043087
     6  H    0.043087
     7  H   -0.013645
 Sum of APT charges=   0.00000
 APT Atomic charges with hydrogens summed into heavy atoms:
              1
     1  C    0.011967
     2  C   -0.011967
     3  H    0.000000
     4  H    0.000000
     5  H    0.000000
     6  H    0.000000
     7  H    0.000000
 Sum of APT charges=   0.00000
 Electronic spatial extent (au):  <R**2>=   105.0666
 Charge=     0.0000 electrons
 Dipole moment (field-independent basis, Debye):
    X=    -0.7303    Y=     0.3518    Z=     0.0000  Tot=     0.8106
 Quadrupole moment (field-independent basis, Debye-Ang):
   XX=   -18.0351   YY=   -14.0264   ZZ=   -13.6157
   XY=     1.0974   XZ=     0.0000   YZ=     0.0000
 Traceless Quadrupole moment (field-independent basis, Debye-Ang):
   XX=    -2.8094   YY=     1.1993   ZZ=     1.6101
   XY=     1.0974   XZ=     0.0000   YZ=     0.0000
 Octapole moment (field-independent basis, Debye-Ang**2):
  XXX=    -5.9401  YYY=     3.2125  ZZZ=     0.0000  XYY=    -2.6226
  XXY=     2.2862  XXZ=     0.0000  XZZ=    -1.5571  YZZ=     0.8463
  YYZ=     0.0000  XYZ=     0.0000
 Hexadecapole moment (field-independent basis, Debye-Ang**3):
 XXXX=   -56.5286 YYYY=   -84.3111 ZZZZ=   -28.6001 XXXY=    13.0143
 XXXZ=     0.0000 YYYX=    11.2989 YYYZ=     0.0000 ZZZX=     0.0000
 ZZZY=     0.0000 XXYY=   -25.5699 XXZZ=   -14.0776 YYZZ=   -15.9630
 XXYZ=     0.0000 YYXZ=     0.0000 ZZXY=     3.5073
 N-N= 3.676412023963D+01 E-N=-2.562112032391D+02  KE= 7.870080268750D+01
  Exact polarizability:  30.256  -9.313  38.155   0.000   0.000  21.981
 Approx polarizability:  36.949 -12.346  55.587   0.000   0.000  27.676
                          Isotropic Fermi Contact Couplings
        Atom                 a.u.       MegaHertz       Gauss      10(-4) cm-1
     1  C(13)              0.02275      25.57613       9.12620       8.53128
     2  C(13)              0.01804      20.27872       7.23595       6.76425
     3  H(1)              -0.00487     -21.75819      -7.76386      -7.25775
     4  H(1)              -0.00487     -21.75819      -7.76386      -7.25775
     5  H(1)               0.00573      25.62779       9.14463       8.54851
     6  H(1)               0.00573      25.62779       9.14463       8.54851
     7  H(1)               0.25745    1150.77423     410.62484     383.85696
 --------------------------------------------------------
       Center         ----  Spin Dipole Couplings  ----
                      3XX-RR        3YY-RR        3ZZ-RR
 --------------------------------------------------------
     1   Atom        0.416728     -0.210389     -0.206339
     2   Atom       -0.146247      0.089171      0.057076
     3   Atom       -0.000772     -0.010654      0.011426
     4   Atom       -0.000772     -0.010654      0.011426
     5   Atom        0.008538      0.000402     -0.008939
     6   Atom        0.008538      0.000402     -0.008939
     7   Atom       -0.011351      0.005112      0.006239
 --------------------------------------------------------
                        XY            XZ            YZ
 --------------------------------------------------------
     1   Atom       -0.011690      0.000000      0.000000
     2   Atom       -0.001374      0.000000      0.000000
     3   Atom       -0.003842     -0.001467      0.024237
     4   Atom       -0.003842      0.001467     -0.024237
     5   Atom        0.000414      0.009471     -0.003617
     6   Atom        0.000414     -0.009471      0.003617
     7   Atom        0.004791      0.000000      0.000000
 --------------------------------------------------------


 ---------------------------------------------------------------------------------
              Anisotropic Spin Dipole Couplings in Principal Axis System
 ---------------------------------------------------------------------------------

       Atom             a.u.   MegaHertz   Gauss  10(-4) cm-1        Axes

              Baa    -0.2106   -28.261   -10.084    -9.427  0.0186  0.9998  0.0000
     1 C(13)  Bbb    -0.2063   -27.689    -9.880    -9.236  0.0000  0.0000  1.0000
              Bcc     0.4169    55.950    19.964    18.663  0.9998 -0.0186  0.0000
 
              Baa    -0.1463   -19.626    -7.003    -6.547  1.0000  0.0058  0.0000
     2 C(13)  Bbb     0.0571     7.659     2.733     2.555  0.0000  0.0000  1.0000
              Bcc     0.0892    11.967     4.270     3.992 -0.0058  1.0000  0.0000
 
              Baa    -0.0265   -14.128    -5.041    -4.713  0.0952  0.8403 -0.5336
     3 H(1)   Bbb    -0.0009    -0.496    -0.177    -0.165  0.9885 -0.0167  0.1500
              Bcc     0.0274    14.625     5.218     4.878 -0.1172  0.5418  0.8323
 
              Baa    -0.0265   -14.128    -5.041    -4.713  0.0952  0.8403  0.5336
     4 H(1)   Bbb    -0.0009    -0.496    -0.177    -0.165  0.9885 -0.0167 -0.1500
              Bcc     0.0274    14.625     5.218     4.878  0.1172 -0.5418  0.8323
 
              Baa    -0.0139    -7.435    -2.653    -2.480 -0.3810  0.2365  0.8938
     5 H(1)   Bbb     0.0012     0.615     0.219     0.205  0.1772  0.9675 -0.1805
              Bcc     0.0128     6.820     2.433     2.275  0.9074 -0.0896  0.4106
 
              Baa    -0.0139    -7.435    -2.653    -2.480  0.3810 -0.2365  0.8938
     6 H(1)   Bbb     0.0012     0.615     0.219     0.205  0.1772  0.9675  0.1805
              Bcc     0.0128     6.820     2.433     2.275  0.9074 -0.0896 -0.4106
 
              Baa    -0.0126    -6.746    -2.407    -2.250  0.9655 -0.2605  0.0000
     7 H(1)   Bbb     0.0062     3.329     1.188     1.110  0.0000  0.0000  1.0000
              Bcc     0.0064     3.417     1.219     1.140  0.2605  0.9655  0.0000
 

 ---------------------------------------------------------------------------------

 Use density number 0.
 Entering OneElI...
 Calculate overlap and kinetic energy integrals
    NBasis =  68  MinDer = 2  MaxDer = 2
 Requested accuracy = 0.1000D-12
 PrsmSu:  NPrtUS=   1 ThrOK=F
 PRISM was handed   131018933 working-precision words and   465 shell-pairs
 Entering OneElI...
 Calculate potential energy integrals
    NBasis =  68  MinDer = 2  MaxDer = 2
 Requested accuracy = 0.1000D-12
 PrsmSu:  NPrtUS=   8 ThrOK=T
 PRISM was handed    16367888 working-precision words and   465 shell-pairs
 PRISM was handed    16367888 working-precision words and   465 shell-pairs
 PRISM was handed    16367888 working-precision words and   465 shell-pairs
 PRISM was handed    16367888 working-precision words and   465 shell-pairs
 PRISM was handed    16367888 working-precision words and   465 shell-pairs
 PRISM was handed    16367888 working-precision words and   465 shell-pairs
 PRISM was handed    16367888 working-precision words and   465 shell-pairs
 PRISM was handed    16367888 working-precision words and   465 shell-pairs
 Polarizability after L701:
                1             2             3
      1  0.302565D+02
      2 -0.931318D+01  0.381547D+02
      3  0.000000D+00  0.000000D+00  0.219812D+02
 Dipole Derivatives after L701:
               1            2            3            4            5
      1-0.367254D+00-0.133595D+00 0.000000D+00-0.232676D+00 0.269897D+00
      2 0.599411D-01 0.532775D-01 0.000000D+00 0.484464D-01-0.107752D+00
      3 0.000000D+00 0.000000D+00 0.141012D+00 0.000000D+00 0.000000D+00
               6            7            8            9           10
      1 0.000000D+00 0.149323D+00 0.752573D-03-0.458211D-02 0.149323D+00
      2 0.000000D+00-0.750954D-02 0.812129D-02-0.776800D-01-0.750954D-02
      3 0.869391D-01-0.127247D-03-0.488511D-01-0.530115D-01 0.127246D-03
              11           12           13           14           15
      1 0.752573D-03 0.458211D-02 0.133542D+00-0.244992D-01-0.259547D-01
      2 0.812129D-02 0.776800D-01-0.357938D-01 0.301767D-01-0.598406D-01
      3 0.488511D-01-0.530115D-01-0.297581D-01-0.391517D-01-0.344578D-01
              16           17           18           19           20
      1 0.133542D+00-0.244992D-01 0.259547D-01 0.342000D-01-0.888088D-01
      2-0.357938D-01 0.301767D-01 0.598406D-01-0.217808D-01-0.221216D-01
      3 0.297581D-01 0.391517D-01-0.344578D-01 0.000000D+00 0.000000D+00
              21
      1 0.000000D+00
      2 0.000000D+00
      3-0.530120D-01
 Hessian after L701:
                1             2             3             4             5
      1  0.117583D+02
      2 -0.836843D-01  0.273424D+01
      3  0.000000D+00  0.000000D+00  0.774190D+01
      4 -0.712689D+01  0.405850D-01  0.000000D+00  0.116334D+02
      5  0.826902D-01  0.874568D+00  0.000000D+00 -0.519612D-01  0.286293D+01
      6  0.000000D+00  0.000000D+00 -0.580821D+01  0.000000D+00  0.000000D+00
      7 -0.233341D+01  0.108716D-01  0.197891D-01 -0.932837D-02 -0.115478D-02
      8  0.131891D-01 -0.186422D+01  0.895071D+00 -0.237940D-02  0.835548D-01
      9  0.210643D-01  0.818809D+00 -0.103501D+01  0.177703D-02  0.116671D+00
     10 -0.233341D+01  0.108716D-01 -0.197891D-01 -0.932837D-02 -0.115478D-02
     11  0.131891D-01 -0.186422D+01 -0.895071D+00 -0.237940D-02  0.835548D-01
     12 -0.210643D-01 -0.818809D+00 -0.103501D+01 -0.177703D-02 -0.116671D+00
     13 -0.406725D-02  0.147475D-02  0.320599D-02 -0.233922D+01  0.717673D-01
     14 -0.171708D-02  0.753740D-01  0.446810D-01  0.764855D-01 -0.188538D+01
     15  0.734549D-02  0.112194D+00  0.753428D-01  0.123770D+00  0.826388D+00
     16 -0.406725D-02  0.147475D-02 -0.320599D-02 -0.233922D+01  0.717673D-01
     17 -0.171708D-02  0.753740D-01 -0.446810D-01  0.764855D-01 -0.188538D+01
     18 -0.734549D-02 -0.112194D+00  0.753428D-01 -0.123770D+00 -0.826388D+00
     19  0.435261D-01  0.184065D-01  0.000000D+00  0.190563D+00 -0.171954D+00
     20 -0.219499D-01 -0.311193D-01  0.000000D+00 -0.136836D+00 -0.133848D+00
     21  0.000000D+00  0.000000D+00 -0.143594D-01  0.000000D+00  0.000000D+00
                6             7             8             9            10
      6  0.798450D+01
      7  0.133896D-02  0.229570D+01
      8  0.427872D-01 -0.625258D-02  0.169786D+01
      9  0.694974D-01 -0.201987D-01 -0.992134D+00  0.101925D+01
     10 -0.133896D-02  0.498723D-01  0.401127D-03 -0.650058D-03  0.229570D+01
     11 -0.427872D-01  0.401127D-03  0.646550D-01 -0.791642D-02 -0.625258D-02
     12  0.694974D-01  0.650058D-03  0.791642D-02 -0.857670D-01  0.201987D-01
     13  0.134759D+00 -0.380723D-02  0.321692D-02  0.258659D-02  0.695922D-03
     14  0.889322D+00  0.197185D-02  0.397529D-01  0.508278D-01 -0.528171D-03
     15 -0.106072D+01  0.154898D-02  0.508911D-01  0.319787D-01  0.102230D-02
     16 -0.134759D+00  0.695922D-03 -0.221008D-02  0.679663D-04 -0.380723D-02
     17 -0.889322D+00 -0.528171D-03 -0.263442D-01  0.763978D-02  0.197185D-02
     18 -0.106072D+01 -0.102230D-02 -0.775114D-02  0.118281D-02 -0.154898D-02
     19  0.000000D+00  0.279512D-03 -0.596506D-02 -0.464712D-02  0.279512D-03
     20  0.000000D+00 -0.530909D-02  0.474200D-02  0.610234D-02 -0.530909D-02
     21 -0.193834D+00 -0.210601D-02  0.321913D-02 -0.113221D-02  0.210601D-02
               11            12            13            14            15
     11  0.169786D+01
     12  0.992134D+00  0.101925D+01
     13 -0.221008D-02 -0.679662D-04  0.232093D+01
     14 -0.263442D-01 -0.763978D-02 -0.806864D-01  0.172946D+01
     15  0.775114D-02  0.118281D-02 -0.130088D+00 -0.989210D+00  0.102516D+01
     16  0.321692D-02 -0.258659D-02  0.466400D-01  0.396756D-02  0.956731D-03
     17  0.397529D-01 -0.508278D-01  0.396756D-02  0.604522D-01 -0.100409D-01
     18 -0.508911D-01  0.319787D-01 -0.956731D-03  0.100409D-01 -0.788442D-01
     19 -0.596506D-02  0.464712D-02 -0.211725D-01  0.506726D-03 -0.455524D-02
     20  0.474200D-02 -0.610234D-02  0.246994D-02  0.668407D-02  0.202755D-02
     21 -0.321913D-02 -0.113221D-02 -0.943894D-02  0.197841D-02  0.590450D-02
               16            17            18            19            20
     16  0.232093D+01
     17 -0.806864D-01  0.172946D+01
     18  0.130088D+00  0.989210D+00  0.102516D+01
     19 -0.211725D-01  0.506726D-03  0.455524D-02 -0.192303D+00
     20  0.246994D-02  0.668407D-02 -0.202755D-02  0.164464D+00  0.142115D+00
     21  0.943894D-02 -0.197841D-02  0.590450D-02  0.000000D+00  0.000000D+00
               21
     21  0.198649D+00
 ReadGW:  IGet=0 IStart=          60 Next=        3147 LGW=        3087.
 ICntrl=12127.
 Symmetry not used in FoFDir.
 MinBra= 0 MaxBra= 2 Meth= 1.
 IRaf=       0 NMat=   1 IRICut=       1 DoRegI=T DoRafI=F ISym2E= 0 JSym2E=0.
 PrsmSu:  NPrtUS=   8 ThrOK=T
 PRISM was handed    16366003 working-precision words and   465 shell-pairs
 PRISM was handed    16366003 working-precision words and   465 shell-pairs
 PRISM was handed    16366003 working-precision words and   465 shell-pairs
 PRISM was handed    16366003 working-precision words and   465 shell-pairs
 PRISM was handed    16366003 working-precision words and   465 shell-pairs
 PRISM was handed    16366003 working-precision words and   465 shell-pairs
 PRISM was handed    16366003 working-precision words and   465 shell-pairs
 PRISM was handed    16366003 working-precision words and   465 shell-pairs
 Pruned (  75, 302) grid will be used in CalDFT.
 CkSvGd:  ISavGI=        -1 IRadAn=       4 IRASav=       4 ISavGd=        -1.
 CalDSu:  NPrtUS=   8 ThrOK=T
 IPart= 0 IRanGd=          0 ScrnBf=T ScrnGd=T RCrit=4.00D+00 DoMicB=T.
 IPart= 3 IRanGd=          0 ScrnBf=T ScrnGd=T RCrit=4.00D+00 DoMicB=T.
 IPart= 2 IRanGd=          0 ScrnBf=T ScrnGd=T RCrit=4.00D+00 DoMicB=T.
 IPart= 7 IRanGd=          0 ScrnBf=T ScrnGd=T RCrit=4.00D+00 DoMicB=T.
 CutRad = 1000.00    CtRdIn =    0.00    XCrit =  15.00   ICut = 0
 IPart= 6 IRanGd=          0 ScrnBf=T ScrnGd=T RCrit=4.00D+00 DoMicB=T.
 IPart= 1 IRanGd=          0 ScrnBf=T ScrnGd=T RCrit=4.00D+00 DoMicB=T.
 CutRad = 1000.00    CtRdIn =    0.00    XCrit =  15.00   ICut = 0
 IPart= 5 IRanGd=          0 ScrnBf=T ScrnGd=T RCrit=4.00D+00 DoMicB=T.
 CutRad = 1000.00    CtRdIn =    0.00    XCrit =  15.00   ICut = 0
 CutRad = 1000.00    CtRdIn =    0.00    XCrit =  15.00   ICut = 0
 CutRad = 1000.00    CtRdIn =    0.00    XCrit =  15.00   ICut = 0
 CutRad = 1000.00    CtRdIn =    0.00    XCrit =  15.00   ICut = 0
 CutRad = 1000.00    CtRdIn =    0.00    XCrit =  15.00   ICut = 0
 IPart= 4 IRanGd=          0 ScrnBf=T ScrnGd=T RCrit=4.00D+00 DoMicB=T.
 CutRad = 1000.00    CtRdIn =    0.00    XCrit =  15.00   ICut = 0
 IPart= 2         6095 of         6454 points in      13 batches and       53 microbatches, Max-NSigAt=       7 Max-NSgAt2=       7
 IPart= 4         6847 of         7592 points in      15 batches and       37 microbatches, Max-NSigAt=       7 Max-NSgAt2=       7
 IPart= 7         6873 of         7576 points in      15 batches and       42 microbatches, Max-NSigAt=       7 Max-NSgAt2=       7
 IPart= 0         5967 of         6212 points in      11 batches and       43 microbatches, Max-NSigAt=       7 Max-NSgAt2=       7
 IPart= 5         6021 of         6496 points in      14 batches and       58 microbatches, Max-NSigAt=       7 Max-NSgAt2=       7
 IPart= 3         6363 of         6724 points in      13 batches and       42 microbatches, Max-NSigAt=       7 Max-NSgAt2=       7
 IPart= 6         6118 of         6554 points in      14 batches and       64 microbatches, Max-NSigAt=       7 Max-NSgAt2=       7
 IPart= 1         7213 of         8010 points in      17 batches and       44 microbatches, Max-NSigAt=       7 Max-NSgAt2=       7
 Polarizability after L703:
                1             2             3
      1  0.302565D+02
      2 -0.931318D+01  0.381547D+02
      3  0.000000D+00  0.000000D+00  0.219812D+02
 Dipole Derivatives after L703:
               1            2            3            4            5
      1-0.367254D+00-0.133595D+00 0.000000D+00-0.232676D+00 0.269897D+00
      2 0.599411D-01 0.532775D-01 0.000000D+00 0.484464D-01-0.107752D+00
      3 0.000000D+00 0.000000D+00 0.141012D+00 0.000000D+00 0.000000D+00
               6            7            8            9           10
      1 0.000000D+00 0.149323D+00 0.752573D-03-0.458211D-02 0.149323D+00
      2 0.000000D+00-0.750954D-02 0.812129D-02-0.776800D-01-0.750954D-02
      3 0.869391D-01-0.127247D-03-0.488511D-01-0.530115D-01 0.127246D-03
              11           12           13           14           15
      1 0.752573D-03 0.458211D-02 0.133542D+00-0.244992D-01-0.259547D-01
      2 0.812129D-02 0.776800D-01-0.357938D-01 0.301767D-01-0.598406D-01
      3 0.488511D-01-0.530115D-01-0.297581D-01-0.391517D-01-0.344578D-01
              16           17           18           19           20
      1 0.133542D+00-0.244992D-01 0.259547D-01 0.342000D-01-0.888088D-01
      2-0.357938D-01 0.301767D-01 0.598406D-01-0.217808D-01-0.221216D-01
      3 0.297581D-01 0.391517D-01-0.344578D-01 0.000000D+00 0.000000D+00
              21
      1 0.000000D+00
      2 0.000000D+00
      3-0.530120D-01
 Hessian after L703:
                1             2             3             4             5
      1  0.107481D+00
      2  0.126206D-01  0.767588D+00
      3  0.000000D+00  0.000000D+00  0.632953D+00
      4 -0.410880D-01 -0.499717D-01  0.000000D+00  0.565783D-01
      5 -0.104695D-01 -0.470581D+00  0.000000D+00  0.957261D-01  0.745645D+00
      6  0.000000D+00  0.000000D+00 -0.111032D+00  0.000000D+00  0.000000D+00
      7 -0.337263D-01 -0.444385D-02 -0.540850D-02  0.504867D-02  0.121857D-02
      8 -0.235606D-02 -0.128914D+00 -0.119909D+00 -0.143677D-02 -0.134367D-01
      9 -0.443107D-02 -0.124037D+00 -0.264969D+00  0.310375D-03  0.181694D-02
     10 -0.337263D-01 -0.444385D-02  0.540850D-02  0.504867D-02  0.121857D-02
     11 -0.235606D-02 -0.128914D+00  0.119909D+00 -0.143677D-02 -0.134367D-01
     12  0.443107D-02  0.124037D+00 -0.264969D+00 -0.310375D-03 -0.181694D-02
     13  0.358678D-02  0.685534D-02  0.397877D-03 -0.298354D-01 -0.245625D-01
     14 -0.255858D-02 -0.135716D-01 -0.297049D-01 -0.149488D-01 -0.127693D+00
     15  0.280546D-03  0.870962D-03  0.374140D-02 -0.213498D-01 -0.122069D+00
     16  0.358678D-02  0.685534D-02 -0.397877D-03 -0.298354D-01 -0.245625D-01
     17 -0.255858D-02 -0.135716D-01  0.297049D-01 -0.149488D-01 -0.127693D+00
     18 -0.280546D-03 -0.870962D-03  0.374140D-02  0.213498D-01  0.122069D+00
     19 -0.611388D-02  0.325281D-01  0.000000D+00  0.340831D-01 -0.385687D-01
     20  0.767812D-02 -0.120359D-01  0.000000D+00 -0.129832D-01  0.719491D-02
     21  0.000000D+00  0.000000D+00  0.534576D-03  0.000000D+00  0.000000D+00
                6             7             8             9            10
      6  0.635877D+00
      7  0.108383D-02  0.212262D-01
      8 -0.296868D-01  0.336477D-02  0.136000D+00
      9  0.382200D-02  0.504768D-02  0.134967D+00  0.274063D+00
     10 -0.108383D-02  0.338302D-02  0.164908D-03 -0.569985D-03  0.212262D-01
     11  0.296868D-01  0.164908D-03  0.968430D-02 -0.135601D-01  0.336477D-02
     12  0.382200D-02  0.569985D-03  0.135601D-01 -0.157212D-01 -0.504768D-02
     13 -0.219607D-01  0.109004D-01  0.156271D-03  0.876224D-04 -0.717396D-02
     14 -0.119438D+00 -0.630049D-03 -0.476340D-02  0.866393D-03  0.680513D-03
     15 -0.263667D+00 -0.623745D-03  0.847826D-03  0.157742D-02  0.491212D-03
     16  0.219607D-01 -0.717397D-02  0.143919D-03 -0.220655D-05  0.109004D-01
     17  0.119438D+00  0.680513D-03  0.135635D-02 -0.236864D-03 -0.630049D-03
     18 -0.263667D+00 -0.491212D-03  0.217229D-03  0.121972D-02  0.623745D-03
     19  0.000000D+00  0.341968D-03 -0.370371D-04 -0.442424D-03  0.341968D-03
     20  0.000000D+00 -0.354856D-03  0.735855D-04  0.183516D-03 -0.354856D-03
     21 -0.515631D-02 -0.178037D-03  0.408280D-05  0.851869D-05  0.178037D-03
               11            12            13            14            15
     11  0.136000D+00
     12 -0.134967D+00  0.274063D+00
     13  0.143919D-03  0.220660D-05  0.293568D-01
     14  0.135635D-02  0.236864D-03  0.147546D-01  0.135067D+00
     15 -0.217229D-03  0.121972D-02  0.227032D-01  0.134109D+00  0.272818D+00
     16  0.156271D-03 -0.876224D-04  0.155178D-02  0.224302D-02 -0.224156D-02
     17 -0.476340D-02 -0.866393D-03  0.224302D-02  0.931766D-02 -0.133126D-01
     18 -0.847826D-03  0.157742D-02  0.224156D-02  0.133126D-01 -0.158013D-01
     19 -0.370372D-04  0.442424D-03 -0.838645D-02  0.459309D-03  0.740172D-03
     20  0.735856D-04 -0.183516D-03  0.409408D-03  0.286461D-03 -0.229203D-03
     21 -0.408283D-05  0.851870D-05 -0.347178D-02  0.618171D-03  0.111912D-03
               16            17            18            19            20
     16  0.293568D-01
     17  0.147546D-01  0.135067D+00
     18 -0.227032D-01 -0.134109D+00  0.272818D+00
     19 -0.838645D-02  0.459309D-03 -0.740172D-03 -0.118803D-01
     20  0.409408D-03  0.286461D-03  0.229203D-03  0.519602D-02  0.412089D-02
     21  0.347178D-02 -0.618171D-03  0.111912D-03  0.000000D+00  0.000000D+00
               21
     21  0.438087D-02
 FrcOut:
 IF    =   311 IFX   =   332 IFXYZ =   353
 IFFX  =   374 IFFFX =   605 IFLen =    21
 IFFLen=   231 IFFFLn=     0 IEDerv=   605
 LEDerv=  1061 IFroze=  1670 ICStrt= 10593
 DipoleDeriv   =-3.67253863D-01 5.99410578D-02 1.18705328D-10
                -1.33594993D-01 5.32774793D-02-2.11857339D-09
                 8.84591488D-09-3.58752726D-09 1.41011587D-01
                -2.32675870D-01 4.84464155D-02-7.84181468D-10
                 2.69897137D-01-1.07751793D-01 1.24403287D-09
                -7.90628628D-09 4.43003389D-09 8.69390893D-02
                 1.49322534D-01-7.50953569D-03-1.27246880D-04
                 7.52573040D-04 8.12129373D-03-4.88511431D-02
                -4.58210840D-03-7.76799938D-02-5.30115397D-02
                 1.49322536D-01-7.50953839D-03 1.27245887D-04
                 7.52572796D-04 8.12129356D-03 4.88511443D-02
                 4.58210951D-03 7.76799931D-02-5.30115407D-02
                 1.33542347D-01-3.57938123D-02-2.97581009D-02
                -2.44992485D-02 3.01766577D-02-3.91517041D-02
                -2.59546804D-02-5.98405556D-02-3.44578097D-02
                 1.33542349D-01-3.57938141D-02 2.97581003D-02
                -2.44992436D-02 3.01766557D-02 3.91517047D-02
                 2.59546791D-02 5.98405555D-02-3.44578082D-02
                 3.41999669D-02-2.17807727D-02 2.22676234D-09
                -8.88087978D-02-2.21215870D-02-1.07920425D-09
                -7.80929516D-10-8.56110093D-11-5.30119778D-02
 Full mass-weighted force constant matrix:
 Low frequencies --- -757.8107   -0.0006    0.0002    0.0007   16.3076   67.1201
 Low frequencies ---  117.3243  417.9786  421.6561
 ******    1 imaginary frequencies (negative Signs) ****** 
 Dipole derivatives wrt mode   1: -3.53325D+00  9.20402D-01 -7.18543D-08
 Vibrational polarizability contributions from mode   1       0.5850054       0.0396979       0.0000000
 Vibrational hyperpolarizability contributions from mode   1       0.0000000       0.0000000       0.0000000
 Dipole derivatives wrt mode   2: -1.60531D+00 -6.15656D-01 -1.37303D-07
 Vibrational polarizability contributions from mode   2       0.3989746       0.0586817       0.0000000
 Vibrational hyperpolarizability contributions from mode   2       0.0000000       0.0000000       0.0000000
 Dipole derivatives wrt mode   3:  2.62965D-07  1.24369D-07 -6.41540D-01
 Vibrational polarizability contributions from mode   3       0.0000000       0.0000000       0.0629687
 Vibrational hyperpolarizability contributions from mode   3       0.0000000       0.0000000       0.0000000
 Dipole derivatives wrt mode   4:  7.48404D-08 -3.77658D-08  8.96513D-01
 Vibrational polarizability contributions from mode   4       0.0000000       0.0000000       0.0314134
 Vibrational hyperpolarizability contributions from mode   4       0.0000000       0.0000000       0.0000000
 Dipole derivatives wrt mode   5: -7.10241D+00  4.65377D-01  1.59449D-08
 Vibrational polarizability contributions from mode   5       1.5568950       0.0066843       0.0000000
 Vibrational hyperpolarizability contributions from mode   5       0.0000000       0.0000000       0.0000000
 Dipole derivatives wrt mode   6: -6.37512D+00  1.51495D+00  3.60286D-08
 Vibrational polarizability contributions from mode   6       1.1100229       0.0626833       0.0000000
 Vibrational hyperpolarizability contributions from mode   6       0.0000000       0.0000000       0.0000000
 Dipole derivatives wrt mode   7: -1.06696D-07  7.61409D-08 -5.56073D-01
 Vibrational polarizability contributions from mode   7       0.0000000       0.0000000       0.0077756
 Vibrational hyperpolarizability contributions from mode   7       0.0000000       0.0000000       0.0000000
 Dipole derivatives wrt mode   8:  1.21416D-07 -3.71685D-08  6.27662D-02
 Vibrational polarizability contributions from mode   8       0.0000000       0.0000000       0.0000693
 Vibrational hyperpolarizability contributions from mode   8       0.0000000       0.0000000       0.0000000
 Dipole derivatives wrt mode   9: -9.65176D-01  1.27315D-01 -1.01920D-08
 Vibrational polarizability contributions from mode   9       0.0139669       0.0002430       0.0000000
 Vibrational hyperpolarizability contributions from mode   9       0.0000000       0.0000000       0.0000000
 Dipole derivatives wrt mode  10: -2.29277D-01 -3.19864D+00 -2.51509D-08
 Vibrational polarizability contributions from mode  10       0.0006549       0.1274609       0.0000000
 Vibrational hyperpolarizability contributions from mode  10       0.0000000       0.0000000       0.0000000
 Dipole derivatives wrt mode  11: -1.40477D+00  6.57460D-01  1.62910D-09
 Vibrational polarizability contributions from mode  11       0.0203229       0.0044516       0.0000000
 Vibrational hyperpolarizability contributions from mode  11       0.0000000       0.0000000       0.0000000
 Dipole derivatives wrt mode  12: -7.31448D-01 -3.13303D+00  6.93556D-09
 Vibrational polarizability contributions from mode  12       0.0014670       0.0269157       0.0000000
 Vibrational hyperpolarizability contributions from mode  12       0.0000000       0.0000000       0.0000000
 Dipole derivatives wrt mode  13: -1.32323D+00  6.42881D-01 -5.34362D-08
 Vibrational polarizability contributions from mode  13       0.0047731       0.0011267       0.0000000
 Vibrational hyperpolarizability contributions from mode  13       0.0000000       0.0000000       0.0000000
 Dipole derivatives wrt mode  14:  2.85415D-08 -1.10742D-08 -6.55891D-01
 Vibrational polarizability contributions from mode  14       0.0000000       0.0000000       0.0011254
 Vibrational hyperpolarizability contributions from mode  14       0.0000000       0.0000000       0.0000000
 Dipole derivatives wrt mode  15:  3.64481D-08 -1.10446D-08  4.09660D+00
 Vibrational polarizability contributions from mode  15       0.0000000       0.0000000       0.0431761
 Vibrational hyperpolarizability contributions from mode  15       0.0000000       0.0000000       0.0000000
 Diagonal vibrational polarizability:
        3.6920828       0.3279451       0.1465285
 Harmonic frequencies (cm**-1), IR intensities (KM/Mole), Raman scattering
 activities (A**4/AMU), depolarization ratios for plane and unpolarized
 incident light, reduced masses (AMU), force constants (mDyne/A),
 and normal coordinates:
                           1         2         3         4         5
                          A'        A'        A"        A"        A'
       Frequencies ---  -757.8102  416.9201  419.3996  829.7858  933.7761
    Reduced masses ---     1.1606    1.1763    1.0423    1.0428    1.3605
   Force constants ---     0.3927    0.1205    0.1080    0.4230    0.6989
    IR Intensities ---    13.3310    2.9561    0.4116    0.8037   50.6608
 Coord Atom Element:
   1     1     6         -0.00862   0.06653   0.00000   0.00000   0.17180
   2     1     6          0.02248  -0.03343   0.00000   0.00000  -0.00931
   3     1     6          0.00000   0.00000   0.00350  -0.03935   0.00000
   1     2     6          0.10626  -0.09357   0.00000   0.00000  -0.04981
   2     2     6         -0.04506  -0.03201   0.00000   0.00000   0.00120
   3     2     6          0.00000   0.00000  -0.05587  -0.04038   0.00000
   1     3     1          0.00257   0.18205   0.43683  -0.06939  -0.69168
   2     3     1          0.01197  -0.04047  -0.05202  -0.43501   0.00612
   3     3     1          0.00284   0.00094   0.02594   0.23505   0.00751
   1     4     1          0.00257   0.18205  -0.43683   0.06939  -0.69168
   2     4     1          0.01197  -0.04047   0.05202   0.43501   0.00612
   3     4     1         -0.00284  -0.00094   0.02594   0.23505  -0.00751
   1     5     1         -0.11292  -0.10513  -0.27070  -0.05504   0.00104
   2     5     1         -0.01253  -0.03425   0.03500  -0.43552   0.00446
   3     5     1          0.00427   0.00188  -0.05113   0.23749  -0.00605
   1     6     1         -0.11292  -0.10513   0.27070   0.05504   0.00104
   2     6     1         -0.01253  -0.03425  -0.03500   0.43552   0.00446
   3     6     1         -0.00427  -0.00188  -0.05113   0.23749   0.00605
   1     7     1         -0.94184   0.16806   0.00000   0.00000  -0.07135
   2     7     1          0.26993   0.92866   0.00000   0.00000   0.07540
   3     7     1          0.00000   0.00000   0.67397   0.00432   0.00000
                           6         7         8         9        10
                          A'        A"        A"        A'        A'
       Frequencies ---   992.6338 1034.5006 1236.5749 1339.7476 1469.7477
    Reduced masses ---     1.1589    1.0125    1.5067    1.4315    1.1128
   Force constants ---     0.6728    0.6384    1.3575    1.5139    1.4163
    IR Intensities ---    42.9373    0.3092    0.0039    0.9478   10.2838
 Coord Atom Element:
   1     1     6         -0.01627   0.00000   0.00000   0.00718   0.00188
   2     1     6          0.00161   0.00000   0.00000   0.14095   0.06770
   3     1     6          0.00000  -0.01157   0.15083   0.00000   0.00000
   1     2     6          0.11491   0.00000   0.00000  -0.01394   0.00851
   2     2     6         -0.01638   0.00000   0.00000  -0.13576   0.06992
   3     2     6          0.00000   0.01696  -0.15047   0.00000   0.00000
   1     3     1         -0.09129   0.43123   0.02585  -0.00626  -0.01201
   2     3     1          0.01208  -0.07271   0.46276   0.44877  -0.41717
   3     3     1         -0.00316   0.02423  -0.14108  -0.16448   0.28513
   1     4     1         -0.09129  -0.43123  -0.02585  -0.00626  -0.01201
   2     4     1          0.01208   0.07271  -0.46276   0.44877  -0.41717
   3     4     1          0.00316   0.02423  -0.14108   0.16448  -0.28513
   1     5     1         -0.65378   0.54655   0.04577  -0.01099  -0.05223
   2     5     1          0.08407  -0.05648  -0.46997  -0.46249  -0.39763
   3     5     1          0.01364  -0.00132   0.14006   0.17614   0.28082
   1     6     1         -0.65378  -0.54655  -0.04577  -0.01099  -0.05223
   2     6     1          0.08407   0.05648   0.46997  -0.46249  -0.39763
   3     6     1         -0.01364  -0.00132   0.14006  -0.17614  -0.28082
   1     7     1          0.31566   0.00000   0.00000   0.11495   0.00475
   2     7     1         -0.01644   0.00000   0.00000  -0.03437  -0.00905
   3     7     1          0.00000  -0.10992  -0.00223   0.00000   0.00000
                          11        12        13        14        15
                          A'        A'        A'        A"        A"
       Frequencies ---  1616.5072 3132.7733 3141.9567 3207.3919 3234.2090
    Reduced masses ---     2.2243    1.0481    1.0663    1.1151    1.1178
   Force constants ---     3.4246    6.0608    6.2022    6.7586    6.8889
    IR Intensities ---     2.4056   10.3509    2.1642    0.4302   16.7821
 Coord Atom Element:
   1     1     6          0.00302  -0.00154   0.00130   0.00000   0.00000
   2     1     6          0.23604  -0.04761   0.04694   0.00000   0.00000
   3     1     6          0.00000   0.00000   0.00000  -0.06988   0.07077
   1     2     6         -0.02366  -0.00613  -0.00861   0.00000   0.00000
   2     2     6         -0.23321  -0.03691  -0.05517   0.00000   0.00000
   3     2     6          0.00000   0.00000   0.00000   0.06981   0.07069
   1     3     1         -0.00865   0.00966  -0.00779   0.00989  -0.00914
   2     3     1         -0.30275   0.27695  -0.22735   0.26364  -0.26426
   3     3     1          0.34982   0.47076  -0.38312   0.42175  -0.42144
   1     4     1         -0.00865   0.00966  -0.00779  -0.00989   0.00914
   2     4     1         -0.30275   0.27695  -0.22735  -0.26364   0.26426
   3     4     1         -0.34982  -0.47076   0.38312   0.42175  -0.42144
   1     5     1          0.06899   0.03673   0.04636  -0.04140  -0.04170
   2     5     1          0.30211   0.22545   0.27767  -0.26247  -0.26300
   3     5     1         -0.35521   0.38415   0.46852  -0.42077  -0.42020
   1     6     1          0.06899   0.03673   0.04636   0.04140   0.04170
   2     6     1          0.30211   0.22545   0.27767   0.26247   0.26300
   3     6     1          0.35521  -0.38415  -0.46852  -0.42077  -0.42020
   1     7     1          0.12506  -0.00154   0.00992   0.00000   0.00000
   2     7     1         -0.03250   0.00147  -0.00266   0.00000   0.00000
   3     7     1          0.00000   0.00000   0.00000  -0.00121  -0.00105
 Harmonic frequencies (cm**-1), IR intensities (KM/Mole), Raman scattering
 activities (A**4/AMU), depolarization ratios for plane and unpolarized
 incident light, reduced masses (AMU), force constants (mDyne/A),
 and normal coordinates:
                     1                      2                      3
                    A'                     A'                     A"
 Frequencies --  -757.8102               416.9201               419.3996
 Red. masses --     1.1606                 1.1763                 1.0423
 Frc consts  --     0.3927                 0.1205                 0.1080
 IR Inten    --    13.3310                 2.9561                 0.4116
 Atom AN      X      Y      Z        X      Y      Z        X      Y      Z
   1   6    -0.01   0.02   0.00     0.07  -0.03   0.00     0.00   0.00   0.00
   2   6     0.11  -0.05   0.00    -0.09  -0.03   0.00     0.00   0.00  -0.06
   3   1     0.00   0.01   0.00     0.18  -0.04   0.00     0.44  -0.05   0.03
   4   1     0.00   0.01   0.00     0.18  -0.04   0.00    -0.44   0.05   0.03
   5   1    -0.11  -0.01   0.00    -0.11  -0.03   0.00    -0.27   0.03  -0.05
   6   1    -0.11  -0.01   0.00    -0.11  -0.03   0.00     0.27  -0.03  -0.05
   7   1    -0.94   0.27   0.00     0.17   0.93   0.00     0.00   0.00   0.67
                     4                      5                      6
                    A"                     A'                     A'
 Frequencies --   829.7858               933.7761               992.6338
 Red. masses --     1.0428                 1.3605                 1.1589
 Frc consts  --     0.4230                 0.6989                 0.6728
 IR Inten    --     0.8037                50.6608                42.9373
 Atom AN      X      Y      Z        X      Y      Z        X      Y      Z
   1   6     0.00   0.00  -0.04     0.17  -0.01   0.00    -0.02   0.00   0.00
   2   6     0.00   0.00  -0.04    -0.05   0.00   0.00     0.11  -0.02   0.00
   3   1    -0.07  -0.44   0.24    -0.69   0.01   0.01    -0.09   0.01   0.00
   4   1     0.07   0.44   0.24    -0.69   0.01  -0.01    -0.09   0.01   0.00
   5   1    -0.06  -0.44   0.24     0.00   0.00  -0.01    -0.65   0.08   0.01
   6   1     0.06   0.44   0.24     0.00   0.00   0.01    -0.65   0.08  -0.01
   7   1     0.00   0.00   0.00    -0.07   0.08   0.00     0.32  -0.02   0.00
                     7                      8                      9
                    A"                     A"                     A'
 Frequencies --  1034.5006              1236.5749              1339.7476
 Red. masses --     1.0125                 1.5067                 1.4315
 Frc consts  --     0.6384                 1.3575                 1.5139
 IR Inten    --     0.3092                 0.0039                 0.9478
 Atom AN      X      Y      Z        X      Y      Z        X      Y      Z
   1   6     0.00   0.00  -0.01     0.00   0.00   0.15     0.01   0.14   0.00
   2   6     0.00   0.00   0.02     0.00   0.00  -0.15    -0.01  -0.14   0.00
   3   1     0.43  -0.07   0.02     0.03   0.46  -0.14    -0.01   0.45  -0.16
   4   1    -0.43   0.07   0.02    -0.03  -0.46  -0.14    -0.01   0.45   0.16
   5   1     0.55  -0.06   0.00     0.05  -0.47   0.14    -0.01  -0.46   0.18
   6   1    -0.55   0.06   0.00    -0.05   0.47   0.14    -0.01  -0.46  -0.18
   7   1     0.00   0.00  -0.11     0.00   0.00   0.00     0.11  -0.03   0.00
                    10                     11                     12
                    A'                     A'                     A'
 Frequencies --  1469.7477              1616.5072              3132.7733
 Red. masses --     1.1128                 2.2243                 1.0481
 Frc consts  --     1.4163                 3.4246                 6.0608
 IR Inten    --    10.2838                 2.4056                10.3509
 Atom AN      X      Y      Z        X      Y      Z        X      Y      Z
   1   6     0.00   0.07   0.00     0.00   0.24   0.00     0.00  -0.05   0.00
   2   6     0.01   0.07   0.00    -0.02  -0.23   0.00    -0.01  -0.04   0.00
   3   1    -0.01  -0.42   0.29    -0.01  -0.30   0.35     0.01   0.28   0.47
   4   1    -0.01  -0.42  -0.29    -0.01  -0.30  -0.35     0.01   0.28  -0.47
   5   1    -0.05  -0.40   0.28     0.07   0.30  -0.36     0.04   0.23   0.38
   6   1    -0.05  -0.40  -0.28     0.07   0.30   0.36     0.04   0.23  -0.38
   7   1     0.00  -0.01   0.00     0.13  -0.03   0.00     0.00   0.00   0.00
                    13                     14                     15
                    A'                     A"                     A"
 Frequencies --  3141.9567              3207.3919              3234.2090
 Red. masses --     1.0663                 1.1151                 1.1178
 Frc consts  --     6.2022                 6.7586                 6.8889
 IR Inten    --     2.1642                 0.4302                16.7821
 Atom AN      X      Y      Z        X      Y      Z        X      Y      Z
   1   6     0.00   0.05   0.00     0.00   0.00  -0.07     0.00   0.00   0.07
   2   6    -0.01  -0.06   0.00     0.00   0.00   0.07     0.00   0.00   0.07
   3   1    -0.01  -0.23  -0.38     0.01   0.26   0.42    -0.01  -0.26  -0.42
   4   1    -0.01  -0.23   0.38    -0.01  -0.26   0.42     0.01   0.26  -0.42
   5   1     0.05   0.28   0.47    -0.04  -0.26  -0.42    -0.04  -0.26  -0.42
   6   1     0.05   0.28  -0.47     0.04   0.26  -0.42     0.04   0.26  -0.42
   7   1     0.01   0.00   0.00     0.00   0.00   0.00     0.00   0.00   0.00

 -------------------
 - Thermochemistry -
 -------------------
 Temperature   298.150 Kelvin.  Pressure   1.00000 Atm.
 Atom  1 has atomic number  6 and mass  12.00000
 Atom  2 has atomic number  6 and mass  12.00000
 Atom  3 has atomic number  1 and mass   1.00783
 Atom  4 has atomic number  1 and mass   1.00783
 Atom  5 has atomic number  1 and mass   1.00783
 Atom  6 has atomic number  1 and mass   1.00783
 Atom  7 has atomic number  1 and mass   1.00783
 Molecular mass:    29.03913 amu.
 Principal axes and moments of inertia in atomic units:
                           1         2         3
     EIGENVALUES --    24.23011  79.07659  79.31819
           X           -0.13160   0.00000   0.99130
           Y            0.99130   0.00000   0.13160
           Z            0.00000   1.00000   0.00000
 This molecule is an asymmetric top.
 Rotational symmetry number  1.
 Rotational temperatures (Kelvin)      3.57464     1.09532     1.09198
 Rotational constants (GHZ):          74.48342    22.82270    22.75318
    1 imaginary frequencies ignored.
 Zero-point vibrational energy     137606.0 (Joules/Mol)
                                   32.88862 (Kcal/Mol)
 Warning -- explicit consideration of   2 degrees of freedom as
           vibrations may cause significant error
 Vibrational temperatures:    599.85   603.42  1193.88  1343.49  1428.18
          (Kelvin)           1488.41  1779.15  1927.60  2114.64  2325.79
                             4507.36  4520.57  4614.72  4653.30
 
 Zero-point correction=                           0.052411 (Hartree/Particle)
 Thermal correction to Energy=                    0.056049
 Thermal correction to Enthalpy=                  0.056993
 Thermal correction to Gibbs Free Energy=         0.028757
 Sum of electronic and zero-point Energies=            -79.064202
 Sum of electronic and thermal Energies=               -79.060565
 Sum of electronic and thermal Enthalpies=             -79.059621
 Sum of electronic and thermal Free Energies=          -79.087857
 
                     E (Thermal)             CV                S
                      KCal/Mol        Cal/Mol-Kelvin    Cal/Mol-Kelvin
 Total                   35.171             11.053             59.428
 Electronic               0.000              0.000              1.377
 Translational            0.889              2.981             36.032
 Rotational               0.889              2.981             19.658
 Vibrational             33.394              5.091              2.360
 Vibration  1             0.780              1.433              0.902
 Vibration  2             0.782              1.428              0.894
                       Q            Log10(Q)             Ln(Q)
 Total Bot       0.592686D-13        -13.227175        -30.456697
 Total V=0       0.759141D+11         10.880322         25.052868
 Vib (Bot)       0.109177D-23        -23.961870        -55.174245
 Vib (Bot)  1    0.422148D+00         -0.374536         -0.862400
 Vib (Bot)  2    0.418861D+00         -0.377931         -0.870217
 Vib (V=0)       0.139839D+01          0.145627          0.335320
 Vib (V=0)  1    0.115438D+01          0.062347          0.143560
 Vib (V=0)  2    0.115226D+01          0.061551          0.141726
 Electronic      0.200000D+01          0.301030          0.693147
 Translational   0.615078D+07          6.788930         15.632090
 Rotational      0.441300D+04          3.644734          8.392311
 -------------------------------------------------------------------
 Center     Atomic                   Forces (Hartrees/Bohr)
 Number     Number              X              Y              Z
 -------------------------------------------------------------------
    1          6          -0.000068956    0.000022783    0.000000000
    2          6           0.004467741   -0.001478892    0.000000000
    3          1           0.000008209   -0.000005902    0.000048102
    4          1           0.000008209   -0.000005902   -0.000048102
    5          1           0.000002697    0.000096866   -0.000159802
    6          1           0.000002697    0.000096866    0.000159802
    7          1          -0.004420597    0.001274180    0.000000000
 -------------------------------------------------------------------
 Cartesian Forces:  Max     0.004467741 RMS     0.001437475
 ------------------------------------------------------------------------
           Internal Coordinate Forces (Hartree/Bohr or radian)
 Cent Atom N1     Length/X     N2     Alpha/Y      N3      Beta/Z       J
 ------------------------------------------------------------------------
   1  C        -0.000069(   1)      0.000023(   8)      0.000000(  15)
   2  C         0.004468(   2)     -0.001479(   9)      0.000000(  16)
   3  H         0.000008(   3)     -0.000006(  10)      0.000048(  17)
   4  H         0.000008(   4)     -0.000006(  11)     -0.000048(  18)
   5  H         0.000003(   5)      0.000097(  12)     -0.000160(  19)
   6  H         0.000003(   6)      0.000097(  13)      0.000160(  20)
   7  H        -0.004421(   7)      0.001274(  14)      0.000000(  21)
 ------------------------------------------------------------------------
 Internal  Forces:  Max     0.004467741 RMS     0.001437475
 Force constants in Cartesian coordinates: 
                1             2             3             4             5
      1  0.107481D+00
      2  0.126206D-01  0.767588D+00
      3  0.000000D+00  0.000000D+00  0.632953D+00
      4 -0.410880D-01 -0.499717D-01  0.000000D+00  0.565783D-01
      5 -0.104695D-01 -0.470581D+00  0.000000D+00  0.957261D-01  0.745645D+00
      6  0.000000D+00  0.000000D+00 -0.111032D+00  0.000000D+00  0.000000D+00
      7 -0.337263D-01 -0.444385D-02 -0.540850D-02  0.504867D-02  0.121857D-02
      8 -0.235606D-02 -0.128914D+00 -0.119909D+00 -0.143677D-02 -0.134367D-01
      9 -0.443107D-02 -0.124037D+00 -0.264969D+00  0.310375D-03  0.181694D-02
     10 -0.337263D-01 -0.444385D-02  0.540850D-02  0.504867D-02  0.121857D-02
     11 -0.235606D-02 -0.128914D+00  0.119909D+00 -0.143677D-02 -0.134367D-01
     12  0.443107D-02  0.124037D+00 -0.264969D+00 -0.310375D-03 -0.181694D-02
     13  0.358678D-02  0.685534D-02  0.397877D-03 -0.298354D-01 -0.245625D-01
     14 -0.255858D-02 -0.135716D-01 -0.297049D-01 -0.149488D-01 -0.127693D+00
     15  0.280546D-03  0.870962D-03  0.374140D-02 -0.213498D-01 -0.122069D+00
     16  0.358678D-02  0.685534D-02 -0.397877D-03 -0.298354D-01 -0.245625D-01
     17 -0.255858D-02 -0.135716D-01  0.297049D-01 -0.149488D-01 -0.127693D+00
     18 -0.280546D-03 -0.870962D-03  0.374140D-02  0.213498D-01  0.122069D+00
     19 -0.611388D-02  0.325281D-01  0.000000D+00  0.340831D-01 -0.385687D-01
     20  0.767812D-02 -0.120359D-01  0.000000D+00 -0.129832D-01  0.719491D-02
     21  0.000000D+00  0.000000D+00  0.534576D-03  0.000000D+00  0.000000D+00
                6             7             8             9            10
      6  0.635877D+00
      7  0.108383D-02  0.212262D-01
      8 -0.296868D-01  0.336477D-02  0.136000D+00
      9  0.382200D-02  0.504768D-02  0.134967D+00  0.274063D+00
     10 -0.108383D-02  0.338302D-02  0.164908D-03 -0.569985D-03  0.212262D-01
     11  0.296868D-01  0.164908D-03  0.968430D-02 -0.135601D-01  0.336477D-02
     12  0.382200D-02  0.569985D-03  0.135601D-01 -0.157212D-01 -0.504768D-02
     13 -0.219607D-01  0.109004D-01  0.156271D-03  0.876224D-04 -0.717396D-02
     14 -0.119438D+00 -0.630049D-03 -0.476340D-02  0.866393D-03  0.680513D-03
     15 -0.263667D+00 -0.623745D-03  0.847826D-03  0.157742D-02  0.491212D-03
     16  0.219607D-01 -0.717397D-02  0.143919D-03 -0.220655D-05  0.109004D-01
     17  0.119438D+00  0.680513D-03  0.135635D-02 -0.236864D-03 -0.630049D-03
     18 -0.263667D+00 -0.491212D-03  0.217229D-03  0.121972D-02  0.623745D-03
     19  0.000000D+00  0.341968D-03 -0.370371D-04 -0.442424D-03  0.341968D-03
     20  0.000000D+00 -0.354856D-03  0.735855D-04  0.183516D-03 -0.354856D-03
     21 -0.515631D-02 -0.178037D-03  0.408280D-05  0.851869D-05  0.178037D-03
               11            12            13            14            15
     11  0.136000D+00
     12 -0.134967D+00  0.274063D+00
     13  0.143919D-03  0.220660D-05  0.293568D-01
     14  0.135635D-02  0.236864D-03  0.147546D-01  0.135067D+00
     15 -0.217229D-03  0.121972D-02  0.227032D-01  0.134109D+00  0.272818D+00
     16  0.156271D-03 -0.876224D-04  0.155178D-02  0.224302D-02 -0.224156D-02
     17 -0.476340D-02 -0.866393D-03  0.224302D-02  0.931766D-02 -0.133126D-01
     18 -0.847826D-03  0.157742D-02  0.224156D-02  0.133126D-01 -0.158013D-01
     19 -0.370372D-04  0.442424D-03 -0.838645D-02  0.459309D-03  0.740172D-03
     20  0.735856D-04 -0.183516D-03  0.409408D-03  0.286461D-03 -0.229203D-03
     21 -0.408283D-05  0.851870D-05 -0.347178D-02  0.618171D-03  0.111912D-03
               16            17            18            19            20
     16  0.293568D-01
     17  0.147546D-01  0.135067D+00
     18 -0.227032D-01 -0.134109D+00  0.272818D+00
     19 -0.838645D-02  0.459309D-03 -0.740172D-03 -0.118803D-01
     20  0.409408D-03  0.286461D-03  0.229203D-03  0.519602D-02  0.412089D-02
     21  0.347178D-02 -0.618171D-03  0.111912D-03  0.000000D+00  0.000000D+00
               21
     21  0.438087D-02
 FCInt: Cartesian first derivatives: 
               1            2            3            4            5
      1-0.689558D-04 0.446774D-02 0.820906D-05 0.820906D-05 0.269708D-05
      2 0.227835D-04-0.147889D-02-0.590233D-05-0.590233D-05 0.968665D-04
      3 0.000000D+00 0.000000D+00 0.481016D-04-0.481016D-04-0.159802D-03
               6            7
      1 0.269708D-05-0.442060D-02
      2 0.968665D-04 0.127418D-02
      3 0.159802D-03 0.000000D+00
 FCInt: Cartesian force constants: 
                1             2             3             4             5
      1  0.107481D+00
      2  0.126206D-01  0.767588D+00
      3  0.000000D+00  0.000000D+00  0.632953D+00
      4 -0.410880D-01 -0.499717D-01  0.000000D+00  0.565783D-01
      5 -0.104695D-01 -0.470581D+00  0.000000D+00  0.957261D-01  0.745645D+00
      6  0.000000D+00  0.000000D+00 -0.111032D+00  0.000000D+00  0.000000D+00
      7 -0.337263D-01 -0.444385D-02 -0.540850D-02  0.504867D-02  0.121857D-02
      8 -0.235606D-02 -0.128914D+00 -0.119909D+00 -0.143677D-02 -0.134367D-01
      9 -0.443107D-02 -0.124037D+00 -0.264969D+00  0.310375D-03  0.181694D-02
     10 -0.337263D-01 -0.444385D-02  0.540850D-02  0.504867D-02  0.121857D-02
     11 -0.235606D-02 -0.128914D+00  0.119909D+00 -0.143677D-02 -0.134367D-01
     12  0.443107D-02  0.124037D+00 -0.264969D+00 -0.310375D-03 -0.181694D-02
     13  0.358678D-02  0.685534D-02  0.397877D-03 -0.298354D-01 -0.245625D-01
     14 -0.255858D-02 -0.135716D-01 -0.297049D-01 -0.149488D-01 -0.127693D+00
     15  0.280546D-03  0.870962D-03  0.374140D-02 -0.213498D-01 -0.122069D+00
     16  0.358678D-02  0.685534D-02 -0.397877D-03 -0.298354D-01 -0.245625D-01
     17 -0.255858D-02 -0.135716D-01  0.297049D-01 -0.149488D-01 -0.127693D+00
     18 -0.280546D-03 -0.870962D-03  0.374140D-02  0.213498D-01  0.122069D+00
     19 -0.611388D-02  0.325281D-01  0.000000D+00  0.340831D-01 -0.385687D-01
     20  0.767812D-02 -0.120359D-01  0.000000D+00 -0.129832D-01  0.719491D-02
     21  0.000000D+00  0.000000D+00  0.534576D-03  0.000000D+00  0.000000D+00
                6             7             8             9            10
      6  0.635877D+00
      7  0.108383D-02  0.212262D-01
      8 -0.296868D-01  0.336477D-02  0.136000D+00
      9  0.382200D-02  0.504768D-02  0.134967D+00  0.274063D+00
     10 -0.108383D-02  0.338302D-02  0.164908D-03 -0.569985D-03  0.212262D-01
     11  0.296868D-01  0.164908D-03  0.968430D-02 -0.135601D-01  0.336477D-02
     12  0.382200D-02  0.569985D-03  0.135601D-01 -0.157212D-01 -0.504768D-02
     13 -0.219607D-01  0.109004D-01  0.156271D-03  0.876224D-04 -0.717396D-02
     14 -0.119438D+00 -0.630049D-03 -0.476340D-02  0.866393D-03  0.680513D-03
     15 -0.263667D+00 -0.623745D-03  0.847826D-03  0.157742D-02  0.491212D-03
     16  0.219607D-01 -0.717397D-02  0.143919D-03 -0.220655D-05  0.109004D-01
     17  0.119438D+00  0.680513D-03  0.135635D-02 -0.236864D-03 -0.630049D-03
     18 -0.263667D+00 -0.491212D-03  0.217229D-03  0.121972D-02  0.623745D-03
     19  0.000000D+00  0.341968D-03 -0.370371D-04 -0.442424D-03  0.341968D-03
     20  0.000000D+00 -0.354856D-03  0.735855D-04  0.183516D-03 -0.354856D-03
     21 -0.515631D-02 -0.178037D-03  0.408280D-05  0.851869D-05  0.178037D-03
               11            12            13            14            15
     11  0.136000D+00
     12 -0.134967D+00  0.274063D+00
     13  0.143919D-03  0.220660D-05  0.293568D-01
     14  0.135635D-02  0.236864D-03  0.147546D-01  0.135067D+00
     15 -0.217229D-03  0.121972D-02  0.227032D-01  0.134109D+00  0.272818D+00
     16  0.156271D-03 -0.876224D-04  0.155178D-02  0.224302D-02 -0.224156D-02
     17 -0.476340D-02 -0.866393D-03  0.224302D-02  0.931766D-02 -0.133126D-01
     18 -0.847826D-03  0.157742D-02  0.224156D-02  0.133126D-01 -0.158013D-01
     19 -0.370372D-04  0.442424D-03 -0.838645D-02  0.459309D-03  0.740172D-03
     20  0.735856D-04 -0.183516D-03  0.409408D-03  0.286461D-03 -0.229203D-03
     21 -0.408283D-05  0.851870D-05 -0.347178D-02  0.618171D-03  0.111912D-03
               16            17            18            19            20
     16  0.293568D-01
     17  0.147546D-01  0.135067D+00
     18 -0.227032D-01 -0.134109D+00  0.272818D+00
     19 -0.838645D-02  0.459309D-03 -0.740172D-03 -0.118803D-01
     20  0.409408D-03  0.286461D-03  0.229203D-03  0.519602D-02  0.412089D-02
     21  0.347178D-02 -0.618171D-03  0.111912D-03  0.000000D+00  0.000000D+00
               21
     21  0.438087D-02
 Internal force constants: 
                1             2             3             4             5
      1  0.107481D+00
      2 -0.410880D-01  0.565783D-01
      3 -0.337263D-01  0.504867D-02  0.212262D-01
      4 -0.337263D-01  0.504867D-02  0.338302D-02  0.212262D-01
      5  0.358678D-02 -0.298354D-01  0.109004D-01 -0.717396D-02  0.293568D-01
      6  0.358678D-02 -0.298354D-01 -0.717397D-02  0.109004D-01  0.155178D-02
      7 -0.611388D-02  0.340831D-01  0.341968D-03  0.341968D-03 -0.838645D-02
      8  0.126206D-01 -0.499717D-01 -0.444385D-02 -0.444385D-02  0.685534D-02
      9 -0.104695D-01  0.957261D-01  0.121857D-02  0.121857D-02 -0.245625D-01
     10 -0.235606D-02 -0.143677D-02  0.336477D-02  0.164908D-03  0.156271D-03
     11 -0.235606D-02 -0.143677D-02  0.164908D-03  0.336477D-02  0.143919D-03
     12 -0.255858D-02 -0.149488D-01 -0.630049D-03  0.680513D-03  0.147546D-01
     13 -0.255858D-02 -0.149488D-01  0.680513D-03 -0.630049D-03  0.224302D-02
     14  0.767812D-02 -0.129832D-01 -0.354856D-03 -0.354856D-03  0.409408D-03
     15  0.000000D+00  0.000000D+00 -0.540850D-02  0.540850D-02  0.397877D-03
     16  0.000000D+00  0.000000D+00  0.108383D-02 -0.108383D-02 -0.219607D-01
     17 -0.443107D-02  0.310375D-03  0.504768D-02 -0.569985D-03  0.876224D-04
     18  0.443107D-02 -0.310375D-03  0.569985D-03 -0.504768D-02  0.220660D-05
     19  0.280546D-03 -0.213498D-01 -0.623745D-03  0.491212D-03  0.227032D-01
     20 -0.280546D-03  0.213498D-01 -0.491212D-03  0.623745D-03  0.224156D-02
     21  0.000000D+00  0.000000D+00 -0.178037D-03  0.178037D-03 -0.347178D-02
                6             7             8             9            10
      6  0.293568D-01
      7 -0.838645D-02 -0.118803D-01
      8  0.685534D-02  0.325281D-01  0.767588D+00
      9 -0.245625D-01 -0.385687D-01 -0.470581D+00  0.745645D+00
     10  0.143919D-03 -0.370371D-04 -0.128914D+00 -0.134367D-01  0.136000D+00
     11  0.156271D-03 -0.370372D-04 -0.128914D+00 -0.134367D-01  0.968430D-02
     12  0.224302D-02  0.459309D-03 -0.135716D-01 -0.127693D+00 -0.476340D-02
     13  0.147546D-01  0.459309D-03 -0.135716D-01 -0.127693D+00  0.135635D-02
     14  0.409408D-03  0.519602D-02 -0.120359D-01  0.719491D-02  0.735855D-04
     15 -0.397877D-03  0.000000D+00  0.000000D+00  0.000000D+00 -0.119909D+00
     16  0.219607D-01  0.000000D+00  0.000000D+00  0.000000D+00 -0.296868D-01
     17 -0.220655D-05 -0.442424D-03 -0.124037D+00  0.181694D-02  0.134967D+00
     18 -0.876224D-04  0.442424D-03  0.124037D+00 -0.181694D-02  0.135601D-01
     19 -0.224156D-02  0.740172D-03  0.870962D-03 -0.122069D+00  0.847826D-03
     20 -0.227032D-01 -0.740172D-03 -0.870962D-03  0.122069D+00  0.217229D-03
     21  0.347178D-02  0.000000D+00  0.000000D+00  0.000000D+00  0.408280D-05
               11            12            13            14            15
     11  0.136000D+00
     12  0.135635D-02  0.135067D+00
     13 -0.476340D-02  0.931766D-02  0.135067D+00
     14  0.735856D-04  0.286461D-03  0.286461D-03  0.412089D-02
     15  0.119909D+00 -0.297049D-01  0.297049D-01  0.000000D+00  0.632953D+00
     16  0.296868D-01 -0.119438D+00  0.119438D+00  0.000000D+00 -0.111032D+00
     17 -0.135601D-01  0.866393D-03 -0.236864D-03  0.183516D-03 -0.264969D+00
     18 -0.134967D+00  0.236864D-03 -0.866393D-03 -0.183516D-03 -0.264969D+00
     19 -0.217229D-03  0.134109D+00 -0.133126D-01 -0.229203D-03  0.374140D-02
     20 -0.847826D-03  0.133126D-01 -0.134109D+00  0.229203D-03  0.374140D-02
     21 -0.408283D-05  0.618171D-03 -0.618171D-03  0.000000D+00  0.534576D-03
               16            17            18            19            20
     16  0.635877D+00
     17  0.382200D-02  0.274063D+00
     18  0.382200D-02 -0.157212D-01  0.274063D+00
     19 -0.263667D+00  0.157742D-02  0.121972D-02  0.272818D+00
     20 -0.263667D+00  0.121972D-02  0.157742D-02 -0.158013D-01  0.272818D+00
     21 -0.515631D-02  0.851869D-05  0.851870D-05  0.111912D-03  0.111912D-03
               21
     21  0.438087D-02
 Force constants in internal coordinates: 
                1             2             3             4             5
      1  0.107481D+00
      2 -0.410880D-01  0.565783D-01
      3 -0.337263D-01  0.504867D-02  0.212262D-01
      4 -0.337263D-01  0.504867D-02  0.338302D-02  0.212262D-01
      5  0.358678D-02 -0.298354D-01  0.109004D-01 -0.717396D-02  0.293568D-01
      6  0.358678D-02 -0.298354D-01 -0.717397D-02  0.109004D-01  0.155178D-02
      7 -0.611388D-02  0.340831D-01  0.341968D-03  0.341968D-03 -0.838645D-02
      8  0.126206D-01 -0.499717D-01 -0.444385D-02 -0.444385D-02  0.685534D-02
      9 -0.104695D-01  0.957261D-01  0.121857D-02  0.121857D-02 -0.245625D-01
     10 -0.235606D-02 -0.143677D-02  0.336477D-02  0.164908D-03  0.156271D-03
     11 -0.235606D-02 -0.143677D-02  0.164908D-03  0.336477D-02  0.143919D-03
     12 -0.255858D-02 -0.149488D-01 -0.630049D-03  0.680513D-03  0.147546D-01
     13 -0.255858D-02 -0.149488D-01  0.680513D-03 -0.630049D-03  0.224302D-02
     14  0.767812D-02 -0.129832D-01 -0.354856D-03 -0.354856D-03  0.409408D-03
     15  0.000000D+00  0.000000D+00 -0.540850D-02  0.540850D-02  0.397877D-03
     16  0.000000D+00  0.000000D+00  0.108383D-02 -0.108383D-02 -0.219607D-01
     17 -0.443107D-02  0.310375D-03  0.504768D-02 -0.569985D-03  0.876224D-04
     18  0.443107D-02 -0.310375D-03  0.569985D-03 -0.504768D-02  0.220660D-05
     19  0.280546D-03 -0.213498D-01 -0.623745D-03  0.491212D-03  0.227032D-01
     20 -0.280546D-03  0.213498D-01 -0.491212D-03  0.623745D-03  0.224156D-02
     21  0.000000D+00  0.000000D+00 -0.178037D-03  0.178037D-03 -0.347178D-02
                6             7             8             9            10
      6  0.293568D-01
      7 -0.838645D-02 -0.118803D-01
      8  0.685534D-02  0.325281D-01  0.767588D+00
      9 -0.245625D-01 -0.385687D-01 -0.470581D+00  0.745645D+00
     10  0.143919D-03 -0.370371D-04 -0.128914D+00 -0.134367D-01  0.136000D+00
     11  0.156271D-03 -0.370372D-04 -0.128914D+00 -0.134367D-01  0.968430D-02
     12  0.224302D-02  0.459309D-03 -0.135716D-01 -0.127693D+00 -0.476340D-02
     13  0.147546D-01  0.459309D-03 -0.135716D-01 -0.127693D+00  0.135635D-02
     14  0.409408D-03  0.519602D-02 -0.120359D-01  0.719491D-02  0.735855D-04
     15 -0.397877D-03  0.000000D+00  0.000000D+00  0.000000D+00 -0.119909D+00
     16  0.219607D-01  0.000000D+00  0.000000D+00  0.000000D+00 -0.296868D-01
     17 -0.220655D-05 -0.442424D-03 -0.124037D+00  0.181694D-02  0.134967D+00
     18 -0.876224D-04  0.442424D-03  0.124037D+00 -0.181694D-02  0.135601D-01
     19 -0.224156D-02  0.740172D-03  0.870962D-03 -0.122069D+00  0.847826D-03
     20 -0.227032D-01 -0.740172D-03 -0.870962D-03  0.122069D+00  0.217229D-03
     21  0.347178D-02  0.000000D+00  0.000000D+00  0.000000D+00  0.408280D-05
               11            12            13            14            15
     11  0.136000D+00
     12  0.135635D-02  0.135067D+00
     13 -0.476340D-02  0.931766D-02  0.135067D+00
     14  0.735856D-04  0.286461D-03  0.286461D-03  0.412089D-02
     15  0.119909D+00 -0.297049D-01  0.297049D-01  0.000000D+00  0.632953D+00
     16  0.296868D-01 -0.119438D+00  0.119438D+00  0.000000D+00 -0.111032D+00
     17 -0.135601D-01  0.866393D-03 -0.236864D-03  0.183516D-03 -0.264969D+00
     18 -0.134967D+00  0.236864D-03 -0.866393D-03 -0.183516D-03 -0.264969D+00
     19 -0.217229D-03  0.134109D+00 -0.133126D-01 -0.229203D-03  0.374140D-02
     20 -0.847826D-03  0.133126D-01 -0.134109D+00  0.229203D-03  0.374140D-02
     21 -0.408283D-05  0.618171D-03 -0.618171D-03  0.000000D+00  0.534576D-03
               16            17            18            19            20
     16  0.635877D+00
     17  0.382200D-02  0.274063D+00
     18  0.382200D-02 -0.157212D-01  0.274063D+00
     19 -0.263667D+00  0.157742D-02  0.121972D-02  0.272818D+00
     20 -0.263667D+00  0.121972D-02  0.157742D-02 -0.158013D-01  0.272818D+00
     21 -0.515631D-02  0.851869D-05  0.851870D-05  0.111912D-03  0.111912D-03
               21
     21  0.438087D-02
 Final forces over variables, Energy=-7.91166134D+01:
 -6.89557929D-05 4.46774085D-03 8.20906353D-06 8.20906328D-06
  2.69707771D-06 2.69707816D-06-4.42059734D-03 2.27834760D-05
 -1.47889165D-03-5.90232761D-06-5.90232747D-06 9.68664883D-05
  9.68664897D-05 1.27417985D-03 1.08394854D-13 2.04844120D-12
  4.81016492D-05-4.81016493D-05-1.59802334D-04 1.59802332D-04
 -5.82928414D-15

 GradGradGradGradGradGradGradGradGradGradGradGradGradGradGradGradGradGrad
 Berny optimization.
 Search for a local minimum.
 Step number   1 out of a maximum of   2
 All quantities printed in internal units (Hartrees-Bohrs-Radians)
 Second derivative matrix not updated -- analytic derivatives used.
     Eigenvalues ---   -0.03606   0.00734   0.00855   0.03029   0.04100
     Eigenvalues ---    0.06352   0.07654   0.12567   0.13676   0.13804
     Eigenvalues ---    0.30097   0.52255   0.74056   0.90578   1.29905
 Eigenvalue   1 out of range, new value =    0.036055 Eigenvector:
                           1
           X1           0.01453
           Y1           0.01344
           Z1           0.00000
           X2           0.38445
           Y2          -0.09107
           Z2           0.00000
           X3          -0.02934
           Y3           0.00771
           Z3           0.00170
           X4          -0.02934
           Y4           0.00771
           Z4          -0.00170
           X5          -0.01566
           Y5          -0.02708
           Z5           0.00421
           X6          -0.01566
           Y6          -0.02708
           Z6          -0.00421
           X7          -0.88728
           Y7           0.22892
           Z7           0.00000
 Angle between quadratic step and forces=  21.14 degrees.
 Linear search not attempted -- first point.
 TrRot=  0.014971 -0.003057  0.000000  0.001453  0.000000  0.001453
 Variable       Old X    -DE/DX   Delta X   Delta X   Delta X     New X
                                 (Linear)    (Quad)   (Total)
    X1       -0.19709  -0.00007   0.00000  -0.00242   0.00845  -0.18864
    Y1        1.40714   0.00002   0.00000   0.00411   0.00047   1.40760
    Z1        0.00000   0.00000   0.00000   0.00000   0.00000   0.00000
    X2       -0.19709   0.00447   0.00000   0.07740   0.09572  -0.10137
    Y2       -1.13576  -0.00148   0.00000  -0.01513  -0.01853  -1.15429
    Z2        0.00000   0.00000   0.00000   0.00000   0.00000   0.00000
    X3       -0.15811   0.00001   0.00000  -0.01272  -0.00497  -0.16308
    Y3        2.47998  -0.00001   0.00000   0.00366   0.00010   2.48007
    Z3        1.74487   0.00005   0.00000   0.00025   0.00025   1.74513
    X4       -0.15811   0.00001   0.00000  -0.01272  -0.00497  -0.16308
    Y4        2.47998  -0.00001   0.00000   0.00366   0.00010   2.48007
    Z4       -1.74487  -0.00005   0.00000  -0.00025  -0.00025  -1.74513
    X5       -0.37538   0.00000   0.00000  -0.00455   0.01681  -0.35857
    Y5       -2.20253   0.00010   0.00000   0.00169  -0.00246  -2.20499
    Z5       -1.73949  -0.00016   0.00000  -0.00142  -0.00142  -1.74091
    X6       -0.37538   0.00000   0.00000  -0.00455   0.01681  -0.35857
    Y6       -2.20253   0.00010   0.00000   0.00169  -0.00246  -2.20499
    Z6        1.73949   0.00016   0.00000   0.00142   0.00142   1.74091
    X7        3.43206  -0.00442   0.00000  -0.14911  -0.12786   3.30420
    Y7       -2.18315   0.00127   0.00000   0.01630   0.02279  -2.16035
    Z7        0.00000   0.00000   0.00000   0.00000   0.00000   0.00000
         Item               Value     Threshold  Converged?
 Maximum Force            0.004468     0.000450     NO 
 RMS     Force            0.001437     0.000300     NO 
 Maximum Displacement     0.127859     0.001800     NO 
 RMS     Displacement     0.035907     0.001200     NO 
 Predicted change in Energy=-1.542498D-03
 GradGradGradGradGradGradGradGradGradGradGradGradGradGradGradGradGradGrad


 Test job not archived.
 1\1\GINC-NODE31\Freq\UB3LYP\6-311G(d,p)\C2H5(2)\JWALLEN\18-Jan-2012\0\
 \# freq b3lyp/6-311g(d,p) iop(7/33=1) scf=tight nosym scfcyc=6000\\H +
  C2H4\\0,2\C,-0.104295,0.744624,0.\C,-0.104295,-0.601018,0.\H,-0.08366
 8,1.312347,0.923347\H,-0.083668,1.312347,-0.923347\H,-0.198645,-1.1655
 29,-0.920501\H,-0.198645,-1.165529,0.920501\H,1.816168,-1.155271,0.\\V
 ersion=AM64L-G03RevD.01\HF=-79.1166134\S2=0.772767\S2-1=0.\S2A=0.75002
 5\RMSD=4.926e-09\RMSF=1.437e-03\ZeroPoint=0.0524114\Thermal=0.0560486\
 Dipole=-0.287303,0.1384243,0.\DipoleDeriv=-0.3672539,0.0599411,0.,-0.1
 33595,0.0532775,0.,0.,0.,0.1410116,-0.2326759,0.0484464,0.,0.2698971,-
 0.1077518,0.,0.,0.,0.0869391,0.1493225,-0.0075095,-0.0001272,0.0007526
 ,0.0081213,-0.0488511,-0.0045821,-0.07768,-0.0530115,0.1493225,-0.0075
 095,0.0001272,0.0007526,0.0081213,0.0488511,0.0045821,0.07768,-0.05301
 15,0.1335423,-0.0357938,-0.0297581,-0.0244992,0.0301767,-0.0391517,-0.
 0259547,-0.0598406,-0.0344578,0.1335423,-0.0357938,0.0297581,-0.024499
 2,0.0301767,0.0391517,0.0259547,0.0598406,-0.0344578,0.0342,-0.0217808
 ,0.,-0.0888088,-0.0221216,0.,0.,0.,-0.053012\Polar=30.256454,-9.313184
 5,38.1547291,0.,0.,21.9812163\PG=CS [SG(C2H1),X(H4)]\NImag=1\\0.107481
 00,0.01262064,0.76758774,0.,0.,0.63295277,-0.04108799,-0.04997173,0.,0
 .05657832,-0.01046947,-0.47058059,0.,0.09572610,0.74564488,0.,0.,-0.11
 103153,0.,0.,0.63587719,-0.03372634,-0.00444385,-0.00540850,0.00504867
 ,0.00121857,0.00108383,0.02122622,-0.00235606,-0.12891407,-0.11990908,
 -0.00143677,-0.01343672,-0.02968678,0.00336477,0.13599996,-0.00443107,
 -0.12403652,-0.26496930,0.00031037,0.00181694,0.00382200,0.00504768,0.
 13496663,0.27406285,-0.03372634,-0.00444385,0.00540850,0.00504867,0.00
 121857,-0.00108383,0.00338302,0.00016491,-0.00056999,0.02122622,-0.002
 35606,-0.12891407,0.11990908,-0.00143677,-0.01343672,0.02968678,0.0001
 6491,0.00968430,-0.01356009,0.00336477,0.13599996,0.00443107,0.1240365
 2,-0.26496931,-0.00031037,-0.00181694,0.00382200,0.00056999,0.01356009
 ,-0.01572121,-0.00504768,-0.13496663,0.27406285,0.00358678,0.00685534,
 0.00039788,-0.02983540,-0.02456255,-0.02196065,0.01090043,0.00015627,0
 .00008762,-0.00717396,0.00014392,0.00000221,0.02935682,-0.00255858,-0.
 01357155,-0.02970486,-0.01494879,-0.12769287,-0.11943846,-0.00063005,-
 0.00476340,0.00086639,0.00068051,0.00135635,0.00023686,0.01475459,0.13
 506735,0.00028055,0.00087096,0.00374140,-0.02134980,-0.12206898,-0.263
 66668,-0.00062375,0.00084783,0.00157742,0.00049121,-0.00021723,0.00121
 972,0.02270317,0.13410926,0.27281757,0.00358678,0.00685534,-0.00039788
 ,-0.02983540,-0.02456255,0.02196065,-0.00717397,0.00014392,-0.00000221
 ,0.01090043,0.00015627,-0.00008762,0.00155178,0.00224302,-0.00224156,0
 .02935682,-0.00255858,-0.01357155,0.02970486,-0.01494879,-0.12769287,0
 .11943846,0.00068051,0.00135635,-0.00023686,-0.00063005,-0.00476340,-0
 .00086639,0.00224302,0.00931766,-0.01331263,0.01475459,0.13506735,-0.0
 0028055,-0.00087096,0.00374140,0.02134980,0.12206898,-0.26366668,-0.00
 049121,0.00021723,0.00121972,0.00062375,-0.00084783,0.00157742,0.00224
 156,0.01331263,-0.01580134,-0.02270317,-0.13410926,0.27281757,-0.00611
 388,0.03252811,0.,0.03408313,-0.03856868,0.,0.00034197,-0.00003704,-0.
 00044242,0.00034197,-0.00003704,0.00044242,-0.00838645,0.00045931,0.00
 074017,-0.00838645,0.00045931,-0.00074017,-0.01188027,0.00767812,-0.01
 203590,0.,-0.01298325,0.00719491,0.,-0.00035486,0.00007359,0.00018352,
 -0.00035486,0.00007359,-0.00018352,0.00040941,0.00028646,-0.00022920,0
 .00040941,0.00028646,0.00022920,0.00519602,0.00412089,0.,0.,0.00053458
 ,0.,0.,-0.00515631,-0.00017804,0.00000408,0.00000852,0.00017804,-0.000
 00408,0.00000852,-0.00347178,0.00061817,0.00011191,0.00347178,-0.00061
 817,0.00011191,0.,0.,0.00438087\\0.00006896,-0.00002278,0.,-0.00446774
 ,0.00147889,0.,-0.00000821,0.00000590,-0.00004810,-0.00000821,0.000005
 90,0.00004810,-0.00000270,-0.00009687,0.00015980,-0.00000270,-0.000096
 87,-0.00015980,0.00442060,-0.00127418,0.\\\@


 NECESSARY EVIL: ONE WE LIKE TOO MUCH TO RELINQUISH.
 Job cpu time:  0 days  0 hours  3 minutes 36.9 seconds.
 File lengths (MBytes):  RWF=     17 Int=      0 D2E=      0 Chk=      6 Scr=      1
 Normal termination of Gaussian 03 at Wed Jan 18 13:32:12 2012.
