 Entering Gaussian System, Link 0=/Local/ce_dana/g09/g09
 Initial command:
 /Local/ce_dana/g09/l1.exe "/storage/ce_dana/alongd/scratch/g09/Gau-18520.inp" -scrdir="/storage/ce_dana/alongd/scratch/g09/"
 Entering Link 1 = /Local/ce_dana/g09/l1.exe PID=     18521.
  
 Copyright (c) 1988,1990,1992,1993,1995,1998,2003,2009,2013,
            Gaussian, Inc.  All Rights Reserved.
  
 This is part of the Gaussian(R) 09 program.  It is based on
 the Gaussian(R) 03 system (copyright 2003, Gaussian, Inc.),
 the Gaussian(R) 98 system (copyright 1998, Gaussian, Inc.),
 the Gaussian(R) 94 system (copyright 1995, Gaussian, Inc.),
 the Gaussian 92(TM) system (copyright 1992, Gaussian, Inc.),
 the Gaussian 90(TM) system (copyright 1990, Gaussian, Inc.),
 the Gaussian 88(TM) system (copyright 1988, Gaussian, Inc.),
 the Gaussian 86(TM) system (copyright 1986, Carnegie Mellon
 University), and the Gaussian 82(TM) system (copyright 1983,
 Carnegie Mellon University). Gaussian is a federally registered
 trademark of Gaussian, Inc.
  
 This software contains proprietary and confidential information,
 including trade secrets, belonging to Gaussian, Inc.
  
 This software is provided under written license and may be
 used, copied, transmitted, or stored only in accord with that
 written license.
  
 The following legend is applicable only to US Government
 contracts under FAR:
  
                    RESTRICTED RIGHTS LEGEND
  
 Use, reproduction and disclosure by the US Government is
 subject to restrictions as set forth in subparagraphs (a)
 and (c) of the Commercial Computer Software - Restricted
 Rights clause in FAR 52.227-19.
  
 Gaussian, Inc.
 340 Quinnipiac St., Bldg. 40, Wallingford CT 06492
  
  
 ---------------------------------------------------------------
 Warning -- This program may not be used in any manner that
 competes with the business of Gaussian, Inc. or will provide
 assistance to any competitor of Gaussian, Inc.  The licensee
 of this program is prohibited from giving any competitor of
 Gaussian, Inc. access to this program.  By using this program,
 the user acknowledges that Gaussian, Inc. is engaged in the
 business of creating and licensing software in the field of
 computational chemistry and represents and warrants to the
 licensee that it is not a competitor of Gaussian, Inc. and that
 it will not use this program in any manner prohibited above.
 ---------------------------------------------------------------
  

 Cite this work as:
 Gaussian 09, Revision D.01,
 M. J. Frisch, G. W. Trucks, H. B. Schlegel, G. E. Scuseria, 
 M. A. Robb, J. R. Cheeseman, G. Scalmani, V. Barone, B. Mennucci, 
 G. A. Petersson, H. Nakatsuji, M. Caricato, X. Li, H. P. Hratchian, 
 A. F. Izmaylov, J. Bloino, G. Zheng, J. L. Sonnenberg, M. Hada, 
 M. Ehara, K. Toyota, R. Fukuda, J. Hasegawa, M. Ishida, T. Nakajima, 
 Y. Honda, O. Kitao, H. Nakai, T. Vreven, J. A. Montgomery, Jr., 
 J. E. Peralta, F. Ogliaro, M. Bearpark, J. J. Heyd, E. Brothers, 
 K. N. Kudin, V. N. Staroverov, T. Keith, R. Kobayashi, J. Normand, 
 K. Raghavachari, A. Rendell, J. C. Burant, S. S. Iyengar, J. Tomasi, 
 M. Cossi, N. Rega, J. M. Millam, M. Klene, J. E. Knox, J. B. Cross, 
 V. Bakken, C. Adamo, J. Jaramillo, R. Gomperts, R. E. Stratmann, 
 O. Yazyev, A. J. Austin, R. Cammi, C. Pomelli, J. W. Ochterski, 
 R. L. Martin, K. Morokuma, V. G. Zakrzewski, G. A. Voth, 
 P. Salvador, J. J. Dannenberg, S. Dapprich, A. D. Daniels, 
 O. Farkas, J. B. Foresman, J. V. Ortiz, J. Cioslowski, 
 and D. J. Fox, Gaussian, Inc., Wallingford CT, 2013.
 
 ******************************************
 Gaussian 09:  ES64L-G09RevD.01 24-Apr-2013
                12-Nov-2022 
 ******************************************
 %chk=check.chk
 %mem=7168mb
 %NProcShared=10
 Will use up to   10 processors via shared memory.
 ----------------------------------------------------------------------
 #P guess=read b2plypd3/def2tzvp freq IOp(7/33=1) scf=(tight, direct) i
 ntegral=(grid=ultrafine, Acc2E=12) IOp(2/9=2000) scf=xqc
 ----------------------------------------------------------------------
 1/10=4,30=1,38=1/1,3;
 2/9=2000,12=2,17=6,18=5,40=1/2;
 3/5=44,7=101,11=9,16=1,25=1,30=1,71=2,74=-60,75=-5,116=-2,140=1/1,2,3;
 4/5=1/1;
 5/5=2,8=3,13=1,32=2,38=6,87=12,98=1/2,8;
 8/6=3,8=1,10=1,19=11,30=-1,87=12/1;
 9/15=3,16=-3,87=12/6;
 11/6=1,8=1,15=11,17=12,24=-1,27=1,28=-2,29=300,32=6,42=3,87=12/1,2,10;
 10/6=2,21=1,87=12/2;
 8/6=4,8=1,10=1,19=11,30=-1,87=12/11,4;
 10/5=1,20=4,87=12/2;
 11/12=2,14=11,16=1,17=2,28=-2,42=3,87=12/2,10,12;
 6/7=2,8=2,9=2,10=2/1;
 7/8=1,10=1,12=2,25=1,33=1,44=2,87=12/1,2,3,16;
 1/10=4,30=1/3;
 99//99;
 Leave Link    1 at Sat Nov 12 21:58:22 2022, MaxMem=   939524096 cpu:         0.1
 (Enter /Local/ce_dana/g09/l101.exe)
 ---
 CH4
 ---
 Symbolic Z-matrix:
 Charge =  0 Multiplicity = 1
 C                     0.        0.        0. 
 H                    -0.64784  -0.77105  -0.4108 
 H                    -0.34782   0.9775   -0.32632 
 H                    -0.02225  -0.04867   1.08632 
 H                     1.0179   -0.15778  -0.34921 
 
 NAtoms=      5 NQM=        5 NQMF=       0 NMMI=      0 NMMIF=      0
                NMic=       0 NMicF=      0.
                    Isotopes and Nuclear Properties:
 (Nuclear quadrupole moments (NQMom) in fm**2, nuclear magnetic moments (NMagM)
  in nuclear magnetons)

  Atom         1           2           3           4           5
 IAtWgt=          12           1           1           1           1
 AtmWgt=  12.0000000   1.0078250   1.0078250   1.0078250   1.0078250
 NucSpn=           0           1           1           1           1
 AtZEff=   0.0000000   0.0000000   0.0000000   0.0000000   0.0000000
 NQMom=    0.0000000   0.0000000   0.0000000   0.0000000   0.0000000
 NMagM=    0.0000000   2.7928460   2.7928460   2.7928460   2.7928460
 AtZNuc=   6.0000000   1.0000000   1.0000000   1.0000000   1.0000000
 Leave Link  101 at Sat Nov 12 21:58:22 2022, MaxMem=   939524096 cpu:         0.1
 (Enter /Local/ce_dana/g09/l103.exe)

 GradGradGradGradGradGradGradGradGradGradGradGradGradGradGradGradGradGrad
 Berny optimization.
 Initialization pass.
 Trust Radius=3.00D-01 FncErr=1.00D-07 GrdErr=1.00D-07
 Number of steps in this run=      2 maximum allowed number of steps=      2.
 GradGradGradGradGradGradGradGradGradGradGradGradGradGradGradGradGradGrad

 Leave Link  103 at Sat Nov 12 21:58:22 2022, MaxMem=   939524096 cpu:         0.0
 (Enter /Local/ce_dana/g09/l202.exe)
                          Input orientation:                          
 ---------------------------------------------------------------------
 Center     Atomic      Atomic             Coordinates (Angstroms)
 Number     Number       Type             X           Y           Z
 ---------------------------------------------------------------------
      1          6           0        0.000000    0.000000    0.000000
      2          1           0       -0.647836   -0.771048   -0.410796
      3          1           0       -0.347817    0.977498   -0.326315
      4          1           0       -0.022245   -0.048669    1.086322
      5          1           0        1.017898   -0.157781   -0.349211
 ---------------------------------------------------------------------
                    Distance matrix (angstroms):
                    1          2          3          4          5
     1  C    0.000000
     2  H    1.087640   0.000000
     3  H    1.087640   1.776109   0.000000
     4  H    1.087639   1.776107   1.776108   0.000000
     5  H    1.087639   1.776108   1.776108   1.776108   0.000000
 Stoichiometry    CH4
 Framework group  TD[O(C),4C3(H)]
 Deg. of freedom     1
 Full point group                 TD      NOp  24
 Largest Abelian subgroup         D2      NOp   4
 Largest concise Abelian subgroup D2      NOp   4
                         Standard orientation:                         
 ---------------------------------------------------------------------
 Center     Atomic      Atomic             Coordinates (Angstroms)
 Number     Number       Type             X           Y           Z
 ---------------------------------------------------------------------
      1          6           0        0.000000    0.000000    0.000000
      2          1           0       -0.627949    0.627949    0.627949
      3          1           0       -0.627949   -0.627949   -0.627949
      4          1           0        0.627949    0.627949   -0.627949
      5          1           0        0.627949   -0.627949    0.627949
 ---------------------------------------------------------------------
 Rotational constants (GHZ):    158.9619984    158.9619984    158.9619984
 Leave Link  202 at Sat Nov 12 21:58:22 2022, MaxMem=   939524096 cpu:         0.0
 (Enter /Local/ce_dana/g09/l301.exe)
 Standard basis: def2TZVP (5D, 7F)
 Ernie: Thresh=  0.10000D-02 Tol=  0.10000D-05 Strict=F.
 There are    18 symmetry adapted cartesian basis functions of A   symmetry.
 There are    14 symmetry adapted cartesian basis functions of B1  symmetry.
 There are    14 symmetry adapted cartesian basis functions of B2  symmetry.
 There are    14 symmetry adapted cartesian basis functions of B3  symmetry.
 There are    16 symmetry adapted basis functions of A   symmetry.
 There are    13 symmetry adapted basis functions of B1  symmetry.
 There are    13 symmetry adapted basis functions of B2  symmetry.
 There are    13 symmetry adapted basis functions of B3  symmetry.
    55 basis functions,    83 primitive gaussians,    60 cartesian basis functions
     5 alpha electrons        5 beta electrons
       nuclear repulsion energy        13.4645469874 Hartrees.
 IExCor=  419 DFT=T Ex+Corr=B2PLYPD3 ExCW=0 ScaHFX=  0.530000
 ScaDFX=  0.470000  0.470000  0.730000  0.730000 ScalE2=  0.270000  0.270000
 IRadAn=      5 IRanWt=     -1 IRanGd=            0 ICorTp=0 IEmpDi=141
 NAtoms=    5 NActive=    5 NUniq=    2 SFac= 4.00D+00 NAtFMM=   60 NAOKFM=F Big=F
 Integral buffers will be    131072 words long.
 Regular integral format.
 Two-electron integral symmetry is turned on.
 R6Disp:  Grimme-D3(BJ) Dispersion energy=       -0.0007911626 Hartrees.
 Nuclear repulsion after empirical dispersion term =       13.4637558247 Hartrees.
 Leave Link  301 at Sat Nov 12 21:58:22 2022, MaxMem=   939524096 cpu:         0.0
 (Enter /Local/ce_dana/g09/l302.exe)
 NPDir=0 NMtPBC=     1 NCelOv=     1 NCel=       1 NClECP=     1 NCelD=      1
         NCelK=      1 NCelE2=     1 NClLst=     1 CellRange=     0.0.
 One-electron integrals computed using PRISM.
 One-electron integral symmetry used in STVInt
  24 Symmetry operations used in ECPInt.
 ECPInt:  NShTT=     378 NPrTT=    1024 LenC2=     379 LenP2D=     994.
 LDataN:  DoStor=T MaxTD1= 6 Len=  172
 NBasis=    55 RedAO= T EigKep=  1.92D-03  NBF=    16    13    13    13
 NBsUse=    55 1.00D-06 EigRej= -1.00D+00 NBFU=    16    13    13    13
 Precomputing XC quadrature grid using
 IXCGrd= 4 IRadAn=           5 IRanWt=          -1 IRanGd=           0 AccXCQ= 0.00D+00.
 Generated NRdTot=       0 NPtTot=           0 NUsed=           0 NTot=          32
 NSgBfM=    60    60    60    60    60 MxSgAt=     5 MxSgA2=     5.
 Leave Link  302 at Sat Nov 12 21:58:23 2022, MaxMem=   939524096 cpu:         1.4
 (Enter /Local/ce_dana/g09/l303.exe)
 DipDrv:  MaxL=1.
 Leave Link  303 at Sat Nov 12 21:58:23 2022, MaxMem=   939524096 cpu:         0.1
 (Enter /Local/ce_dana/g09/l401.exe)
 Initial guess from the checkpoint file:  "check.chk"
 B after Tr=    -0.000000   -0.000000    0.000000
         Rot=    0.707107   -0.000000    0.707107   -0.000000 Ang=  90.00 deg.
 Guess basis will be translated and rotated to current coordinates.
 JPrj=2 DoOrth=T DoCkMO=T.
 Initial guess orbital symmetries:
       Occupied  (A1) (A1) (T2) (T2) (T2)
       Virtual   (A1) (T2) (T2) (T2) (T2) (T2) (T2) (A1) (T2) (T2)
                 (T2) (A1) (E) (E) (T2) (T2) (T2) (A1) (T2) (T2)
                 (T2) (T1) (T1) (T1) (A1) (T2) (T2) (T2) (T2) (T2)
                 (T2) (E) (E) (T2) (T2) (T2) (E) (E) (A1) (T1)
                 (T1) (T1) (T2) (T2) (T2) (T2) (T2) (T2) (A1) (A1)
 The electronic state of the initial guess is 1-A1.
 Leave Link  401 at Sat Nov 12 21:58:23 2022, MaxMem=   939524096 cpu:         0.2
 (Enter /Local/ce_dana/g09/l502.exe)
 Closed shell SCF:
 Using DIIS extrapolation, IDIIS=  1040.
 Integral symmetry usage will be decided dynamically.
 Keep R1 ints in memory in symmetry-blocked form, NReq=3173235.
 IVT=       18592 IEndB=       18592 NGot=   939524096 MDV=   939203472
 LenX=   939203472 LenY=   939199431
 Requested convergence on RMS density matrix=1.00D-08 within  64 cycles.
 Requested convergence on MAX density matrix=1.00D-06.
 Requested convergence on             energy=1.00D-06.
 No special actions if energy rises.
 FoFCou: FMM=F IPFlag=           0 FMFlag=           0 FMFlg1=           0
         NFxFlg=           0 DoJE=F BraDBF=F KetDBF=F FulRan=T
         wScrn=  0.000000 ICntrl=     600 IOpCl=  0 I1Cent=           0 NGrid=           0
         NMat0=    1 NMatS0=   1540 NMatT0=    0 NMatD0=    1 NMtDS0=    0 NMtDT0=    0
 Petite list used in FoFCou.
 An orbital has undefined symmetry, so N**3 symmetry is turned off.

 Cycle   1  Pass 1  IDiag  1:
 E= -40.4225848763306    
 DIIS: error= 7.11D-09 at cycle   1 NSaved=   1.
 NSaved= 1 IEnMin= 1 EnMin= -40.4225848763306     IErMin= 1 ErrMin= 7.11D-09
 ErrMax= 7.11D-09  0.00D+00 EMaxC= 1.00D-01 BMatC= 1.87D-15 BMatP= 1.87D-15
 IDIUse=1 WtCom= 1.00D+00 WtEn= 0.00D+00
 Coeff-Com:  0.100D+01
 Coeff:      0.100D+01
 Gap=     0.548 Goal=   None    Shift=    0.000
 RMSDP=6.24D-10 MaxDP=1.40D-08              OVMax= 1.43D-08

 SCF Done:  E(RB2PLYPD3) =  -40.4225848763     A.U. after    1 cycles
            NFock=  1  Conv=0.62D-09     -V/T= 2.0042
 KE= 4.025157368501D+01 PE=-1.201133598832D+02 EE= 2.597544549714D+01
 Leave Link  502 at Sat Nov 12 21:58:23 2022, MaxMem=   939524096 cpu:         2.2
 (Enter /Local/ce_dana/g09/l508.exe)
 QCSCF skips out because SCF is already converged.
 Leave Link  508 at Sat Nov 12 21:58:23 2022, MaxMem=   939524096 cpu:         0.0
 (Enter /Local/ce_dana/g09/l801.exe)
 DoSCS=T DFT=T ScalE2(SS,OS)=  0.270000  0.270000
 ExpMin= 9.52D-02 ExpMax= 1.36D+04 ExpMxC= 4.63D+02 IAcc=3 IRadAn=         5 AccDes= 0.00D+00
 HarFok:  IExCor=  205 AccDes= 0.00D+00 IRadAn=         5 IDoV=-2 UseB2=F ITyADJ=14
 ICtDFT= 12500011 ScaDFX=  1.000000  1.000000  1.000000  1.000000
 Largest valence mixing into a core orbital is  8.74D-05
 Largest core mixing into a valence orbital is  1.46D-05
 Range of M.O.s used for correlation:     2    55
 NBasis=    55 NAE=     5 NBE=     5 NFC=     1 NFV=     0
 NROrb=     54 NOA=     4 NOB=     4 NVA=    50 NVB=    50

 **** Warning!!: The largest alpha MO coefficient is  0.15254780D+02

 Leave Link  801 at Sat Nov 12 21:58:23 2022, MaxMem=   939524096 cpu:         0.5
 (Enter /Local/ce_dana/g09/l906.exe)
 DoSCS=T DFT=T ScalE2(SS,OS)=  0.270000  0.270000
 Frozen-core derivative calculation, NFC=   1 NFV=   0.
 FulOut=F Deriv=T AODrv=T NAtomX=     5
   MMem=           0  MDisk=           4 MDiskD=           4
  W3Min=       16500 MinDsk=      152930 NBas6D=          60
 NBas2D=        1926    NTT=        1830    LW2=     7400000
    MDV=   939474176 MDiskM=       78122 NBas2p=        1926
 Disk-based method using ON**2 memory for  4 occupieds at a time.
 Permanent disk used for amplitudes=       74750 words.
 Estimated scratch disk usage=     2205046 words.
 IMap=   1   2   3   4   5
 Actual    scratch disk usage=     2205046 words.
 JobTyp=1 Pass  1:  I=   2 to   5 NPSUse= 10 ParTrn=T ParDer=T DoDerP=T.
 (rs|ai) integrals will be sorted in core.
 Spin components of T(2) and E(2):
     alpha-alpha T2 =       0.9072387166D-02 E2=     -0.5857345432D-02
     alpha-beta  T2 =       0.7003514613D-01 E2=     -0.4914121996D-01
     beta-beta   T2 =       0.9072387166D-02 E2=     -0.5857345432D-02
 The integrals were generated   1 times.
 E2(B2PLYPD3) =    -0.6085591083D-01 E(B2PLYPD3) =    -0.40483440787156D+02
 Leave Link  906 at Sat Nov 12 21:58:24 2022, MaxMem=   939524096 cpu:         7.9
 (Enter /Local/ce_dana/g09/l1101.exe)
 Using compressed Sx but separate Hx and Fx, NAtomX=     5.
 Will process      6 centers per pass.
  24 Symmetry operations used in ECPInt.
 ECPInt:  NShTT=     378 NPrTT=    1024 LenC2=     379 LenP2D=     994.
 LDataN:  DoStor=T MaxTD1= 7 Len=  274
 R6Disp: Adding Grimme-D3(BJ) dispersion energy 1st derivatives to the gradient.
 Leave Link 1101 at Sat Nov 12 21:58:25 2022, MaxMem=   939524096 cpu:         4.4
 (Enter /Local/ce_dana/g09/l1102.exe)
 Leave Link 1102 at Sat Nov 12 21:58:25 2022, MaxMem=   939524096 cpu:         0.0
 (Enter /Local/ce_dana/g09/l1110.exe)
 Forming Gx(P) for the SCF density, NAtomX=     5.
 Integral derivatives from FoFJK, PRISM(SPDF).
 Do as many integral derivatives as possible in FoFJK.
 G2DrvN: MDV=     939523952.
 G2DrvN: will do     6 centers at a time, making    1 passes.
 Calling FoFCou, ICntrl=  3107 FMM=F I1Cent=   0 AccDes= 1.00D-12.
 FoFJK:  IHMeth= 1 ICntrl=    3107 DoSepK=F KAlg= 0 I1Cent=   0 FoldK=F
 IRaf=         0 NMat=   1 IRICut=       1 DoRegI=T DoRafI=F ISym2E= 1.
 FoFCou: FMM=F IPFlag=           0 FMFlag=      100000 FMFlg1=           0
         NFxFlg=           0 DoJE=F BraDBF=F KetDBF=F FulRan=T
         wScrn=  0.000000 ICntrl=    3107 IOpCl=  0 I1Cent=           0 NGrid=           0
         NMat0=    1 NMatS0=      1 NMatT0=    0 NMatD0=    1 NMtDS0=    0 NMtDT0=    0
 Petite list used in FoFCou.
 End of G2Drv F.D. properties file   721 does not exist.
 End of G2Drv F.D. properties file   722 does not exist.
 End of G2Drv F.D. properties file   788 does not exist.
 Leave Link 1110 at Sat Nov 12 21:58:25 2022, MaxMem=   939524096 cpu:         5.8
 (Enter /Local/ce_dana/g09/l1002.exe)
 Minotr:  Closed shell wavefunction.
          IDoAtm=11111
          Frozen-core window.
          Direct CPHF calculation.
          Differentiating once with respect to electric field.
                with respect to dipole field.
          Differentiating once with respect to nuclear coordinates.
          Requested convergence is 1.0D-08 RMS, and 1.0D-07 maximum.
          Secondary convergence is 1.0D-12 RMS, and 1.0D-12 maximum.
          NewPWx=T KeepS1=T KeepF1=T KeepIn=T MapXYZ=F SortEE=F KeepMc=T.
          MDV=     939523988 using IRadAn=       1.
 Generate precomputed XC quadrature information.
 Keep R1 ints in memory in canonical form, NReq=3162225.
 FoFCou: FMM=F IPFlag=           0 FMFlag=           0 FMFlg1=           0
         NFxFlg=           0 DoJE=F BraDBF=F KetDBF=F FulRan=T
         wScrn=  0.000000 ICntrl=     600 IOpCl=  0 I1Cent=           0 NGrid=           0
         NMat0=    1 NMatS0=   1540 NMatT0=    0 NMatD0=    1 NMtDS0=    0 NMtDT0=    0
 Symmetry not used in FoFCou.
          Solving linear equations simultaneously, MaxMat=       0.
          There are    18 degrees of freedom in the 1st order CPHF.  IDoFFX=6 NUNeed=    18.
     15 vectors produced by pass  0 Test12= 1.39D-15 5.56D-09 XBig12= 5.31D+00 1.08D+00.
 AX will form    15 AO Fock derivatives at one time.
     15 vectors produced by pass  1 Test12= 1.39D-15 5.56D-09 XBig12= 8.78D-02 1.09D-01.
     15 vectors produced by pass  2 Test12= 1.39D-15 5.56D-09 XBig12= 4.35D-04 9.37D-03.
     15 vectors produced by pass  3 Test12= 1.39D-15 5.56D-09 XBig12= 7.28D-07 4.54D-04.
     15 vectors produced by pass  4 Test12= 1.39D-15 5.56D-09 XBig12= 5.29D-10 7.29D-06.
      9 vectors produced by pass  5 Test12= 1.39D-15 5.56D-09 XBig12= 5.86D-13 3.12D-07.
      4 vectors produced by pass  6 Test12= 1.39D-15 5.56D-09 XBig12= 6.38D-16 1.38D-08.
 InvSVY:  IOpt=1 It=  1 EMax= 1.33D-15
 Solved reduced A of dimension    88 with    15 vectors.
 FullF1:  Do perturbations    1 to    18.
 Saving first derivative matrices.
 End of Minotr F.D. properties file   721 does not exist.
 End of Minotr F.D. properties file   722 does not exist.
 End of Minotr F.D. properties file   788 does not exist.
 Leave Link 1002 at Sat Nov 12 21:58:27 2022, MaxMem=   939524096 cpu:        15.6
 (Enter /Local/ce_dana/g09/l811.exe)
 MDV=   939524096.
 DoSCS=T DFT=T ScalE2(SS,OS)=  0.270000  0.270000
 Form MO integral derivatives with frozen-active canonical formalism.
 MOERI=1 MOERIx=1 NAtoms=     5 NAtomX=     5.
 Discarding MO integrals.
 MO basis two electron integral derivatives will not be stored on disk.
 IAlg= 3 DoFC=T DoPWx=T Debug=F.
 Frozen-core window:  NFC=   1 NFV=   0.
 Reordered first order wavefunction length =       125000
 In DefCFB: NBatch=  1 ICI=  5 ICA= 50 LFMax= 50
            Large arrays: LIAPS=     3300000 LIARS=     3780000 words.
 In StABat: MaxSiz= 36 MinSiz= 24 NAtomB=  2
 DoIAMN: NPSUse= 10.
 Leave Link  811 at Sat Nov 12 21:58:28 2022, MaxMem=   939524096 cpu:         6.4
 (Enter /Local/ce_dana/g09/l804.exe)
 Frozen-core window:  NFC=   1 NFV=   0.
 Closed-shell transformation, MDV=   939524096 ITran=4 ISComp=1.
 Semi-Direct transformation.
 ModeAB=           2 MOrb=             5 LenV=     939098359
 LASXX=       383555 LTotXX=      383555 LenRXX=      383555
 LTotAB=      404350 MaxLAS=      503250 LenRXY=      503250
 NonZer=      767110 LenScr=     1724928 LnRSAI=           0
 LnScr1=           0 LExtra=           0 Total=      2611733
 MaxDsk=          -1 SrtSym=           F ITran=            4
 DoSDTr:  NPSUse= 10
 JobTyp=0 Pass  1:  I=   1 to   5.
 (rs|ai) integrals will be sorted in core.
 Complete sort for first half transformation.
 First half transformation complete.
 Complete sort for second half transformation.
 Second half transformation complete.
 SymMOI:  orbitals are not symmetric.
 DoSCS=T DFT=T ScalE2(SS,OS)=  0.270000  0.270000
 Spin components of T(2) and E(2):
     alpha-alpha T2 =       0.9072387166D-02 E2=     -0.5857345432D-02
     alpha-beta  T2 =       0.7003514613D-01 E2=     -0.4914121996D-01
     beta-beta   T2 =       0.9072387166D-02 E2=     -0.5857345432D-02
 E2(B2PLYPD3) =    -0.6085591083D-01 E(B2PLYPD3) =    -0.40483440787156D+02
 Leave Link  804 at Sat Nov 12 21:58:29 2022, MaxMem=   939524096 cpu:         1.4
 (Enter /Local/ce_dana/g09/l1002.exe)
 Minotr:  Closed shell wavefunction.
          Computing MP2/KS-MP2 derivatives.
          Using Z-Vector for PSCF gradient.
          Skipping F1 and S1 gradient terms here.
          IDoAtm=11111
          Frozen-core window.
          Direct CPHF calculation.
          Differentiating once with respect to electric field.
                with respect to dipole field.
          Differentiating once with respect to nuclear coordinates.
          Using symmetry in CPHF.
          Requested convergence is 1.0D-10 RMS, and 1.0D-09 maximum.
          NewPWx=T KeepS1=F KeepF1=F KeepIn=T MapXYZ=F SortEE=F KeepMc=T.
          MDV=     939523988 using IRadAn=       5.
 Using stored XC quadrature information.
 Keep R1 ints in memory in canonical form, NReq=3160741.
 FoFCou: FMM=F IPFlag=           0 FMFlag=           0 FMFlg1=           0
         NFxFlg=           0 DoJE=F BraDBF=F KetDBF=F FulRan=T
         wScrn=  0.000000 ICntrl=     600 IOpCl=  0 I1Cent=           0 NGrid=           0
         NMat0=    1 NMatS0=   1540 NMatT0=    0 NMatD0=    1 NMtDS0=    0 NMtDT0=    0
 Symmetry not used in FoFCou.
          Solving linear equations separately, MaxMat=       0.
          There are     1 degrees of freedom in the 1st order CPHF.  IDoFFX=0 NUNeed=     1.
 LinEq1:  Iter=  0 NonCon=     1 RMS=1.74D-03 Max=7.83D-03 NDo=     1
 AX will form     1 AO Fock derivatives at one time.
 LinEq1:  Iter=  1 NonCon=     1 RMS=8.70D-04 Max=5.81D-03 NDo=     1
 LinEq1:  Iter=  2 NonCon=     1 RMS=1.17D-04 Max=5.83D-04 NDo=     1
 LinEq1:  Iter=  3 NonCon=     1 RMS=5.79D-06 Max=3.08D-05 NDo=     1
 LinEq1:  Iter=  4 NonCon=     1 RMS=3.12D-07 Max=1.56D-06 NDo=     1
 LinEq1:  Iter=  5 NonCon=     1 RMS=1.41D-08 Max=1.45D-07 NDo=     1
 LinEq1:  Iter=  6 NonCon=     1 RMS=1.04D-09 Max=8.11D-09 NDo=     1
 LinEq1:  Iter=  7 NonCon=     0 RMS=4.60D-11 Max=3.01D-10 NDo=     1
 Linear equations converged to 1.000D-10 1.000D-09 after     7 iterations.
 End of Minotr F.D. properties file   721 does not exist.
 End of Minotr F.D. properties file   722 does not exist.
 End of Minotr F.D. properties file   788 does not exist.
 Leave Link 1002 at Sat Nov 12 21:58:30 2022, MaxMem=   939524096 cpu:        13.3
 (Enter /Local/ce_dana/g09/l1102.exe)
 Use density number 2.
 Symmetrizing basis deriv contribution to polar:
 IMax=3 JMax=2 DiffMx= 0.00D+00
 Leave Link 1102 at Sat Nov 12 21:58:30 2022, MaxMem=   939524096 cpu:         0.1
 (Enter /Local/ce_dana/g09/l1110.exe)
 Forming Gx(P) for generalized density number  2 NAtomX=     5.
 Integral derivatives from FoFJK, PRISM(SPDF).
 Do as many integral derivatives as possible in FoFJK.
 G2DrvN: MDV=     939523952.
 G2DrvN: will do     6 centers at a time, making    1 passes.
 Calling FoFCou, ICntrl=  3107 FMM=F I1Cent=   0 AccDes= 1.00D-12.
 FoFJK:  IHMeth= 1 ICntrl=    3107 DoSepK=F KAlg= 0 I1Cent=   0 FoldK=F
 IRaf=         0 NMat=   1 IRICut=       1 DoRegI=T DoRafI=F ISym2E= 1.
 FoFCou: FMM=F IPFlag=           0 FMFlag=      100000 FMFlg1=           0
         NFxFlg=           0 DoJE=F BraDBF=F KetDBF=F FulRan=T
         wScrn=  0.000000 ICntrl=    3107 IOpCl=  0 I1Cent=           0 NGrid=           0
         NMat0=    1 NMatS0=      1 NMatT0=    0 NMatD0=    1 NMtDS0=    0 NMtDT0=    0
 Petite list used in FoFCou.
 End of G2Drv F.D. properties file   721 does not exist.
 End of G2Drv F.D. properties file   722 does not exist.
 End of G2Drv F.D. properties file   788 does not exist.
 Leave Link 1110 at Sat Nov 12 21:58:31 2022, MaxMem=   939524096 cpu:         7.0
 (Enter /Local/ce_dana/g09/l1112.exe)
 MP22nd: MDV=     939524096
 DoSCS=T DFT=T ScalE2(SS,OS)=  0.270000  0.270000
 Using stored XC quadrature information.
 This link is doing NAtomX=     5 total of    18 degrees of freedom.
 Using ON3 I/O method in MakUI.
 Frozen-core window:  NFC=   1 NFV=   0.
 Using Ix for Sx.
 Use MO integrals over full window.
 Using OV2 memory method for fx*t*t/D, MaxI=     5 DoOO2=F NP=  10.
 R2 and R3 integrals will be kept in memory, NReq=     5290730.
 FoFCou: FMM=F IPFlag=           0 FMFlag=           0 FMFlg1=           0
         NFxFlg=           0 DoJE=F BraDBF=F KetDBF=F FulRan=T
         wScrn=  0.000000 ICntrl=     600 IOpCl=  0 I1Cent=           0 NGrid=           0
         NMat0=    1 NMatS0=      1 NMatT0=    0 NMatD0=    1 NMtDS0=    0 NMtDT0=    0
 Symmetry not used in FoFCou.
 DD1Dir will call FoFMem   1 times, MxPair=        40
 NAB=    15 NAA=    10 NBB=     0.
 Symmetry is being used.
 FoFJK:  IHMeth= 1 ICntrl=       0 DoSepK=F KAlg= 0 I1Cent=   0 FoldK=F
 IRaf=         0 NMat=  18 IRICut=      45 DoRegI=T DoRafI=T ISym2E= 2.
 R6Disp: Adding Grimme-D3(BJ) dispersion energy 1st derivatives to the gradient.
 Discarding MO integrals.
 Leave Link 1112 at Sat Nov 12 21:58:35 2022, MaxMem=   939524096 cpu:        35.8
 (Enter /Local/ce_dana/g09/l601.exe)
 Copying SCF densities to generalized density rwf, IOpCl= 0 IROHF=0.

 **********************************************************************

            Population analysis using the SCF density.

 **********************************************************************

 Orbital symmetries:
       Occupied  (A1) (A1) (T2) (T2) (T2)
       Virtual   (A1) (T2) (T2) (T2) (T2) (T2) (T2) (A1) (T2) (T2)
                 (T2) (A1) (E) (E) (T2) (T2) (T2) (A1) (T2) (T2)
                 (T2) (T1) (T1) (T1) (A1) (T2) (T2) (T2) (T2) (T2)
                 (T2) (E) (E) (T2) (T2) (T2) (E) (E) (A1) (T1)
                 (T1) (T1) (T2) (T2) (T2) (T2) (T2) (T2) (A1) (A1)
 The electronic state is 1-A1.
 Alpha  occ. eigenvalues --  -10.59283  -0.79955  -0.45793  -0.45793  -0.45793
 Alpha virt. eigenvalues --    0.08995   0.17106   0.17106   0.17106   0.24363
 Alpha virt. eigenvalues --    0.24363   0.24363   0.43730   0.54843   0.54843
 Alpha virt. eigenvalues --    0.54843   0.61062   0.67315   0.67315   1.00824
 Alpha virt. eigenvalues --    1.00824   1.00824   1.57945   1.59774   1.59774
 Alpha virt. eigenvalues --    1.59774   1.64602   1.64602   1.64602   2.07700
 Alpha virt. eigenvalues --    2.10912   2.10912   2.10912   2.36893   2.36893
 Alpha virt. eigenvalues --    2.36893   2.52045   2.52045   2.70214   2.70214
 Alpha virt. eigenvalues --    2.70214   3.12156   3.12156   3.13003   3.49998
 Alpha virt. eigenvalues --    3.49998   3.49998   3.63666   3.63666   3.63666
 Alpha virt. eigenvalues --    4.35851   4.35851   4.35851   4.62313  22.63576
          Condensed to atoms (all electrons):
               1          2          3          4          5
     1  C    4.853786   0.402749   0.402749   0.402749   0.402749
     2  H    0.402749   0.554630  -0.024525  -0.024525  -0.024525
     3  H    0.402749  -0.024525   0.554630  -0.024525  -0.024525
     4  H    0.402749  -0.024525  -0.024525   0.554630  -0.024525
     5  H    0.402749  -0.024525  -0.024525  -0.024525   0.554630
 Mulliken charges:
               1
     1  C   -0.464782
     2  H    0.116195
     3  H    0.116195
     4  H    0.116195
     5  H    0.116195
 Sum of Mulliken charges =   0.00000
 Mulliken charges with hydrogens summed into heavy atoms:
               1
     1  C    0.000000
 APT charges:
               1
     1  C   -0.008756
     2  H    0.002189
     3  H    0.002189
     4  H    0.002189
     5  H    0.002189
 Sum of APT charges =   0.00000
 APT charges with hydrogens summed into heavy atoms:
               1
     1  C    0.000000
 Electronic spatial extent (au):  <R**2>=             35.7734
 Charge=              0.0000 electrons
 Dipole moment (field-independent basis, Debye):
    X=             -0.0000    Y=             -0.0000    Z=              0.0000  Tot=              0.0000
 Quadrupole moment (field-independent basis, Debye-Ang):
   XX=             -8.4628   YY=             -8.4628   ZZ=             -8.4628
   XY=             -0.0000   XZ=             -0.0000   YZ=              0.0000
 Traceless Quadrupole moment (field-independent basis, Debye-Ang):
   XX=              0.0000   YY=             -0.0000   ZZ=             -0.0000
   XY=             -0.0000   XZ=             -0.0000   YZ=              0.0000
 Octapole moment (field-independent basis, Debye-Ang**2):
  XXX=              0.0000  YYY=              0.0000  ZZZ=              0.0000  XYY=             -0.0000
  XXY=              0.0000  XXZ=              0.0000  XZZ=              0.0000  YZZ=             -0.0000
  YYZ=              0.0000  XYZ=             -0.7116
 Hexadecapole moment (field-independent basis, Debye-Ang**3):
 XXXX=            -17.0543 YYYY=            -17.0543 ZZZZ=            -17.0543 XXXY=             -0.0000
 XXXZ=             -0.0000 YYYX=             -0.0000 YYYZ=              0.0000 ZZZX=             -0.0000
 ZZZY=              0.0000 XXYY=             -5.1751 XXZZ=             -5.1751 YYZZ=             -5.1751
 XXYZ=              0.0000 YYXZ=              0.0000 ZZXY=             -0.0000
 N-N= 1.346375582471D+01 E-N=-1.201133597060D+02  KE= 4.025157368501D+01
 Symmetry A    KE= 3.446043010098D+01
 Symmetry B1   KE= 1.930381194677D+00
 Symmetry B2   KE= 1.930381194677D+00
 Symmetry B3   KE= 1.930381194677D+00
  Exact polarizability:  14.924  -0.000  14.924  -0.000   0.000  14.924
 Approx polarizability:  15.281   0.000  15.281   0.000   0.000  15.281
 No NMR shielding tensors so no spin-rotation constants.
 Leave Link  601 at Sat Nov 12 21:58:36 2022, MaxMem=   939524096 cpu:         1.4
 (Enter /Local/ce_dana/g09/l701.exe)
 Compute integral second derivatives.
 ... and contract with generalized density number  2.
 Use density number 2.
 R6Disp: Adding Grimme-D3(BJ) dispersion energy 2nd derivatives to the Hessian.
 Entering OneElI...
 Calculate overlap and kinetic energy integrals
    NBasis =  60  MinDer = 2  MaxDer = 2
 Requested accuracy = 0.1000D-14
 PrsmSu:  NPrtUS=  10 ThrOK=T IAlg=1 NPAlg=1 LenDen=           0.
 Prism:   IPart=     0 DynPar=F LinDyn=F Incr=           1.
 PRISM was handed    93940351 working-precision words and   378 shell-pairs
 PRISM was handed    93940351 working-precision words and   378 shell-pairs
 PRISM was handed    93940351 working-precision words and   378 shell-pairs
 PRISM was handed    93940351 working-precision words and   378 shell-pairs
 PRISM was handed    93940351 working-precision words and   378 shell-pairs
 PRISM was handed    93940351 working-precision words and   378 shell-pairs
 PRISM was handed    93940351 working-precision words and   378 shell-pairs
 PRISM was handed    93940351 working-precision words and   378 shell-pairs
 PRISM was handed    93940351 working-precision words and   378 shell-pairs
 PRISM was handed    93940351 working-precision words and   378 shell-pairs
 IPart=  3 NShTot=          42 NBatch=          21 AvBLen=         2.0
 IPart=  4 NShTot=          36 NBatch=          17 AvBLen=         2.1
 IPart=  0 NShTot=          63 NBatch=          36 AvBLen=         1.8
 IPart=  7 NShTot=          28 NBatch=          12 AvBLen=         2.3
 IPart=  6 NShTot=          28 NBatch=          12 AvBLen=         2.3
 IPart=  9 NShTot=          27 NBatch=          11 AvBLen=         2.5
 IPart=  8 NShTot=          27 NBatch=          11 AvBLen=         2.5
 IPart=  5 NShTot=          35 NBatch=          17 AvBLen=         2.1
 IPart=  2 NShTot=          43 NBatch=          22 AvBLen=         2.0
 IPart=  1 NShTot=          49 NBatch=          26 AvBLen=         1.9
 PrSmSu:  NxtVal=             11.
 Entering OneElI...
 Calculate potential energy integrals
    NBasis =  60  MinDer = 2  MaxDer = 2
 Requested accuracy = 0.1000D-14
 PrsmSu:  NPrtUS=  10 ThrOK=T IAlg=1 NPAlg=1 LenDen=           0.
 Prism:   IPart=     0 DynPar=F LinDyn=F Incr=           1.
 PRISM was handed    93940903 working-precision words and   378 shell-pairs
 PRISM was handed    93940903 working-precision words and   378 shell-pairs
 PRISM was handed    93940903 working-precision words and   378 shell-pairs
 PRISM was handed    93940903 working-precision words and   378 shell-pairs
 PRISM was handed    93940903 working-precision words and   378 shell-pairs
 PRISM was handed    93940903 working-precision words and   378 shell-pairs
 PRISM was handed    93940903 working-precision words and   378 shell-pairs
 PRISM was handed    93940903 working-precision words and   378 shell-pairs
 PRISM was handed    93940903 working-precision words and   378 shell-pairs
 PRISM was handed    93940903 working-precision words and   378 shell-pairs
 IPart=  4 NShTot=         180 NBatch=          36 AvBLen=         5.0
 IPart=  0 NShTot=         315 NBatch=          63 AvBLen=         5.0
 IPart=  3 NShTot=         205 NBatch=          41 AvBLen=         5.0
 IPart=  7 NShTot=         145 NBatch=          29 AvBLen=         5.0
 IPart=  5 NShTot=         170 NBatch=          34 AvBLen=         5.0
 IPart=  8 NShTot=         140 NBatch=          28 AvBLen=         5.0
 IPart=  9 NShTot=         140 NBatch=          28 AvBLen=         5.0
 IPart=  2 NShTot=         215 NBatch=          43 AvBLen=         5.0
 IPart=  6 NShTot=         150 NBatch=          30 AvBLen=         5.0
 IPart=  1 NShTot=         230 NBatch=          46 AvBLen=         5.0
 PrSmSu:  NxtVal=             11.
  24 Symmetry operations used in ECPInt.
 ECPInt:  NShTT=     378 NPrTT=    1024 LenC2=     379 LenP2D=     994.
 LDataN:  DoStor=F MaxTD1= 8 Len=  415
 LDataN:  DoStor=T MaxTD1= 8 Len=  415
 ECPSu:  NPrtUS=  10 ThrOK=T
 Polarizability after L701:
                1             2             3 
      1  0.149238D+02
      2  0.000000D+00  0.149238D+02
      3  0.000000D+00  0.000000D+00  0.149238D+02
 Dipole Derivatives after L701:
                 1             2             3             4             5 
      1  -0.875601D-02  0.000000D+00  0.000000D+00  0.218900D-02  0.680555D-01
      2   0.000000D+00 -0.875601D-02  0.000000D+00  0.680555D-01  0.218900D-02
      3   0.000000D+00  0.000000D+00 -0.875601D-02  0.680555D-01 -0.680555D-01
                 6             7             8             9            10 
      1   0.680555D-01  0.218900D-02 -0.680555D-01 -0.680555D-01  0.218900D-02
      2  -0.680555D-01 -0.680555D-01  0.218900D-02 -0.680555D-01 -0.680555D-01
      3   0.218900D-02 -0.680555D-01 -0.680555D-01  0.218900D-02  0.680555D-01
                11            12            13            14            15 
      1  -0.680555D-01  0.680555D-01  0.218900D-02  0.680555D-01 -0.680555D-01
      2   0.218900D-02  0.680555D-01  0.680555D-01  0.218900D-02  0.680555D-01
      3   0.680555D-01  0.218900D-02 -0.680555D-01  0.680555D-01  0.218900D-02
 Hessian after L701:
                1             2             3             4             5 
      1  0.523783D+01
      2  0.000000D+00  0.523783D+01
      3  0.000000D+00  0.000000D+00  0.523783D+01
      4 -0.130946D+01 -0.493635D+00 -0.493635D+00  0.129304D+01
      5 -0.493635D+00 -0.130946D+01  0.493635D+00  0.482531D+00  0.129304D+01
      6 -0.493635D+00  0.493635D+00 -0.130946D+01  0.482531D+00 -0.482531D+00
      7 -0.130946D+01  0.493635D+00  0.493635D+00  0.264749D-01  0.188924D-01
      8  0.493635D+00 -0.130946D+01  0.493635D+00 -0.188924D-01 -0.502930D-02
      9  0.493635D+00  0.493635D+00 -0.130946D+01 -0.188924D-01 -0.111038D-01
     10 -0.130946D+01  0.493635D+00 -0.493635D+00 -0.502930D-02 -0.188924D-01
     11  0.493635D+00 -0.130946D+01 -0.493635D+00  0.188924D-01  0.264749D-01
     12 -0.493635D+00 -0.493635D+00 -0.130946D+01  0.111038D-01  0.188924D-01
     13 -0.130946D+01 -0.493635D+00  0.493635D+00 -0.502930D-02  0.111038D-01
     14 -0.493635D+00 -0.130946D+01 -0.493635D+00  0.111038D-01 -0.502930D-02
     15  0.493635D+00 -0.493635D+00 -0.130946D+01  0.188924D-01 -0.188924D-01
                6             7             8             9            10 
      6  0.129304D+01
      7  0.188924D-01  0.129304D+01
      8 -0.111038D-01 -0.482531D+00  0.129304D+01
      9 -0.502930D-02 -0.482531D+00 -0.482531D+00  0.129304D+01
     10  0.111038D-01 -0.502930D-02 -0.111038D-01  0.188924D-01  0.129304D+01
     11 -0.188924D-01 -0.111038D-01 -0.502930D-02  0.188924D-01 -0.482531D+00
     12 -0.502930D-02 -0.188924D-01 -0.188924D-01  0.264749D-01  0.482531D+00
     13 -0.188924D-01 -0.502930D-02  0.188924D-01 -0.111038D-01  0.264749D-01
     14  0.188924D-01 -0.188924D-01  0.264749D-01 -0.188924D-01  0.188924D-01
     15  0.264749D-01 -0.111038D-01  0.188924D-01 -0.502930D-02 -0.188924D-01
               11            12            13            14            15 
     11  0.129304D+01
     12  0.482531D+00  0.129304D+01
     13 -0.188924D-01  0.188924D-01  0.129304D+01
     14 -0.502930D-02  0.111038D-01  0.482531D+00  0.129304D+01
     15  0.111038D-01 -0.502930D-02 -0.482531D+00  0.482531D+00  0.129304D+01
 Leave Link  701 at Sat Nov 12 21:58:36 2022, MaxMem=   939524096 cpu:         5.4
 (Enter /Local/ce_dana/g09/l702.exe)
 L702 exits ... SP integral derivatives will be done elsewhere.
 Leave Link  702 at Sat Nov 12 21:58:36 2022, MaxMem=   939524096 cpu:         0.0
 (Enter /Local/ce_dana/g09/l703.exe)
 Compute integral second derivatives, UseDBF=F ICtDFT=           0.
 Integral derivatives from FoFJK, PRISM(SPDF).
 ICntrl=  10100127.
 Calling FoFJK, ICntrl=  10100127 FMM=F ISym2X=1 I1Cent= 0 IOpClX= 0 NMat=1 NMatS=1 NMatT=0.
 FoFJK:  IHMeth= 1 ICntrl=10100127 DoSepK=F KAlg= 0 I1Cent=   0 FoldK=F
 IRaf=         0 NMat=   1 IRICut=       1 DoRegI=T DoRafI=F ISym2E= 1.
 FoFCou: FMM=F IPFlag=           0 FMFlag=      100000 FMFlg1=         800
         NFxFlg=           0 DoJE=F BraDBF=F KetDBF=F FulRan=T
         wScrn=  0.000000 ICntrl=10100127 IOpCl=  0 I1Cent=           0 NGrid=           0
         NMat0=    1 NMatS0=      1 NMatT0=    0 NMatD0=    1 NMtDS0=    0 NMtDT0=    0
 Petite list used in FoFCou.
 FoFCou:  KetSym=F NOpSet= 24 NOpAb=4 NOp= 24.
 FoFCou:  CnvScl= 1.00D+00 Thresh= 1.00D-12 IAcrcy=      10.
 PrismS was handed   939482262 working-precision words and   378 shell-pairs
 FoFCou: LinMIO=F DoNuc=F BraDBF=F KetDBF=F HaveP=T PDBF=F HaveZ=T HaveW=F
         NIJTC =      10 NIJTAt=       0 NIJTCD=       0 NIJTT =      10
         IJTBeg=       1 IJTEnd=      10 KLTBeg=       1 KLTEnd=      10
         IPTBeg=       1 IPTEnd=      10 IPTBCv=       1 IPTECv=      10
         IZTBeg=       1 IZTEnd=      10 IZTBCv=       1 IZTECv=      10
         IWTBeg=      11 IWTEnd=      10 IWTBCv=      11 IWTECv=      10
         INTBeg=       1 INTEnd=       0 IFTBCv=       1 IFTECv=      10
 NCel replicated for PrismC:     1
 CoulSu:  IncDef=  1024 NBBP=          71631 NTPThr=   100 NPartT=   10 Incr=          71 LDynOK=F.
 CoulSu:  NPrtUS=  10 ThrOK=T IAlg=1 NPAlg=1 LenDen=           0 LWGrdD=           0 DoCopy=F.
 Enter PrismC: JobTyp=22 DoJE=F Cont=F.
 PrismC:  IPart=     0 DynPar=F LinDyn=F Incr=          71 UseFst=F UseS4=T IGathr=2.
 PrismC was handed    93940393 working-precision words and   378 shell-pairs
 Enter PrismC: JobTyp=22 DoJE=F Cont=F.
 Enter PrismC: JobTyp=22 DoJE=F Cont=F.
 PrismC was handed    93940393 working-precision words and   378 shell-pairs
 Enter PrismC: JobTyp=22 DoJE=F Cont=F.
 Enter PrismC: JobTyp=22 DoJE=F Cont=F.
 PrismC was handed    93940393 working-precision words and   378 shell-pairs
 PrismC was handed    93940393 working-precision words and   378 shell-pairs
 PrismC was handed    93940393 working-precision words and   378 shell-pairs
 Enter PrismC: JobTyp=22 DoJE=F Cont=F.
 Enter PrismC: JobTyp=22 DoJE=F Cont=F.
 Enter PrismC: JobTyp=22 DoJE=F Cont=F.
 Enter PrismC: JobTyp=22 DoJE=F Cont=F.
 PrismC was handed    93940393 working-precision words and   378 shell-pairs
 PrismC was handed    93940393 working-precision words and   378 shell-pairs
 PrismC was handed    93940393 working-precision words and   378 shell-pairs
 PrismC was handed    93940393 working-precision words and   378 shell-pairs
 Enter PrismC: JobTyp=22 DoJE=F Cont=F.
 PrismC was handed    93940393 working-precision words and   378 shell-pairs
 IPart=  6 NShTot=         919 NShNF=         919 NShFF=           0 NBatch=         257 AvBLen=         3.6
 IPart=  8 NShTot=         767 NShNF=         767 NShFF=           0 NBatch=         176 AvBLen=         4.4
 IPart=  4 NShTot=         958 NShNF=         958 NShFF=           0 NBatch=         250 AvBLen=         3.8
 IPart=  3 NShTot=        1260 NShNF=        1260 NShFF=           0 NBatch=         389 AvBLen=         3.2
 IPart=  5 NShTot=        1071 NShNF=        1071 NShFF=           0 NBatch=         301 AvBLen=         3.6
 IPart=  0 NShTot=        1399 NShNF=        1399 NShFF=           0 NBatch=         540 AvBLen=         2.6
 IPart=  7 NShTot=        1033 NShNF=        1033 NShFF=           0 NBatch=         298 AvBLen=         3.5
 IPart=  2 NShTot=        1288 NShNF=        1288 NShFF=           0 NBatch=         390 AvBLen=         3.3
 IPart=  1 NShTot=        1460 NShNF=        1460 NShFF=           0 NBatch=         485 AvBLen=         3.0
 IPart=  9 NShTot=         908 NShNF=         908 NShFF=           0 NBatch=         264 AvBLen=         3.4
 CoulSu:  NxtVal=            711.
 ReadGW:  IGet=0 IStart=           1 Next=           1 LGW=           0.
 Remaining memory in FofDFT      896.00 Mw
 CkSvGd:  ISavGI=        -1 IRadAn=       5 IRASav=       5 ISavGd=        -1.
 CalDSu:  NPrtUS=  10 ThrOK=T IAlg=1 NPAlg=2 DoDPD=T LenP=        1830 LenD1P=             0.
 IPart=  0 IRanGd=          0 ScrnBf=T ScrnGd=T RCrit=4.00D+00 DoMicB=T.
 IPart=  0         2475 of         2692 points in       6 batches and       15 microbatches, Max-NSigAt=       5 Max-NSgAt2=       5
 IPart=  6         2706 of         2984 points in       5 batches and       20 microbatches, Max-NSigAt=       5 Max-NSgAt2=       5
 IPart=  8         2199 of         2323 points in       3 batches and       17 microbatches, Max-NSigAt=       5 Max-NSgAt2=       5
 IPart=  7         2292 of         2428 points in       3 batches and       20 microbatches, Max-NSigAt=       5 Max-NSgAt2=       5
 IPart=  5         2463 of         2608 points in       4 batches and       29 microbatches, Max-NSigAt=       5 Max-NSgAt2=       5
 IPart=  4         2937 of         3120 points in       6 batches and       16 microbatches, Max-NSigAt=       5 Max-NSgAt2=       5
 IPart=  1         2632 of         2812 points in       4 batches and       16 microbatches, Max-NSigAt=       5 Max-NSgAt2=       5
 IPart=  3         2304 of         2434 points in       3 batches and       22 microbatches, Max-NSigAt=       5 Max-NSgAt2=       5
 IPart=  9         2844 of         2863 points in       3 batches and        9 microbatches, Max-NSigAt=       5 Max-NSgAt2=       5
 IPart=  2         3223 of         3290 points in       3 batches and       12 microbatches, Max-NSigAt=       5 Max-NSgAt2=       5
 Polarizability after L703:
                1             2             3 
      1  0.149238D+02
      2  0.000000D+00  0.149238D+02
      3  0.000000D+00  0.000000D+00  0.149238D+02
 Dipole Derivatives after L703:
                 1             2             3             4             5 
      1  -0.875601D-02  0.000000D+00  0.000000D+00  0.218900D-02  0.680555D-01
      2   0.000000D+00 -0.875601D-02  0.000000D+00  0.680555D-01  0.218900D-02
      3   0.000000D+00  0.000000D+00 -0.875601D-02  0.680555D-01 -0.680555D-01
                 6             7             8             9            10 
      1   0.680555D-01  0.218900D-02 -0.680555D-01 -0.680555D-01  0.218900D-02
      2  -0.680555D-01 -0.680555D-01  0.218900D-02 -0.680555D-01 -0.680555D-01
      3   0.218900D-02 -0.680555D-01 -0.680555D-01  0.218900D-02  0.680555D-01
                11            12            13            14            15 
      1  -0.680555D-01  0.680555D-01  0.218900D-02  0.680555D-01 -0.680555D-01
      2   0.218900D-02  0.680555D-01  0.680555D-01  0.218900D-02  0.680555D-01
      3   0.680555D-01  0.218900D-02 -0.680555D-01  0.680555D-01  0.218900D-02
 Hessian after L703:
                1             2             3             4             5 
      1  0.553534D+00
      2  0.000000D+00  0.553534D+00
      3  0.000000D+00  0.000000D+00  0.553534D+00
      4 -0.138384D+00  0.921868D-01  0.921868D-01  0.146910D+00
      5  0.921868D-01 -0.138384D+00 -0.921868D-01 -0.101326D+00  0.146910D+00
      6  0.921868D-01 -0.921868D-01 -0.138384D+00 -0.101326D+00  0.101326D+00
      7 -0.138384D+00 -0.921868D-01 -0.921868D-01  0.130616D-01  0.116907D-01
      8 -0.921868D-01 -0.138384D+00 -0.921868D-01 -0.116907D-01 -0.107942D-01
      9 -0.921868D-01 -0.921868D-01 -0.138384D+00 -0.116907D-01 -0.913915D-02
     10 -0.138384D+00 -0.921868D-01  0.921868D-01 -0.107942D-01 -0.116907D-01
     11 -0.921868D-01 -0.138384D+00  0.921868D-01  0.116907D-01  0.130616D-01
     12  0.921868D-01  0.921868D-01 -0.138384D+00  0.913915D-02  0.116907D-01
     13 -0.138384D+00  0.921868D-01 -0.921868D-01 -0.107942D-01  0.913915D-02
     14  0.921868D-01 -0.138384D+00  0.921868D-01  0.913915D-02 -0.107942D-01
     15 -0.921868D-01  0.921868D-01 -0.138384D+00  0.116907D-01 -0.116907D-01
                6             7             8             9            10 
      6  0.146910D+00
      7  0.116907D-01  0.146910D+00
      8 -0.913915D-02  0.101326D+00  0.146910D+00
      9 -0.107942D-01  0.101326D+00  0.101326D+00  0.146910D+00
     10  0.913915D-02 -0.107942D-01 -0.913915D-02  0.116907D-01  0.146910D+00
     11 -0.116907D-01 -0.913915D-02 -0.107942D-01  0.116907D-01  0.101326D+00
     12 -0.107942D-01 -0.116907D-01 -0.116907D-01  0.130616D-01 -0.101326D+00
     13 -0.116907D-01 -0.107942D-01  0.116907D-01 -0.913915D-02  0.130616D-01
     14  0.116907D-01 -0.116907D-01  0.130616D-01 -0.116907D-01  0.116907D-01
     15  0.130616D-01 -0.913915D-02  0.116907D-01 -0.107942D-01 -0.116907D-01
               11            12            13            14            15 
     11  0.146910D+00
     12 -0.101326D+00  0.146910D+00
     13 -0.116907D-01  0.116907D-01  0.146910D+00
     14 -0.107942D-01  0.913915D-02 -0.101326D+00  0.146910D+00
     15  0.913915D-02 -0.107942D-01  0.101326D+00 -0.101326D+00  0.146910D+00
 Leave Link  703 at Sat Nov 12 21:58:38 2022, MaxMem=   939524096 cpu:        13.0
 (Enter /Local/ce_dana/g09/l716.exe)
 FrcOut:
 IF    =    42 IFX   =    57 IFXYZ =    72
 IFFX  =    87 IFFFX =   207 IFLen =    15
 IFFLen=   120 IFFFLn=     0 IEDerv=   207
 LEDerv=   773 IFroze=  1169 ICStrt=  7393
 Dipole        =-2.01222841D-15-5.42605240D-15-3.99566448D-15
 DipoleDeriv   =-8.75600924D-03-3.26980974D-11-3.27047913D-11
                -3.30078039D-11-8.75600923D-03 3.29940496D-11
                -3.28733821D-11 3.30752702D-11-8.75600923D-03
                 2.18900208D-03 6.80554628D-02 6.80554628D-02
                 6.80554628D-02 2.18900210D-03-6.80554628D-02
                 6.80554628D-02-6.80554628D-02 2.18900210D-03
                 2.18900241D-03-6.80554624D-02-6.80554624D-02
                -6.80554629D-02 2.18900235D-03-6.80554625D-02
                -6.80554629D-02-6.80554625D-02 2.18900235D-03
                 2.18900237D-03-6.80554629D-02 6.80554625D-02
                -6.80554624D-02 2.18900243D-03 6.80554624D-02
                 6.80554625D-02 6.80554629D-02 2.18900235D-03
                 2.18900237D-03 6.80554625D-02-6.80554629D-02
                 6.80554625D-02 2.18900235D-03 6.80554629D-02
                -6.80554624D-02 6.80554624D-02 2.18900243D-03
 Polarizability= 1.49237968D+01-3.43018514D-10 1.49237968D+01
                -3.43006889D-10 3.47261960D-10 1.49237968D+01
 VibFq2-Diag1:  N=     15 IV=           6 MDV=   939515641 NE2=    62634375
 Full mass-weighted force constant matrix:
 Low frequencies ---    0.0008    0.0012    0.0013    7.7211    7.7221    7.7221
 Low frequencies --- 1354.8464 1354.8464 1354.8464
 OrtVCM:  Ph=1 IPass= 1 DotMx1= 0.00D+00
 OrtVCM:  IS=    1 I=    1 IndO=    1 Dot= 1.00D+00 DotN= 1.00D+00 ElMax1= 8.65D-01 ElMax1N= 8.65D-01
 OrtVCM:  Ph=2 NNew=    0 IAdd=    2 IPass= 1 DotMx2= 0.00D+00
 OrtVCM:  IS=    1 I=    2 IndO=    2 Dot= 1.00D+00 DotN= 1.00D+00 ElMax1= 8.65D-01 ElMax1N= 8.65D-01
 OrtVCM:  Ph=2 NNew=    0 IAdd=    3 IPass= 1 DotMx2= 0.00D+00
 OrtVCM:  IS=    1 I=    3 IndO=    3 Dot= 1.00D+00 DotN= 1.00D+00 ElMax1= 8.65D-01 ElMax1N= 8.65D-01
 OrtVCM:  Ph=2 NNew=    0 IAdd=    4 IPass= 1 DotMx2= 2.78D-17
 OrtVCM:  IS=    1 I=    4 IndO=    4 Dot= 1.00D+00 DotN= 1.00D+00 ElMax1= 4.47D-01 ElMax1N= 4.47D-01
 OrtVCM:  Ph=2 NNew=    0 IAdd=    5 IPass= 1 DotMx2= 8.33D-17
 OrtVCM:  IS=    1 I=    5 IndO=    5 Dot= 1.00D+00 DotN= 1.00D+00 ElMax1= 4.47D-01 ElMax1N= 4.47D-01
 OrtVCM:  Ph=2 NNew=    0 IAdd=    6 IPass= 1 DotMx2= 6.94D-17
 OrtVCM:  IS=    1 I=    6 IndO=    6 Dot= 1.00D+00 DotN= 1.00D+00 ElMax1= 3.54D-01 ElMax1N= 3.54D-01
 OrtVCM:  Ph=1 IPass= 1 DotMx1= 8.65D-01
 OrtVCM:  Ph=1 IPass= 2 DotMx1= 3.05D-16
 OrtVCM:  IS=    1 I=    1 IndO=    7 Dot= 2.51D-01 DotN= 2.51D-01 ElMax1= 2.51D-01 ElMax1N= 2.51D-01
 OrtVCM:  Ph=2 NNew=    0 IAdd=    2 IPass= 1 DotMx2= 8.45D-34
 OrtVCM:  IS=    1 I=    2 IndO=    8 Dot= 2.51D-01 DotN= 2.51D-01 ElMax1= 2.51D-01 ElMax1N= 2.51D-01
 OrtVCM:  Ph=2 NNew=    0 IAdd=    3 IPass= 1 DotMx2= 1.08D-32
 OrtVCM:  IS=    1 I=    3 IndO=    9 Dot= 2.51D-01 DotN= 2.51D-01 ElMax1= 2.51D-01 ElMax1N= 2.51D-01
 OrtVCM:  Ph=2 NNew=    0 IAdd=    4 IPass= 1 DotMx2= 4.33D-01
 OrtVCM:  Ph=2 NNew=    0 IAdd=    4 IPass= 2 DotMx2= 1.01D-17
 OrtVCM:  IS=    1 I=    4 IndO=   10 Dot= 5.00D-01 DotN= 5.00D-01 ElMax1= 5.00D-01 ElMax1N= 5.00D-01
 OrtVCM:  Ph=2 NNew=    0 IAdd=    5 IPass= 1 DotMx2= 4.33D-01
 OrtVCM:  Ph=2 NNew=    0 IAdd=    5 IPass= 2 DotMx2= 5.55D-17
 OrtVCM:  IS=    1 I=    5 IndO=   11 Dot= 4.69D-01 DotN= 4.69D-01 ElMax1= 4.69D-01 ElMax1N= 4.69D-01
 OrtVCM:  Ph=2 NNew=    0 IAdd=    6 IPass= 1 DotMx2= 4.33D-01
 OrtVCM:  Ph=2 NNew=    0 IAdd=    6 IPass= 2 DotMx2= 5.55D-17
 OrtVCM:  IS=    1 I=    6 IndO=   12 Dot= 4.50D-01 DotN= 4.50D-01 ElMax1= 4.50D-01 ElMax1N= 4.50D-01
 OrtVCM:  Ph=2 NNew=    0 IAdd=    7 IPass= 1 DotMx2= 4.33D-01
 OrtVCM:  Ph=2 NNew=    0 IAdd=    7 IPass= 2 DotMx2= 2.78D-17
 OrtVCM:  IS=    1 I=    7 IndO=   13 Dot= 4.44D-01 DotN= 4.44D-01 ElMax1= 4.44D-01 ElMax1N= 4.44D-01
 OrtVCM:  Ph=2 NNew=    0 IAdd=    8 IPass= 1 DotMx2= 4.33D-01
 OrtVCM:  Ph=2 NNew=    0 IAdd=    8 IPass= 2 DotMx2= 7.98D-17
 OrtVCM:  IS=    1 I=    8 IndO=   14 Dot= 1.67D-01 DotN= 1.67D-01 ElMax1= 1.67D-01 ElMax1N= 1.67D-01
 OrtVCM:  Ph=2 NNew=    0 IAdd=    9 IPass= 1 DotMx2= 4.33D-01
 OrtVCM:  Ph=2 NNew=    0 IAdd=    9 IPass= 2 DotMx2= 1.09D-16
 OrtVCM:  IS=    1 I=    9 IndO=    0 Dot= 8.31D-32 DotN= 8.31D-32 ElMax1= 1.30D-16 ElMax1N= 1.30D-16
 SchOr2:  IPass= 1 Test2A= 1.00D-01 IOff=     0 NDo=     9 NNew=     8
 OrtVCM:  Ph=1 IPass= 1 DotMx1= 4.33D-01
 OrtVCM:  Ph=1 IPass= 2 DotMx1= 2.68D-16
 OrtVCM:  IS=    1 I=    1 IndO=    0 Dot= 4.02D-33 DotN= 4.02D-33 ElMax1= 3.17D-17 ElMax1N= 3.17D-17
 SchOr2:  IPass= 1 Test2A= 1.00D-01 IOff=     9 NDo=     1 NNew=     0
 OrtVCM:  Ph=1 IPass= 1 DotMx1= 4.47D-01
 OrtVCM:  Ph=1 IPass= 2 DotMx1= 2.15D-16
 OrtVCM:  IS=    1 I=    1 IndO=   15 Dot= 2.50D-01 DotN= 2.50D-01 ElMax1= 2.50D-01 ElMax1N= 2.50D-01
 SchOr2:  IPass= 1 Test2A= 1.00D-01 IOff=    10 NDo=     1 NNew=     1
 VibFq2-Diag2:  N=      9 IV=           6 MDV=   939515641 NE2=   104390626
 Dipole derivatives wrt mode   1:  2.14570D+00 -2.16960D+00 -2.18741D+00
 Vibrational polarizability contributions from mode   1       0.0674982       0.0690097       0.0701478
 Vibrational hyperpolarizability contributions from mode   1       0.0000000      -0.0000000      -0.0000000
 Dipole derivatives wrt mode   2: -3.02891D+00 -1.97316D+00 -1.01407D+00
 Vibrational polarizability contributions from mode   2       0.1345008       0.0570789       0.0150760
 Vibrational hyperpolarizability contributions from mode   2      -0.0000000      -0.0000000      -0.0000000
 Dipole derivatives wrt mode   3: -5.63593D-01  2.34424D+00 -2.87799D+00
 Vibrational polarizability contributions from mode   3       0.0046568       0.0805671       0.1214319
 Vibrational hyperpolarizability contributions from mode   3      -0.0000000       0.0000000      -0.0000000
 Dipole derivatives wrt mode   4:  2.88329D-09  5.04235D-09 -2.07954D-09
 Vibrational polarizability contributions from mode   4       0.0000000       0.0000000       0.0000000
 Vibrational hyperpolarizability contributions from mode   4       0.0000000       0.0000000      -0.0000000
 Dipole derivatives wrt mode   5:  4.06910D-09 -4.40098D-10  4.62377D-09
 Vibrational polarizability contributions from mode   5       0.0000000       0.0000000       0.0000000
 Vibrational hyperpolarizability contributions from mode   5       0.0000000      -0.0000000       0.0000000
 Dipole derivatives wrt mode   6:  2.17077D-09 -5.52945D-09 -5.55022D-09
 Vibrational polarizability contributions from mode   6       0.0000000       0.0000000       0.0000000
 Vibrational hyperpolarizability contributions from mode   6       0.0000000      -0.0000000      -0.0000000
 Dipole derivatives wrt mode   7: -2.69258D+00  2.69374D+00  2.69513D+00
 Vibrational polarizability contributions from mode   7       0.0194513       0.0194682       0.0194882
 Vibrational hyperpolarizability contributions from mode   7      -0.0000000       0.0000000       0.0000000
 Dipole derivatives wrt mode   8:  3.74689D+00  2.47221D+00  1.27240D+00
 Vibrational polarizability contributions from mode   8       0.0376663       0.0163977       0.0043437
 Vibrational hyperpolarizability contributions from mode   8       0.0000000       0.0000000       0.0000000
 Dipole derivatives wrt mode   9: -6.93427D-01  2.89860D+00 -3.58988D+00
 Vibrational polarizability contributions from mode   9       0.0012901       0.0225418       0.0345758
 Vibrational hyperpolarizability contributions from mode   9      -0.0000000       0.0000000      -0.0000000
 Diagonal vibrational polarizability:
        0.2650635       0.2650635       0.2650635
 NorSel:  MapVib=      1      2      3      4      5      6      7      8      9
 Harmonic frequencies (cm**-1), IR intensities (KM/Mole), Raman scattering
 activities (A**4/AMU), depolarization ratios for plane and unpolarized
 incident light, reduced masses (AMU), force constants (mDyne/A),
 and normal coordinates:
                      1                      2                      3
                     T2                     T2                     T2
 Frequencies --   1354.8464              1354.8464              1354.8464
 Red. masses --      1.1797                 1.1797                 1.1797
 Frc consts  --      1.2759                 1.2759                 1.2759
 IR Inten    --     14.0960                14.0960                14.0960
  Atom  AN      X      Y      Z        X      Y      Z        X      Y      Z
     1   6    -0.07   0.07   0.07     0.10   0.07   0.03     0.02  -0.08   0.10
     2   1    -0.06   0.05   0.05    -0.48  -0.32  -0.17    -0.09   0.38  -0.46
     3   1     0.48  -0.21  -0.22    -0.12   0.05   0.21    -0.02   0.44  -0.40
     4   1     0.21  -0.48  -0.22    -0.24  -0.07  -0.41    -0.38   0.09  -0.18
     5   1     0.21  -0.22  -0.48    -0.36  -0.45  -0.04     0.27   0.02  -0.11
                      4                      5                      6
                      E                      E                     A1
 Frequencies --   1573.8876              1573.8876              3054.0104
 Red. masses --      1.0078                 1.0078                 1.0078
 Frc consts  --      1.4709                 1.4709                 5.5383
 IR Inten    --      0.0000                 0.0000                 0.0000
  Atom  AN      X      Y      Z        X      Y      Z        X      Y      Z
     1   6    -0.00  -0.00   0.00    -0.00   0.00  -0.00     0.00  -0.00  -0.00
     2   1     0.24   0.41  -0.17     0.33  -0.04   0.37     0.29  -0.29  -0.29
     3   1     0.24  -0.41   0.17     0.33   0.04  -0.37     0.29   0.29   0.29
     4   1    -0.24   0.41   0.17    -0.33  -0.04  -0.37    -0.29  -0.29   0.29
     5   1    -0.24  -0.41  -0.17    -0.33   0.04   0.37    -0.29   0.29  -0.29
                      7                      8                      9
                     T2                     T2                     T2
 Frequencies --   3167.0898              3167.0898              3167.0898
 Red. masses --      1.1010                 1.1010                 1.1010
 Frc consts  --      6.5068                 6.5068                 6.5068
 IR Inten    --     21.7700                21.7700                21.7700
  Atom  AN      X      Y      Z        X      Y      Z        X      Y      Z
     1   6    -0.05   0.05   0.05     0.07   0.05   0.03    -0.01   0.06  -0.07
     2   1     0.50  -0.50  -0.50     0.02   0.01   0.01    -0.00   0.01  -0.02
     3   1    -0.18  -0.16  -0.16    -0.46  -0.46  -0.47     0.08   0.10   0.07
     4   1     0.16   0.18  -0.16    -0.30  -0.30   0.32    -0.37  -0.35   0.35
     5   1     0.16  -0.16   0.18    -0.14   0.17  -0.16     0.45  -0.44   0.44

 -------------------
 - Thermochemistry -
 -------------------
 Temperature   298.150 Kelvin.  Pressure   1.00000 Atm.
 Atom     1 has atomic number  6 and mass  12.00000
 Atom     2 has atomic number  1 and mass   1.00783
 Atom     3 has atomic number  1 and mass   1.00783
 Atom     4 has atomic number  1 and mass   1.00783
 Atom     5 has atomic number  1 and mass   1.00783
 Molecular mass:    16.03130 amu.
 Principal axes and moments of inertia in atomic units:
                           1         2         3
     Eigenvalues --    11.35329  11.35329  11.35329
           X            0.31623   0.94868   0.00000
           Y            0.00000  -0.00000   1.00000
           Z            0.94868  -0.31623   0.00000
 This molecule is a spherical top.
 Rotational symmetry number 12.
 Rotational temperatures (Kelvin)      7.62896     7.62896     7.62896
 Rotational constants (GHZ):         158.96200   158.96200   158.96200
 Zero-point vibrational energy     118236.5 (Joules/Mol)
                                   28.25919 (Kcal/Mol)
 Vibrational temperatures:   1949.32  1949.32  1949.32  2264.47  2264.47
          (Kelvin)           4394.03  4556.73  4556.73  4556.73
 
 Zero-point correction=                           0.045034 (Hartree/Particle)
 Thermal correction to Energy=                    0.047901
 Thermal correction to Enthalpy=                  0.048845
 Thermal correction to Gibbs Free Energy=         0.027725
 Sum of electronic and zero-point Energies=            -40.438407
 Sum of electronic and thermal Energies=               -40.435540
 Sum of electronic and thermal Enthalpies=             -40.434596
 Sum of electronic and thermal Free Energies=          -40.455716
 
                     E (Thermal)             CV                S
                      KCal/Mol        Cal/Mol-Kelvin    Cal/Mol-Kelvin
 Total                   30.058              6.447             44.450
 Electronic               0.000              0.000              0.000
 Translational            0.889              2.981             34.261
 Rotational               0.889              2.981             10.107
 Vibrational             28.281              0.486              0.082
                       Q            Log10(Q)             Ln(Q)
 Total Bot       0.176796D-12        -12.752528        -29.363782
 Total V=0       0.915336D+08          7.961580         18.332216
 Vib (Bot)       0.194185D-20        -20.711784        -47.690646
 Vib (V=0)       0.100537D+01          0.002324          0.005352
 Electronic      0.100000D+01          0.000000          0.000000
 Translational   0.252295D+07          6.401908         14.740939
 Rotational      0.360867D+02          1.557348          3.585925
 
                                                                 CH4
                                                             IR Spectrum
 
      3   3                                                          1        1                                                      
      1   0                                                          5        3                                                      
      6   5                                                          7        5                                                      
      7   4                                                          4        5                                                      
 
      X                                                                       X                                                      
      X                                                                       X                                                      
      X                                                                       X                                                      
      X                                                                       X                                                      
      X                                                                       X                                                      
      X                                                                       X                                                      
      X                                                                       X                                                      
      X                                                                       X                                                      
      X                                                                       X                                                      
      X                                                                       X                                                      
      X                                                                       X                                                      
      X                                                                       X                                                      
      X                                                                       X                                                      
      X                                                                                                                              
      X                                                                                                                              
      X                                                                                                                              
      X                                                                                                                              
      X                                                                                                                              
      X                                                                                                                              
      X                                                                                                                              
 
 Forces in standard orientation:
 -------------------------------------------------------------------
 Center     Atomic                   Forces (Hartrees/Bohr)
 Number     Number              X              Y              Z
 -------------------------------------------------------------------
      1        6          -0.000000000   -0.000000000   -0.000000000
      2        1          -0.000000025    0.000000025    0.000000025
      3        1          -0.000000025   -0.000000025   -0.000000025
      4        1           0.000000025    0.000000025   -0.000000025
      5        1           0.000000025   -0.000000025    0.000000025
 -------------------------------------------------------------------
 ***** Axes restored to original set *****
 Rotating derivatives, DoTrsp=F IDiff=-2 LEDeriv=    772 LFDPrp=       0 LDFDPr=       0.
 -------------------------------------------------------------------
 Center     Atomic                   Forces (Hartrees/Bohr)
 Number     Number              X              Y              Z
 -------------------------------------------------------------------
      1        6          -0.000000000   -0.000000000    0.000000000
      2        1           0.000000025    0.000000030    0.000000016
      3        1           0.000000014   -0.000000038    0.000000013
      4        1           0.000000001    0.000000002   -0.000000043
      5        1          -0.000000040    0.000000006    0.000000014
 -------------------------------------------------------------------
 Cartesian Forces:  Max     0.000000043 RMS     0.000000022
 Z-matrix is all fixed cartesians, so copy forces.
 Force constants in Cartesian coordinates: 
                1             2             3             4             5 
      1  0.553534D+00
      2  0.000000D+00  0.553534D+00
      3  0.000000D+00  0.000000D+00  0.553534D+00
      4 -0.144315D+00 -0.116779D+00 -0.622174D-01  0.153430D+00
      5 -0.116779D+00 -0.185186D+00 -0.740504D-01  0.128357D+00  0.198353D+00
      6 -0.622174D-01 -0.740504D-01 -0.856491D-01  0.683854D-01  0.813916D-01
      7 -0.744795D-01  0.794852D-01 -0.265343D-01  0.707284D-02 -0.183204D-01
      8  0.794852D-01 -0.269580D+00  0.745715D-01  0.840533D-02 -0.189728D-01
      9 -0.265343D-01  0.745715D-01 -0.710907D-01  0.568508D-02 -0.119581D-01
     10 -0.463124D-01 -0.253107D-03  0.564952D-02  0.266718D-03  0.271959D-02
     11 -0.253107D-03 -0.467505D-01  0.123604D-01  0.229333D-02  0.159075D-02
     12  0.564952D-02  0.123604D-01 -0.322088D+00  0.917633D-03  0.127994D-02
     13 -0.288427D+00  0.375473D-01  0.831022D-01 -0.164544D-01  0.402360D-02
     14  0.375473D-01 -0.520168D-01 -0.128814D-01 -0.222758D-01  0.421529D-02
     15  0.831022D-01 -0.128814D-01 -0.747066D-01 -0.127708D-01  0.333700D-02
                6             7             8             9            10 
      6  0.889479D-01
      7  0.771645D-02  0.766710D-01
      8  0.740652D-02 -0.873652D-01  0.291114D+00
      9  0.337311D-02  0.291648D-01 -0.819643D-01  0.729463D-01
     10 -0.202182D-01 -0.991457D-03 -0.697995D-03 -0.109977D-01  0.457115D-01
     11 -0.241459D-01 -0.184454D-02  0.293039D-03  0.304915D-01  0.278200D-03
     12 -0.103843D-01  0.419649D-03 -0.519898D-03 -0.782839D-02 -0.620960D-02
     13  0.633364D-02 -0.827292D-02  0.172615D-03  0.268208D-02  0.132561D-02
     14  0.939826D-02  0.280449D-01 -0.285359D-02 -0.111406D-01 -0.204669D-02
     15  0.371231D-02 -0.107666D-01  0.506186D-03  0.259970D-02  0.317759D-01
               11            12            13            14            15 
     11  0.461930D-01
     12 -0.135857D-01  0.348826D+00
     13 -0.473876D-03 -0.777203D-03  0.311829D+00
     14 -0.132635D-02  0.465329D-03 -0.412697D-01  0.519814D-01
     15 -0.512021D-02 -0.852607D-02 -0.913407D-01  0.141584D-01  0.769207D-01
 Final forces over variables, Energy=-4.04834408D+01:
 -1.59432617D-17 2.54336438D-08 1.36550783D-08 8.73339996D-10
 -3.99620528D-08-3.32954383D-15 3.02708528D-08-3.83759535D-08
  1.91071655D-09 6.19439421D-09 3.09531155D-15 1.61276052D-08
  1.28109231D-08-4.26483519D-08 1.37098148D-08
 Leave Link  716 at Sat Nov 12 21:58:38 2022, MaxMem=   939524096 cpu:         0.1
 (Enter /Local/ce_dana/g09/l103.exe)

 GradGradGradGradGradGradGradGradGradGradGradGradGradGradGradGradGradGrad
 Berny optimization.
 Search for a local minimum.
 Step number   1 out of a maximum of    2
 All quantities printed in internal units (Hartrees-Bohrs-Radians)
 Second derivative matrix not updated -- analytic derivatives used.
 The second derivative matrix:
                          X1        Y1        Z1        X2        Y2
           X1           0.55353
           Y1           0.00000   0.55353
           Z1           0.00000   0.00000   0.55353
           X2          -0.14432  -0.11678  -0.06222   0.15343
           Y2          -0.11678  -0.18519  -0.07405   0.12836   0.19835
           Z2          -0.06222  -0.07405  -0.08565   0.06839   0.08139
           X3          -0.07448   0.07949  -0.02653   0.00707  -0.01832
           Y3           0.07949  -0.26958   0.07457   0.00841  -0.01897
           Z3          -0.02653   0.07457  -0.07109   0.00569  -0.01196
           X4          -0.04631  -0.00025   0.00565   0.00027   0.00272
           Y4          -0.00025  -0.04675   0.01236   0.00229   0.00159
           Z4           0.00565   0.01236  -0.32209   0.00092   0.00128
           X5          -0.28843   0.03755   0.08310  -0.01645   0.00402
           Y5           0.03755  -0.05202  -0.01288  -0.02228   0.00422
           Z5           0.08310  -0.01288  -0.07471  -0.01277   0.00334
                          Z2        X3        Y3        Z3        X4
           Z2           0.08895
           X3           0.00772   0.07667
           Y3           0.00741  -0.08737   0.29111
           Z3           0.00337   0.02916  -0.08196   0.07295
           X4          -0.02022  -0.00099  -0.00070  -0.01100   0.04571
           Y4          -0.02415  -0.00184   0.00029   0.03049   0.00028
           Z4          -0.01038   0.00042  -0.00052  -0.00783  -0.00621
           X5           0.00633  -0.00827   0.00017   0.00268   0.00133
           Y5           0.00940   0.02804  -0.00285  -0.01114  -0.00205
           Z5           0.00371  -0.01077   0.00051   0.00260   0.03178
                          Y4        Z4        X5        Y5        Z5
           Y4           0.04619
           Z4          -0.01359   0.34883
           X5          -0.00047  -0.00078   0.31183
           Y5          -0.00133   0.00047  -0.04127   0.05198
           Z5          -0.00512  -0.00853  -0.09134   0.01416   0.07692
 ITU=  0
     Eigenvalues ---    0.09448   0.09448   0.11440   0.11440   0.11440
     Eigenvalues ---    0.35573   0.72891   0.72891   0.72891
 Angle between quadratic step and forces=  90.00 degrees.
 ClnCor:  largest displacement from symmetrization is 1.22D-13 for atom     5.
 Linear search not attempted -- first point.
 ClnCor:  largest displacement from symmetrization is 1.35D-15 for atom     4.
 TrRot=  0.000000  0.000000  0.000000  0.000000  0.000000  0.000000
 Variable       Old X    -DE/DX   Delta X   Delta X   Delta X     New X
                                 (Linear)    (Quad)   (Total)
    X1       -0.00000  -0.00000   0.00000  -0.00000   0.00000  -0.00000
    Y1        0.00000  -0.00000   0.00000   0.00000   0.00000   0.00000
    Z1       -0.00000   0.00000   0.00000  -0.00000   0.00000  -0.00000
    X2       -1.22423   0.00000   0.00000   0.00000   0.00000  -1.22423
    Y2       -1.45707   0.00000   0.00000   0.00000   0.00000  -1.45707
    Z2       -0.77629   0.00000   0.00000   0.00000   0.00000  -0.77629
    X3       -0.65728   0.00000   0.00000   0.00000   0.00000  -0.65728
    Y3        1.84720  -0.00000   0.00000  -0.00000  -0.00000   1.84720
    Z3       -0.61665   0.00000   0.00000   0.00000   0.00000  -0.61665
    X4       -0.04204   0.00000   0.00000   0.00000   0.00000  -0.04204
    Y4       -0.09197   0.00000   0.00000   0.00000   0.00000  -0.09197
    Z4        2.05285  -0.00000   0.00000  -0.00000  -0.00000   2.05285
    X5        1.92355  -0.00000   0.00000  -0.00000  -0.00000   1.92355
    Y5       -0.29816   0.00000   0.00000   0.00000   0.00000  -0.29816
    Z5       -0.65991   0.00000   0.00000   0.00000   0.00000  -0.65991
         Item               Value     Threshold  Converged?
 Maximum Force            0.000000     0.000450     YES
 RMS     Force            0.000000     0.000300     YES
 Maximum Displacement     0.000000     0.001800     YES
 RMS     Displacement     0.000000     0.001200     YES
 Predicted change in Energy=-1.025107D-14
 Optimization completed.
    -- Stationary point found.
 GradGradGradGradGradGradGradGradGradGradGradGradGradGradGradGradGradGrad

 Leave Link  103 at Sat Nov 12 21:58:38 2022, MaxMem=   939524096 cpu:         0.0
 (Enter /Local/ce_dana/g09/l9999.exe)

 Test job not archived.
 1\1\GINC-TECH-WN083\Freq\RB2PLYPD3-FC\def2TZVP\C1H4\ALONGD\12-Nov-2022
 \0\\#P guess=read b2plypd3/def2tzvp freq IOp(7/33=1) scf=(tight, direc
 t) integral=(grid=ultrafine, Acc2E=12) IOp(2/9=2000) scf=xqc\\CH4\\0,1
 \C,0.,0.,0.\H,-0.6478361722,-0.7710477106,-0.4107962717\H,-0.347816950
 1,0.9774976847,-0.3263150325\H,-0.0222450204,-0.0486689842,1.086322394
 1\H,1.0178981426,-0.1577809899,-0.3492110899\\Version=ES64L-G09RevD.01
 \State=1-A1\HF=-40.4225849\MP2=-40.4834408\RMSD=6.238e-10\RMSF=2.205e-
 08\ZeroPoint=0.0450339\Thermal=0.0479005\Dipole=0.,0.,0.\DipoleDeriv=-
 0.008756,0.,0.,0.,-0.008756,0.,0.,0.,-0.008756,-0.0021899,-0.0862106,-
 0.045931,-0.0862106,-0.0323625,-0.0546666,-0.045931,-0.0546666,0.04111
 94,0.0493652,0.0586787,-0.0195885,0.0586787,-0.094665,0.0550512,-0.019
 5885,0.0550512,0.0518669,0.0701591,-0.0001869,0.0041707,-0.0001869,0.0
 698357,0.0091248,0.0041707,0.0091248,-0.1334277,-0.1085783,0.0277187,0
 .0613489,0.0277187,0.0659479,-0.0095095,0.0613489,-0.0095095,0.0491975
 \Polar=14.9237968,0.,14.9237968,0.,0.,14.9237968\PG=TD [O(C1),4C3(H1)]
 \NImag=0\\0.55353402,0.,0.55353402,0.,0.,0.55353402,-0.14431509,-0.116
 77944,-0.06221737,0.15342993,-0.11677944,-0.18518636,-0.07405045,0.128
 35663,0.19835307,-0.06221737,-0.07405045,-0.08564907,0.06838543,0.0813
 9161,0.08894793,-0.07447945,0.07948523,-0.02653431,0.00707284,-0.01832
 038,0.00771645,0.07667098,0.07948523,-0.26958038,0.07457148,0.00840533
 ,-0.01897275,0.00740652,-0.08736518,0.29111369,-0.02653431,0.07457148,
 -0.07109068,0.00568508,-0.01195810,0.00337311,0.02916485,-0.08196429,0
 .07294626,-0.04631240,-0.00025311,0.00564952,0.00026672,0.00271959,-0.
 02021815,-0.00099146,-0.00069799,-0.01099770,0.04571153,-0.00025311,-0
 .04675048,0.01236036,0.00229333,0.00159075,-0.02414594,-0.00184454,0.0
 0029304,0.03049152,0.00027820,0.04619304,0.00564952,0.01236036,-0.3220
 8763,0.00091763,0.00127994,-0.01038427,0.00041965,-0.00051990,-0.00782
 839,-0.00620960,-0.01358573,0.34882636,-0.28842708,0.03754732,0.083102
 16,-0.01645441,0.00402360,0.00633364,-0.00827292,0.00017262,0.00268208
 ,0.00132561,-0.00047388,-0.00077720,0.31182879,0.03754732,-0.05201680,
 -0.01288139,-0.02227585,0.00421529,0.00939826,0.02804487,-0.00285359,-
 0.01114061,-0.00204669,-0.00132635,0.00046533,-0.04126966,0.05198144,0
 .08310216,-0.01288139,-0.07470663,-0.01277077,0.00333700,0.00371231,-0
 .01076664,0.00050619,0.00259970,0.03177593,-0.00512021,-0.00852607,-0.
 09134068,0.01415841,0.07692069\\0.,0.,0.,-0.00000003,-0.00000003,-0.00
 000002,-0.00000001,0.00000004,-0.00000001,0.,0.,0.00000004,0.00000004,
 0.,-0.00000001\\\@


 IT IS BY LOGIC THAT WE PROVE, BUT BY INTUITION THAT WE DISCOVER.
     -- J.H.POINCARE (1854-1912)
 Job cpu time:       0 days  0 hours  2 minutes  3.1 seconds.
 File lengths (MBytes):  RWF=     67 Int=      0 D2E=      0 Chk=      1 Scr=      1
 Normal termination of Gaussian 09 at Sat Nov 12 21:58:38 2022.
