 Entering Gaussian System, Link 0=/Local/ce_dana/g09/g09
 Initial command:
 /Local/ce_dana/g09/l1.exe "/storage/ce_dana/alongd/scratch/g09/Gau-158653.inp" -scrdir="/storage/ce_dana/alongd/scratch/g09/"
 Entering Link 1 = /Local/ce_dana/g09/l1.exe PID=    158654.
  
 Copyright (c) 1988,1990,1992,1993,1995,1998,2003,2009,2013,
            Gaussian, Inc.  All Rights Reserved.
  
 This is part of the Gaussian(R) 09 program.  It is based on
 the Gaussian(R) 03 system (copyright 2003, Gaussian, Inc.),
 the Gaussian(R) 98 system (copyright 1998, Gaussian, Inc.),
 the Gaussian(R) 94 system (copyright 1995, Gaussian, Inc.),
 the Gaussian 92(TM) system (copyright 1992, Gaussian, Inc.),
 the Gaussian 90(TM) system (copyright 1990, Gaussian, Inc.),
 the Gaussian 88(TM) system (copyright 1988, Gaussian, Inc.),
 the Gaussian 86(TM) system (copyright 1986, Carnegie Mellon
 University), and the Gaussian 82(TM) system (copyright 1983,
 Carnegie Mellon University). Gaussian is a federally registered
 trademark of Gaussian, Inc.
  
 This software contains proprietary and confidential information,
 including trade secrets, belonging to Gaussian, Inc.
  
 This software is provided under written license and may be
 used, copied, transmitted, or stored only in accord with that
 written license.
  
 The following legend is applicable only to US Government
 contracts under FAR:
  
                    RESTRICTED RIGHTS LEGEND
  
 Use, reproduction and disclosure by the US Government is
 subject to restrictions as set forth in subparagraphs (a)
 and (c) of the Commercial Computer Software - Restricted
 Rights clause in FAR 52.227-19.
  
 Gaussian, Inc.
 340 Quinnipiac St., Bldg. 40, Wallingford CT 06492
  
  
 ---------------------------------------------------------------
 Warning -- This program may not be used in any manner that
 competes with the business of Gaussian, Inc. or will provide
 assistance to any competitor of Gaussian, Inc.  The licensee
 of this program is prohibited from giving any competitor of
 Gaussian, Inc. access to this program.  By using this program,
 the user acknowledges that Gaussian, Inc. is engaged in the
 business of creating and licensing software in the field of
 computational chemistry and represents and warrants to the
 licensee that it is not a competitor of Gaussian, Inc. and that
 it will not use this program in any manner prohibited above.
 ---------------------------------------------------------------
  

 Cite this work as:
 Gaussian 09, Revision D.01,
 M. J. Frisch, G. W. Trucks, H. B. Schlegel, G. E. Scuseria, 
 M. A. Robb, J. R. Cheeseman, G. Scalmani, V. Barone, B. Mennucci, 
 G. A. Petersson, H. Nakatsuji, M. Caricato, X. Li, H. P. Hratchian, 
 A. F. Izmaylov, J. Bloino, G. Zheng, J. L. Sonnenberg, M. Hada, 
 M. Ehara, K. Toyota, R. Fukuda, J. Hasegawa, M. Ishida, T. Nakajima, 
 Y. Honda, O. Kitao, H. Nakai, T. Vreven, J. A. Montgomery, Jr., 
 J. E. Peralta, F. Ogliaro, M. Bearpark, J. J. Heyd, E. Brothers, 
 K. N. Kudin, V. N. Staroverov, T. Keith, R. Kobayashi, J. Normand, 
 K. Raghavachari, A. Rendell, J. C. Burant, S. S. Iyengar, J. Tomasi, 
 M. Cossi, N. Rega, J. M. Millam, M. Klene, J. E. Knox, J. B. Cross, 
 V. Bakken, C. Adamo, J. Jaramillo, R. Gomperts, R. E. Stratmann, 
 O. Yazyev, A. J. Austin, R. Cammi, C. Pomelli, J. W. Ochterski, 
 R. L. Martin, K. Morokuma, V. G. Zakrzewski, G. A. Voth, 
 P. Salvador, J. J. Dannenberg, S. Dapprich, A. D. Daniels, 
 O. Farkas, J. B. Foresman, J. V. Ortiz, J. Cioslowski, 
 and D. J. Fox, Gaussian, Inc., Wallingford CT, 2013.
 
 ******************************************
 Gaussian 09:  ES64L-G09RevD.01 24-Apr-2013
                12-Nov-2022 
 ******************************************
 %chk=check.chk
 %mem=7168mb
 %NProcShared=10
 Will use up to   10 processors via shared memory.
 ----------------------------------------------------------------------
 #P guess=read ub2plypd3/def2tzvp freq IOp(7/33=1) scf=(tight, direct) 
 integral=(grid=ultrafine, Acc2E=12) IOp(2/9=2000) scf=xqc
 ----------------------------------------------------------------------
 1/10=4,30=1,38=1/1,3;
 2/9=2000,12=2,17=6,18=5,40=1/2;
 3/5=44,7=101,11=2,16=1,25=1,30=1,71=2,74=-60,75=-5,116=2,140=1/1,2,3;
 4/5=1/1;
 5/5=2,8=3,13=1,32=2,38=6,87=12,98=1/2,8;
 8/6=3,8=1,10=1,19=11,30=-1,87=12/1;
 9/15=3,16=-3,87=12/6;
 11/6=1,8=1,15=11,17=12,24=-1,27=1,28=-2,29=300,32=6,42=3,87=12/1,2,10;
 10/6=2,21=1,87=12/2;
 8/6=4,8=1,10=1,19=11,30=-1,87=12/11,4;
 10/5=1,20=4,87=12/2;
 11/12=2,14=11,16=1,17=2,28=-2,42=3,87=12/2,10,12;
 6/7=2,8=2,9=2,10=2/1;
 7/8=1,10=1,12=2,25=1,33=1,44=2,87=12/1,2,3,16;
 1/10=4,30=1/3;
 99//99;
 Leave Link    1 at Sat Nov 12 21:56:55 2022, MaxMem=   939524096 cpu:         0.1
 (Enter /Local/ce_dana/g09/l101.exe)
 --------------------
 [Hydroxyimino]methyl
 --------------------
 Symbolic Z-matrix:
 Charge =  0 Multiplicity = 2
 C                    -0.95896  -0.52629  -0.06634 
 N                     0.1675   -0.09856  -0.18866 
 O                     0.8429    0.51228   0.94605 
 H                    -1.74506  -0.6344    0.66802 
 H                     1.69363   0.74697   0.55254 
 
 NAtoms=      5 NQM=        5 NQMF=       0 NMMI=      0 NMMIF=      0
                NMic=       0 NMicF=      0.
                    Isotopes and Nuclear Properties:
 (Nuclear quadrupole moments (NQMom) in fm**2, nuclear magnetic moments (NMagM)
  in nuclear magnetons)

  Atom         1           2           3           4           5
 IAtWgt=          12          14          16           1           1
 AtmWgt=  12.0000000  14.0030740  15.9949146   1.0078250   1.0078250
 NucSpn=           0           2           0           1           1
 AtZEff=   0.0000000   0.0000000   0.0000000   0.0000000   0.0000000
 NQMom=    0.0000000   2.0440000   0.0000000   0.0000000   0.0000000
 NMagM=    0.0000000   0.4037610   0.0000000   2.7928460   2.7928460
 AtZNuc=   6.0000000   7.0000000   8.0000000   1.0000000   1.0000000
 Leave Link  101 at Sat Nov 12 21:56:55 2022, MaxMem=   939524096 cpu:         0.1
 (Enter /Local/ce_dana/g09/l103.exe)

 GradGradGradGradGradGradGradGradGradGradGradGradGradGradGradGradGradGrad
 Berny optimization.
 Initialization pass.
 Trust Radius=3.00D-01 FncErr=1.00D-07 GrdErr=1.00D-07
 Number of steps in this run=      2 maximum allowed number of steps=      2.
 GradGradGradGradGradGradGradGradGradGradGradGradGradGradGradGradGradGrad

 Leave Link  103 at Sat Nov 12 21:56:55 2022, MaxMem=   939524096 cpu:         0.0
 (Enter /Local/ce_dana/g09/l202.exe)
                          Input orientation:                          
 ---------------------------------------------------------------------
 Center     Atomic      Atomic             Coordinates (Angstroms)
 Number     Number       Type             X           Y           Z
 ---------------------------------------------------------------------
      1          6           0       -0.958962   -0.526291   -0.066336
      2          7           0        0.167503   -0.098559   -0.188657
      3          8           0        0.842895    0.512278    0.946049
      4          1           0       -1.745064   -0.634401    0.668015
      5          1           0        1.693629    0.746974    0.552538
 ---------------------------------------------------------------------
                    Distance matrix (angstroms):
                    1          2          3          4          5
     1  C    0.000000
     2  N    1.211132   0.000000
     3  O    2.313058   1.454934   0.000000
     4  H    1.081164   2.163083   2.844241   0.000000
     5  H    3.006734   1.895615   0.966272   3.707579   0.000000
 Stoichiometry    CH2NO(2)
 Framework group  CS[SG(CH2NO)]
 Deg. of freedom     7
 Full point group                 CS      NOp   2
 Largest Abelian subgroup         CS      NOp   2
 Largest concise Abelian subgroup C1      NOp   1
                         Standard orientation:                         
 ---------------------------------------------------------------------
 Center     Atomic      Atomic             Coordinates (Angstroms)
 Number     Number       Type             X           Y           Z
 ---------------------------------------------------------------------
      1          6           0       -1.196350    0.326030    0.000000
      2          7           0        0.000000    0.514675    0.000000
      3          8           0        0.916494   -0.615312   -0.000000
      4          1           0       -1.924206   -0.473433    0.000000
      5          1           0        1.770352   -0.162976   -0.000000
 ---------------------------------------------------------------------
 Rotational constants (GHZ):     85.9835478     11.7786464     10.3595241
 Leave Link  202 at Sat Nov 12 21:56:55 2022, MaxMem=   939524096 cpu:         0.0
 (Enter /Local/ce_dana/g09/l301.exe)
 Standard basis: def2TZVP (5D, 7F)
 Ernie: Thresh=  0.10000D-02 Tol=  0.10000D-05 Strict=F.
 There are    85 symmetry adapted cartesian basis functions of A'  symmetry.
 There are    35 symmetry adapted cartesian basis functions of A"  symmetry.
 There are    73 symmetry adapted basis functions of A'  symmetry.
 There are    32 symmetry adapted basis functions of A"  symmetry.
   105 basis functions,   169 primitive gaussians,   120 cartesian basis functions
    12 alpha electrons       11 beta electrons
       nuclear repulsion energy        63.3718148616 Hartrees.
 IExCor=  419 DFT=T Ex+Corr=B2PLYPD3 ExCW=0 ScaHFX=  0.530000
 ScaDFX=  0.470000  0.470000  0.730000  0.730000 ScalE2=  0.270000  0.270000
 IRadAn=      5 IRanWt=     -1 IRanGd=            0 ICorTp=0 IEmpDi=141
 NAtoms=    5 NActive=    5 NUniq=    5 SFac= 1.00D+00 NAtFMM=   60 NAOKFM=F Big=F
 Integral buffers will be    131072 words long.
 Raffenetti 2 integral format.
 Two-electron integral symmetry is turned on.
 R6Disp:  Grimme-D3(BJ) Dispersion energy=       -0.0014453759 Hartrees.
 Nuclear repulsion after empirical dispersion term =       63.3703694857 Hartrees.
 Leave Link  301 at Sat Nov 12 21:56:55 2022, MaxMem=   939524096 cpu:         0.1
 (Enter /Local/ce_dana/g09/l302.exe)
 NPDir=0 NMtPBC=     1 NCelOv=     1 NCel=       1 NClECP=     1 NCelD=      1
         NCelK=      1 NCelE2=     1 NClLst=     1 CellRange=     0.0.
 One-electron integrals computed using PRISM.
   1 Symmetry operations used in ECPInt.
 ECPInt:  NShTT=     861 NPrTT=    2700 LenC2=     859 LenP2D=    2382.
 LDataN:  DoStor=T MaxTD1= 6 Len=  172
 NBasis=   105 RedAO= T EigKep=  8.60D-04  NBF=    73    32
 NBsUse=   105 1.00D-06 EigRej= -1.00D+00 NBFU=    73    32
 Precomputing XC quadrature grid using
 IXCGrd= 4 IRadAn=           5 IRanWt=          -1 IRanGd=           0 AccXCQ= 0.00D+00.
 Generated NRdTot=       0 NPtTot=           0 NUsed=           0 NTot=          32
 NSgBfM=   119   119   119   119   119 MxSgAt=     5 MxSgA2=     5.
 Leave Link  302 at Sat Nov 12 21:56:56 2022, MaxMem=   939524096 cpu:         1.7
 (Enter /Local/ce_dana/g09/l303.exe)
 DipDrv:  MaxL=1.
 Leave Link  303 at Sat Nov 12 21:56:56 2022, MaxMem=   939524096 cpu:         0.1
 (Enter /Local/ce_dana/g09/l401.exe)
 Initial guess from the checkpoint file:  "check.chk"
 B after Tr=     0.000000   -0.000000    0.000000
         Rot=    0.000000    1.000000    0.000000    0.000000 Ang= 180.00 deg.
 Guess basis will be translated and rotated to current coordinates.
 JPrj=2 DoOrth=T DoCkMO=T.
 Initial guess orbital symmetries:
 Alpha Orbitals:
       Occupied  (A') (A') (A') (A') (A') (A') (A') (A') (A") (A')
                 (A") (A')
       Virtual   (A") (A') (A') (A') (A') (A') (A") (A') (A') (A')
                 (A") (A') (A') (A") (A') (A') (A') (A') (A") (A')
                 (A") (A') (A') (A') (A") (A') (A") (A') (A') (A")
                 (A') (A') (A") (A') (A') (A") (A') (A') (A") (A')
                 (A") (A') (A') (A") (A') (A') (A') (A') (A") (A')
                 (A") (A') (A') (A") (A") (A') (A') (A") (A') (A")
                 (A') (A') (A') (A') (A') (A") (A') (A') (A") (A')
                 (A") (A') (A") (A') (A") (A') (A") (A") (A') (A')
                 (A') (A") (A') (A') (A") (A') (A") (A') (A') (A')
                 (A') (A') (A')
 Beta  Orbitals:
       Occupied  (A') (A') (A') (A') (A') (A') (A') (A') (A") (A')
                 (A")
       Virtual   (A') (A") (A') (A') (A') (A') (A") (A') (A') (A')
                 (A") (A') (A') (A') (A") (A') (A') (A') (A') (A")
                 (A') (A") (A') (A') (A') (A") (A') (A") (A') (A')
                 (A") (A') (A') (A") (A') (A') (A") (A') (A') (A")
                 (A') (A") (A') (A") (A') (A') (A') (A') (A') (A")
                 (A') (A") (A') (A') (A") (A') (A") (A') (A") (A')
                 (A") (A') (A') (A') (A') (A') (A") (A') (A') (A")
                 (A') (A") (A') (A") (A') (A") (A') (A") (A") (A')
                 (A') (A') (A") (A') (A') (A") (A') (A") (A') (A')
                 (A') (A') (A') (A')
 The electronic state of the initial guess is 2-A'.
 Initial guess <Sx>= 0.0000 <Sy>= 0.0000 <Sz>= 0.5000 <S**2>= 0.7765 S= 0.5132
 Leave Link  401 at Sat Nov 12 21:56:56 2022, MaxMem=   939524096 cpu:         0.6
 (Enter /Local/ce_dana/g09/l502.exe)
 UHF open shell SCF:
 Using DIIS extrapolation, IDIIS=  1040.
 Integral symmetry usage will be decided dynamically.
 Keep R1 and R2 ints in memory in symmetry-blocked form, NReq=23897216.
 IVT=       51263 IEndB=       51263 NGot=   939524096 MDV=   923571437
 LenX=   923571437 LenY=   923556596
 Requested convergence on RMS density matrix=1.00D-08 within  64 cycles.
 Requested convergence on MAX density matrix=1.00D-06.
 Requested convergence on             energy=1.00D-06.
 No special actions if energy rises.
 FoFCou: FMM=F IPFlag=           0 FMFlag=           0 FMFlg1=           0
         NFxFlg=           0 DoJE=F BraDBF=F KetDBF=F FulRan=T
         wScrn=  0.000000 ICntrl=     600 IOpCl=  0 I1Cent=           0 NGrid=           0
         NMat0=    1 NMatS0=   5565 NMatT0=    0 NMatD0=    1 NMtDS0=    0 NMtDT0=    0
 Petite list used in FoFCou.

 Cycle   1  Pass 1  IDiag  1:
 E= -168.889573141727    
 DIIS: error= 5.37D-08 at cycle   1 NSaved=   1.
 NSaved= 1 IEnMin= 1 EnMin= -168.889573141727     IErMin= 1 ErrMin= 5.37D-08
 ErrMax= 5.37D-08  0.00D+00 EMaxC= 1.00D-01 BMatC= 1.51D-12 BMatP= 1.51D-12
 IDIUse=1 WtCom= 1.00D+00 WtEn= 0.00D+00
 Coeff-Com:  0.100D+01
 Coeff:      0.100D+01
 Gap=     0.353 Goal=   None    Shift=    0.000
 Gap=     0.317 Goal=   None    Shift=    0.000
 RMSDP=4.72D-09 MaxDP=7.60D-08              OVMax= 2.37D-07

 SCF Done:  E(UB2PLYPD3) =  -168.889573142     A.U. after    1 cycles
            NFock=  1  Conv=0.47D-08     -V/T= 2.0030
 <Sx>= 0.0000 <Sy>= 0.0000 <Sz>= 0.5000 <S**2>= 0.7765 S= 0.5132
 <L.S>=  0.00000000000    
 KE= 1.683883453223D+02 PE=-5.237557840489D+02 EE= 1.231074960991D+02
 Annihilation of the first spin contaminant:
 S**2 before annihilation     0.7765,   after     0.7504
 Leave Link  502 at Sat Nov 12 21:56:57 2022, MaxMem=   939524096 cpu:         8.1
 (Enter /Local/ce_dana/g09/l508.exe)
 QCSCF skips out because SCF is already converged.
 Leave Link  508 at Sat Nov 12 21:56:57 2022, MaxMem=   939524096 cpu:         0.0
 (Enter /Local/ce_dana/g09/l801.exe)
 DoSCS=T DFT=T ScalE2(SS,OS)=  0.270000  0.270000
 ExpMin= 9.52D-02 ExpMax= 2.70D+04 ExpMxC= 9.22D+02 IAcc=3 IRadAn=         5 AccDes= 0.00D+00
 HarFok:  IExCor=  205 AccDes= 0.00D+00 IRadAn=         5 IDoV=-2 UseB2=F ITyADJ=14
 ICtDFT= 12500011 ScaDFX=  1.000000  1.000000  1.000000  1.000000
 Largest valence mixing into a core orbital is  9.91D-05
 Largest core mixing into a valence orbital is  1.57D-05
 Largest valence mixing into a core orbital is  9.86D-05
 Largest core mixing into a valence orbital is  1.60D-05
 Range of M.O.s used for correlation:     4   105
 NBasis=   105 NAE=    12 NBE=    11 NFC=     3 NFV=     0
 NROrb=    102 NOA=     9 NOB=     8 NVA=    93 NVB=    94

 **** Warning!!: The largest alpha MO coefficient is  0.11028653D+02


 **** Warning!!: The largest beta MO coefficient is  0.10474901D+02

 Leave Link  801 at Sat Nov 12 21:56:57 2022, MaxMem=   939524096 cpu:         0.4
 (Enter /Local/ce_dana/g09/l906.exe)
 DoSCS=T DFT=T ScalE2(SS,OS)=  0.270000  0.270000
 Frozen-core derivative calculation, NFC=   3 NFV=   0.
 FulOut=F Deriv=T AODrv=T NAtomX=     5
   MMem=           0  MDisk=           9 MDiskD=           9
  W3Min=      302400 MinDsk=      562700 NBas6D=         120
 NBas2D=        7518    NTT=        7260    LW2=     7400000
    MDV=   939320607 MDiskM=       39055 NBas2p=        7515
 Disk-based method using ON**2 memory for  9 occupieds at a time.
 Permanent disk used for amplitudes=     1676697 words.
 Estimated scratch disk usage=    29138301 words.
 IMap=   1   2   3   4   5   6   7   8   9  10  11  12
 Actual    scratch disk usage=    28377469 words.
 JobTyp=2 Pass  1:  I=   4 to  12 NPSUse= 10 ParTrn=T ParDer=T DoDerP=T.
 (rs|ai) integrals will be sorted in core.
 IMap=   1   2   3   4   5   6   7   8   9  10  11
 Actual    scratch disk usage=    28377469 words.
 JobTyp=3 Pass  1:  I=   4 to  11 NPSUse= 10 ParTrn=T ParDer=T DoDerP=T.
 (rs|ai) integrals will be sorted in core.
 Spin components of T(2) and E(2):
     alpha-alpha T2 =       0.3737904343D-01 E2=     -0.2598538211D-01
     alpha-beta  T2 =       0.2008554247D+00 E2=     -0.1408461926D+00
     beta-beta   T2 =       0.3482890942D-01 E2=     -0.2296535460D-01
 The integrals were generated   2 times.
 E2(B2PLYPD3) =    -0.1897969293D+00 E(B2PLYPD3) =    -0.16907937007099D+03
 Leave Link  906 at Sat Nov 12 21:58:10 2022, MaxMem=   939524096 cpu:       727.2
 (Enter /Local/ce_dana/g09/l1101.exe)
 Using compressed Sx but separate Hx and Fx, NAtomX=     5.
 Will process      6 centers per pass.
   2 Symmetry operations used in ECPInt.
 ECPInt:  NShTT=     861 NPrTT=    2700 LenC2=     859 LenP2D=    2382.
 LDataN:  DoStor=T MaxTD1= 7 Len=  274
 R6Disp: Adding Grimme-D3(BJ) dispersion energy 1st derivatives to the gradient.
 Leave Link 1101 at Sat Nov 12 21:58:11 2022, MaxMem=   939524096 cpu:         4.1
 (Enter /Local/ce_dana/g09/l1102.exe)
 Leave Link 1102 at Sat Nov 12 21:58:11 2022, MaxMem=   939524096 cpu:         0.0
 (Enter /Local/ce_dana/g09/l1110.exe)
 Forming Gx(P) for the SCF density, NAtomX=     5.
 Integral derivatives from FoFJK, PRISM(SPDF).
 Do as many integral derivatives as possible in FoFJK.
 G2DrvN: MDV=     939523952.
 G2DrvN: will do     6 centers at a time, making    1 passes.
 Calling FoFCou, ICntrl=  3107 FMM=F I1Cent=   0 AccDes= 1.00D-12.
 FoFJK:  IHMeth= 1 ICntrl=    3107 DoSepK=F KAlg= 0 I1Cent=   0 FoldK=F
 IRaf=         0 NMat=   1 IRICut=       1 DoRegI=T DoRafI=F ISym2E= 1.
 FoFCou: FMM=F IPFlag=           0 FMFlag=      100000 FMFlg1=           0
         NFxFlg=           0 DoJE=F BraDBF=F KetDBF=F FulRan=T
         wScrn=  0.000000 ICntrl=    3107 IOpCl=  1 I1Cent=           0 NGrid=           0
         NMat0=    1 NMatS0=      1 NMatT0=    0 NMatD0=    1 NMtDS0=    0 NMtDT0=    0
 Petite list used in FoFCou.
 End of G2Drv F.D. properties file   721 does not exist.
 End of G2Drv F.D. properties file   722 does not exist.
 End of G2Drv F.D. properties file   788 does not exist.
 Leave Link 1110 at Sat Nov 12 21:58:17 2022, MaxMem=   939524096 cpu:        53.1
 (Enter /Local/ce_dana/g09/l1002.exe)
 Minotr:  UHF open shell wavefunction.
          IDoAtm=11111
          Frozen-core window.
          Direct CPHF calculation.
          Differentiating once with respect to electric field.
                with respect to dipole field.
          Differentiating once with respect to nuclear coordinates.
          Requested convergence is 1.0D-08 RMS, and 1.0D-07 maximum.
          Secondary convergence is 1.0D-12 RMS, and 1.0D-12 maximum.
          NewPWx=T KeepS1=T KeepF1=T KeepIn=T MapXYZ=F SortEE=F KeepMc=T.
          MDV=     939523838 using IRadAn=       1.
 Generate precomputed XC quadrature information.
 Keep R1 and R2 ints in memory in symmetry-blocked form, NReq=23848830.
 FoFCou: FMM=F IPFlag=           0 FMFlag=           0 FMFlg1=           0
         NFxFlg=           0 DoJE=F BraDBF=F KetDBF=F FulRan=T
         wScrn=  0.000000 ICntrl=     600 IOpCl=  0 I1Cent=           0 NGrid=           0
         NMat0=    1 NMatS0=   5565 NMatT0=    0 NMatD0=    1 NMtDS0=    0 NMtDT0=    0
 Petite list used in FoFCou.
          Solving linear equations simultaneously, MaxMat=       0.
          There are    18 degrees of freedom in the 1st order CPHF.  IDoFFX=6 NUNeed=    18.
     15 vectors produced by pass  0 Test12= 1.19D-14 5.56D-09 XBig12= 4.36D+01 2.85D+00.
 AX will form    15 AO Fock derivatives at one time.
     15 vectors produced by pass  1 Test12= 1.19D-14 5.56D-09 XBig12= 8.09D+00 6.72D-01.
     15 vectors produced by pass  2 Test12= 1.19D-14 5.56D-09 XBig12= 5.29D-01 1.67D-01.
     15 vectors produced by pass  3 Test12= 1.19D-14 5.56D-09 XBig12= 1.32D-02 2.56D-02.
     15 vectors produced by pass  4 Test12= 1.19D-14 5.56D-09 XBig12= 2.52D-04 3.50D-03.
     15 vectors produced by pass  5 Test12= 1.19D-14 5.56D-09 XBig12= 2.94D-06 3.01D-04.
     15 vectors produced by pass  6 Test12= 1.19D-14 5.56D-09 XBig12= 3.23D-08 3.48D-05.
     11 vectors produced by pass  7 Test12= 1.19D-14 5.56D-09 XBig12= 2.35D-10 2.27D-06.
      4 vectors produced by pass  8 Test12= 1.19D-14 5.56D-09 XBig12= 1.75D-12 2.72D-07.
      3 vectors produced by pass  9 Test12= 1.19D-14 5.56D-09 XBig12= 1.14D-14 2.16D-08.
 InvSVY:  IOpt=1 It=  1 EMax= 1.22D-15
 Solved reduced A of dimension   123 with    15 vectors.
 FullF1:  Do perturbations    1 to    18.
 Saving first derivative matrices.
 End of Minotr F.D. properties file   721 does not exist.
 End of Minotr F.D. properties file   722 does not exist.
 End of Minotr F.D. properties file   788 does not exist.
 Leave Link 1002 at Sat Nov 12 21:58:31 2022, MaxMem=   939524096 cpu:       141.0
 (Enter /Local/ce_dana/g09/l811.exe)
 MDV=   939524096.
 DoSCS=T DFT=T ScalE2(SS,OS)=  0.270000  0.270000
 Form MO integral derivatives with frozen-active canonical formalism.
 MOERI=1 MOERIx=1 NAtoms=     5 NAtomX=     5.
 Discarding MO integrals.
 MO basis two electron integral derivatives will not be stored on disk.
 IAlg= 3 DoFC=T DoPWx=T Debug=F.
 Frozen-core window:  NFC=   3 NFV=   0.
 Reordered first order wavefunction length =      6817513
 In DefCFB: NBatch=  1 ICI= 12 ICA= 94 LFMax= 47
            Large arrays: LIAPS=   108360000 LIARS=    68221440 words.
 In StABat: MaxSiz= 36 MinSiz= 12 NAtomB=  4
 DoIAMN: NPSUse= 10.
 In DefCFB: NBatch=  1 ICI= 12 ICA= 94 LFMax= 47
            Large arrays: LIAPS=   108360000 LIARS=    68221440 words.
 In StABat: MaxSiz= 36 MinSiz= 12 NAtomB=  4
 Leave Link  811 at Sat Nov 12 21:59:23 2022, MaxMem=   939524096 cpu:       160.0
 (Enter /Local/ce_dana/g09/l804.exe)
 Frozen-core window:  NFC=   3 NFV=   0.
 Open-shell transformation, MDV=   939524096 ITran=4 ISComp=1.
 Semi-Direct transformation.
 ModeAB=           2 MOrb=            12 LenV=     938876928
 LASXX=      6377919 LTotXX=     6377919 LenRXX=     6377919
 LTotAB=     6644610 MaxLAS=     9147600 LenRXY=     9147600
 NonZer=    12755838 LenScr=    19888128 LnRSAI=           0
 LnScr1=           0 LExtra=           0 Total=     35413647
 MaxDsk=          -1 SrtSym=           F ITran=            4
 DoSDTr:  NPSUse= 10
 JobTyp=1 Pass  1:  I=   1 to  12.
 (rs|ai) integrals will be sorted in core.
 Complete sort for first half transformation.
 First half transformation complete.
 Begin second half transformation for I=  10.
 Begin second half transformation for I=  10.
 Complete sort for second half transformation.
 Second half transformation complete.
 ModeAB=           2 MOrb=            11 LenV=     938876928
 LASXX=      5887585 LTotXX=     5887585 LenRXX=     8385300
 LTotAB=     4808100 MaxLAS=     8385300 LenRXY=     4808100
 NonZer=    11775170 LenScr=    18419712 LnRSAI=           0
 LnScr1=           0 LExtra=           0 Total=     31613112
 MaxDsk=          -1 SrtSym=           F ITran=            4
 DoSDTr:  NPSUse= 10
 JobTyp=2 Pass  1:  I=   1 to  11.
 (rs|ai) integrals will be sorted in core.
 Complete sort for first half transformation.
 First half transformation complete.
 Begin second half transformation for I=  10.
 Begin second half transformation for I=  10.
 Complete sort for second half transformation.
 Second half transformation complete.
 DoSCS=T DFT=T ScalE2(SS,OS)=  0.270000  0.270000
 Spin components of T(2) and E(2):
     alpha-alpha T2 =       0.3737904343D-01 E2=     -0.2598538211D-01
     alpha-beta  T2 =       0.2008554247D+00 E2=     -0.1408461926D+00
     beta-beta   T2 =       0.3482890942D-01 E2=     -0.2296535460D-01
 E2(B2PLYPD3) =    -0.1897969293D+00 E(B2PLYPD3) =    -0.16907937007099D+03
 Leave Link  804 at Sat Nov 12 21:59:33 2022, MaxMem=   939524096 cpu:        86.0
 (Enter /Local/ce_dana/g09/l1002.exe)
 Minotr:  UHF open shell wavefunction.
          Computing MP2/KS-MP2 derivatives.
          Using Z-Vector for PSCF gradient.
          Skipping F1 and S1 gradient terms here.
          IDoAtm=11111
          Frozen-core window.
          Direct CPHF calculation.
          Differentiating once with respect to electric field.
                with respect to dipole field.
          Differentiating once with respect to nuclear coordinates.
          Using symmetry in CPHF.
          Requested convergence is 1.0D-10 RMS, and 1.0D-09 maximum.
          NewPWx=T KeepS1=F KeepF1=F KeepIn=T MapXYZ=F SortEE=F KeepMc=T.
          MDV=     939523838 using IRadAn=       5.
 Using stored XC quadrature information.
 Keep R1 and R2 ints in memory in symmetry-blocked form, NReq=23847346.
 FoFCou: FMM=F IPFlag=           0 FMFlag=           0 FMFlg1=           0
         NFxFlg=           0 DoJE=F BraDBF=F KetDBF=F FulRan=T
         wScrn=  0.000000 ICntrl=     600 IOpCl=  0 I1Cent=           0 NGrid=           0
         NMat0=    1 NMatS0=   5565 NMatT0=    0 NMatD0=    1 NMtDS0=    0 NMtDT0=    0
 Petite list used in FoFCou.
          Solving linear equations separately, MaxMat=       0.
          There are     1 degrees of freedom in the 1st order CPHF.  IDoFFX=0 NUNeed=     1.
 LinEq1:  Iter=  0 NonCon=     1 RMS=2.10D-03 Max=5.10D-02 NDo=     1
 AX will form     1 AO Fock derivatives at one time.
 LinEq1:  Iter=  1 NonCon=     1 RMS=7.66D-04 Max=1.82D-02 NDo=     1
 LinEq1:  Iter=  2 NonCon=     1 RMS=5.18D-04 Max=9.37D-03 NDo=     1
 LinEq1:  Iter=  3 NonCon=     1 RMS=3.15D-04 Max=6.54D-03 NDo=     1
 LinEq1:  Iter=  4 NonCon=     1 RMS=1.81D-04 Max=3.54D-03 NDo=     1
 LinEq1:  Iter=  5 NonCon=     1 RMS=8.95D-05 Max=1.46D-03 NDo=     1
 LinEq1:  Iter=  6 NonCon=     1 RMS=6.19D-05 Max=1.01D-03 NDo=     1
 LinEq1:  Iter=  7 NonCon=     1 RMS=1.84D-05 Max=2.19D-04 NDo=     1
 LinEq1:  Iter=  8 NonCon=     1 RMS=3.67D-06 Max=3.72D-05 NDo=     1
 LinEq1:  Iter=  9 NonCon=     1 RMS=9.10D-07 Max=1.28D-05 NDo=     1
 LinEq1:  Iter= 10 NonCon=     1 RMS=2.09D-07 Max=2.64D-06 NDo=     1
 LinEq1:  Iter= 11 NonCon=     1 RMS=4.72D-08 Max=6.69D-07 NDo=     1
 LinEq1:  Iter= 12 NonCon=     1 RMS=1.35D-08 Max=1.26D-07 NDo=     1
 LinEq1:  Iter= 13 NonCon=     1 RMS=4.65D-09 Max=5.24D-08 NDo=     1
 LinEq1:  Iter= 14 NonCon=     1 RMS=1.15D-09 Max=1.18D-08 NDo=     1
 LinEq1:  Iter= 15 NonCon=     1 RMS=2.72D-10 Max=2.27D-09 NDo=     1
 LinEq1:  Iter= 16 NonCon=     0 RMS=5.09D-11 Max=5.94D-10 NDo=     1
 Linear equations converged to 1.000D-10 1.000D-09 after    16 iterations.
 End of Minotr F.D. properties file   721 does not exist.
 End of Minotr F.D. properties file   722 does not exist.
 End of Minotr F.D. properties file   788 does not exist.
 Leave Link 1002 at Sat Nov 12 21:59:41 2022, MaxMem=   939524096 cpu:        71.7
 (Enter /Local/ce_dana/g09/l1102.exe)
 Use density number 2.
 Symmetrizing basis deriv contribution to polar:
 IMax=3 JMax=2 DiffMx= 0.00D+00
 Leave Link 1102 at Sat Nov 12 21:59:41 2022, MaxMem=   939524096 cpu:         0.1
 (Enter /Local/ce_dana/g09/l1110.exe)
 Forming Gx(P) for generalized density number  2 NAtomX=     5.
 Integral derivatives from FoFJK, PRISM(SPDF).
 Do as many integral derivatives as possible in FoFJK.
 G2DrvN: MDV=     939523952.
 G2DrvN: will do     6 centers at a time, making    1 passes.
 Calling FoFCou, ICntrl=  3107 FMM=F I1Cent=   0 AccDes= 1.00D-12.
 FoFJK:  IHMeth= 1 ICntrl=    3107 DoSepK=F KAlg= 0 I1Cent=   0 FoldK=F
 IRaf=         0 NMat=   1 IRICut=       1 DoRegI=T DoRafI=F ISym2E= 1.
 FoFCou: FMM=F IPFlag=           0 FMFlag=      100000 FMFlg1=           0
         NFxFlg=           0 DoJE=F BraDBF=F KetDBF=F FulRan=T
         wScrn=  0.000000 ICntrl=    3107 IOpCl=  1 I1Cent=           0 NGrid=           0
         NMat0=    1 NMatS0=      1 NMatT0=    0 NMatD0=    1 NMtDS0=    0 NMtDT0=    0
 Petite list used in FoFCou.
 End of G2Drv F.D. properties file   721 does not exist.
 End of G2Drv F.D. properties file   722 does not exist.
 End of G2Drv F.D. properties file   788 does not exist.
 Leave Link 1110 at Sat Nov 12 21:59:46 2022, MaxMem=   939524096 cpu:        57.1
 (Enter /Local/ce_dana/g09/l1112.exe)
 MP22nd: MDV=     939524096
 DoSCS=T DFT=T ScalE2(SS,OS)=  0.270000  0.270000
 Using stored XC quadrature information.
 This link is doing NAtomX=     5 total of    18 degrees of freedom.
 Using ON3 I/O method in MakUI.
 Frozen-core window:  NFC=   3 NFV=   0.
 Using Ix for Sx.
 Use MO integrals over full window.
 Using OV2 memory method for fx*t*t/D, MaxI=    11 DoOO2=F NP=  10.
 R2 and R3 integrals will be kept in memory, NReq=    54654860.
 FoFCou: FMM=F IPFlag=           0 FMFlag=           0 FMFlg1=           0
         NFxFlg=           0 DoJE=F BraDBF=F KetDBF=F FulRan=T
         wScrn=  0.000000 ICntrl=     600 IOpCl=  0 I1Cent=           0 NGrid=           0
         NMat0=    1 NMatS0=      1 NMatT0=    0 NMatD0=    1 NMtDS0=    0 NMtDT0=    0
 Symmetry not used in FoFCou.
 DD1Dir will call FoFMem   1 times, MxPair=       386
 NAB=   132 NAA=    66 NBB=    55.
 Symmetry is being used.
 FoFJK:  IHMeth= 1 ICntrl=       0 DoSepK=F KAlg= 0 I1Cent=   0 FoldK=F
 IRaf=         0 NMat=  18 IRICut=      45 DoRegI=T DoRafI=T ISym2E= 2.
 R6Disp: Adding Grimme-D3(BJ) dispersion energy 1st derivatives to the gradient.
 Discarding MO integrals.
 Leave Link 1112 at Sat Nov 12 22:00:25 2022, MaxMem=   939524096 cpu:       308.1
 (Enter /Local/ce_dana/g09/l601.exe)
 Copying SCF densities to generalized density rwf, IOpCl= 1 IROHF=0.

 **********************************************************************

            Population analysis using the SCF density.

 **********************************************************************

 Orbital symmetries:
 Alpha Orbitals:
       Occupied  (A') (A') (A') (A') (A') (A') (A') (A') (A") (A')
                 (A") (A')
       Virtual   (A") (A') (A') (A') (A') (A') (A") (A') (A') (A')
                 (A") (A') (A') (A") (A') (A') (A') (A') (A") (A')
                 (A") (A') (A') (A') (A") (A') (A") (A') (A') (A")
                 (A') (A') (A") (A') (A') (A") (A') (A') (A") (A')
                 (A") (A') (A') (A") (A') (A') (A') (A') (A") (A')
                 (A") (A') (A') (A") (A") (A') (A') (A") (A') (A")
                 (A') (A') (A') (A') (A') (A") (A') (A') (A") (A')
                 (A") (A') (A") (A') (A") (A') (A") (A") (A') (A')
                 (A') (A") (A') (A') (A") (A') (A") (A') (A') (A')
                 (A') (A') (A')
 Beta  Orbitals:
       Occupied  (A') (A') (A') (A') (A') (A') (A') (A') (A") (A')
                 (A")
       Virtual   (A') (A") (A') (A') (A') (A') (A") (A') (A') (A')
                 (A") (A') (A') (A') (A") (A') (A') (A') (A') (A")
                 (A') (A") (A') (A') (A') (A") (A') (A") (A') (A')
                 (A") (A') (A') (A") (A') (A') (A") (A') (A') (A")
                 (A') (A") (A') (A") (A') (A') (A') (A') (A') (A")
                 (A') (A") (A') (A') (A") (A') (A") (A') (A") (A')
                 (A") (A') (A') (A') (A') (A') (A") (A') (A') (A")
                 (A') (A") (A') (A") (A') (A") (A') (A") (A") (A')
                 (A') (A') (A") (A') (A') (A") (A') (A") (A') (A')
                 (A') (A') (A') (A')
 The electronic state is 2-A'.
 Alpha  occ. eigenvalues --  -19.78421 -14.91224 -10.68059  -1.22571  -1.02416
 Alpha  occ. eigenvalues --   -0.69682  -0.62657  -0.56590  -0.49406  -0.43055
 Alpha  occ. eigenvalues --   -0.36283  -0.30446
 Alpha virt. eigenvalues --    0.04890   0.07748   0.11164   0.16567   0.18143
 Alpha virt. eigenvalues --    0.26894   0.27493   0.32484   0.39389   0.46597
 Alpha virt. eigenvalues --    0.47293   0.48762   0.50668   0.53063   0.53877
 Alpha virt. eigenvalues --    0.58816   0.64970   0.68142   0.71217   0.77943
 Alpha virt. eigenvalues --    0.86158   0.89753   1.08298   1.19194   1.19761
 Alpha virt. eigenvalues --    1.31293   1.33271   1.40338   1.47457   1.50687
 Alpha virt. eigenvalues --    1.54285   1.56513   1.59170   1.71803   1.81837
 Alpha virt. eigenvalues --    1.87719   1.90505   2.10274   2.10962   2.16956
 Alpha virt. eigenvalues --    2.18658   2.25561   2.33100   2.34610   2.40022
 Alpha virt. eigenvalues --    2.42695   2.57915   2.68476   2.73920   2.78074
 Alpha virt. eigenvalues --    2.80523   2.82295   2.98549   3.01828   3.02875
 Alpha virt. eigenvalues --    3.04457   3.13863   3.24965   3.26187   3.48227
 Alpha virt. eigenvalues --    3.52674   3.63287   3.85838   4.00095   4.04593
 Alpha virt. eigenvalues --    4.08412   4.23330   4.49455   4.50942   4.67973
 Alpha virt. eigenvalues --    4.77091   4.94471   5.00809   5.17072   5.32881
 Alpha virt. eigenvalues --    5.36782   5.50936   5.55943   5.57585   5.61414
 Alpha virt. eigenvalues --    5.73151   5.92163   6.05220   6.37008   6.54802
 Alpha virt. eigenvalues --    6.70272   6.79169   6.90428   7.22533   7.58178
 Alpha virt. eigenvalues --   22.58924  32.45608  44.16105
  Beta  occ. eigenvalues --  -19.77600 -14.91269 -10.66223  -1.20757  -1.01033
  Beta  occ. eigenvalues --   -0.65764  -0.60922  -0.54631  -0.49305  -0.38528
  Beta  occ. eigenvalues --   -0.35339
  Beta virt. eigenvalues --   -0.03654   0.06138   0.08455   0.12130   0.17226
  Beta virt. eigenvalues --    0.19670   0.28757   0.30642   0.33371   0.40790
  Beta virt. eigenvalues --    0.47188   0.47264   0.49884   0.51497   0.53393
  Beta virt. eigenvalues --    0.53970   0.59511   0.65851   0.71242   0.73901
  Beta virt. eigenvalues --    0.78774   0.87033   0.91575   1.10194   1.20164
  Beta virt. eigenvalues --    1.20211   1.32982   1.33263   1.43419   1.47859
  Beta virt. eigenvalues --    1.52401   1.57254   1.58822   1.59475   1.72097
  Beta virt. eigenvalues --    1.82631   1.88671   1.90971   2.11258   2.11749
  Beta virt. eigenvalues --    2.18231   2.18697   2.26343   2.34264   2.34428
  Beta virt. eigenvalues --    2.40726   2.43960   2.58104   2.70084   2.75837
  Beta virt. eigenvalues --    2.81351   2.82618   2.83154   2.99502   3.03366
  Beta virt. eigenvalues --    3.07388   3.08166   3.18115   3.27377   3.30125
  Beta virt. eigenvalues --    3.49185   3.53974   3.64370   3.86945   4.00608
  Beta virt. eigenvalues --    4.05606   4.07902   4.24914   4.50117   4.51433
  Beta virt. eigenvalues --    4.68434   4.76536   4.94575   5.00710   5.18292
  Beta virt. eigenvalues --    5.33696   5.37032   5.51470   5.56176   5.58027
  Beta virt. eigenvalues --    5.62514   5.73893   5.93763   6.06021   6.38295
  Beta virt. eigenvalues --    6.55166   6.71732   6.80743   6.92091   7.23244
  Beta virt. eigenvalues --    7.59809  22.60666  32.45714  44.16733
          Condensed to atoms (all electrons):
               1          2          3          4          5
     1  C    5.090779   0.695815  -0.063537   0.348914   0.000740
     2  N    0.695815   6.361534   0.065639  -0.024548  -0.025791
     3  O   -0.063537   0.065639   8.069695  -0.006363   0.293752
     4  H    0.348914  -0.024548  -0.006363   0.513080   0.000243
     5  H    0.000740  -0.025791   0.293752   0.000243   0.395182
          Atomic-Atomic Spin Densities.
               1          2          3          4          5
     1  C    1.013608  -0.075595  -0.015816  -0.052171   0.001595
     2  N   -0.075595   0.015763  -0.068411   0.006365   0.008112
     3  O   -0.015816  -0.068411   0.299454  -0.009995  -0.003172
     4  H   -0.052171   0.006365  -0.009995   0.095223   0.000813
     5  H    0.001595   0.008112  -0.003172   0.000813  -0.007499
 Mulliken charges and spin densities:
               1          2
     1  C   -0.072712   0.871621
     2  N   -0.072649  -0.113766
     3  O   -0.359186   0.202061
     4  H    0.168673   0.040235
     5  H    0.335873  -0.000150
 Sum of Mulliken charges =  -0.00000   1.00000
 Mulliken charges and spin densities with hydrogens summed into heavy atoms:
               1          2
     1  C    0.095962   0.911856
     2  N   -0.072649  -0.113766
     3  O   -0.023313   0.201911
 APT charges:
               1
     1  C   -0.104335
     2  N    0.089729
     3  O   -0.472789
     4  H    0.188851
     5  H    0.298544
 Sum of APT charges =  -0.00000
 APT charges with hydrogens summed into heavy atoms:
               1
     1  C    0.084516
     2  N    0.089729
     3  O   -0.174245
 Electronic spatial extent (au):  <R**2>=            136.2034
 Charge=             -0.0000 electrons
 Dipole moment (field-independent basis, Debye):
    X=             -0.1483    Y=             -0.4565    Z=             -0.0000  Tot=              0.4799
 Quadrupole moment (field-independent basis, Debye-Ang):
   XX=            -10.8610   YY=            -19.9998   ZZ=            -18.2536
   XY=              2.0574   XZ=             -0.0000   YZ=             -0.0000
 Traceless Quadrupole moment (field-independent basis, Debye-Ang):
   XX=              5.5104   YY=             -3.6283   ZZ=             -1.8821
   XY=              2.0574   XZ=             -0.0000   YZ=             -0.0000
 Octapole moment (field-independent basis, Debye-Ang**2):
  XXX=             10.6053  YYY=             -4.0127  ZZZ=             -0.0000  XYY=              0.8261
  XXY=             -3.5804  XXZ=             -0.0000  XZZ=              1.7527  YZZ=             -0.9746
  YYZ=             -0.0000  XYZ=              0.0000
 Hexadecapole moment (field-independent basis, Debye-Ang**3):
 XXXX=            -85.0897 YYYY=            -47.2379 ZZZZ=            -17.3770 XXXY=             20.1389
 XXXZ=              0.0000 YYYX=             16.1310 YYYZ=             -0.0000 ZZZX=              0.0000
 ZZZY=             -0.0000 XXYY=            -27.1103 XXZZ=            -22.6261 YYZZ=            -10.8996
 XXYZ=             -0.0000 YYXZ=              0.0000 ZZXY=              5.5141
 N-N= 6.337036948568D+01 E-N=-5.237557814780D+02  KE= 1.683883453223D+02
 Symmetry A'   KE= 1.608227617865D+02
 Symmetry A"   KE= 7.565583535839D+00
  Exact polarizability:  40.184  -3.233  21.075  -0.000   0.000  15.195
 Approx polarizability:  44.043  -2.370  22.756  -0.000   0.000  17.072
                          Isotropic Fermi Contact Couplings
        Atom                 a.u.       MegaHertz       Gauss      10(-4) cm-1
     1  C(13)              0.40425     454.45672     162.16145     151.59044
     2  N(14)              0.52115     168.38455      60.08379      56.16704
     3  O(17)              0.11544     -69.97932     -24.97036     -23.34259
     4  H(1)               0.02452     109.59890      39.10761      36.55826
     5  H(1)              -0.00381     -17.01378      -6.07094      -5.67519
 --------------------------------------------------------
       Center         ----  Spin Dipole Couplings  ----
                      3XX-RR        3YY-RR        3ZZ-RR
 --------------------------------------------------------
     1   Atom       -0.250948      0.639258     -0.388310
     2   Atom        0.087594     -0.081404     -0.006190
     3   Atom       -0.097137      0.576549     -0.479412
     4   Atom        0.025701      0.019400     -0.045102
     5   Atom        0.040606     -0.007176     -0.033430
 --------------------------------------------------------
                        XY            XZ            YZ
 --------------------------------------------------------
     1   Atom       -0.383103     -0.000000      0.000000
     2   Atom        0.204824     -0.000000      0.000000
     3   Atom       -0.603700      0.000000     -0.000000
     4   Atom        0.030334     -0.000000     -0.000000
     5   Atom        0.012430     -0.000000     -0.000000
 --------------------------------------------------------


 ---------------------------------------------------------------------------------
              Anisotropic Spin Dipole Couplings in Principal Axis System
 ---------------------------------------------------------------------------------

       Atom             a.u.   MegaHertz   Gauss  10(-4) cm-1        Axes

              Baa    -0.3931   -52.752   -18.823   -17.596  0.9375  0.3479  0.0000
     1 C(13)  Bbb    -0.3883   -52.108   -18.593   -17.381  0.0000  0.0000  1.0000
              Bcc     0.7814   104.860    37.417    34.977 -0.3479  0.9375 -0.0000
 
              Baa    -0.2185    -8.426    -3.007    -2.811 -0.5562  0.8311 -0.0000
     2 N(14)  Bbb    -0.0062    -0.239    -0.085    -0.080  0.0000  0.0000  1.0000
              Bcc     0.2247     8.665     3.092     2.890  0.8311  0.5562 -0.0000
 
              Baa    -0.4794    34.690    12.378    11.571  0.0000  0.0000  1.0000
     3 O(17)  Bbb    -0.4516    32.678    11.660    10.900  0.8623  0.5063 -0.0000
              Bcc     0.9310   -67.368   -24.039   -22.472 -0.5063  0.8623 -0.0000
 
              Baa    -0.0451   -24.064    -8.587    -8.027  0.0000  0.0000  1.0000
     4 H(1)   Bbb    -0.0079    -4.240    -1.513    -1.414 -0.6696  0.7427  0.0000
              Bcc     0.0530    28.304    10.100     9.441  0.7427  0.6696 -0.0000
 
              Baa    -0.0334   -17.837    -6.365    -5.950  0.0000  0.0000  1.0000
     5 H(1)   Bbb    -0.0102    -5.451    -1.945    -1.818 -0.2376  0.9714 -0.0000
              Bcc     0.0436    23.288     8.310     7.768  0.9714  0.2376 -0.0000
 

 ---------------------------------------------------------------------------------

 No NMR shielding tensors so no spin-rotation constants.
 Leave Link  601 at Sat Nov 12 22:00:26 2022, MaxMem=   939524096 cpu:         2.8
 (Enter /Local/ce_dana/g09/l701.exe)
 Compute integral second derivatives.
 ... and contract with generalized density number  2.
 Use density number 2.
 R6Disp: Adding Grimme-D3(BJ) dispersion energy 2nd derivatives to the Hessian.
 Entering OneElI...
 Calculate overlap and kinetic energy integrals
    NBasis = 120  MinDer = 2  MaxDer = 2
 Requested accuracy = 0.1000D-14
 PrsmSu:  NPrtUS=  10 ThrOK=T IAlg=1 NPAlg=1 LenDen=           0.
 Prism:   IPart=     0 DynPar=F LinDyn=F Incr=           1.
 PRISM was handed    93922296 working-precision words and   859 shell-pairs
 PRISM was handed    93922296 working-precision words and   859 shell-pairs
 PRISM was handed    93922296 working-precision words and   859 shell-pairs
 PRISM was handed    93922296 working-precision words and   859 shell-pairs
 PRISM was handed    93922296 working-precision words and   859 shell-pairs
 PRISM was handed    93922296 working-precision words and   859 shell-pairs
 PRISM was handed    93922296 working-precision words and   859 shell-pairs
 PRISM was handed    93922296 working-precision words and   859 shell-pairs
 PRISM was handed    93922296 working-precision words and   859 shell-pairs
 PRISM was handed    93922296 working-precision words and   859 shell-pairs
 IPart=  7 NShTot=          78 NBatch=          26 AvBLen=         3.0
 IPart=  4 NShTot=          86 NBatch=          29 AvBLen=         3.0
 IPart=  2 NShTot=          95 NBatch=          34 AvBLen=         2.8
 IPart=  6 NShTot=          80 NBatch=          27 AvBLen=         3.0
 IPart=  9 NShTot=          64 NBatch=          21 AvBLen=         3.0
 IPart=  8 NShTot=          71 NBatch=          25 AvBLen=         2.8
 IPart=  3 NShTot=          91 NBatch=          30 AvBLen=         3.0
 IPart=  5 NShTot=          84 NBatch=          29 AvBLen=         2.9
 IPart=  0 NShTot=         108 NBatch=          44 AvBLen=         2.5
 IPart=  1 NShTot=         102 NBatch=          40 AvBLen=         2.5
 PrSmSu:  NxtVal=             11.
 Entering OneElI...
 Calculate potential energy integrals
    NBasis = 120  MinDer = 2  MaxDer = 2
 Requested accuracy = 0.1000D-14
 PrsmSu:  NPrtUS=  10 ThrOK=T IAlg=1 NPAlg=1 LenDen=           0.
 Prism:   IPart=     0 DynPar=F LinDyn=F Incr=           4.
 PRISM was handed    93924825 working-precision words and   856 shell-pairs
 PRISM was handed    93924825 working-precision words and   856 shell-pairs
 PRISM was handed    93924825 working-precision words and   856 shell-pairs
 PRISM was handed    93924825 working-precision words and   856 shell-pairs
 PRISM was handed    93924825 working-precision words and   856 shell-pairs
 PRISM was handed    93924825 working-precision words and   856 shell-pairs
 PRISM was handed    93924825 working-precision words and   856 shell-pairs
 PRISM was handed    93924825 working-precision words and   856 shell-pairs
 PRISM was handed    93924825 working-precision words and   856 shell-pairs
 PRISM was handed    93924825 working-precision words and   856 shell-pairs
 IPart=  2 NShTot=         470 NBatch=          94 AvBLen=         5.0
 IPart=  7 NShTot=         385 NBatch=          77 AvBLen=         5.0
 IPart=  4 NShTot=         435 NBatch=          87 AvBLen=         5.0
 IPart=  5 NShTot=         410 NBatch=          82 AvBLen=         5.0
 IPart=  6 NShTot=         395 NBatch=          79 AvBLen=         5.0
 IPart=  0 NShTot=         540 NBatch=         108 AvBLen=         5.0
 IPart=  8 NShTot=         360 NBatch=          72 AvBLen=         5.0
 IPart=  3 NShTot=         450 NBatch=          90 AvBLen=         5.0
 IPart=  9 NShTot=         335 NBatch=          67 AvBLen=         5.0
 IPart=  1 NShTot=         500 NBatch=         100 AvBLen=         5.0
 PrSmSu:  NxtVal=             41.
   2 Symmetry operations used in ECPInt.
 ECPInt:  NShTT=     861 NPrTT=    2700 LenC2=     859 LenP2D=    2382.
 LDataN:  DoStor=F MaxTD1= 8 Len=  415
 LDataN:  DoStor=T MaxTD1= 8 Len=  415
 ECPSu:  NPrtUS=  10 ThrOK=T
 Polarizability after L701:
                1             2             3 
      1  0.401836D+02
      2 -0.323272D+01  0.210753D+02
      3  0.000000D+00  0.000000D+00  0.151948D+02
 Dipole Derivatives after L701:
                 1             2             3             4             5 
      1  -0.164995D+00  0.483613D+00  0.000000D+00  0.312780D+00 -0.110637D+01
      2   0.240025D+00 -0.483242D-01  0.000000D+00 -0.369161D+00  0.135391D+00
      3   0.000000D+00  0.000000D+00 -0.996867D-01  0.000000D+00  0.000000D+00
                 6             7             8             9            10 
      1   0.000000D+00 -0.693570D+00  0.854385D+00  0.000000D+00  0.205852D+00
      2   0.000000D+00  0.210835D+00 -0.412609D+00  0.000000D+00 -0.251002D-01
      3  -0.178984D+00  0.000000D+00  0.000000D+00 -0.312189D+00  0.000000D+00
                11            12            13            14            15 
      1  -0.186341D+00  0.000000D+00  0.339933D+00 -0.452878D-01  0.000000D+00
      2   0.125834D+00  0.000000D+00 -0.565984D-01  0.199708D+00  0.000000D+00
      3   0.000000D+00  0.234868D+00  0.000000D+00  0.000000D+00  0.355992D+00
 Hessian after L701:
                1             2             3             4             5 
      1 -0.815825D+00
      2 -0.236230D+01  0.125661D+02
      3  0.000000D+00  0.000000D+00  0.155160D+02
      4  0.174164D+01  0.166475D+01  0.000000D+00 -0.754191D+00
      5  0.193327D+01 -0.110230D+02  0.000000D+00  0.175092D+01  0.113164D+02
      6  0.000000D+00  0.000000D+00 -0.129919D+02  0.000000D+00  0.000000D+00
      7  0.494927D+00 -0.386932D+00  0.000000D+00 -0.138930D+01 -0.377724D+01
      8 -0.542377D+00 -0.701503D-01  0.000000D+00 -0.372858D+01 -0.328316D+00
      9  0.000000D+00  0.000000D+00 -0.622607D-01  0.000000D+00  0.000000D+00
     10 -0.155389D+01  0.107321D+01  0.000000D+00  0.222346D+00  0.130888D+00
     11  0.933482D+00 -0.143891D+01  0.000000D+00  0.216160D+00  0.962711D-01
     12  0.000000D+00  0.000000D+00 -0.244080D+01  0.000000D+00  0.000000D+00
     13  0.133147D+00  0.112626D-01  0.000000D+00  0.179509D+00 -0.378327D-01
     14  0.379253D-01 -0.340238D-01  0.000000D+00  0.967466D-01 -0.613212D-01
     15  0.000000D+00  0.000000D+00 -0.210550D-01  0.000000D+00  0.000000D+00
                6             7             8             9            10 
      6  0.179054D+02
      7  0.000000D+00  0.195110D+01
      8  0.000000D+00  0.303915D+01  0.391847D+01
      9 -0.488252D+01  0.000000D+00  0.000000D+00  0.908677D+01
     10  0.000000D+00  0.681214D-01 -0.485343D-01  0.000000D+00  0.124320D+01
     11  0.000000D+00  0.238239D-03 -0.190368D-01  0.000000D+00 -0.116105D+01
     12  0.635106D-02  0.000000D+00  0.000000D+00 -0.379680D-01  0.000000D+00
     13  0.000000D+00 -0.112485D+01  0.128034D+01  0.000000D+00  0.202235D-01
     14  0.000000D+00  0.112478D+01 -0.350096D+01  0.000000D+00  0.547704D-02
     15 -0.373864D-01  0.000000D+00  0.000000D+00 -0.410402D+01  0.000000D+00
               11            12            13            14            15 
     11  0.135993D+01
     12  0.000000D+00  0.247449D+01
     13  0.111651D-01  0.000000D+00  0.791967D+00
     14  0.174223D-02  0.000000D+00 -0.126493D+01  0.359457D+01
     15  0.000000D+00 -0.207393D-02  0.000000D+00  0.000000D+00  0.416454D+01
 Leave Link  701 at Sat Nov 12 22:00:26 2022, MaxMem=   939524096 cpu:         4.9
 (Enter /Local/ce_dana/g09/l702.exe)
 L702 exits ... SP integral derivatives will be done elsewhere.
 Leave Link  702 at Sat Nov 12 22:00:26 2022, MaxMem=   939524096 cpu:         0.0
 (Enter /Local/ce_dana/g09/l703.exe)
 Compute integral second derivatives, UseDBF=F ICtDFT=           0.
 Integral derivatives from FoFJK, PRISM(SPDF).
 ICntrl=  10100127.
 Calling FoFJK, ICntrl=  10100127 FMM=F ISym2X=1 I1Cent= 0 IOpClX= 1 NMat=1 NMatS=1 NMatT=0.
 FoFJK:  IHMeth= 1 ICntrl=10100127 DoSepK=F KAlg= 0 I1Cent=   0 FoldK=F
 IRaf=         0 NMat=   1 IRICut=       1 DoRegI=T DoRafI=F ISym2E= 1.
 FoFCou: FMM=F IPFlag=           0 FMFlag=      100000 FMFlg1=         800
         NFxFlg=           0 DoJE=F BraDBF=F KetDBF=F FulRan=T
         wScrn=  0.000000 ICntrl=10100127 IOpCl=  1 I1Cent=           0 NGrid=           0
         NMat0=    1 NMatS0=      1 NMatT0=    0 NMatD0=    1 NMtDS0=    0 NMtDT0=    0
 Petite list used in FoFCou.
 FoFCou:  KetSym=F NOpSet=  2 NOpAb=2 NOp=  2.
 FoFCou:  CnvScl= 1.00D+00 Thresh= 1.00D-12 IAcrcy=      10.
 PrismS was handed   939427704 working-precision words and   858 shell-pairs
 FoFCou: LinMIO=F DoNuc=F BraDBF=F KetDBF=F HaveP=T PDBF=F HaveZ=T HaveW=F
         NIJTC =      10 NIJTAt=       0 NIJTCD=       0 NIJTT =      10
         IJTBeg=       1 IJTEnd=      10 KLTBeg=       1 KLTEnd=      10
         IPTBeg=       1 IPTEnd=      10 IPTBCv=       1 IPTECv=      10
         IZTBeg=       1 IZTEnd=      10 IZTBCv=       1 IZTECv=      10
         IWTBeg=      11 IWTEnd=      10 IWTBCv=      11 IWTECv=      10
         INTBeg=       1 INTEnd=       0 IFTBCv=       1 IFTECv=      10
 NCel replicated for PrismC:     1
 CoulSu:  IncDef=  1024 NBBP=         368511 NTPThr=   100 NPartT=   10 Incr=         368 LDynOK=F.
 CoulSu:  NPrtUS=  10 ThrOK=T IAlg=1 NPAlg=1 LenDen=           0 LWGrdD=           0 DoCopy=F.
 Enter PrismC: JobTyp=22 DoJE=F Cont=F.
 PrismC:  IPart=     0 DynPar=T LinDyn=F Incr=         368 UseFst=F UseS4=T IGathr=2.
 PrismC was handed    93924829 working-precision words and   858 shell-pairs
 Enter PrismC: JobTyp=22 DoJE=F Cont=F.
 Enter PrismC: JobTyp=22 DoJE=F Cont=F.
 Enter PrismC: JobTyp=22 DoJE=F Cont=F.
 Enter PrismC: JobTyp=22 DoJE=F Cont=F.
 Enter PrismC: JobTyp=22 DoJE=F Cont=F.
 Enter PrismC: JobTyp=22 DoJE=F Cont=F.
 PrismC was handed    93924829 working-precision words and   858 shell-pairs
 PrismC was handed    93924829 working-precision words and   858 shell-pairs
 PrismC was handed    93924829 working-precision words and   858 shell-pairs
 Enter PrismC: JobTyp=22 DoJE=F Cont=F.
 PrismC was handed    93924829 working-precision words and   858 shell-pairs
 PrismC was handed    93924829 working-precision words and   858 shell-pairs
 Enter PrismC: JobTyp=22 DoJE=F Cont=F.
 PrismC was handed    93924829 working-precision words and   858 shell-pairs
 Enter PrismC: JobTyp=22 DoJE=F Cont=F.
 PrismC was handed    93924829 working-precision words and   858 shell-pairs
 PrismC was handed    93924829 working-precision words and   858 shell-pairs
 PrismC was handed    93924829 working-precision words and   858 shell-pairs
 IPart=  4 NShTot=       36103 NShNF=       36103 NShFF=           0 NBatch=        1338 AvBLen=        27.0
 IPart=  0 NShTot=       37198 NShNF=       37198 NShFF=           0 NBatch=        1420 AvBLen=        26.2
 IPart=  6 NShTot=       35262 NShNF=       35262 NShFF=           0 NBatch=        1573 AvBLen=        22.4
 IPart=  1 NShTot=       33929 NShNF=       33929 NShFF=           0 NBatch=        1382 AvBLen=        24.6
 IPart=  7 NShTot=       33413 NShNF=       33413 NShFF=           0 NBatch=        1396 AvBLen=        23.9
 IPart=  9 NShTot=       36910 NShNF=       36910 NShFF=           0 NBatch=        1398 AvBLen=        26.4
 IPart=  8 NShTot=       38433 NShNF=       38433 NShFF=           0 NBatch=        1448 AvBLen=        26.5
 IPart=  5 NShTot=       38917 NShNF=       38917 NShFF=           0 NBatch=        1502 AvBLen=        25.9
 IPart=  3 NShTot=       34545 NShNF=       34545 NShFF=           0 NBatch=        1469 AvBLen=        23.5
 IPart=  2 NShTot=       28870 NShNF=       28870 NShFF=           0 NBatch=        1266 AvBLen=        22.8
 CoulSu:  NxtVal=         392657.
 ReadGW:  IGet=0 IStart=           1 Next=           1 LGW=           0.
 Remaining memory in FofDFT      895.97 Mw
 CkSvGd:  ISavGI=        -1 IRadAn=       5 IRASav=       5 ISavGd=        -1.
 CalDSu:  NPrtUS=  10 ThrOK=T IAlg=1 NPAlg=2 DoDPD=T LenP=        7260 LenD1P=             0.
 IPart=  0 IRanGd=          0 ScrnBf=T ScrnGd=T RCrit=4.00D+00 DoMicB=T.
 IPart=  6         5512 of         5692 points in       9 batches and       32 microbatches, Max-NSigAt=       5 Max-NSgAt2=       5
 IPart=  8         5191 of         5421 points in       9 batches and       31 microbatches, Max-NSigAt=       5 Max-NSgAt2=       5
 IPart=  9         5448 of         5643 points in       9 batches and       43 microbatches, Max-NSigAt=       5 Max-NSgAt2=       5
 IPart=  0         5486 of         5776 points in      11 batches and       50 microbatches, Max-NSigAt=       5 Max-NSgAt2=       5
 IPart=  3         5369 of         5666 points in      10 batches and       35 microbatches, Max-NSigAt=       5 Max-NSgAt2=       5
 IPart=  1         5658 of         5873 points in       9 batches and       33 microbatches, Max-NSigAt=       5 Max-NSgAt2=       5
 IPart=  2         5431 of         5743 points in      10 batches and       49 microbatches, Max-NSigAt=       5 Max-NSgAt2=       5
 IPart=  7         6343 of         6668 points in      11 batches and       44 microbatches, Max-NSigAt=       5 Max-NSgAt2=       5
 IPart=  5         5322 of         5614 points in      11 batches and       45 microbatches, Max-NSigAt=       5 Max-NSgAt2=       5
 IPart=  4         6905 of         7393 points in      13 batches and       39 microbatches, Max-NSigAt=       5 Max-NSgAt2=       5
 Polarizability after L703:
                1             2             3 
      1  0.401836D+02
      2 -0.323272D+01  0.210753D+02
      3  0.000000D+00  0.000000D+00  0.151948D+02
 Dipole Derivatives after L703:
                 1             2             3             4             5 
      1  -0.164995D+00  0.483613D+00  0.000000D+00  0.312780D+00 -0.110637D+01
      2   0.240025D+00 -0.483242D-01  0.000000D+00 -0.369161D+00  0.135391D+00
      3   0.000000D+00  0.000000D+00 -0.996867D-01  0.000000D+00  0.000000D+00
                 6             7             8             9            10 
      1   0.000000D+00 -0.693570D+00  0.854385D+00  0.000000D+00  0.205852D+00
      2   0.000000D+00  0.210835D+00 -0.412609D+00  0.000000D+00 -0.251002D-01
      3  -0.178984D+00  0.000000D+00  0.000000D+00 -0.312189D+00  0.000000D+00
                11            12            13            14            15 
      1  -0.186341D+00  0.000000D+00  0.339933D+00 -0.452878D-01  0.000000D+00
      2   0.125834D+00  0.000000D+00 -0.565984D-01  0.199708D+00  0.000000D+00
      3   0.000000D+00  0.234868D+00  0.000000D+00  0.000000D+00  0.355992D+00
 Hessian after L703:
                1             2             3             4             5 
      1  0.103325D+01
      2  0.253006D+00  0.272513D+00
      3  0.000000D+00  0.000000D+00  0.570588D-01
      4 -0.737027D+00 -0.146180D+00  0.000000D+00  0.771393D+00
      5 -0.126940D+00 -0.588969D-01  0.000000D+00  0.116890D+00  0.141954D+00
      6  0.000000D+00  0.000000D+00 -0.459056D-01  0.000000D+00  0.000000D+00
      7 -0.105372D+00  0.391206D-01  0.000000D+00 -0.977829D-02  0.342728D-01
      8  0.461776D-01 -0.855969D-02  0.000000D+00 -0.304437D-01 -0.819204D-01
      9  0.000000D+00  0.000000D+00  0.110106D-01  0.000000D+00  0.000000D+00
     10 -0.182739D+00 -0.147424D+00  0.000000D+00 -0.891892D-02 -0.171478D-01
     11 -0.182839D+00 -0.202903D+00  0.000000D+00  0.225208D-01 -0.367707D-02
     12  0.000000D+00  0.000000D+00 -0.263693D-01  0.000000D+00  0.000000D+00
     13 -0.811454D-02  0.147747D-02  0.000000D+00 -0.156692D-01 -0.707466D-02
     14  0.105949D-01 -0.215333D-02  0.000000D+00  0.372136D-01  0.254061D-02
     15  0.000000D+00  0.000000D+00  0.420546D-02  0.000000D+00  0.000000D+00
                6             7             8             9            10 
      6  0.379440D-01
      7  0.000000D+00  0.500280D+00
      8  0.000000D+00  0.169995D+00  0.238846D+00
      9 -0.666175D-02  0.000000D+00  0.000000D+00  0.689302D-02
     10  0.000000D+00  0.752533D-02 -0.550505D-02  0.000000D+00  0.183628D+00
     11  0.000000D+00 -0.950013D-02  0.107510D-01  0.000000D+00  0.170045D+00
     12  0.202206D-01  0.000000D+00  0.000000D+00 -0.724154D-02  0.000000D+00
     13  0.000000D+00 -0.392654D+00 -0.180224D+00  0.000000D+00  0.503894D-03
     14  0.000000D+00 -0.233888D+00 -0.159117D+00  0.000000D+00  0.320690D-04
     15 -0.559729D-02  0.000000D+00  0.000000D+00 -0.400033D-02  0.000000D+00
               11            12            13            14            15 
     11  0.195401D+00
     12  0.000000D+00  0.131571D-01
     13 -0.226687D-03  0.000000D+00  0.415934D+00
     14  0.428613D-03  0.000000D+00  0.186048D+00  0.158301D+00
     15  0.000000D+00  0.233141D-03  0.000000D+00  0.000000D+00  0.515902D-02
 Leave Link  703 at Sat Nov 12 22:00:36 2022, MaxMem=   939524096 cpu:        94.4
 (Enter /Local/ce_dana/g09/l716.exe)
 FrcOut:
 IF    =    48 IFX   =    63 IFXYZ =    78
 IFFX  =    93 IFFFX =   213 IFLen =    15
 IFFLen=   120 IFFFLn=     0 IEDerv=   213
 LEDerv=   773 IFroze=  1175 ICStrt= 23499
 Dipole        = 2.16278303D-02-1.92270512D-01-2.98949558D-17
 DipoleDeriv   =-1.64995425D-01 2.40025007D-01 7.46568608D-15
                 4.83613357D-01-4.83241762D-02 4.25857138D-15
                -1.17775954D-13 6.34940107D-14-9.96867072D-02
                 3.12780099D-01-3.69160980D-01-5.29116945D-15
                -1.10636975D+00 1.35391414D-01-9.03007337D-15
                 1.19684024D-13-6.45884263D-14-1.78984112D-01
                -6.93569551D-01 2.10834515D-01-3.08082141D-15
                 8.54384743D-01-4.12609433D-01 2.54526213D-15
                 2.35181869D-15 2.73052777D-15-3.12188884D-01
                 2.05851971D-01-2.51001779D-02 3.60153914D-16
                -1.86340552D-01 1.25834372D-01 6.39402615D-16
                -2.13703685D-15-1.24533452D-15 2.34867684D-01
                 3.39932906D-01-5.65983641D-02 5.46150860D-16
                -4.52877998D-02 1.99707822D-01 1.58683725D-15
                -2.12285248D-15-3.90777743D-16 3.55992019D-01
 Polarizability= 4.01836289D+01-3.23271587D+00 2.10753168D+01
                -4.05325203D-15 6.37980778D-15 1.51947548D+01
 VibFq2-Diag1:  N=     15 IV=           6 MDV=   939499535 NE2=    62633302
 Full mass-weighted force constant matrix:
 Low frequencies ---   -7.2785   -6.0284   -0.0013   -0.0012   -0.0009    1.6484
 Low frequencies ---  375.0448  394.0076  611.0092
 OrtVCM:  Ph=1 IPass= 1 DotMx1= 0.00D+00
 OrtVCM:  IS=    1 I=    1 IndO=    1 Dot= 1.00D+00 DotN= 1.00D+00 ElMax1= 6.03D-01 ElMax1N= 6.03D-01
 OrtVCM:  Ph=2 NNew=    0 IAdd=    2 IPass= 1 DotMx2= 0.00D+00
 OrtVCM:  IS=    1 I=    2 IndO=    2 Dot= 1.00D+00 DotN= 1.00D+00 ElMax1= 6.03D-01 ElMax1N= 6.03D-01
 OrtVCM:  Ph=2 NNew=    0 IAdd=    3 IPass= 1 DotMx2= 0.00D+00
 OrtVCM:  IS=    1 I=    3 IndO=    3 Dot= 1.00D+00 DotN= 1.00D+00 ElMax1= 6.03D-01 ElMax1N= 6.03D-01
 OrtVCM:  Ph=2 NNew=    0 IAdd=    4 IPass= 1 DotMx2= 2.08D-17
 OrtVCM:  IS=    1 I=    4 IndO=    4 Dot= 1.00D+00 DotN= 1.00D+00 ElMax1= 7.12D-01 ElMax1N= 7.12D-01
 OrtVCM:  Ph=2 NNew=    0 IAdd=    5 IPass= 1 DotMx2= 8.60D-16
 OrtVCM:  IS=    1 I=    5 IndO=    5 Dot= 1.00D+00 DotN= 1.00D+00 ElMax1= 6.62D-01 ElMax1N= 6.62D-01
 OrtVCM:  Ph=2 NNew=    0 IAdd=    6 IPass= 1 DotMx2= 6.94D-17
 OrtVCM:  IS=    1 I=    6 IndO=    6 Dot= 1.00D+00 DotN= 1.00D+00 ElMax1= 5.95D-01 ElMax1N= 5.95D-01
 OrtVCM:  Ph=1 IPass= 1 DotMx1= 7.12D-01
 OrtVCM:  Ph=1 IPass= 2 DotMx1= 2.15D-16
 OrtVCM:  IS=    1 I=    1 IndO=    7 Dot= 7.03D-01 DotN= 7.03D-01 ElMax1= 7.03D-01 ElMax1N= 7.03D-01
 OrtVCM:  Ph=2 NNew=    0 IAdd=    2 IPass= 1 DotMx2= 1.10D-01
 OrtVCM:  Ph=2 NNew=    0 IAdd=    2 IPass= 2 DotMx2= 4.25D-17
 OrtVCM:  IS=    1 I=    2 IndO=    8 Dot= 3.61D-01 DotN= 3.61D-01 ElMax1= 3.61D-01 ElMax1N= 3.61D-01
 OrtVCM:  Ph=2 NNew=    0 IAdd=    3 IPass= 1 DotMx2= 5.69D-17
 OrtVCM:  IS=    1 I=    3 IndO=    9 Dot= 2.46D-01 DotN= 2.46D-01 ElMax1= 3.57D-01 ElMax1N= 3.57D-01
 OrtVCM:  Ph=2 NNew=    0 IAdd=    4 IPass= 1 DotMx2= 4.01D-01
 OrtVCM:  Ph=2 NNew=    0 IAdd=    4 IPass= 2 DotMx2= 7.11D-17
 OrtVCM:  IS=    1 I=    4 IndO=   10 Dot= 3.35D-01 DotN= 3.35D-01 ElMax1= 3.35D-01 ElMax1N= 3.35D-01
 OrtVCM:  Ph=2 NNew=    0 IAdd=    5 IPass= 1 DotMx2= 4.92D-01
 OrtVCM:  Ph=2 NNew=    0 IAdd=    5 IPass= 2 DotMx2= 3.08D-17
 OrtVCM:  IS=    1 I=    5 IndO=   11 Dot= 3.57D-01 DotN= 3.57D-01 ElMax1= 4.07D-01 ElMax1N= 4.07D-01
 OrtVCM:  Ph=2 NNew=    0 IAdd=    6 IPass= 1 DotMx2= 3.89D-01
 OrtVCM:  Ph=2 NNew=    0 IAdd=    6 IPass= 2 DotMx2= 6.16D-17
 OrtVCM:  IS=    1 I=    6 IndO=   12 Dot= 1.17D-02 DotN= 1.17D-02 ElMax1= 9.59D-02 ElMax1N= 9.59D-02
 OrtVCM:  Ph=2 NNew=    0 IAdd=    7 IPass= 1 DotMx2= 4.58D-01
 OrtVCM:  Ph=2 NNew=    0 IAdd=    7 IPass= 2 DotMx2= 7.63D-17
 OrtVCM:  IS=    1 I=    7 IndO=   13 Dot= 1.10D-01 DotN= 1.10D-01 ElMax1= 2.21D-01 ElMax1N= 2.21D-01
 OrtVCM:  Ph=2 NNew=    0 IAdd=    8 IPass= 1 DotMx2= 4.06D-01
 OrtVCM:  Ph=2 NNew=    0 IAdd=    8 IPass= 2 DotMx2= 3.82D-17
 OrtVCM:  IS=    1 I=    8 IndO=   14 Dot= 8.92D-02 DotN= 8.92D-02 ElMax1= 2.72D-01 ElMax1N= 2.72D-01
 OrtVCM:  Ph=2 NNew=    0 IAdd=    9 IPass= 1 DotMx2= 2.20D-01
 OrtVCM:  Ph=2 NNew=    0 IAdd=    9 IPass= 2 DotMx2= 4.50D-17
 OrtVCM:  IS=    1 I=    9 IndO=    0 Dot= 4.67D-33 DotN= 4.67D-33 ElMax1= 5.39D-17 ElMax1N= 5.39D-17
 SchOr2:  IPass= 1 Test2A= 1.00D-01 IOff=     0 NDo=     9 NNew=     8
 OrtVCM:  Ph=1 IPass= 1 DotMx1= 6.67D-01
 OrtVCM:  Ph=1 IPass= 2 DotMx1= 1.63D-16
 OrtVCM:  IS=    1 I=    1 IndO=   15 Dot= 4.96D-01 DotN= 4.96D-01 ElMax1= 4.96D-01 ElMax1N= 4.96D-01
 SchOr2:  IPass= 1 Test2A= 1.00D-01 IOff=     9 NDo=     1 NNew=     1
 VibFq2-Diag2:  N=      9 IV=           6 MDV=   939499535 NE2=   104388836
 Dipole derivatives wrt mode   1: -2.87747D+00  3.38081D+00  2.30204D-11
 Vibrational polarizability contributions from mode   1       1.5841242       2.1867939       0.0000000
 Vibrational hyperpolarizability contributions from mode   1      -0.0000000       0.0000000       0.0000000
 Dipole derivatives wrt mode   2: -4.74653D-12  5.88568D-12 -1.24413D+01
 Vibrational polarizability contributions from mode   2       0.0000000       0.0000000      26.8323167
 Vibrational hyperpolarizability contributions from mode   2      -0.0000000       0.0000000      -0.0000000
 Dipole derivatives wrt mode   3:  1.35692D+01 -3.70037D+00  3.08130D-13
 Vibrational polarizability contributions from mode   3      13.2723247       0.9870263       0.0000000
 Vibrational hyperpolarizability contributions from mode   3       0.0000000      -0.0000000       0.0000000
 Dipole derivatives wrt mode   4: -3.80328D-13  4.79826D-13 -5.36187D+00
 Vibrational polarizability contributions from mode   4       0.0000000       0.0000000       1.4497130
 Vibrational hyperpolarizability contributions from mode   4      -0.0000000       0.0000000      -0.0000000
 Dipole derivatives wrt mode   5:  6.61931D+00 -1.21154D+00 -9.06370D-14
 Vibrational polarizability contributions from mode   5       1.5573299       0.0521708       0.0000000
 Vibrational hyperpolarizability contributions from mode   5       0.0000000      -0.0000000      -0.0000000
 Dipole derivatives wrt mode   6:  7.76509D+00 -6.84408D+00  1.84916D-13
 Vibrational polarizability contributions from mode   6       0.9328964       0.7247206       0.0000000
 Vibrational hyperpolarizability contributions from mode   6       0.0000000      -0.0000000       0.0000000
 Dipole derivatives wrt mode   7:  2.03329D-01  2.96928D+00 -3.23514D-14
 Vibrational polarizability contributions from mode   7       0.0003555       0.0758212       0.0000000
 Vibrational hyperpolarizability contributions from mode   7       0.0000000       0.0000000      -0.0000000
 Dipole derivatives wrt mode   8: -1.50519D-01  1.52820D+00  6.53502D-15
 Vibrational polarizability contributions from mode   8       0.0000589       0.0060666       0.0000000
 Vibrational hyperpolarizability contributions from mode   8      -0.0000000       0.0000000       0.0000000
 Dipole derivatives wrt mode   9: -8.86585D+00 -1.31809D+00 -3.62969D-14
 Vibrational polarizability contributions from mode   9       0.1477727       0.0032662       0.0000000
 Vibrational hyperpolarizability contributions from mode   9      -0.0000000      -0.0000000      -0.0000000
 Diagonal vibrational polarizability:
       17.4948623       4.0358655      28.2820297
 NorSel:  MapVib=      1      2      3      4      5      6      7      8      9
 Harmonic frequencies (cm**-1), IR intensities (KM/Mole), Raman scattering
 activities (A**4/AMU), depolarization ratios for plane and unpolarized
 incident light, reduced masses (AMU), force constants (mDyne/A),
 and normal coordinates:
                      1                      2                      3
                     A'                     A"                     A'
 Frequencies --    375.0448               394.0076               611.0092
 Red. masses --      2.6644                 1.1083                11.3880
 Frc consts  --      0.2208                 0.1014                 2.5049
 IR Inten    --     19.7097               154.7869               197.8163
  Atom  AN      X      Y      Z        X      Y      Z        X      Y      Z
     1   6    -0.12   0.15   0.00    -0.00   0.00  -0.04     0.05   0.17  -0.00
     2   7    -0.11  -0.17  -0.00    -0.00  -0.00   0.06     0.25  -0.64   0.00
     3   8     0.22  -0.02  -0.00     0.00  -0.00   0.05    -0.28   0.43  -0.00
     4   1    -0.63   0.63   0.00    -0.00   0.00  -0.21     0.37  -0.19   0.00
     5   1     0.07   0.27   0.00     0.00   0.00  -0.97    -0.16   0.18   0.00
                      4                      5                      6
                     A"                     A'                     A'
 Frequencies --    730.5361               870.1395              1318.8533
 Red. masses --      1.5128                 1.5781                 1.1074
 Frc consts  --      0.4757                 0.7040                 1.1348
 IR Inten    --     28.7496                45.2831               107.1381
  Atom  AN      X      Y      Z        X      Y      Z        X      Y      Z
     1   6     0.00   0.00   0.17    -0.09   0.16  -0.00    -0.06   0.01   0.00
     2   7    -0.00  -0.00  -0.11    -0.06  -0.03   0.00    -0.02  -0.01  -0.00
     3   8    -0.00   0.00   0.03     0.07  -0.06   0.00     0.03   0.06  -0.00
     4   1     0.00  -0.00  -0.98     0.74  -0.63   0.00    -0.01  -0.05  -0.00
     5   1    -0.00   0.00   0.07    -0.01   0.10  -0.00     0.51  -0.85   0.00
                      7                      8                      9
                     A'                     A'                     A'
 Frequencies --   1768.9782              3218.6418              3783.4664
 Red. masses --      7.2502                 1.1178                 1.0680
 Frc consts  --     13.3673                 6.8227                 9.0073
 IR Inten    --      8.8580                 2.3580                80.3407
  Atom  AN      X      Y      Z        X      Y      Z        X      Y      Z
     1   6     0.54   0.05  -0.00    -0.08  -0.06  -0.00    -0.00   0.00  -0.00
     2   7    -0.47  -0.09   0.00     0.02   0.00   0.00    -0.00   0.00   0.00
     3   8    -0.03   0.04   0.00     0.00   0.00  -0.00     0.06   0.03  -0.00
     4   1     0.52   0.39   0.00     0.69   0.72   0.00    -0.00  -0.00   0.00
     5   1     0.10  -0.21  -0.00    -0.00  -0.00   0.00    -0.88  -0.47  -0.00

 -------------------
 - Thermochemistry -
 -------------------
 Temperature   298.150 Kelvin.  Pressure   1.00000 Atm.
 Atom     1 has atomic number  6 and mass  12.00000
 Atom     2 has atomic number  7 and mass  14.00307
 Atom     3 has atomic number  8 and mass  15.99491
 Atom     4 has atomic number  1 and mass   1.00783
 Atom     5 has atomic number  1 and mass   1.00783
 Molecular mass:    44.01364 amu.
 Principal axes and moments of inertia in atomic units:
                           1         2         3
     Eigenvalues --    20.98938 153.22144 174.21082
           X            0.92412   0.38211   0.00000
           Y           -0.38211   0.92412  -0.00000
           Z           -0.00000   0.00000   1.00000
 This molecule is an asymmetric top.
 Rotational symmetry number  1.
 Rotational temperatures (Kelvin)      4.12655     0.56529     0.49718
 Rotational constants (GHZ):          85.98355    11.77865    10.35952
 Zero-point vibrational energy      78180.0 (Joules/Mol)
                                   18.68547 (Kcal/Mol)
 Warning -- explicit consideration of   3 degrees of freedom as
           vibrations may cause significant error
 Vibrational temperatures:    539.61   566.89   879.10  1051.08  1251.94
          (Kelvin)           1897.53  2545.16  4630.90  5443.56
 
 Zero-point correction=                           0.029777 (Hartree/Particle)
 Thermal correction to Energy=                    0.033587
 Thermal correction to Enthalpy=                  0.034531
 Thermal correction to Gibbs Free Energy=         0.004818
 Sum of electronic and zero-point Energies=           -169.049593
 Sum of electronic and thermal Energies=              -169.045783
 Sum of electronic and thermal Enthalpies=            -169.044839
 Sum of electronic and thermal Free Energies=         -169.074552
 
                     E (Thermal)             CV                S
                      KCal/Mol        Cal/Mol-Kelvin    Cal/Mol-Kelvin
 Total                   21.076             11.458             62.537
 Electronic               0.000              0.000              1.377
 Translational            0.889              2.981             37.272
 Rotational               0.889              2.981             20.954
 Vibrational             19.299              5.496              2.933
 Vibration     1          0.746              1.523              1.059
 Vibration     2          0.761              1.483              0.985
 Vibration     3          0.970              1.009              0.431
                       Q            Log10(Q)             Ln(Q)
 Total Bot       0.608176D-02         -2.215971         -5.102462
 Total V=0       0.302383D+12         11.480558         26.434961
 Vib (Bot)       0.312694D-13        -13.504881        -31.096137
 Vib (Bot)    1  0.483754D+00         -0.315375         -0.726179
 Vib (Bot)    2  0.454343D+00         -0.342616         -0.788903
 Vib (Bot)    3  0.241611D+00         -0.616883         -1.420426
 Vib (V=0)       0.155470D+01          0.191648          0.441286
 Vib (V=0)    1  0.119571D+01          0.077627          0.178744
 Vib (V=0)    2  0.117559D+01          0.070257          0.161774
 Vib (V=0)    3  0.105532D+01          0.023383          0.053840
 Electronic      0.200000D+01          0.301030          0.693147
 Translational   0.114772D+08          7.059836         16.255873
 Rotational      0.847312D+04          3.928044          9.044654
 
                                                         [Hydroxyimino]methyl
                                                             IR Spectrum
 
     3                  3                                                1              1                                            
     7                  2                                                7              3              8    7   6      33            
     8                  1                                                6              1              7    3   1      97            
     3                  9                                                9              9              0    1   1      45            
 
     X                  X                                                X              X              X    X   X      XX            
     X                                                                                  X              X    X   X      XX            
     X                                                                                  X              X    X   X      X             
     X                                                                                  X              X        X      X             
     X                                                                                  X              X        X      X             
     X                                                                                  X                       X      X             
     X                                                                                  X                       X      X             
     X                                                                                  X                       X      X             
                                                                                        X                       X      X             
                                                                                        X                       X      X             
                                                                                        X                       X      X             
                                                                                                                X      X             
                                                                                                                X      X             
                                                                                                                X      X             
                                                                                                                X      X             
                                                                                                                X      X             
                                                                                                                X                    
                                                                                                                X                    
                                                                                                                X                    
                                                                                                                X                    
 
 Forces in standard orientation:
 -------------------------------------------------------------------
 Center     Atomic                   Forces (Hartrees/Bohr)
 Number     Number              X              Y              Z
 -------------------------------------------------------------------
      1        6          -0.000001299   -0.000000110   -0.000000000
      2        7           0.000000864   -0.000000009    0.000000000
      3        8          -0.000000410   -0.000000444    0.000000000
      4        1           0.000000285    0.000000005   -0.000000000
      5        1           0.000000560    0.000000557    0.000000000
 -------------------------------------------------------------------
 ***** Axes restored to original set *****
 Rotating derivatives, DoTrsp=F IDiff=-2 LEDeriv=    772 LFDPrp=       0 LDFDPr=       0.
 -------------------------------------------------------------------
 Center     Atomic                   Forces (Hartrees/Bohr)
 Number     Number              X              Y              Z
 -------------------------------------------------------------------
      1        6           0.000001209    0.000000485   -0.000000041
      2        7          -0.000000792   -0.000000341   -0.000000051
      3        8           0.000000442    0.000000062   -0.000000408
      4        1          -0.000000263   -0.000000111   -0.000000009
      5        1          -0.000000596   -0.000000096    0.000000509
 -------------------------------------------------------------------
 Cartesian Forces:  Max     0.000001209 RMS     0.000000484
 Z-matrix is all fixed cartesians, so copy forces.
 Force constants in Cartesian coordinates: 
                1             2             3             4             5 
      1  0.953456D+00
      2  0.307889D+00  0.173999D+00
      3 -0.208072D+00 -0.333278D-01  0.235369D+00
      4 -0.666006D+00 -0.226247D+00  0.987394D-01  0.690399D+00
      5 -0.231284D+00 -0.129232D+00  0.404367D-01  0.243927D+00  0.135718D+00
      6  0.815677D-01  0.333694D-01 -0.465912D-01 -0.838629D-01 -0.892592D-02
      7 -0.760444D-01 -0.466332D-01 -0.368303D-01 -0.104027D-01 -0.741471D-02
      8 -0.484808D-01 -0.153303D-01 -0.217754D-01  0.952889D-02 -0.111909D-01
      9 -0.431286D-01 -0.243675D-01 -0.115467D-01  0.377313D-01 -0.503651D-02
     10 -0.206714D+00 -0.310853D-01  0.147054D+00 -0.414764D-02 -0.492415D-02
     11 -0.218132D-01 -0.303761D-01  0.169448D-01 -0.153099D-01  0.140817D-01
     12  0.178662D+00  0.299533D-01 -0.174921D+00 -0.180014D-01 -0.140180D-01
     13 -0.469155D-02 -0.392309D-02 -0.891028D-03 -0.984248D-02 -0.303811D-03
     14 -0.631015D-02  0.940061D-03 -0.227831D-02 -0.118990D-01 -0.937639D-02
     15 -0.902822D-02 -0.562730D-02 -0.231093D-02 -0.346064D-01 -0.124562D-01
                6             7             8             9            10 
      6  0.125175D+00
      7 -0.200273D-01  0.474000D+00
      8 -0.288080D-01  0.145428D+00  0.647235D-01
      9 -0.767668D-01 -0.159595D+00 -0.689567D-02  0.207295D+00
     10  0.174022D-01  0.357479D-02  0.530990D-02  0.292570D-02  0.206848D+00
     11  0.552928D-03  0.635586D-02 -0.276901D-02  0.632914D-02  0.306279D-01
     12 -0.230952D-02  0.649126D-02  0.779661D-02  0.102290D-01 -0.167337D+00
     13  0.492027D-02 -0.391128D+00 -0.111786D+00  0.162066D+00  0.439430D-03
     14  0.381160D-02 -0.977361D-01 -0.354333D-01  0.299705D-01  0.715817D-04
     15  0.492959D-03  0.209961D+00  0.496824D-01 -0.129210D+00 -0.454052D-04
               11            12            13            14            15 
     11  0.187618D-01
     12 -0.238644D-01  0.166576D+00
     13  0.139327D-03  0.185531D-03  0.405222D+00
     14  0.301489D-03  0.132561D-03  0.115874D+00  0.435681D-01
     15  0.375156D-04  0.424730D-03 -0.166281D+00 -0.316364D-01  0.130603D+00
 Final forces over variables, Energy=-1.69079370D+02:
  1.20868157D-06-7.91925759D-07 4.41975593D-07-2.62781648D-07
 -5.95949739D-07 4.85438173D-07-3.40968779D-07 6.22889284D-08
 -1.10840386D-07-9.59179356D-08-4.09560679D-08-5.12651937D-08
 -4.07746855D-07-9.16404325D-09 5.09132138D-07
 Leave Link  716 at Sat Nov 12 22:00:36 2022, MaxMem=   939524096 cpu:         0.1
 (Enter /Local/ce_dana/g09/l103.exe)

 GradGradGradGradGradGradGradGradGradGradGradGradGradGradGradGradGradGrad
 Berny optimization.
 Search for a local minimum.
 Step number   1 out of a maximum of    2
 All quantities printed in internal units (Hartrees-Bohrs-Radians)
 Second derivative matrix not updated -- analytic derivatives used.
 The second derivative matrix:
                          X1        Y1        Z1        X2        Y2
           X1           0.95346
           Y1           0.30789   0.17400
           Z1          -0.20807  -0.03333   0.23537
           X2          -0.66601  -0.22625   0.09874   0.69040
           Y2          -0.23128  -0.12923   0.04044   0.24393   0.13572
           Z2           0.08157   0.03337  -0.04659  -0.08386  -0.00893
           X3          -0.07604  -0.04663  -0.03683  -0.01040  -0.00741
           Y3          -0.04848  -0.01533  -0.02178   0.00953  -0.01119
           Z3          -0.04313  -0.02437  -0.01155   0.03773  -0.00504
           X4          -0.20671  -0.03109   0.14705  -0.00415  -0.00492
           Y4          -0.02181  -0.03038   0.01694  -0.01531   0.01408
           Z4           0.17866   0.02995  -0.17492  -0.01800  -0.01402
           X5          -0.00469  -0.00392  -0.00089  -0.00984  -0.00030
           Y5          -0.00631   0.00094  -0.00228  -0.01190  -0.00938
           Z5          -0.00903  -0.00563  -0.00231  -0.03461  -0.01246
                          Z2        X3        Y3        Z3        X4
           Z2           0.12517
           X3          -0.02003   0.47400
           Y3          -0.02881   0.14543   0.06472
           Z3          -0.07677  -0.15959  -0.00690   0.20729
           X4           0.01740   0.00357   0.00531   0.00293   0.20685
           Y4           0.00055   0.00636  -0.00277   0.00633   0.03063
           Z4          -0.00231   0.00649   0.00780   0.01023  -0.16734
           X5           0.00492  -0.39113  -0.11179   0.16207   0.00044
           Y5           0.00381  -0.09774  -0.03543   0.02997   0.00007
           Z5           0.00049   0.20996   0.04968  -0.12921  -0.00005
                          Y4        Z4        X5        Y5        Z5
           Y4           0.01876
           Z4          -0.02386   0.16658
           X5           0.00014   0.00019   0.40522
           Y5           0.00030   0.00013   0.11587   0.04357
           Z5           0.00004   0.00042  -0.16628  -0.03164   0.13060
 ITU=  0
     Eigenvalues ---    0.00953   0.01514   0.08726   0.09331   0.17691
     Eigenvalues ---    0.22586   0.47464   0.93221   1.77365
 Angle between quadratic step and forces=  62.12 degrees.
 ClnCor:  largest displacement from symmetrization is 3.07D-14 for atom     5.
 Linear search not attempted -- first point.
 ClnCor:  largest displacement from symmetrization is 1.69D-15 for atom     3.
 TrRot=  0.000000  0.000000 -0.000000 -0.000000  0.000000 -0.000000
 Variable       Old X    -DE/DX   Delta X   Delta X   Delta X     New X
                                 (Linear)    (Quad)   (Total)
    X1       -1.81218   0.00000   0.00000   0.00000   0.00000  -1.81217
    Y1       -0.99455   0.00000   0.00000   0.00000   0.00000  -0.99454
    Z1       -0.12536  -0.00000   0.00000   0.00000   0.00000  -0.12535
    X2        0.31653  -0.00000   0.00000  -0.00000  -0.00000   0.31653
    Y2       -0.18625  -0.00000   0.00000  -0.00000  -0.00000  -0.18625
    Z2       -0.35651  -0.00000   0.00000  -0.00000  -0.00000  -0.35651
    X3        1.59284   0.00000   0.00000   0.00000   0.00000   1.59284
    Y3        0.96807   0.00000   0.00000  -0.00000  -0.00000   0.96807
    Z3        1.78777  -0.00000   0.00000  -0.00000  -0.00000   1.78777
    X4       -3.29769  -0.00000   0.00000  -0.00000  -0.00000  -3.29770
    Y4       -1.19884  -0.00000   0.00000  -0.00000  -0.00000  -1.19885
    Z4        1.26237  -0.00000   0.00000  -0.00000  -0.00000   1.26236
    X5        3.20049  -0.00000   0.00000  -0.00000   0.00000   3.20050
    Y5        1.41158  -0.00000   0.00000   0.00000   0.00000   1.41158
    Z5        1.04415   0.00000   0.00000   0.00000   0.00000   1.04415
         Item               Value     Threshold  Converged?
 Maximum Force            0.000001     0.000450     YES
 RMS     Force            0.000000     0.000300     YES
 Maximum Displacement     0.000002     0.001800     YES
 RMS     Displacement     0.000001     0.001200     YES
 Predicted change in Energy=-1.736399D-12
 Optimization completed.
    -- Stationary point found.
 GradGradGradGradGradGradGradGradGradGradGradGradGradGradGradGradGradGrad

 Leave Link  103 at Sat Nov 12 22:00:36 2022, MaxMem=   939524096 cpu:         0.0
 (Enter /Local/ce_dana/g09/l9999.exe)

 Test job not archived.
 1\1\GINC-TECH-WN196\Freq\UB2PLYPD3-FC\def2TZVP\C1H2N1O1(2)\ALONGD\12-N
 ov-2022\0\\#P guess=read ub2plypd3/def2tzvp freq IOp(7/33=1) scf=(tigh
 t, direct) integral=(grid=ultrafine, Acc2E=12) IOp(2/9=2000) scf=xqc\\
 [Hydroxyimino]methyl\\0,2\C,-0.9589619925,-0.5262910183,-0.0663359946\
 N,0.1675030001,-0.0985590002,-0.1886569999\O,0.8428950111,0.512277973,
 0.9460490079\H,-1.7450640571,-0.6344008613,0.6680149593\H,1.6936289224
 ,0.7469741884,0.5525379447\\Version=ES64L-G09RevD.01\State=2-A'\HF=-16
 8.8895731\MP2=-169.0793701\S2=0.776507\S2-1=0.\S2A=0.750402\RMSD=4.720
 e-09\RMSF=4.841e-07\ZeroPoint=0.0297772\Thermal=0.0335868\Dipole=-0.00
 84334,0.0512079,0.186393\DipoleDeriv=-0.0558535,-0.0462598,-0.219191,-
 0.1100344,-0.1703299,-0.086438,-0.4365903,-0.1759123,-0.0868229,0.0431
 627,0.1784189,0.2965405,0.3714296,0.0410103,0.2288258,0.9544893,0.4996
 154,0.1850143,-0.4920579,-0.1278717,-0.1835461,-0.2963613,-0.468825,-0
 .1181643,-0.7579059,-0.3545515,-0.457485,0.1794565,-0.0125397,0.034994
 4,0.0296751,0.2434555,-0.0123587,0.1788993,0.0468677,0.143642,0.325292
 2,0.0082523,0.0712021,0.005291,0.3546891,-0.0118648,0.0611076,-0.01601
 93,0.2156515\Polar=35.5243906,9.2896194,19.8998769,3.1451104,3.0060365
 ,21.029433\PG=CS [SG(C1H2N1O1)]\NImag=0\\0.95345625,0.30788858,0.17399
 859,-0.20807249,-0.03332785,0.23536945,-0.66600596,-0.22624708,0.09873
 938,0.69039882,-0.23128443,-0.12923229,0.04043668,0.24392710,0.1357178
 0,0.08156770,0.03336940,-0.04659120,-0.08386293,-0.00892592,0.12517455
 ,-0.07604438,-0.04663316,-0.03683033,-0.01040274,-0.00741471,-0.020027
 27,0.47400014,-0.04848077,-0.01533030,-0.02177536,0.00952889,-0.011190
 87,-0.02880801,0.14542810,0.06472348,-0.04312860,-0.02436751,-0.011546
 70,0.03773132,-0.00503651,-0.07676680,-0.15959492,-0.00689567,0.207294
 68,-0.20671436,-0.03108525,0.14705447,-0.00414764,-0.00492415,0.017402
 24,0.00357479,0.00530990,0.00292570,0.20684778,-0.02181324,-0.03037606
 ,0.01694483,-0.01530988,0.01408174,0.00055293,0.00635586,-0.00276901,0
 .00632914,0.03062793,0.01876184,0.17866160,0.02995327,-0.17492063,-0.0
 1800139,-0.01401802,-0.00230952,0.00649126,0.00779661,0.01022902,-0.16
 733700,-0.02386442,0.16657639,-0.00469155,-0.00392309,-0.00089103,-0.0
 0984248,-0.00030381,0.00492027,-0.39112781,-0.11178612,0.16206649,0.00
 043943,0.00013933,0.00018553,0.40522242,-0.00631015,0.00094006,-0.0022
 7831,-0.01189903,-0.00937639,0.00381160,-0.09773610,-0.03543330,0.0299
 7055,0.00007158,0.00030149,0.00013256,0.11587370,0.04356814,-0.0090282
 2,-0.00562730,-0.00231093,-0.03460638,-0.01245624,0.00049296,0.2099612
 6,0.04968243,-0.12921021,-0.00004541,0.00003752,0.00042473,-0.16628126
 ,-0.03163640,0.13060345\\-0.00000121,-0.00000049,0.00000004,0.00000079
 ,0.00000034,0.00000005,-0.00000044,-0.00000006,0.00000041,0.00000026,0
 .00000011,0.,0.00000060,0.00000010,-0.00000051\\\@


 TERRY FORSTER, PORTLY ATLANTA BRAVES RELIEVER,
 ANNOUNCING THAT HE WAS GOING TO A FAT FARM:
 "A WAIST IS A TERRIBLE THING TO MIND."
 Job cpu time:       0 days  0 hours 28 minutes 43.4 seconds.
 File lengths (MBytes):  RWF=   1453 Int=      0 D2E=      0 Chk=      3 Scr=      1
 Normal termination of Gaussian 09 at Sat Nov 12 22:00:36 2022.
