 Entering Gaussian System, Link 0=/Local/ce_dana/g09/g09
 Initial command:
 /Local/ce_dana/g09/l1.exe "/storage/ce_dana/alongd/scratch/g09/Gau-146621.inp" -scrdir="/storage/ce_dana/alongd/scratch/g09/"
 Entering Link 1 = /Local/ce_dana/g09/l1.exe PID=    146622.
  
 Copyright (c) 1988,1990,1992,1993,1995,1998,2003,2009,2013,
            Gaussian, Inc.  All Rights Reserved.
  
 This is part of the Gaussian(R) 09 program.  It is based on
 the Gaussian(R) 03 system (copyright 2003, Gaussian, Inc.),
 the Gaussian(R) 98 system (copyright 1998, Gaussian, Inc.),
 the Gaussian(R) 94 system (copyright 1995, Gaussian, Inc.),
 the Gaussian 92(TM) system (copyright 1992, Gaussian, Inc.),
 the Gaussian 90(TM) system (copyright 1990, Gaussian, Inc.),
 the Gaussian 88(TM) system (copyright 1988, Gaussian, Inc.),
 the Gaussian 86(TM) system (copyright 1986, Carnegie Mellon
 University), and the Gaussian 82(TM) system (copyright 1983,
 Carnegie Mellon University). Gaussian is a federally registered
 trademark of Gaussian, Inc.
  
 This software contains proprietary and confidential information,
 including trade secrets, belonging to Gaussian, Inc.
  
 This software is provided under written license and may be
 used, copied, transmitted, or stored only in accord with that
 written license.
  
 The following legend is applicable only to US Government
 contracts under FAR:
  
                    RESTRICTED RIGHTS LEGEND
  
 Use, reproduction and disclosure by the US Government is
 subject to restrictions as set forth in subparagraphs (a)
 and (c) of the Commercial Computer Software - Restricted
 Rights clause in FAR 52.227-19.
  
 Gaussian, Inc.
 340 Quinnipiac St., Bldg. 40, Wallingford CT 06492
  
  
 ---------------------------------------------------------------
 Warning -- This program may not be used in any manner that
 competes with the business of Gaussian, Inc. or will provide
 assistance to any competitor of Gaussian, Inc.  The licensee
 of this program is prohibited from giving any competitor of
 Gaussian, Inc. access to this program.  By using this program,
 the user acknowledges that Gaussian, Inc. is engaged in the
 business of creating and licensing software in the field of
 computational chemistry and represents and warrants to the
 licensee that it is not a competitor of Gaussian, Inc. and that
 it will not use this program in any manner prohibited above.
 ---------------------------------------------------------------
  

 Cite this work as:
 Gaussian 09, Revision D.01,
 M. J. Frisch, G. W. Trucks, H. B. Schlegel, G. E. Scuseria, 
 M. A. Robb, J. R. Cheeseman, G. Scalmani, V. Barone, B. Mennucci, 
 G. A. Petersson, H. Nakatsuji, M. Caricato, X. Li, H. P. Hratchian, 
 A. F. Izmaylov, J. Bloino, G. Zheng, J. L. Sonnenberg, M. Hada, 
 M. Ehara, K. Toyota, R. Fukuda, J. Hasegawa, M. Ishida, T. Nakajima, 
 Y. Honda, O. Kitao, H. Nakai, T. Vreven, J. A. Montgomery, Jr., 
 J. E. Peralta, F. Ogliaro, M. Bearpark, J. J. Heyd, E. Brothers, 
 K. N. Kudin, V. N. Staroverov, T. Keith, R. Kobayashi, J. Normand, 
 K. Raghavachari, A. Rendell, J. C. Burant, S. S. Iyengar, J. Tomasi, 
 M. Cossi, N. Rega, J. M. Millam, M. Klene, J. E. Knox, J. B. Cross, 
 V. Bakken, C. Adamo, J. Jaramillo, R. Gomperts, R. E. Stratmann, 
 O. Yazyev, A. J. Austin, R. Cammi, C. Pomelli, J. W. Ochterski, 
 R. L. Martin, K. Morokuma, V. G. Zakrzewski, G. A. Voth, 
 P. Salvador, J. J. Dannenberg, S. Dapprich, A. D. Daniels, 
 O. Farkas, J. B. Foresman, J. V. Ortiz, J. Cioslowski, 
 and D. J. Fox, Gaussian, Inc., Wallingford CT, 2013.
 
 ******************************************
 Gaussian 09:  ES64L-G09RevD.01 24-Apr-2013
                12-Nov-2022 
 ******************************************
 %chk=check.chk
 %mem=7168mb
 %NProcShared=10
 Will use up to   10 processors via shared memory.
 ----------------------------------------------------------------------
 #P opt=(modredundant, calcfc, noeigentest, maxStep=5) scf=(tight, dire
 ct) integral=(grid=ultrafine, Acc2E=12) guess=read ub2plypd3/def2tzvp 
 IOp(2/9=2000) scf=xqc
 ----------------------------------------------------------------------
 1/8=5,10=4,11=1,18=120,19=15,38=1/1,3;
 2/9=2000,12=2,17=6,18=5,40=1/2;
 3/5=44,7=101,11=2,16=1,25=1,30=1,71=2,74=-60,75=-5,116=2,140=1/1,2,3;
 4/5=1/1;
 5/5=2,8=3,13=1,32=2,38=6,87=12/2,8;
 8/6=3,8=1,10=1,19=11,30=-1,87=12/1;
 9/15=3,16=-3,87=12/6;
 11/6=1,8=1,15=11,17=12,24=-1,27=1,28=-2,29=300,32=6,42=3,87=12/1,2,10;
 10/6=2,21=1,87=12/2;
 8/6=4,8=1,10=1,19=11,30=-1,87=12/11,4;
 10/5=1,20=4,87=12/2;
 11/12=2,14=11,16=1,17=2,28=-2,42=3,87=12/2,10,12;
 6/7=2,8=2,9=2,10=2/1;
 7/10=1,12=2,25=1,44=2,87=12/1,2,3,16;
 1/8=5,10=4,11=1,18=20,19=15/3(2);
 2/9=2000/2;
 99//99;
 2/9=2000/2;
 3/5=44,7=101,11=2,16=1,25=1,30=1,71=1,74=-60,75=-5,116=2/1,2,3;
 4/5=5,16=3,69=1/1;
 5/5=2,8=3,13=1,32=2,38=5,87=12/2,8;
 8/6=4,10=1,87=12/1;
 9/15=2,16=-3,87=12/6;
 10/5=1,87=12/2;
 7/12=2,87=12/1,2,3,16;
 1/8=5,11=1,18=20,19=15/3(-8);
 2/9=2000/2;
 6/7=2,8=2,9=2,10=2/1;
 99//99;
 Leave Link    1 at Sat Nov 12 23:28:04 2022, MaxMem=   939524096 cpu:         0.0
 (Enter /Local/ce_dana/g09/l101.exe)
 --------------------
 [Hydroxyimino]methyl
 --------------------
 Symbolic Z-matrix:
 Charge =  0 Multiplicity = 2
 C                    -0.95896  -0.52629  -0.06634 
 N                     0.1675   -0.09856  -0.18866 
 O                     0.8429    0.51228   0.94605 
 H                    -1.74506  -0.6344    0.66802 
 H                     1.69363   0.74697   0.55254 
 
 The following ModRedundant input section has been read:
 D       1       2       3       5 S  45 8.0000                                
 B       2       3 F                                                           
 B       2       3 F                                                           
 
 NAtoms=      5 NQM=        5 NQMF=       0 NMMI=      0 NMMIF=      0
                NMic=       0 NMicF=      0.
                    Isotopes and Nuclear Properties:
 (Nuclear quadrupole moments (NQMom) in fm**2, nuclear magnetic moments (NMagM)
  in nuclear magnetons)

  Atom         1           2           3           4           5
 IAtWgt=          12          14          16           1           1
 AtmWgt=  12.0000000  14.0030740  15.9949146   1.0078250   1.0078250
 NucSpn=           0           2           0           1           1
 AtZEff=   0.0000000   0.0000000   0.0000000   0.0000000   0.0000000
 NQMom=    0.0000000   2.0440000   0.0000000   0.0000000   0.0000000
 NMagM=    0.0000000   0.4037610   0.0000000   2.7928460   2.7928460
 AtZNuc=   6.0000000   7.0000000   8.0000000   1.0000000   1.0000000
 Leave Link  101 at Sat Nov 12 23:28:04 2022, MaxMem=   939524096 cpu:         0.3
 (Enter /Local/ce_dana/g09/l103.exe)

 GradGradGradGradGradGradGradGradGradGradGradGradGradGradGradGradGradGrad
 Berny optimization.
 Initialization pass.
                           ----------------------------
                           !    Initial Parameters    !
                           ! (Angstroms and Degrees)  !
 --------------------------                            --------------------------
 ! Name  Definition              Value          Derivative Info.                !
 --------------------------------------------------------------------------------
 ! R1    R(1,2)                  1.2111         calculate D2E/DX2 analytically  !
 ! R2    R(1,4)                  1.0812         calculate D2E/DX2 analytically  !
 ! R3    R(2,3)                  1.4549         frozen, calculate D2E/DX2 analyt!
 ! R4    R(3,5)                  0.9663         calculate D2E/DX2 analytically  !
 ! A1    A(2,1,4)              141.2765         calculate D2E/DX2 analytically  !
 ! A2    A(1,2,3)              120.0835         calculate D2E/DX2 analytically  !
 ! A3    A(2,3,5)              101.1316         calculate D2E/DX2 analytically  !
 ! D1    D(4,1,2,3)              0.0            calculate D2E/DX2 analytically  !
 ! D2    D(1,2,3,5)            180.0            Scan                            !
 --------------------------------------------------------------------------------
 Trust Radius=5.00D-02 FncErr=1.00D-07 GrdErr=1.00D-07
 Number of optimizations in scan=  46
 Number of steps in this run=     20 maximum allowed number of steps=    100.
 GradGradGradGradGradGradGradGradGradGradGradGradGradGradGradGradGradGrad

 Leave Link  103 at Sat Nov 12 23:28:04 2022, MaxMem=   939524096 cpu:         0.0
 (Enter /Local/ce_dana/g09/l202.exe)
                          Input orientation:                          
 ---------------------------------------------------------------------
 Center     Atomic      Atomic             Coordinates (Angstroms)
 Number     Number       Type             X           Y           Z
 ---------------------------------------------------------------------
      1          6           0       -0.958962   -0.526291   -0.066336
      2          7           0        0.167503   -0.098559   -0.188657
      3          8           0        0.842895    0.512278    0.946049
      4          1           0       -1.745064   -0.634401    0.668015
      5          1           0        1.693629    0.746974    0.552538
 ---------------------------------------------------------------------
                    Distance matrix (angstroms):
                    1          2          3          4          5
     1  C    0.000000
     2  N    1.211132   0.000000
     3  O    2.313058   1.454934   0.000000
     4  H    1.081164   2.163083   2.844241   0.000000
     5  H    3.006734   1.895615   0.966272   3.707579   0.000000
 Stoichiometry    CH2NO(2)
 Framework group  CS[SG(CH2NO)]
 Deg. of freedom     7
 Full point group                 CS      NOp   2
 Largest Abelian subgroup         CS      NOp   2
 Largest concise Abelian subgroup C1      NOp   1
                         Standard orientation:                         
 ---------------------------------------------------------------------
 Center     Atomic      Atomic             Coordinates (Angstroms)
 Number     Number       Type             X           Y           Z
 ---------------------------------------------------------------------
      1          6           0       -1.196350    0.326030    0.000000
      2          7           0        0.000000    0.514675    0.000000
      3          8           0        0.916494   -0.615312   -0.000000
      4          1           0       -1.924206   -0.473433    0.000000
      5          1           0        1.770352   -0.162976   -0.000000
 ---------------------------------------------------------------------
 Rotational constants (GHZ):     85.9835478     11.7786464     10.3595241
 Leave Link  202 at Sat Nov 12 23:28:04 2022, MaxMem=   939524096 cpu:         0.0
 (Enter /Local/ce_dana/g09/l301.exe)
 Standard basis: def2TZVP (5D, 7F)
 Ernie: Thresh=  0.10000D-02 Tol=  0.10000D-05 Strict=F.
 There are    85 symmetry adapted cartesian basis functions of A'  symmetry.
 There are    35 symmetry adapted cartesian basis functions of A"  symmetry.
 There are    73 symmetry adapted basis functions of A'  symmetry.
 There are    32 symmetry adapted basis functions of A"  symmetry.
   105 basis functions,   169 primitive gaussians,   120 cartesian basis functions
    12 alpha electrons       11 beta electrons
       nuclear repulsion energy        63.3718148616 Hartrees.
 IExCor=  419 DFT=T Ex+Corr=B2PLYPD3 ExCW=0 ScaHFX=  0.530000
 ScaDFX=  0.470000  0.470000  0.730000  0.730000 ScalE2=  0.270000  0.270000
 IRadAn=      5 IRanWt=     -1 IRanGd=            0 ICorTp=0 IEmpDi=141
 NAtoms=    5 NActive=    5 NUniq=    5 SFac= 1.00D+00 NAtFMM=   60 NAOKFM=F Big=F
 Integral buffers will be    131072 words long.
 Raffenetti 2 integral format.
 Two-electron integral symmetry is turned on.
 R6Disp:  Grimme-D3(BJ) Dispersion energy=       -0.0014453759 Hartrees.
 Nuclear repulsion after empirical dispersion term =       63.3703694857 Hartrees.
 Leave Link  301 at Sat Nov 12 23:28:05 2022, MaxMem=   939524096 cpu:         0.1
 (Enter /Local/ce_dana/g09/l302.exe)
 NPDir=0 NMtPBC=     1 NCelOv=     1 NCel=       1 NClECP=     1 NCelD=      1
         NCelK=      1 NCelE2=     1 NClLst=     1 CellRange=     0.0.
 One-electron integrals computed using PRISM.
   1 Symmetry operations used in ECPInt.
 ECPInt:  NShTT=     861 NPrTT=    2700 LenC2=     859 LenP2D=    2382.
 LDataN:  DoStor=T MaxTD1= 6 Len=  172
 NBasis=   105 RedAO= T EigKep=  8.60D-04  NBF=    73    32
 NBsUse=   105 1.00D-06 EigRej= -1.00D+00 NBFU=    73    32
 Precomputing XC quadrature grid using
 IXCGrd= 4 IRadAn=           5 IRanWt=          -1 IRanGd=           0 AccXCQ= 0.00D+00.
 Generated NRdTot=       0 NPtTot=           0 NUsed=           0 NTot=          32
 NSgBfM=   119   119   119   119   119 MxSgAt=     5 MxSgA2=     5.
 Leave Link  302 at Sat Nov 12 23:28:05 2022, MaxMem=   939524096 cpu:         1.3
 (Enter /Local/ce_dana/g09/l303.exe)
 DipDrv:  MaxL=1.
 Leave Link  303 at Sat Nov 12 23:28:05 2022, MaxMem=   939524096 cpu:         0.1
 (Enter /Local/ce_dana/g09/l401.exe)
 Initial guess from the checkpoint file:  "check.chk"
 B after Tr=    -0.000000   -0.000000    0.000000
         Rot=    0.000000    1.000000    0.000000   -0.000000 Ang= 180.00 deg.
 Guess basis will be translated and rotated to current coordinates.
 JPrj=2 DoOrth=T DoCkMO=T.
 Initial guess orbital symmetries:
 Alpha Orbitals:
       Occupied  (A') (A') (A') (A') (A') (A') (A') (A') (A") (A')
                 (A") (A')
       Virtual   (A") (A') (A') (A') (A') (A') (A") (A') (A') (A')
                 (A") (A') (A') (A") (A') (A') (A') (A') (A") (A')
                 (A") (A') (A') (A') (A") (A') (A") (A') (A') (A")
                 (A') (A') (A") (A') (A') (A") (A') (A') (A") (A')
                 (A") (A') (A') (A") (A') (A') (A') (A') (A") (A')
                 (A") (A') (A') (A") (A") (A') (A') (A") (A') (A")
                 (A') (A') (A') (A') (A') (A") (A') (A') (A") (A')
                 (A") (A') (A") (A') (A") (A') (A") (A") (A') (A')
                 (A') (A") (A') (A') (A") (A') (A") (A') (A') (A')
                 (A') (A') (A')
 Beta  Orbitals:
       Occupied  (A') (A') (A') (A') (A') (A') (A') (A') (A") (A')
                 (A")
       Virtual   (A') (A") (A') (A') (A') (A') (A") (A') (A') (A')
                 (A") (A') (A') (A') (A") (A') (A') (A') (A') (A")
                 (A') (A") (A') (A') (A') (A") (A') (A") (A') (A')
                 (A") (A') (A') (A") (A') (A') (A") (A') (A') (A")
                 (A') (A") (A') (A") (A') (A') (A') (A') (A') (A")
                 (A') (A") (A') (A') (A") (A') (A") (A') (A") (A')
                 (A") (A') (A') (A') (A') (A') (A") (A') (A') (A")
                 (A') (A") (A') (A") (A') (A") (A') (A") (A") (A')
                 (A') (A') (A") (A') (A') (A") (A') (A") (A') (A')
                 (A') (A') (A') (A')
 The electronic state of the initial guess is 2-A'.
 Initial guess <Sx>= 0.0000 <Sy>= 0.0000 <Sz>= 0.5000 <S**2>= 0.7765 S= 0.5132
 Leave Link  401 at Sat Nov 12 23:28:05 2022, MaxMem=   939524096 cpu:         0.5
 (Enter /Local/ce_dana/g09/l502.exe)
 UHF open shell SCF:
 Using DIIS extrapolation, IDIIS=  1040.
 Integral symmetry usage will be decided dynamically.
 Keep R1 and R2 ints in memory in symmetry-blocked form, NReq=23897216.
 IVT=       51263 IEndB=       51263 NGot=   939524096 MDV=   923571437
 LenX=   923571437 LenY=   923556596
 Requested convergence on RMS density matrix=1.00D-08 within  64 cycles.
 Requested convergence on MAX density matrix=1.00D-06.
 Requested convergence on             energy=1.00D-06.
 No special actions if energy rises.
 FoFCou: FMM=F IPFlag=           0 FMFlag=           0 FMFlg1=           0
         NFxFlg=           0 DoJE=F BraDBF=F KetDBF=F FulRan=T
         wScrn=  0.000000 ICntrl=     600 IOpCl=  0 I1Cent=           0 NGrid=           0
         NMat0=    1 NMatS0=   5565 NMatT0=    0 NMatD0=    1 NMtDS0=    0 NMtDT0=    0
 Petite list used in FoFCou.

 Cycle   1  Pass 1  IDiag  1:
 E= -168.889573141727    
 DIIS: error= 5.37D-08 at cycle   1 NSaved=   1.
 NSaved= 1 IEnMin= 1 EnMin= -168.889573141727     IErMin= 1 ErrMin= 5.37D-08
 ErrMax= 5.37D-08  0.00D+00 EMaxC= 1.00D-01 BMatC= 1.51D-12 BMatP= 1.51D-12
 IDIUse=1 WtCom= 1.00D+00 WtEn= 0.00D+00
 Coeff-Com:  0.100D+01
 Coeff:      0.100D+01
 Gap=     0.353 Goal=   None    Shift=    0.000
 Gap=     0.317 Goal=   None    Shift=    0.000
 RMSDP=4.72D-09 MaxDP=7.60D-08              OVMax= 2.37D-07

 SCF Done:  E(UB2PLYPD3) =  -168.889573142     A.U. after    1 cycles
            NFock=  1  Conv=0.47D-08     -V/T= 2.0030
 <Sx>= 0.0000 <Sy>= 0.0000 <Sz>= 0.5000 <S**2>= 0.7765 S= 0.5132
 <L.S>=  0.00000000000    
 KE= 1.683883453223D+02 PE=-5.237557840489D+02 EE= 1.231074960991D+02
 Annihilation of the first spin contaminant:
 S**2 before annihilation     0.7765,   after     0.7504
 Leave Link  502 at Sat Nov 12 23:28:06 2022, MaxMem=   939524096 cpu:         6.5
 (Enter /Local/ce_dana/g09/l508.exe)
 QCSCF skips out because SCF is already converged.
 Leave Link  508 at Sat Nov 12 23:28:06 2022, MaxMem=   939524096 cpu:         0.0
 (Enter /Local/ce_dana/g09/l801.exe)
 DoSCS=T DFT=T ScalE2(SS,OS)=  0.270000  0.270000
 ExpMin= 9.52D-02 ExpMax= 2.70D+04 ExpMxC= 9.22D+02 IAcc=3 IRadAn=         5 AccDes= 0.00D+00
 HarFok:  IExCor=  205 AccDes= 0.00D+00 IRadAn=         5 IDoV=-2 UseB2=F ITyADJ=14
 ICtDFT= 12500011 ScaDFX=  1.000000  1.000000  1.000000  1.000000
 Largest valence mixing into a core orbital is  9.91D-05
 Largest core mixing into a valence orbital is  1.57D-05
 Largest valence mixing into a core orbital is  9.86D-05
 Largest core mixing into a valence orbital is  1.60D-05
 Range of M.O.s used for correlation:     4   105
 NBasis=   105 NAE=    12 NBE=    11 NFC=     3 NFV=     0
 NROrb=    102 NOA=     9 NOB=     8 NVA=    93 NVB=    94

 **** Warning!!: The largest alpha MO coefficient is  0.11028653D+02


 **** Warning!!: The largest beta MO coefficient is  0.10474901D+02

 Leave Link  801 at Sat Nov 12 23:28:06 2022, MaxMem=   939524096 cpu:         0.4
 (Enter /Local/ce_dana/g09/l906.exe)
 DoSCS=T DFT=T ScalE2(SS,OS)=  0.270000  0.270000
 Frozen-core derivative calculation, NFC=   3 NFV=   0.
 FulOut=F Deriv=T AODrv=T NAtomX=     5
   MMem=           0  MDisk=           9 MDiskD=           9
  W3Min=      302400 MinDsk=      562700 NBas6D=         120
 NBas2D=        7518    NTT=        7260    LW2=     7400000
    MDV=   939320607 MDiskM=       39055 NBas2p=        7515
 Disk-based method using ON**2 memory for  9 occupieds at a time.
 Permanent disk used for amplitudes=     1676697 words.
 Estimated scratch disk usage=    29138301 words.
 IMap=   1   2   3   4   5   6   7   8   9  10  11  12
 Actual    scratch disk usage=    28377469 words.
 JobTyp=2 Pass  1:  I=   4 to  12 NPSUse= 10 ParTrn=T ParDer=T DoDerP=T.
 (rs|ai) integrals will be sorted in core.
 IMap=   1   2   3   4   5   6   7   8   9  10  11
 Actual    scratch disk usage=    28377469 words.
 JobTyp=3 Pass  1:  I=   4 to  11 NPSUse= 10 ParTrn=T ParDer=T DoDerP=T.
 (rs|ai) integrals will be sorted in core.
 Spin components of T(2) and E(2):
     alpha-alpha T2 =       0.3737904343D-01 E2=     -0.2598538211D-01
     alpha-beta  T2 =       0.2008554247D+00 E2=     -0.1408461926D+00
     beta-beta   T2 =       0.3482890942D-01 E2=     -0.2296535460D-01
 The integrals were generated   2 times.
 E2(B2PLYPD3) =    -0.1897969293D+00 E(B2PLYPD3) =    -0.16907937007099D+03
 Leave Link  906 at Sat Nov 12 23:29:13 2022, MaxMem=   939524096 cpu:       670.7
 (Enter /Local/ce_dana/g09/l1101.exe)
 Using compressed Sx but separate Hx and Fx, NAtomX=     5.
 Will process      6 centers per pass.
   2 Symmetry operations used in ECPInt.
 ECPInt:  NShTT=     861 NPrTT=    2700 LenC2=     859 LenP2D=    2382.
 LDataN:  DoStor=T MaxTD1= 7 Len=  274
 R6Disp: Adding Grimme-D3(BJ) dispersion energy 1st derivatives to the gradient.
 Leave Link 1101 at Sat Nov 12 23:29:14 2022, MaxMem=   939524096 cpu:         4.0
 (Enter /Local/ce_dana/g09/l1102.exe)
 Leave Link 1102 at Sat Nov 12 23:29:14 2022, MaxMem=   939524096 cpu:         0.0
 (Enter /Local/ce_dana/g09/l1110.exe)
 Forming Gx(P) for the SCF density, NAtomX=     5.
 Integral derivatives from FoFJK, PRISM(SPDF).
 Do as many integral derivatives as possible in FoFJK.
 G2DrvN: MDV=     939523952.
 G2DrvN: will do     6 centers at a time, making    1 passes.
 Calling FoFCou, ICntrl=  3107 FMM=F I1Cent=   0 AccDes= 1.00D-12.
 FoFJK:  IHMeth= 1 ICntrl=    3107 DoSepK=F KAlg= 0 I1Cent=   0 FoldK=F
 IRaf=         0 NMat=   1 IRICut=       1 DoRegI=T DoRafI=F ISym2E= 1.
 FoFCou: FMM=F IPFlag=           0 FMFlag=      100000 FMFlg1=           0
         NFxFlg=           0 DoJE=F BraDBF=F KetDBF=F FulRan=T
         wScrn=  0.000000 ICntrl=    3107 IOpCl=  1 I1Cent=           0 NGrid=           0
         NMat0=    1 NMatS0=      1 NMatT0=    0 NMatD0=    1 NMtDS0=    0 NMtDT0=    0
 Petite list used in FoFCou.
 End of G2Drv F.D. properties file   721 does not exist.
 End of G2Drv F.D. properties file   722 does not exist.
 End of G2Drv F.D. properties file   788 does not exist.
 Leave Link 1110 at Sat Nov 12 23:29:20 2022, MaxMem=   939524096 cpu:        56.3
 (Enter /Local/ce_dana/g09/l1002.exe)
 Minotr:  UHF open shell wavefunction.
          IDoAtm=11111
          Frozen-core window.
          Direct CPHF calculation.
          Differentiating once with respect to electric field.
                with respect to dipole field.
          Differentiating once with respect to nuclear coordinates.
          Requested convergence is 1.0D-08 RMS, and 1.0D-07 maximum.
          Secondary convergence is 1.0D-12 RMS, and 1.0D-12 maximum.
          NewPWx=T KeepS1=T KeepF1=T KeepIn=T MapXYZ=F SortEE=F KeepMc=T.
          MDV=     939523838 using IRadAn=       1.
 Generate precomputed XC quadrature information.
 Keep R1 and R2 ints in memory in symmetry-blocked form, NReq=23848830.
 FoFCou: FMM=F IPFlag=           0 FMFlag=           0 FMFlg1=           0
         NFxFlg=           0 DoJE=F BraDBF=F KetDBF=F FulRan=T
         wScrn=  0.000000 ICntrl=     600 IOpCl=  0 I1Cent=           0 NGrid=           0
         NMat0=    1 NMatS0=   5565 NMatT0=    0 NMatD0=    1 NMtDS0=    0 NMtDT0=    0
 Petite list used in FoFCou.
          Solving linear equations simultaneously, MaxMat=       0.
          There are    18 degrees of freedom in the 1st order CPHF.  IDoFFX=6 NUNeed=    18.
     15 vectors produced by pass  0 Test12= 1.19D-14 5.56D-09 XBig12= 4.36D+01 2.85D+00.
 AX will form    15 AO Fock derivatives at one time.
     15 vectors produced by pass  1 Test12= 1.19D-14 5.56D-09 XBig12= 8.09D+00 6.72D-01.
     15 vectors produced by pass  2 Test12= 1.19D-14 5.56D-09 XBig12= 5.29D-01 1.67D-01.
     15 vectors produced by pass  3 Test12= 1.19D-14 5.56D-09 XBig12= 1.32D-02 2.56D-02.
     15 vectors produced by pass  4 Test12= 1.19D-14 5.56D-09 XBig12= 2.52D-04 3.50D-03.
     15 vectors produced by pass  5 Test12= 1.19D-14 5.56D-09 XBig12= 2.94D-06 3.01D-04.
     15 vectors produced by pass  6 Test12= 1.19D-14 5.56D-09 XBig12= 3.23D-08 3.48D-05.
     11 vectors produced by pass  7 Test12= 1.19D-14 5.56D-09 XBig12= 2.35D-10 2.27D-06.
      4 vectors produced by pass  8 Test12= 1.19D-14 5.56D-09 XBig12= 1.75D-12 2.72D-07.
      3 vectors produced by pass  9 Test12= 1.19D-14 5.56D-09 XBig12= 1.14D-14 2.16D-08.
 InvSVY:  IOpt=1 It=  1 EMax= 1.44D-15
 Solved reduced A of dimension   123 with    15 vectors.
 FullF1:  Do perturbations    1 to    18.
 Saving first derivative matrices.
 End of Minotr F.D. properties file   721 does not exist.
 End of Minotr F.D. properties file   722 does not exist.
 End of Minotr F.D. properties file   788 does not exist.
 Leave Link 1002 at Sat Nov 12 23:29:36 2022, MaxMem=   939524096 cpu:       160.9
 (Enter /Local/ce_dana/g09/l811.exe)
 MDV=   939524096.
 DoSCS=T DFT=T ScalE2(SS,OS)=  0.270000  0.270000
 Form MO integral derivatives with frozen-active canonical formalism.
 MOERI=1 MOERIx=1 NAtoms=     5 NAtomX=     5.
 Discarding MO integrals.
 MO basis two electron integral derivatives will not be stored on disk.
 IAlg= 3 DoFC=T DoPWx=T Debug=F.
 Frozen-core window:  NFC=   3 NFV=   0.
 Reordered first order wavefunction length =      6817513
 In DefCFB: NBatch=  1 ICI= 12 ICA= 94 LFMax= 47
            Large arrays: LIAPS=   108360000 LIARS=    68221440 words.
 In StABat: MaxSiz= 36 MinSiz= 12 NAtomB=  4
 DoIAMN: NPSUse= 10.
 In DefCFB: NBatch=  1 ICI= 12 ICA= 94 LFMax= 47
            Large arrays: LIAPS=   108360000 LIARS=    68221440 words.
 In StABat: MaxSiz= 36 MinSiz= 12 NAtomB=  4
 Leave Link  811 at Sat Nov 12 23:30:30 2022, MaxMem=   939524096 cpu:       168.8
 (Enter /Local/ce_dana/g09/l804.exe)
 Frozen-core window:  NFC=   3 NFV=   0.
 Open-shell transformation, MDV=   939524096 ITran=4 ISComp=1.
 Semi-Direct transformation.
 ModeAB=           2 MOrb=            12 LenV=     938876928
 LASXX=      6377919 LTotXX=     6377919 LenRXX=     6377919
 LTotAB=     6644610 MaxLAS=     9147600 LenRXY=     9147600
 NonZer=    12755838 LenScr=    19888128 LnRSAI=           0
 LnScr1=           0 LExtra=           0 Total=     35413647
 MaxDsk=          -1 SrtSym=           F ITran=            4
 DoSDTr:  NPSUse= 10
 JobTyp=1 Pass  1:  I=   1 to  12.
 (rs|ai) integrals will be sorted in core.
 Complete sort for first half transformation.
 First half transformation complete.
 Begin second half transformation for I=  10.
 Begin second half transformation for I=  10.
 Complete sort for second half transformation.
 Second half transformation complete.
 ModeAB=           2 MOrb=            11 LenV=     938876928
 LASXX=      5887585 LTotXX=     5887585 LenRXX=     8385300
 LTotAB=     4808100 MaxLAS=     8385300 LenRXY=     4808100
 NonZer=    11775170 LenScr=    18419712 LnRSAI=           0
 LnScr1=           0 LExtra=           0 Total=     31613112
 MaxDsk=          -1 SrtSym=           F ITran=            4
 DoSDTr:  NPSUse= 10
 JobTyp=2 Pass  1:  I=   1 to  11.
 (rs|ai) integrals will be sorted in core.
 Complete sort for first half transformation.
 First half transformation complete.
 Begin second half transformation for I=  10.
 Begin second half transformation for I=  10.
 Complete sort for second half transformation.
 Second half transformation complete.
 DoSCS=T DFT=T ScalE2(SS,OS)=  0.270000  0.270000
 Spin components of T(2) and E(2):
     alpha-alpha T2 =       0.3737904343D-01 E2=     -0.2598538211D-01
     alpha-beta  T2 =       0.2008554247D+00 E2=     -0.1408461926D+00
     beta-beta   T2 =       0.3482890942D-01 E2=     -0.2296535460D-01
 E2(B2PLYPD3) =    -0.1897969293D+00 E(B2PLYPD3) =    -0.16907937007099D+03
 Leave Link  804 at Sat Nov 12 23:30:41 2022, MaxMem=   939524096 cpu:        93.5
 (Enter /Local/ce_dana/g09/l1002.exe)
 Minotr:  UHF open shell wavefunction.
          Computing MP2/KS-MP2 derivatives.
          Using Z-Vector for PSCF gradient.
          Skipping F1 and S1 gradient terms here.
          IDoAtm=11111
          Frozen-core window.
          Direct CPHF calculation.
          Differentiating once with respect to electric field.
                with respect to dipole field.
          Differentiating once with respect to nuclear coordinates.
          Using symmetry in CPHF.
          Requested convergence is 1.0D-10 RMS, and 1.0D-09 maximum.
          NewPWx=T KeepS1=F KeepF1=F KeepIn=T MapXYZ=F SortEE=F KeepMc=T.
          MDV=     939523838 using IRadAn=       5.
 Using stored XC quadrature information.
 Keep R1 and R2 ints in memory in symmetry-blocked form, NReq=23847346.
 FoFCou: FMM=F IPFlag=           0 FMFlag=           0 FMFlg1=           0
         NFxFlg=           0 DoJE=F BraDBF=F KetDBF=F FulRan=T
         wScrn=  0.000000 ICntrl=     600 IOpCl=  0 I1Cent=           0 NGrid=           0
         NMat0=    1 NMatS0=   5565 NMatT0=    0 NMatD0=    1 NMtDS0=    0 NMtDT0=    0
 Petite list used in FoFCou.
          Solving linear equations separately, MaxMat=       0.
          There are     1 degrees of freedom in the 1st order CPHF.  IDoFFX=0 NUNeed=     1.
 LinEq1:  Iter=  0 NonCon=     1 RMS=2.10D-03 Max=5.10D-02 NDo=     1
 AX will form     1 AO Fock derivatives at one time.
 LinEq1:  Iter=  1 NonCon=     1 RMS=7.66D-04 Max=1.82D-02 NDo=     1
 LinEq1:  Iter=  2 NonCon=     1 RMS=5.18D-04 Max=9.37D-03 NDo=     1
 LinEq1:  Iter=  3 NonCon=     1 RMS=3.15D-04 Max=6.54D-03 NDo=     1
 LinEq1:  Iter=  4 NonCon=     1 RMS=1.81D-04 Max=3.54D-03 NDo=     1
 LinEq1:  Iter=  5 NonCon=     1 RMS=8.95D-05 Max=1.46D-03 NDo=     1
 LinEq1:  Iter=  6 NonCon=     1 RMS=6.19D-05 Max=1.01D-03 NDo=     1
 LinEq1:  Iter=  7 NonCon=     1 RMS=1.84D-05 Max=2.19D-04 NDo=     1
 LinEq1:  Iter=  8 NonCon=     1 RMS=3.67D-06 Max=3.72D-05 NDo=     1
 LinEq1:  Iter=  9 NonCon=     1 RMS=9.10D-07 Max=1.28D-05 NDo=     1
 LinEq1:  Iter= 10 NonCon=     1 RMS=2.09D-07 Max=2.64D-06 NDo=     1
 LinEq1:  Iter= 11 NonCon=     1 RMS=4.72D-08 Max=6.69D-07 NDo=     1
 LinEq1:  Iter= 12 NonCon=     1 RMS=1.35D-08 Max=1.26D-07 NDo=     1
 LinEq1:  Iter= 13 NonCon=     1 RMS=4.65D-09 Max=5.24D-08 NDo=     1
 LinEq1:  Iter= 14 NonCon=     1 RMS=1.15D-09 Max=1.18D-08 NDo=     1
 LinEq1:  Iter= 15 NonCon=     1 RMS=2.72D-10 Max=2.27D-09 NDo=     1
 LinEq1:  Iter= 16 NonCon=     0 RMS=5.09D-11 Max=5.94D-10 NDo=     1
 Linear equations converged to 1.000D-10 1.000D-09 after    16 iterations.
 End of Minotr F.D. properties file   721 does not exist.
 End of Minotr F.D. properties file   722 does not exist.
 End of Minotr F.D. properties file   788 does not exist.
 Leave Link 1002 at Sat Nov 12 23:30:48 2022, MaxMem=   939524096 cpu:        74.0
 (Enter /Local/ce_dana/g09/l1102.exe)
 Use density number 2.
 Symmetrizing basis deriv contribution to polar:
 IMax=3 JMax=2 DiffMx= 0.00D+00
 Leave Link 1102 at Sat Nov 12 23:30:49 2022, MaxMem=   939524096 cpu:         0.1
 (Enter /Local/ce_dana/g09/l1110.exe)
 Forming Gx(P) for generalized density number  2 NAtomX=     5.
 Integral derivatives from FoFJK, PRISM(SPDF).
 Do as many integral derivatives as possible in FoFJK.
 G2DrvN: MDV=     939523952.
 G2DrvN: will do     6 centers at a time, making    1 passes.
 Calling FoFCou, ICntrl=  3107 FMM=F I1Cent=   0 AccDes= 1.00D-12.
 FoFJK:  IHMeth= 1 ICntrl=    3107 DoSepK=F KAlg= 0 I1Cent=   0 FoldK=F
 IRaf=         0 NMat=   1 IRICut=       1 DoRegI=T DoRafI=F ISym2E= 1.
 FoFCou: FMM=F IPFlag=           0 FMFlag=      100000 FMFlg1=           0
         NFxFlg=           0 DoJE=F BraDBF=F KetDBF=F FulRan=T
         wScrn=  0.000000 ICntrl=    3107 IOpCl=  1 I1Cent=           0 NGrid=           0
         NMat0=    1 NMatS0=      1 NMatT0=    0 NMatD0=    1 NMtDS0=    0 NMtDT0=    0
 Petite list used in FoFCou.
 End of G2Drv F.D. properties file   721 does not exist.
 End of G2Drv F.D. properties file   722 does not exist.
 End of G2Drv F.D. properties file   788 does not exist.
 Leave Link 1110 at Sat Nov 12 23:30:54 2022, MaxMem=   939524096 cpu:        58.8
 (Enter /Local/ce_dana/g09/l1112.exe)
 MP22nd: MDV=     939524096
 DoSCS=T DFT=T ScalE2(SS,OS)=  0.270000  0.270000
 Using stored XC quadrature information.
 This link is doing NAtomX=     5 total of    18 degrees of freedom.
 Using ON3 I/O method in MakUI.
 Frozen-core window:  NFC=   3 NFV=   0.
 Using Ix for Sx.
 Use MO integrals over full window.
 Using OV2 memory method for fx*t*t/D, MaxI=    11 DoOO2=F NP=  10.
 R2 and R3 integrals will be kept in memory, NReq=    54654860.
 FoFCou: FMM=F IPFlag=           0 FMFlag=           0 FMFlg1=           0
         NFxFlg=           0 DoJE=F BraDBF=F KetDBF=F FulRan=T
         wScrn=  0.000000 ICntrl=     600 IOpCl=  0 I1Cent=           0 NGrid=           0
         NMat0=    1 NMatS0=      1 NMatT0=    0 NMatD0=    1 NMtDS0=    0 NMtDT0=    0
 Symmetry not used in FoFCou.
 DD1Dir will call FoFMem   1 times, MxPair=       386
 NAB=   132 NAA=    66 NBB=    55.
 Symmetry is being used.
 FoFJK:  IHMeth= 1 ICntrl=       0 DoSepK=F KAlg= 0 I1Cent=   0 FoldK=F
 IRaf=         0 NMat=  18 IRICut=      45 DoRegI=T DoRafI=T ISym2E= 2.
 R6Disp: Adding Grimme-D3(BJ) dispersion energy 1st derivatives to the gradient.
 Discarding MO integrals.
 Leave Link 1112 at Sat Nov 12 23:31:37 2022, MaxMem=   939524096 cpu:       333.4
 (Enter /Local/ce_dana/g09/l601.exe)
 Copying SCF densities to generalized density rwf, IOpCl= 1 IROHF=0.

 **********************************************************************

            Population analysis using the SCF density.

 **********************************************************************

 Orbital symmetries:
 Alpha Orbitals:
       Occupied  (A') (A') (A') (A') (A') (A') (A') (A') (A") (A')
                 (A") (A')
       Virtual   (A") (A') (A') (A') (A') (A') (A") (A') (A') (A')
                 (A") (A') (A') (A") (A') (A') (A') (A') (A") (A')
                 (A") (A') (A') (A') (A") (A') (A") (A') (A') (A")
                 (A') (A') (A") (A') (A') (A") (A') (A') (A") (A')
                 (A") (A') (A') (A") (A') (A') (A') (A') (A") (A')
                 (A") (A') (A') (A") (A") (A') (A') (A") (A') (A")
                 (A') (A') (A') (A') (A') (A") (A') (A') (A") (A')
                 (A") (A') (A") (A') (A") (A') (A") (A") (A') (A')
                 (A') (A") (A') (A') (A") (A') (A") (A') (A') (A')
                 (A') (A') (A')
 Beta  Orbitals:
       Occupied  (A') (A') (A') (A') (A') (A') (A') (A') (A") (A')
                 (A")
       Virtual   (A') (A") (A') (A') (A') (A') (A") (A') (A') (A')
                 (A") (A') (A') (A') (A") (A') (A') (A') (A') (A")
                 (A') (A") (A') (A') (A') (A") (A') (A") (A') (A')
                 (A") (A') (A') (A") (A') (A') (A") (A') (A') (A")
                 (A') (A") (A') (A") (A') (A') (A') (A') (A') (A")
                 (A') (A") (A') (A') (A") (A') (A") (A') (A") (A')
                 (A") (A') (A') (A') (A') (A') (A") (A') (A') (A")
                 (A') (A") (A') (A") (A') (A") (A') (A") (A") (A')
                 (A') (A') (A") (A') (A') (A") (A') (A") (A') (A')
                 (A') (A') (A') (A')
 The electronic state is 2-A'.
 Alpha  occ. eigenvalues --  -19.78421 -14.91224 -10.68059  -1.22571  -1.02416
 Alpha  occ. eigenvalues --   -0.69682  -0.62657  -0.56590  -0.49406  -0.43055
 Alpha  occ. eigenvalues --   -0.36283  -0.30446
 Alpha virt. eigenvalues --    0.04890   0.07748   0.11164   0.16567   0.18143
 Alpha virt. eigenvalues --    0.26894   0.27493   0.32484   0.39389   0.46597
 Alpha virt. eigenvalues --    0.47293   0.48762   0.50668   0.53063   0.53877
 Alpha virt. eigenvalues --    0.58816   0.64970   0.68142   0.71217   0.77943
 Alpha virt. eigenvalues --    0.86158   0.89753   1.08298   1.19194   1.19761
 Alpha virt. eigenvalues --    1.31293   1.33271   1.40338   1.47457   1.50687
 Alpha virt. eigenvalues --    1.54285   1.56513   1.59170   1.71803   1.81837
 Alpha virt. eigenvalues --    1.87719   1.90505   2.10274   2.10962   2.16956
 Alpha virt. eigenvalues --    2.18658   2.25561   2.33100   2.34610   2.40022
 Alpha virt. eigenvalues --    2.42695   2.57915   2.68476   2.73920   2.78074
 Alpha virt. eigenvalues --    2.80523   2.82295   2.98549   3.01828   3.02875
 Alpha virt. eigenvalues --    3.04457   3.13863   3.24965   3.26187   3.48227
 Alpha virt. eigenvalues --    3.52674   3.63287   3.85838   4.00095   4.04593
 Alpha virt. eigenvalues --    4.08412   4.23330   4.49455   4.50942   4.67973
 Alpha virt. eigenvalues --    4.77091   4.94471   5.00809   5.17072   5.32881
 Alpha virt. eigenvalues --    5.36782   5.50936   5.55943   5.57585   5.61414
 Alpha virt. eigenvalues --    5.73151   5.92163   6.05220   6.37008   6.54802
 Alpha virt. eigenvalues --    6.70272   6.79169   6.90428   7.22533   7.58178
 Alpha virt. eigenvalues --   22.58924  32.45608  44.16105
  Beta  occ. eigenvalues --  -19.77600 -14.91269 -10.66223  -1.20757  -1.01033
  Beta  occ. eigenvalues --   -0.65764  -0.60922  -0.54631  -0.49305  -0.38528
  Beta  occ. eigenvalues --   -0.35339
  Beta virt. eigenvalues --   -0.03654   0.06138   0.08455   0.12130   0.17226
  Beta virt. eigenvalues --    0.19670   0.28757   0.30642   0.33371   0.40790
  Beta virt. eigenvalues --    0.47188   0.47264   0.49884   0.51497   0.53393
  Beta virt. eigenvalues --    0.53970   0.59511   0.65851   0.71242   0.73901
  Beta virt. eigenvalues --    0.78774   0.87033   0.91575   1.10194   1.20164
  Beta virt. eigenvalues --    1.20211   1.32982   1.33263   1.43419   1.47859
  Beta virt. eigenvalues --    1.52401   1.57254   1.58822   1.59475   1.72097
  Beta virt. eigenvalues --    1.82631   1.88671   1.90971   2.11258   2.11749
  Beta virt. eigenvalues --    2.18231   2.18697   2.26343   2.34264   2.34428
  Beta virt. eigenvalues --    2.40726   2.43960   2.58104   2.70084   2.75837
  Beta virt. eigenvalues --    2.81351   2.82618   2.83154   2.99502   3.03366
  Beta virt. eigenvalues --    3.07388   3.08166   3.18115   3.27377   3.30125
  Beta virt. eigenvalues --    3.49185   3.53974   3.64370   3.86945   4.00608
  Beta virt. eigenvalues --    4.05606   4.07902   4.24914   4.50117   4.51433
  Beta virt. eigenvalues --    4.68434   4.76536   4.94575   5.00710   5.18292
  Beta virt. eigenvalues --    5.33696   5.37032   5.51470   5.56176   5.58027
  Beta virt. eigenvalues --    5.62514   5.73893   5.93763   6.06021   6.38295
  Beta virt. eigenvalues --    6.55166   6.71732   6.80743   6.92091   7.23244
  Beta virt. eigenvalues --    7.59809  22.60666  32.45714  44.16733
          Condensed to atoms (all electrons):
               1          2          3          4          5
     1  C    5.090779   0.695815  -0.063537   0.348914   0.000740
     2  N    0.695815   6.361534   0.065639  -0.024548  -0.025791
     3  O   -0.063537   0.065639   8.069695  -0.006363   0.293752
     4  H    0.348914  -0.024548  -0.006363   0.513080   0.000243
     5  H    0.000740  -0.025791   0.293752   0.000243   0.395182
          Atomic-Atomic Spin Densities.
               1          2          3          4          5
     1  C    1.013608  -0.075595  -0.015816  -0.052171   0.001595
     2  N   -0.075595   0.015763  -0.068411   0.006365   0.008112
     3  O   -0.015816  -0.068411   0.299454  -0.009995  -0.003172
     4  H   -0.052171   0.006365  -0.009995   0.095223   0.000813
     5  H    0.001595   0.008112  -0.003172   0.000813  -0.007499
 Mulliken charges and spin densities:
               1          2
     1  C   -0.072712   0.871621
     2  N   -0.072649  -0.113766
     3  O   -0.359186   0.202061
     4  H    0.168673   0.040235
     5  H    0.335873  -0.000150
 Sum of Mulliken charges =  -0.00000   1.00000
 Mulliken charges and spin densities with hydrogens summed into heavy atoms:
               1          2
     1  C    0.095962   0.911856
     2  N   -0.072649  -0.113766
     3  O   -0.023313   0.201911
 APT charges:
               1
     1  C   -0.104335
     2  N    0.089729
     3  O   -0.472789
     4  H    0.188851
     5  H    0.298544
 Sum of APT charges =  -0.00000
 APT charges with hydrogens summed into heavy atoms:
               1
     1  C    0.084516
     2  N    0.089729
     3  O   -0.174245
 Electronic spatial extent (au):  <R**2>=            136.2034
 Charge=             -0.0000 electrons
 Dipole moment (field-independent basis, Debye):
    X=             -0.1483    Y=             -0.4565    Z=              0.0000  Tot=              0.4799
 Quadrupole moment (field-independent basis, Debye-Ang):
   XX=            -10.8610   YY=            -19.9998   ZZ=            -18.2536
   XY=              2.0574   XZ=              0.0000   YZ=             -0.0000
 Traceless Quadrupole moment (field-independent basis, Debye-Ang):
   XX=              5.5104   YY=             -3.6283   ZZ=             -1.8821
   XY=              2.0574   XZ=              0.0000   YZ=             -0.0000
 Octapole moment (field-independent basis, Debye-Ang**2):
  XXX=             10.6053  YYY=             -4.0127  ZZZ=              0.0000  XYY=              0.8261
  XXY=             -3.5804  XXZ=             -0.0000  XZZ=              1.7527  YZZ=             -0.9746
  YYZ=             -0.0000  XYZ=             -0.0000
 Hexadecapole moment (field-independent basis, Debye-Ang**3):
 XXXX=            -85.0897 YYYY=            -47.2379 ZZZZ=            -17.3770 XXXY=             20.1389
 XXXZ=              0.0000 YYYX=             16.1310 YYYZ=             -0.0000 ZZZX=              0.0000
 ZZZY=             -0.0000 XXYY=            -27.1103 XXZZ=            -22.6261 YYZZ=            -10.8996
 XXYZ=             -0.0000 YYXZ=              0.0000 ZZXY=              5.5141
 N-N= 6.337036948568D+01 E-N=-5.237557814780D+02  KE= 1.683883453223D+02
 Symmetry A'   KE= 1.608227617865D+02
 Symmetry A"   KE= 7.565583535838D+00
  Exact polarizability:  40.184  -3.233  21.075  -0.000   0.000  15.195
 Approx polarizability:  44.043  -2.370  22.756  -0.000   0.000  17.072
                          Isotropic Fermi Contact Couplings
        Atom                 a.u.       MegaHertz       Gauss      10(-4) cm-1
     1  C(13)              0.40425     454.45672     162.16145     151.59044
     2  N(14)              0.52115     168.38455      60.08379      56.16704
     3  O(17)              0.11544     -69.97932     -24.97036     -23.34259
     4  H(1)               0.02452     109.59890      39.10761      36.55826
     5  H(1)              -0.00381     -17.01378      -6.07094      -5.67519
 --------------------------------------------------------
       Center         ----  Spin Dipole Couplings  ----
                      3XX-RR        3YY-RR        3ZZ-RR
 --------------------------------------------------------
     1   Atom       -0.250948      0.639258     -0.388310
     2   Atom        0.087594     -0.081404     -0.006190
     3   Atom       -0.097137      0.576549     -0.479412
     4   Atom        0.025701      0.019400     -0.045102
     5   Atom        0.040606     -0.007176     -0.033430
 --------------------------------------------------------
                        XY            XZ            YZ
 --------------------------------------------------------
     1   Atom       -0.383103     -0.000000      0.000000
     2   Atom        0.204824     -0.000000      0.000000
     3   Atom       -0.603700      0.000000     -0.000000
     4   Atom        0.030334      0.000000      0.000000
     5   Atom        0.012430      0.000000      0.000000
 --------------------------------------------------------


 ---------------------------------------------------------------------------------
              Anisotropic Spin Dipole Couplings in Principal Axis System
 ---------------------------------------------------------------------------------

       Atom             a.u.   MegaHertz   Gauss  10(-4) cm-1        Axes

              Baa    -0.3931   -52.752   -18.823   -17.596  0.9375  0.3479  0.0000
     1 C(13)  Bbb    -0.3883   -52.108   -18.593   -17.381  0.0000  0.0000  1.0000
              Bcc     0.7814   104.860    37.417    34.977 -0.3479  0.9375 -0.0000
 
              Baa    -0.2185    -8.426    -3.007    -2.811 -0.5562  0.8311 -0.0000
     2 N(14)  Bbb    -0.0062    -0.239    -0.085    -0.080 -0.0000  0.0000  1.0000
              Bcc     0.2247     8.665     3.092     2.890  0.8311  0.5562 -0.0000
 
              Baa    -0.4794    34.690    12.378    11.571  0.0000  0.0000  1.0000
     3 O(17)  Bbb    -0.4516    32.678    11.660    10.900  0.8623  0.5063 -0.0000
              Bcc     0.9310   -67.368   -24.039   -22.472 -0.5063  0.8623 -0.0000
 
              Baa    -0.0451   -24.064    -8.587    -8.027  0.0000  0.0000  1.0000
     4 H(1)   Bbb    -0.0079    -4.240    -1.513    -1.414 -0.6696  0.7427  0.0000
              Bcc     0.0530    28.304    10.100     9.441  0.7427  0.6696 -0.0000
 
              Baa    -0.0334   -17.837    -6.365    -5.950 -0.0000 -0.0000  1.0000
     5 H(1)   Bbb    -0.0102    -5.451    -1.945    -1.818 -0.2376  0.9714  0.0000
              Bcc     0.0436    23.288     8.310     7.768  0.9714  0.2376  0.0000
 

 ---------------------------------------------------------------------------------

 No NMR shielding tensors so no spin-rotation constants.
 Leave Link  601 at Sat Nov 12 23:31:38 2022, MaxMem=   939524096 cpu:         3.0
 (Enter /Local/ce_dana/g09/l701.exe)
 Compute integral second derivatives.
 ... and contract with generalized density number  2.
 R6Disp: Adding Grimme-D3(BJ) dispersion energy 2nd derivatives to the Hessian.
   2 Symmetry operations used in ECPInt.
 ECPInt:  NShTT=     861 NPrTT=    2700 LenC2=     859 LenP2D=    2382.
 LDataN:  DoStor=T MaxTD1= 8 Len=  415
 Leave Link  701 at Sat Nov 12 23:31:38 2022, MaxMem=   939524096 cpu:         5.3
 (Enter /Local/ce_dana/g09/l702.exe)
 L702 exits ... SP integral derivatives will be done elsewhere.
 Leave Link  702 at Sat Nov 12 23:31:38 2022, MaxMem=   939524096 cpu:         0.1
 (Enter /Local/ce_dana/g09/l703.exe)
 Compute integral second derivatives, UseDBF=F ICtDFT=           0.
 Integral derivatives from FoFJK, PRISM(SPDF).
 Calling FoFJK, ICntrl=  10100127 FMM=F ISym2X=1 I1Cent= 0 IOpClX= 1 NMat=1 NMatS=1 NMatT=0.
 FoFJK:  IHMeth= 1 ICntrl=10100127 DoSepK=F KAlg= 0 I1Cent=   0 FoldK=F
 IRaf=         0 NMat=   1 IRICut=       1 DoRegI=T DoRafI=F ISym2E= 1.
 FoFCou: FMM=F IPFlag=           0 FMFlag=      100000 FMFlg1=         800
         NFxFlg=           0 DoJE=F BraDBF=F KetDBF=F FulRan=T
         wScrn=  0.000000 ICntrl=10100127 IOpCl=  1 I1Cent=           0 NGrid=           0
         NMat0=    1 NMatS0=      1 NMatT0=    0 NMatD0=    1 NMtDS0=    0 NMtDT0=    0
 Petite list used in FoFCou.
 Leave Link  703 at Sat Nov 12 23:31:48 2022, MaxMem=   939524096 cpu:        98.3
 (Enter /Local/ce_dana/g09/l716.exe)
 Dipole        = 2.16278303D-02-1.92270512D-01 8.24609187D-18
 Polarizability= 4.01836289D+01-3.23271587D+00 2.10753168D+01
                -4.71745097D-15 7.14864677D-15 1.51947548D+01
 ***** Axes restored to original set *****
 -------------------------------------------------------------------
 Center     Atomic                   Forces (Hartrees/Bohr)
 Number     Number              X              Y              Z
 -------------------------------------------------------------------
      1        6           0.000001209    0.000000485   -0.000000041
      2        7          -0.000000792   -0.000000341   -0.000000051
      3        8           0.000000442    0.000000062   -0.000000408
      4        1          -0.000000263   -0.000000111   -0.000000009
      5        1          -0.000000596   -0.000000096    0.000000509
 -------------------------------------------------------------------
 Cartesian Forces:  Max     0.000001209 RMS     0.000000484
 Force constants in Cartesian coordinates: 
                1             2             3             4             5 
      1  0.953456D+00
      2  0.307889D+00  0.173999D+00
      3 -0.208072D+00 -0.333278D-01  0.235369D+00
      4 -0.666006D+00 -0.226247D+00  0.987394D-01  0.690399D+00
      5 -0.231284D+00 -0.129232D+00  0.404367D-01  0.243927D+00  0.135718D+00
      6  0.815677D-01  0.333694D-01 -0.465912D-01 -0.838629D-01 -0.892592D-02
      7 -0.760444D-01 -0.466332D-01 -0.368303D-01 -0.104027D-01 -0.741471D-02
      8 -0.484808D-01 -0.153303D-01 -0.217754D-01  0.952889D-02 -0.111909D-01
      9 -0.431286D-01 -0.243675D-01 -0.115467D-01  0.377313D-01 -0.503651D-02
     10 -0.206714D+00 -0.310853D-01  0.147054D+00 -0.414764D-02 -0.492415D-02
     11 -0.218132D-01 -0.303761D-01  0.169448D-01 -0.153099D-01  0.140817D-01
     12  0.178662D+00  0.299533D-01 -0.174921D+00 -0.180014D-01 -0.140180D-01
     13 -0.469155D-02 -0.392309D-02 -0.891028D-03 -0.984248D-02 -0.303811D-03
     14 -0.631015D-02  0.940061D-03 -0.227831D-02 -0.118990D-01 -0.937639D-02
     15 -0.902822D-02 -0.562730D-02 -0.231093D-02 -0.346064D-01 -0.124562D-01
                6             7             8             9            10 
      6  0.125175D+00
      7 -0.200273D-01  0.474000D+00
      8 -0.288080D-01  0.145428D+00  0.647235D-01
      9 -0.767668D-01 -0.159595D+00 -0.689567D-02  0.207295D+00
     10  0.174022D-01  0.357479D-02  0.530990D-02  0.292570D-02  0.206848D+00
     11  0.552928D-03  0.635586D-02 -0.276901D-02  0.632914D-02  0.306279D-01
     12 -0.230952D-02  0.649126D-02  0.779661D-02  0.102290D-01 -0.167337D+00
     13  0.492027D-02 -0.391128D+00 -0.111786D+00  0.162066D+00  0.439430D-03
     14  0.381160D-02 -0.977361D-01 -0.354333D-01  0.299705D-01  0.715817D-04
     15  0.492959D-03  0.209961D+00  0.496824D-01 -0.129210D+00 -0.454052D-04
               11            12            13            14            15 
     11  0.187618D-01
     12 -0.238644D-01  0.166576D+00
     13  0.139327D-03  0.185531D-03  0.405222D+00
     14  0.301489D-03  0.132561D-03  0.115874D+00  0.435681D-01
     15  0.375156D-04  0.424730D-03 -0.166281D+00 -0.316364D-01  0.130603D+00
 FormGI is forming the generalized inverse of G from B-inverse, IUseBI=4.
 Force constants in internal coordinates: 
                1             2             3             4             5 
      1  0.860807D+00
      2 -0.724573D-02  0.359364D+00
      3  0.102003D+00  0.468414D-02  0.156364D+00
      4  0.168287D-02 -0.309266D-03 -0.485104D-02  0.513401D+00
      5  0.256414D-01  0.205322D-01 -0.344316D-01 -0.697506D-03  0.820884D-01
      6  0.101521D+00 -0.451578D-02  0.466055D-01  0.592194D-03 -0.117412D-01
      7  0.227642D-01  0.398365D-03  0.562754D-01  0.377216D-02 -0.178646D-02
      8  0.000000D+00  0.000000D+00  0.000000D+00  0.000000D+00  0.000000D+00
      9  0.000000D+00  0.000000D+00  0.000000D+00  0.000000D+00  0.000000D+00
                6             7             8             9 
      6  0.170535D+00
      7  0.153694D-01  0.202847D+00
      8  0.000000D+00  0.000000D+00  0.214914D-01
      9  0.000000D+00  0.000000D+00  0.529759D-03  0.165689D-01
 Leave Link  716 at Sat Nov 12 23:31:48 2022, MaxMem=   939524096 cpu:         0.1
 (Enter /Local/ce_dana/g09/l103.exe)

 GradGradGradGradGradGradGradGradGradGradGradGradGradGradGradGradGradGrad
 Berny optimization.
 Red2BG is reusing G-inverse.
 Internal  Forces:  Max     0.000000986 RMS     0.000000442
 Search for a local minimum.
 Step number   1 out of a maximum of   20 on scan point     1 out of    46
 All quantities printed in internal units (Hartrees-Bohrs-Radians)
 RMS Force = .49878D-06 SwitMx=.10000D-02 MixMth= 2
 Mixed Optimization -- En-DIIS/RFO-DIIS
 Second derivative matrix not updated -- analytic derivatives used.
 The second derivative matrix:
                          R1        R2        R3        R4        A1
           R1           0.86081
           R2          -0.00725   0.35936
           R3           0.10200   0.00468   0.15636
           R4           0.00168  -0.00031  -0.00485   0.51340
           A1           0.02564   0.02053  -0.03443  -0.00070   0.08209
           A2           0.10152  -0.00452   0.04661   0.00059  -0.01174
           A3           0.02276   0.00040   0.05628   0.00377  -0.00179
           D1          -0.00000   0.00000   0.00000   0.00000   0.00000
           D2           0.00000   0.00000  -0.00000   0.00000  -0.00000
                          A2        A3        D1        D2
           A2           0.17054
           A3           0.01537   0.20285
           D1           0.00000  -0.00000   0.02149
           D2          -0.00000   0.00000   0.00053   0.01657
 ITU=  0
     Eigenvalues ---    0.02149   0.07699   0.15543   0.20513   0.36091
     Eigenvalues ---    0.51344   0.877151000.000001000.00000
 RFO step:  Lambda= 0.00000000D+00 EMin= 2.14913969D-02
 Linear search not attempted -- first point.
 Iteration  1 RMS(Cart)=  0.00000111 RMS(Int)=  0.00000000
 Iteration  2 RMS(Cart)=  0.00000000 RMS(Int)=  0.00000001
 Iteration  1 RMS(Cart)=  0.00000009 RMS(Int)=  0.00000000
 ITry= 1 IFail=0 DXMaxC= 1.54D-06 DCOld= 1.00D+10 DXMaxT= 5.00D-02 DXLimC= 3.00D+00 Rises=F
 ClnCor:  largest displacement from symmetrization is 1.71D-07 for atom     5.
 Variable       Old X    -DE/DX   Delta X   Delta X   Delta X     New X
                                 (Linear)    (Quad)   (Total)
    R1        2.28871  -0.00000   0.00000  -0.00000  -0.00000   2.28871
    R2        2.04310   0.00000   0.00000   0.00000   0.00000   2.04310
    R3        2.74943  -0.00000   0.00000   0.00000   0.00000   2.74943
    R4        1.82599  -0.00000   0.00000  -0.00000  -0.00000   1.82599
    A1        2.46574   0.00000   0.00000   0.00000   0.00000   2.46574
    A2        2.09585  -0.00000   0.00000  -0.00000  -0.00000   2.09585
    A3        1.76508   0.00000   0.00000   0.00000   0.00000   1.76508
    D1        0.00000   0.00000   0.00000   0.00000   0.00000   0.00000
    D2        3.14159   0.00000   0.00000   0.00000  -0.00000   3.14159
         Item               Value     Threshold  Converged?
 Maximum Force            0.000001     0.000450     YES
 RMS     Force            0.000000     0.000300     YES
 Maximum Displacement     0.000002     0.001800     YES
 RMS     Displacement     0.000001     0.001200     YES
 Predicted change in Energy=-1.763645D-12
 Optimization completed.
    -- Stationary point found.
                           ----------------------------
                           !   Optimized Parameters   !
                           ! (Angstroms and Degrees)  !
 --------------------------                            --------------------------
 ! Name  Definition              Value          Derivative Info.                !
 --------------------------------------------------------------------------------
 ! R1    R(1,2)                  1.2111         -DE/DX =    0.0                 !
 ! R2    R(1,4)                  1.0812         -DE/DX =    0.0                 !
 ! R3    R(2,3)                  1.4549         -DE/DX =    0.0                 !
 ! R4    R(3,5)                  0.9663         -DE/DX =    0.0                 !
 ! A1    A(2,1,4)              141.2765         -DE/DX =    0.0                 !
 ! A2    A(1,2,3)              120.0835         -DE/DX =    0.0                 !
 ! A3    A(2,3,5)              101.1316         -DE/DX =    0.0                 !
 ! D1    D(4,1,2,3)              0.0            -DE/DX =    0.0                 !
 ! D2    D(1,2,3,5)            180.0            -DE/DX =    0.0                 !
 --------------------------------------------------------------------------------
 Lowest energy point so far.  Saving SCF results.
 Iteration  1 RMS(Cart)=  0.05383468 RMS(Int)=  0.00405807
 Iteration  2 RMS(Cart)=  0.00352483 RMS(Int)=  0.00000566
 Iteration  3 RMS(Cart)=  0.00000800 RMS(Int)=  0.00000000
 Iteration  4 RMS(Cart)=  0.00000000 RMS(Int)=  0.00000000
 Iteration  1 RMS(Cart)=  0.00000001 RMS(Int)=  0.00000000
 GradGradGradGradGradGradGradGradGradGradGradGradGradGradGradGradGradGrad

 Leave Link  103 at Sat Nov 12 23:31:48 2022, MaxMem=   939524096 cpu:         0.1
 (Enter /Local/ce_dana/g09/l202.exe)
                          Input orientation:                          
 ---------------------------------------------------------------------
 Center     Atomic      Atomic             Coordinates (Angstroms)
 Number     Number       Type             X           Y           Z
 ---------------------------------------------------------------------
      1          6           0       -0.959745   -0.522646   -0.067212
      2          7           0        0.178179   -0.124280   -0.182419
      3          8           0        0.863859    0.464136    0.957951
      4          1           0       -1.752009   -0.612851    0.662922
      5          1           0        1.669717    0.795642    0.540366
 ---------------------------------------------------------------------
                    Distance matrix (angstroms):
                    1          2          3          4          5
     1  C    0.000000
     2  N    1.211131   0.000000
     3  O    2.313057   1.454934   0.000000
     4  H    1.081164   2.163083   2.844242   0.000000
     5  H    3.003515   1.895616   0.966271   3.702308   0.000000
 Stoichiometry    CH2NO(2)
 Framework group  C1[X(CH2NO)]
 Deg. of freedom     9
 Full point group                 C1      NOp   1
 Omega: Change in point group or standard orientation.

 Old FWG=CS   [SG(C1H2N1O1)]
 New FWG=C01  [X(C1H2N1O1)]
 RotChk:  IX=3 Diff= 4.58D-01
 Largest Abelian subgroup         C1      NOp   1
 Largest concise Abelian subgroup C1      NOp   1
                         Standard orientation:                         
 ---------------------------------------------------------------------
 Center     Atomic      Atomic             Coordinates (Angstroms)
 Number     Number       Type             X           Y           Z
 ---------------------------------------------------------------------
      1          6           0       -1.237540   -0.073803    0.006975
      2          7           0       -0.164643    0.487800   -0.011331
      3          8           0        1.065384   -0.289290   -0.011516
      4          1           0       -1.671045   -1.064078    0.025547
      5          1           0        1.725715    0.406616    0.104058
 ---------------------------------------------------------------------
 Rotational constants (GHZ):     85.8715768     11.7782948     10.3640783
 Leave Link  202 at Sat Nov 12 23:31:48 2022, MaxMem=   939524096 cpu:         0.0
 (Enter /Local/ce_dana/g09/l301.exe)
 Standard basis: def2TZVP (5D, 7F)
 Ernie: Thresh=  0.10000D-02 Tol=  0.10000D-05 Strict=F.
 There are   120 symmetry adapted cartesian basis functions of A   symmetry.
 There are   105 symmetry adapted basis functions of A   symmetry.
   105 basis functions,   169 primitive gaussians,   120 cartesian basis functions
    12 alpha electrons       11 beta electrons
       nuclear repulsion energy        63.3731657596 Hartrees.
 IExCor=  419 DFT=T Ex+Corr=B2PLYPD3 ExCW=0 ScaHFX=  0.530000
 ScaDFX=  0.470000  0.470000  0.730000  0.730000 ScalE2=  0.270000  0.270000
 IRadAn=      5 IRanWt=     -1 IRanGd=            0 ICorTp=0 IEmpDi=141
 NAtoms=    5 NActive=    5 NUniq=    5 SFac= 1.00D+00 NAtFMM=   60 NAOKFM=F Big=F
 Integral buffers will be    131072 words long.
 Raffenetti 2 integral format.
 Two-electron integral symmetry is turned on.
 R6Disp:  Grimme-D3(BJ) Dispersion energy=       -0.0014457128 Hartrees.
 Nuclear repulsion after empirical dispersion term =       63.3717200468 Hartrees.
 Leave Link  301 at Sat Nov 12 23:31:48 2022, MaxMem=   939524096 cpu:         0.1
 (Enter /Local/ce_dana/g09/l302.exe)
 NPDir=0 NMtPBC=     1 NCelOv=     1 NCel=       1 NClECP=     1 NCelD=      1
         NCelK=      1 NCelE2=     1 NClLst=     1 CellRange=     0.0.
 One-electron integrals computed using PRISM.
   1 Symmetry operations used in ECPInt.
 ECPInt:  NShTT=     861 NPrTT=    2700 LenC2=     859 LenP2D=    2382.
 LDataN:  DoStor=T MaxTD1= 6 Len=  172
 NBasis=   105 RedAO= T EigKep=  6.11D-04  NBF=   105
 NBsUse=   105 1.00D-06 EigRej= -1.00D+00 NBFU=   105
 Precomputing XC quadrature grid using
 IXCGrd= 4 IRadAn=           5 IRanWt=          -1 IRanGd=           0 AccXCQ= 0.00D+00.
 Generated NRdTot=       0 NPtTot=           0 NUsed=           0 NTot=          32
 NSgBfM=   119   119   119   119   119 MxSgAt=     5 MxSgA2=     5.
 Leave Link  302 at Sat Nov 12 23:31:49 2022, MaxMem=   939524096 cpu:         1.4
 (Enter /Local/ce_dana/g09/l303.exe)
 DipDrv:  MaxL=1.
 Leave Link  303 at Sat Nov 12 23:31:49 2022, MaxMem=   939524096 cpu:         0.1
 (Enter /Local/ce_dana/g09/l401.exe)
 Initial guess from the checkpoint file:  "check.chk"
 B after Tr=     0.000000   -0.000000    0.000000
         Rot=    0.986783   -0.000081    0.000021   -0.162050 Ang= -18.65 deg.
 Guess basis will be translated and rotated to current coordinates.
 JPrj=2 DoOrth=T DoCkMO=T.
 Initial guess <Sx>= 0.0000 <Sy>= 0.0000 <Sz>= 0.5000 <S**2>= 0.7765 S= 0.5132
 Generating alternative initial guess.
 ExpMin= 9.52D-02 ExpMax= 2.70D+04 ExpMxC= 9.22D+02 IAcc=2 IRadAn=         4 AccDes= 0.00D+00
 Harris functional with IExCor=  419 and IRadAn=       4 diagonalized for initial guess.
 HarFok:  IExCor=  419 AccDes= 0.00D+00 IRadAn=         4 IDoV= 1 UseB2=F ITyADJ=14
 ICtDFT=  3500011 ScaDFX=  1.000000  1.000000  1.000000  1.000000
 FoFCou: FMM=F IPFlag=           0 FMFlag=      100000 FMFlg1=           0
         NFxFlg=           0 DoJE=T BraDBF=F KetDBF=T FulRan=T
         wScrn=  0.000000 ICntrl=     500 IOpCl=  0 I1Cent=   200000004 NGrid=           0
         NMat0=    1 NMatS0=      1 NMatT0=    0 NMatD0=    1 NMtDS0=    0 NMtDT0=    0
 Petite list used in FoFCou.
 Harris En= -169.196124699191    
 Leave Link  401 at Sat Nov 12 23:31:49 2022, MaxMem=   939524096 cpu:         2.4
 (Enter /Local/ce_dana/g09/l502.exe)
 UHF open shell SCF:
 Using DIIS extrapolation, IDIIS=  1040.
 Integral symmetry usage will be decided dynamically.
 Keep R1 and R2 ints in memory in canonical form, NReq=33015445.
 IVT=       51218 IEndB=       51218 NGot=   939524096 MDV=   908498089
 LenX=   908498089 LenY=   908483248
 Requested convergence on RMS density matrix=1.00D-08 within  64 cycles.
 Requested convergence on MAX density matrix=1.00D-06.
 Requested convergence on             energy=1.00D-06.
 No special actions if energy rises.
 FoFCou: FMM=F IPFlag=           0 FMFlag=           0 FMFlg1=           0
         NFxFlg=           0 DoJE=F BraDBF=F KetDBF=F FulRan=T
         wScrn=  0.000000 ICntrl=     600 IOpCl=  0 I1Cent=           0 NGrid=           0
         NMat0=    1 NMatS0=   5565 NMatT0=    0 NMatD0=    1 NMtDS0=    0 NMtDT0=    0
 Symmetry not used in FoFCou.
 Integral accuracy reduced to 1.0D-05 until final iterations.

 Cycle   1  Pass 0  IDiag  1:
 E= -168.887511434669    
 DIIS: error= 3.81D-03 at cycle   1 NSaved=   1.
 NSaved= 1 IEnMin= 1 EnMin= -168.887511434669     IErMin= 1 ErrMin= 3.81D-03
 ErrMax= 3.81D-03  0.00D+00 EMaxC= 1.00D-01 BMatC= 6.75D-03 BMatP= 6.75D-03
 IDIUse=3 WtCom= 9.62D-01 WtEn= 3.81D-02
 Coeff-Com:  0.100D+01
 Coeff-En:   0.100D+01
 Coeff:      0.100D+01
 Gap=     1.097 Goal=   None    Shift=    0.000
 Gap=     1.090 Goal=   None    Shift=    0.000
 GapD=    1.090 DampG=2.000 DampE=1.000 DampFc=2.0000 IDamp=-1.
 RMSDP=4.28D-04 MaxDP=1.03D-02              OVMax= 1.66D-02

 Cycle   2  Pass 0  IDiag  1:
 E= -168.889333148304     Delta-E=       -0.001821713635 Rises=F Damp=F
 DIIS: error= 7.00D-04 at cycle   2 NSaved=   2.
 NSaved= 2 IEnMin= 2 EnMin= -168.889333148304     IErMin= 2 ErrMin= 7.00D-04
 ErrMax= 7.00D-04  0.00D+00 EMaxC= 1.00D-01 BMatC= 1.75D-04 BMatP= 6.75D-03
 IDIUse=3 WtCom= 9.93D-01 WtEn= 7.00D-03
 Coeff-Com: -0.132D+00 0.113D+01
 Coeff-En:   0.000D+00 0.100D+01
 Coeff:     -0.131D+00 0.113D+01
 Gap=     0.353 Goal=   None    Shift=    0.000
 Gap=     0.317 Goal=   None    Shift=    0.000
 RMSDP=1.04D-04 MaxDP=3.42D-03 DE=-1.82D-03 OVMax= 5.56D-03

 Cycle   3  Pass 0  IDiag  1:
 E= -168.889422542295     Delta-E=       -0.000089393991 Rises=F Damp=F
 DIIS: error= 1.96D-04 at cycle   3 NSaved=   3.
 NSaved= 3 IEnMin= 3 EnMin= -168.889422542295     IErMin= 3 ErrMin= 1.96D-04
 ErrMax= 1.96D-04  0.00D+00 EMaxC= 1.00D-01 BMatC= 3.09D-05 BMatP= 1.75D-04
 IDIUse=3 WtCom= 9.98D-01 WtEn= 1.96D-03
 Coeff-Com: -0.514D-01 0.330D+00 0.722D+00
 Coeff-En:   0.000D+00 0.000D+00 0.100D+01
 Coeff:     -0.513D-01 0.329D+00 0.722D+00
 Gap=     0.353 Goal=   None    Shift=    0.000
 Gap=     0.316 Goal=   None    Shift=    0.000
 RMSDP=2.41D-05 MaxDP=4.97D-04 DE=-8.94D-05 OVMax= 1.24D-03

 Cycle   4  Pass 0  IDiag  1:
 E= -168.889428981954     Delta-E=       -0.000006439658 Rises=F Damp=F
 DIIS: error= 1.34D-04 at cycle   4 NSaved=   4.
 NSaved= 4 IEnMin= 4 EnMin= -168.889428981954     IErMin= 4 ErrMin= 1.34D-04
 ErrMax= 1.34D-04  0.00D+00 EMaxC= 1.00D-01 BMatC= 1.05D-05 BMatP= 3.09D-05
 IDIUse=3 WtCom= 9.99D-01 WtEn= 1.34D-03
 Coeff-Com:  0.961D-02-0.142D+00 0.348D+00 0.785D+00
 Coeff-En:   0.000D+00 0.000D+00 0.000D+00 0.100D+01
 Coeff:      0.959D-02-0.142D+00 0.347D+00 0.785D+00
 Gap=     0.353 Goal=   None    Shift=    0.000
 Gap=     0.317 Goal=   None    Shift=    0.000
 RMSDP=1.57D-05 MaxDP=3.33D-04 DE=-6.44D-06 OVMax= 9.53D-04

 Cycle   5  Pass 0  IDiag  1:
 E= -168.889431852969     Delta-E=       -0.000002871016 Rises=F Damp=F
 DIIS: error= 2.79D-05 at cycle   5 NSaved=   5.
 NSaved= 5 IEnMin= 5 EnMin= -168.889431852969     IErMin= 5 ErrMin= 2.79D-05
 ErrMax= 2.79D-05  0.00D+00 EMaxC= 1.00D-01 BMatC= 3.96D-07 BMatP= 1.05D-05
 IDIUse=1 WtCom= 1.00D+00 WtEn= 0.00D+00
 Coeff-Com:  0.537D-02-0.499D-01 0.137D-01 0.179D+00 0.852D+00
 Coeff:      0.537D-02-0.499D-01 0.137D-01 0.179D+00 0.852D+00
 Gap=     0.353 Goal=   None    Shift=    0.000
 Gap=     0.317 Goal=   None    Shift=    0.000
 RMSDP=4.60D-06 MaxDP=1.06D-04 DE=-2.87D-06 OVMax= 3.11D-04

 Initial convergence to 1.0D-05 achieved.  Increase integral accuracy.
 Cycle   6  Pass 1  IDiag  1:
 E= -168.889431775954     Delta-E=        0.000000077015 Rises=F Damp=F
 DIIS: error= 1.26D-05 at cycle   1 NSaved=   1.
 NSaved= 1 IEnMin= 1 EnMin= -168.889431775954     IErMin= 1 ErrMin= 1.26D-05
 ErrMax= 1.26D-05  0.00D+00 EMaxC= 1.00D-01 BMatC= 6.94D-08 BMatP= 6.94D-08
 IDIUse=1 WtCom= 1.00D+00 WtEn= 0.00D+00
 Coeff-Com:  0.100D+01
 Coeff:      0.100D+01
 Gap=     0.353 Goal=   None    Shift=    0.000
 Gap=     0.317 Goal=   None    Shift=    0.000
 RMSDP=4.60D-06 MaxDP=1.06D-04 DE= 7.70D-08 OVMax= 1.97D-04

 Cycle   7  Pass 1  IDiag  1:
 E= -168.889431825226     Delta-E=       -0.000000049272 Rises=F Damp=F
 DIIS: error= 1.13D-05 at cycle   2 NSaved=   2.
 NSaved= 2 IEnMin= 2 EnMin= -168.889431825226     IErMin= 2 ErrMin= 1.13D-05
 ErrMax= 1.13D-05  0.00D+00 EMaxC= 1.00D-01 BMatC= 5.61D-08 BMatP= 6.94D-08
 IDIUse=1 WtCom= 1.00D+00 WtEn= 0.00D+00
 Coeff-Com:  0.453D+00 0.547D+00
 Coeff:      0.453D+00 0.547D+00
 Gap=     0.353 Goal=   None    Shift=    0.000
 Gap=     0.317 Goal=   None    Shift=    0.000
 RMSDP=8.93D-07 MaxDP=1.45D-05 DE=-4.93D-08 OVMax= 7.52D-05

 Cycle   8  Pass 1  IDiag  1:
 E= -168.889431846100     Delta-E=       -0.000000020874 Rises=F Damp=F
 DIIS: error= 6.82D-06 at cycle   3 NSaved=   3.
 NSaved= 3 IEnMin= 3 EnMin= -168.889431846100     IErMin= 3 ErrMin= 6.82D-06
 ErrMax= 6.82D-06  0.00D+00 EMaxC= 1.00D-01 BMatC= 1.42D-08 BMatP= 5.61D-08
 IDIUse=1 WtCom= 1.00D+00 WtEn= 0.00D+00
 Coeff-Com: -0.346D+00 0.107D+00 0.124D+01
 Coeff:     -0.346D+00 0.107D+00 0.124D+01
 Gap=     0.353 Goal=   None    Shift=    0.000
 Gap=     0.317 Goal=   None    Shift=    0.000
 RMSDP=1.41D-06 MaxDP=1.82D-05 DE=-2.09D-08 OVMax= 1.57D-04

 Cycle   9  Pass 1  IDiag  1:
 E= -168.889431865871     Delta-E=       -0.000000019771 Rises=F Damp=F
 DIIS: error= 3.60D-06 at cycle   4 NSaved=   4.
 NSaved= 4 IEnMin= 4 EnMin= -168.889431865871     IErMin= 4 ErrMin= 3.60D-06
 ErrMax= 3.60D-06  0.00D+00 EMaxC= 1.00D-01 BMatC= 4.30D-09 BMatP= 1.42D-08
 IDIUse=1 WtCom= 1.00D+00 WtEn= 0.00D+00
 Coeff-Com: -0.341D+00-0.169D+00 0.505D+00 0.100D+01
 Coeff:     -0.341D+00-0.169D+00 0.505D+00 0.100D+01
 Gap=     0.353 Goal=   None    Shift=    0.000
 Gap=     0.317 Goal=   None    Shift=    0.000
 RMSDP=1.02D-06 MaxDP=1.26D-05 DE=-1.98D-08 OVMax= 1.21D-04

 Cycle  10  Pass 1  IDiag  1:
 E= -168.889431872095     Delta-E=       -0.000000006224 Rises=F Damp=F
 DIIS: error= 1.19D-06 at cycle   5 NSaved=   5.
 NSaved= 5 IEnMin= 5 EnMin= -168.889431872095     IErMin= 5 ErrMin= 1.19D-06
 ErrMax= 1.19D-06  0.00D+00 EMaxC= 1.00D-01 BMatC= 3.53D-10 BMatP= 4.30D-09
 IDIUse=1 WtCom= 1.00D+00 WtEn= 0.00D+00
 Coeff-Com:  0.142D+00 0.362D-01-0.306D+00-0.302D+00 0.143D+01
 Coeff:      0.142D+00 0.362D-01-0.306D+00-0.302D+00 0.143D+01
 Gap=     0.353 Goal=   None    Shift=    0.000
 Gap=     0.317 Goal=   None    Shift=    0.000
 RMSDP=3.25D-07 MaxDP=5.91D-06 DE=-6.22D-09 OVMax= 4.44D-05

 Cycle  11  Pass 1  IDiag  1:
 E= -168.889431872741     Delta-E=       -0.000000000646 Rises=F Damp=F
 DIIS: error= 5.22D-07 at cycle   6 NSaved=   6.
 NSaved= 6 IEnMin= 6 EnMin= -168.889431872741     IErMin= 6 ErrMin= 5.22D-07
 ErrMax= 5.22D-07  0.00D+00 EMaxC= 1.00D-01 BMatC= 1.44D-10 BMatP= 3.53D-10
 IDIUse=1 WtCom= 1.00D+00 WtEn= 0.00D+00
 Coeff-Com:  0.121D+00 0.429D-01-0.221D+00-0.289D+00 0.664D+00 0.682D+00
 Coeff:      0.121D+00 0.429D-01-0.221D+00-0.289D+00 0.664D+00 0.682D+00
 Gap=     0.353 Goal=   None    Shift=    0.000
 Gap=     0.317 Goal=   None    Shift=    0.000
 RMSDP=8.32D-08 MaxDP=1.43D-06 DE=-6.46D-10 OVMax= 9.92D-06

 Cycle  12  Pass 1  IDiag  1:
 E= -168.889431872830     Delta-E=       -0.000000000088 Rises=F Damp=F
 DIIS: error= 3.33D-07 at cycle   7 NSaved=   7.
 NSaved= 7 IEnMin= 7 EnMin= -168.889431872830     IErMin= 7 ErrMin= 3.33D-07
 ErrMax= 3.33D-07  0.00D+00 EMaxC= 1.00D-01 BMatC= 3.54D-11 BMatP= 1.44D-10
 IDIUse=1 WtCom= 1.00D+00 WtEn= 0.00D+00
 Coeff-Com: -0.550D-02 0.232D-02 0.288D-01 0.364D-02-0.246D+00 0.187D+00
 Coeff-Com:  0.103D+01
 Coeff:     -0.550D-02 0.232D-02 0.288D-01 0.364D-02-0.246D+00 0.187D+00
 Coeff:      0.103D+01
 Gap=     0.353 Goal=   None    Shift=    0.000
 Gap=     0.317 Goal=   None    Shift=    0.000
 RMSDP=6.60D-08 MaxDP=1.01D-06 DE=-8.85D-11 OVMax= 6.28D-06

 Cycle  13  Pass 1  IDiag  1:
 E= -168.889431872871     Delta-E=       -0.000000000041 Rises=F Damp=F
 DIIS: error= 1.63D-07 at cycle   8 NSaved=   8.
 NSaved= 8 IEnMin= 8 EnMin= -168.889431872871     IErMin= 8 ErrMin= 1.63D-07
 ErrMax= 1.63D-07  0.00D+00 EMaxC= 1.00D-01 BMatC= 8.12D-12 BMatP= 3.54D-11
 IDIUse=1 WtCom= 1.00D+00 WtEn= 0.00D+00
 Coeff-Com: -0.430D-01-0.167D-01 0.757D-01 0.103D+00-0.247D+00-0.243D+00
 Coeff-Com:  0.602D-01 0.131D+01
 Coeff:     -0.430D-01-0.167D-01 0.757D-01 0.103D+00-0.247D+00-0.243D+00
 Coeff:      0.602D-01 0.131D+01
 Gap=     0.353 Goal=   None    Shift=    0.000
 Gap=     0.317 Goal=   None    Shift=    0.000
 RMSDP=5.53D-08 MaxDP=7.84D-07 DE=-4.12D-11 OVMax= 5.86D-06

 Cycle  14  Pass 1  IDiag  1:
 E= -168.889431872887     Delta-E=       -0.000000000015 Rises=F Damp=F
 DIIS: error= 4.55D-08 at cycle   9 NSaved=   9.
 NSaved= 9 IEnMin= 9 EnMin= -168.889431872887     IErMin= 9 ErrMin= 4.55D-08
 ErrMax= 4.55D-08  0.00D+00 EMaxC= 1.00D-01 BMatC= 7.89D-13 BMatP= 8.12D-12
 IDIUse=1 WtCom= 1.00D+00 WtEn= 0.00D+00
 Coeff-Com:  0.163D-01 0.617D-02-0.312D-01-0.373D-01 0.128D+00 0.514D-01
 Coeff-Com: -0.181D+00-0.461D+00 0.151D+01
 Coeff:      0.163D-01 0.617D-02-0.312D-01-0.373D-01 0.128D+00 0.514D-01
 Coeff:     -0.181D+00-0.461D+00 0.151D+01
 Gap=     0.353 Goal=   None    Shift=    0.000
 Gap=     0.317 Goal=   None    Shift=    0.000
 RMSDP=1.80D-08 MaxDP=2.54D-07 DE=-1.55D-11 OVMax= 1.57D-06

 Cycle  15  Pass 1  IDiag  1:
 E= -168.889431872887     Delta-E=       -0.000000000000 Rises=F Damp=F
 DIIS: error= 2.51D-08 at cycle  10 NSaved=  10.
 NSaved=10 IEnMin=10 EnMin= -168.889431872887     IErMin=10 ErrMin= 2.51D-08
 ErrMax= 2.51D-08  0.00D+00 EMaxC= 1.00D-01 BMatC= 9.32D-14 BMatP= 7.89D-13
 IDIUse=1 WtCom= 1.00D+00 WtEn= 0.00D+00
 Coeff-Com: -0.513D-02-0.212D-02 0.103D-01 0.116D-01-0.447D-01-0.100D-01
 Coeff-Com:  0.762D-01 0.140D+00-0.668D+00 0.149D+01
 Coeff:     -0.513D-02-0.212D-02 0.103D-01 0.116D-01-0.447D-01-0.100D-01
 Coeff:      0.762D-01 0.140D+00-0.668D+00 0.149D+01
 Gap=     0.353 Goal=   None    Shift=    0.000
 Gap=     0.317 Goal=   None    Shift=    0.000
 RMSDP=3.67D-09 MaxDP=1.08D-07 DE=-2.56D-13 OVMax= 3.87D-07

 SCF Done:  E(UB2PLYPD3) =  -168.889431873     A.U. after   15 cycles
            NFock= 15  Conv=0.37D-08     -V/T= 2.0030
 <Sx>= 0.0000 <Sy>= 0.0000 <Sz>= 0.5000 <S**2>= 0.7765 S= 0.5132
 <L.S>=  0.00000000000    
 KE= 1.683890266849D+02 PE=-5.237592940988D+02 EE= 1.231091154943D+02
 Annihilation of the first spin contaminant:
 S**2 before annihilation     0.7765,   after     0.7504
 Leave Link  502 at Sat Nov 12 23:31:56 2022, MaxMem=   939524096 cpu:        57.8
 (Enter /Local/ce_dana/g09/l508.exe)
 QCSCF skips out because SCF is already converged.
 Leave Link  508 at Sat Nov 12 23:31:56 2022, MaxMem=   939524096 cpu:         0.0
 (Enter /Local/ce_dana/g09/l801.exe)
 DoSCS=T DFT=T ScalE2(SS,OS)=  0.270000  0.270000
 ExpMin= 9.52D-02 ExpMax= 2.70D+04 ExpMxC= 9.22D+02 IAcc=3 IRadAn=         5 AccDes= 0.00D+00
 HarFok:  IExCor=  205 AccDes= 0.00D+00 IRadAn=         5 IDoV=-2 UseB2=F ITyADJ=14
 ICtDFT= 12500011 ScaDFX=  1.000000  1.000000  1.000000  1.000000
 Largest valence mixing into a core orbital is  9.91D-05
 Largest core mixing into a valence orbital is  1.57D-05
 Largest valence mixing into a core orbital is  9.86D-05
 Largest core mixing into a valence orbital is  1.60D-05
 Range of M.O.s used for correlation:     4   105
 NBasis=   105 NAE=    12 NBE=    11 NFC=     3 NFV=     0
 NROrb=    102 NOA=     9 NOB=     8 NVA=    93 NVB=    94

 **** Warning!!: The largest alpha MO coefficient is  0.10971569D+02


 **** Warning!!: The largest beta MO coefficient is  0.10417840D+02

 Leave Link  801 at Sat Nov 12 23:31:56 2022, MaxMem=   939524096 cpu:         0.4
 (Enter /Local/ce_dana/g09/l906.exe)
 DoSCS=T DFT=T ScalE2(SS,OS)=  0.270000  0.270000
 Frozen-core derivative calculation, NFC=   3 NFV=   0.
 FulOut=F Deriv=T AODrv=T NAtomX=     5
   MMem=        1040  MDisk=           9 MDiskD=           9
  W3Min=      302400 MinDsk=      346700 NBas6D=         120
 NBas2D=        7518    NTT=        7260    LW2=     3500000
    MDV=   939337640 MDiskM=       39055 NBas2p=        7513
 Fully direct method using O(ONN) memory.
 IMap=   1   2   3   4   5   6   7   8   9  10  11  12
 JobTyp=2 Pass  1:  I=   4 to  12 NPSUse= 10 ParTrn=T ParDer=T DoDerP=T.
 IMap=   1   2   3   4   5   6   7   8   9  10  11
 JobTyp=3 Pass  1:  I=   4 to  11 NPSUse= 10 ParTrn=T ParDer=T DoDerP=T.
 Spin components of T(2) and E(2):
     alpha-alpha T2 =       0.3736123803D-01 E2=     -0.2597989566D-01
     alpha-beta  T2 =       0.2008104623D+00 E2=     -0.1408341463D+00
     beta-beta   T2 =       0.3482246058D-01 E2=     -0.2296319667D-01
 The integrals were generated   2 times.
 E2(B2PLYPD3) =    -0.1897772387D+00 E(B2PLYPD3) =    -0.16907920911154D+03
 Leave Link  906 at Sat Nov 12 23:32:00 2022, MaxMem=   939524096 cpu:        41.7
 (Enter /Local/ce_dana/g09/l1002.exe)
 Minotr:  UHF open shell wavefunction.
          Computing MP2/KS-MP2 derivatives.
          Using Z-Vector for PSCF gradient.
          Skipping F1 and S1 gradient terms here.
          IDoAtm=11111
          Frozen-core window.
          Direct CPHF calculation.
          Differentiating once with respect to electric field.
                with respect to dipole field.
          Differentiating once with respect to nuclear coordinates.
          Requested convergence is 1.0D-10 RMS, and 1.0D-09 maximum.
          NewPWx=F KeepS1=T KeepF1=T KeepIn=T MapXYZ=F SortEE=F KeepMc=T.
          MDV=     939523838 using IRadAn=       5.
 Using stored XC quadrature information.
 Keep R1 and R2 ints in memory in canonical form, NReq=32981660.
 FoFCou: FMM=F IPFlag=           0 FMFlag=           0 FMFlg1=           0
         NFxFlg=           0 DoJE=F BraDBF=F KetDBF=F FulRan=T
         wScrn=  0.000000 ICntrl=     600 IOpCl=  0 I1Cent=           0 NGrid=           0
         NMat0=    1 NMatS0=   5565 NMatT0=    0 NMatD0=    1 NMtDS0=    0 NMtDT0=    0
 Symmetry not used in FoFCou.
          Solving linear equations separately, MaxMat=       0.
          There are     1 degrees of freedom in the 1st order CPHF.  IDoFFX=0 NUNeed=     1.
 LinEq1:  Iter=  0 NonCon=     1 RMS=2.10D-03 Max=5.05D-02 NDo=     1
 AX will form     1 AO Fock derivatives at one time.
 LinEq1:  Iter=  1 NonCon=     1 RMS=7.65D-04 Max=1.81D-02 NDo=     1
 LinEq1:  Iter=  2 NonCon=     1 RMS=5.18D-04 Max=9.25D-03 NDo=     1
 LinEq1:  Iter=  3 NonCon=     1 RMS=3.14D-04 Max=6.51D-03 NDo=     1
 LinEq1:  Iter=  4 NonCon=     1 RMS=1.81D-04 Max=3.49D-03 NDo=     1
 LinEq1:  Iter=  5 NonCon=     1 RMS=8.95D-05 Max=1.45D-03 NDo=     1
 LinEq1:  Iter=  6 NonCon=     1 RMS=6.19D-05 Max=1.00D-03 NDo=     1
 LinEq1:  Iter=  7 NonCon=     1 RMS=1.84D-05 Max=2.20D-04 NDo=     1
 LinEq1:  Iter=  8 NonCon=     1 RMS=3.70D-06 Max=3.72D-05 NDo=     1
 LinEq1:  Iter=  9 NonCon=     1 RMS=9.34D-07 Max=1.26D-05 NDo=     1
 LinEq1:  Iter= 10 NonCon=     1 RMS=2.33D-07 Max=3.16D-06 NDo=     1
 LinEq1:  Iter= 11 NonCon=     1 RMS=6.18D-08 Max=1.21D-06 NDo=     1
 LinEq1:  Iter= 12 NonCon=     1 RMS=2.02D-08 Max=3.98D-07 NDo=     1
 LinEq1:  Iter= 13 NonCon=     1 RMS=6.48D-09 Max=9.07D-08 NDo=     1
 LinEq1:  Iter= 14 NonCon=     1 RMS=1.57D-09 Max=1.69D-08 NDo=     1
 LinEq1:  Iter= 15 NonCon=     1 RMS=4.05D-10 Max=4.28D-09 NDo=     1
 LinEq1:  Iter= 16 NonCon=     1 RMS=1.03D-10 Max=1.17D-09 NDo=     1
 LinEq1:  Iter= 17 NonCon=     0 RMS=3.29D-11 Max=3.15D-10 NDo=     1
 Linear equations converged to 1.000D-10 1.000D-09 after    17 iterations.
 End of Minotr F.D. properties file   721 does not exist.
 End of Minotr F.D. properties file   722 does not exist.
 End of Minotr F.D. properties file   788 does not exist.
 Leave Link 1002 at Sat Nov 12 23:32:15 2022, MaxMem=   939524096 cpu:       133.2
 (Enter /Local/ce_dana/g09/l701.exe)
 Compute integral first derivatives.
 ... and contract with generalized density number  2.
 R6Disp: Adding Grimme-D3(BJ) dispersion energy 1st derivatives to the gradient.
   1 Symmetry operations used in ECPInt.
 ECPInt:  NShTT=     861 NPrTT=    2700 LenC2=     859 LenP2D=    2382.
 LDataN:  DoStor=T MaxTD1= 7 Len=  274
 Leave Link  701 at Sat Nov 12 23:32:15 2022, MaxMem=   939524096 cpu:         4.4
 (Enter /Local/ce_dana/g09/l702.exe)
 L702 exits ... SP integral derivatives will be done elsewhere.
 Leave Link  702 at Sat Nov 12 23:32:15 2022, MaxMem=   939524096 cpu:         0.1
 (Enter /Local/ce_dana/g09/l703.exe)
 Compute integral first derivatives, UseDBF=F ICtDFT=           0.
 Integral derivatives from FoFJK, PRISM(SPDF).
 Calling FoFJK, ICntrl=  10002127 FMM=F ISym2X=0 I1Cent= 0 IOpClX= 1 NMat=1 NMatS=1 NMatT=0.
 FoFJK:  IHMeth= 1 ICntrl=10002127 DoSepK=F KAlg= 0 I1Cent=   0 FoldK=F
 IRaf=         0 NMat=   1 IRICut=       1 DoRegI=T DoRafI=F ISym2E= 0.
 FoFCou: FMM=F IPFlag=           0 FMFlag=      100000 FMFlg1=         800
         NFxFlg=           0 DoJE=F BraDBF=F KetDBF=F FulRan=T
         wScrn=  0.000000 ICntrl=10002127 IOpCl=  1 I1Cent=           0 NGrid=           0
         NMat0=    1 NMatS0=      1 NMatT0=    0 NMatD0=    1 NMtDS0=    0 NMtDT0=    0
 Symmetry not used in FoFCou.
 Leave Link  703 at Sat Nov 12 23:32:18 2022, MaxMem=   939524096 cpu:        21.8
 (Enter /Local/ce_dana/g09/l716.exe)
 Dipole        = 7.81324246D-02-1.79305954D-01 9.06459478D-02
 ***** Axes restored to original set *****
 -------------------------------------------------------------------
 Center     Atomic                   Forces (Hartrees/Bohr)
 Number     Number              X              Y              Z
 -------------------------------------------------------------------
      1        6           0.000378471   -0.000941711    0.000236317
      2        7          -0.000604539    0.001147754   -0.000556671
      3        8          -0.000400906    0.000946137    0.000052383
      4        1           0.000021004   -0.000046388    0.000036326
      5        1           0.000605970   -0.001105792    0.000231644
 -------------------------------------------------------------------
 Cartesian Forces:  Max     0.001147754 RMS     0.000621009
 Leave Link  716 at Sat Nov 12 23:32:18 2022, MaxMem=   939524096 cpu:         0.1
 (Enter /Local/ce_dana/g09/l103.exe)

 GradGradGradGradGradGradGradGradGradGradGradGradGradGradGradGradGradGrad
 Berny optimization.
 FormGI is forming the generalized inverse of G from B-inverse, IUseBI=4.
 Internal  Forces:  Max     0.002296320 RMS     0.000770799
 Search for a local minimum.
 Step number   1 out of a maximum of   20 on scan point     2 out of    46
 All quantities printed in internal units (Hartrees-Bohrs-Radians)
 RMS Force = .36358D-04 SwitMx=.10000D-02 MixMth= 1
[...]
           R1           1.21073   1.21030   1.21000   1.20986   1.20990
           R2           1.08323   1.08329   1.08332   1.08330   1.08323
           R3           1.45493   1.45493   1.45493   1.45493   1.45493
           R4           0.96933   0.96890   0.96856   0.96828   0.96806
           A1         141.40030 141.10848 140.84062 140.61714 140.45274
           A2         122.54499 122.35397 122.09686 121.76959 121.38648
           A3         104.07118 103.70338 103.32508 102.95287 102.60273
           D1          -0.09474   0.26265   0.59473   0.87327   1.08105
           D2          59.99999  67.99999  75.99999  83.99999  91.99999
                          36        37        38        39        40
     Eigenvalues --  -169.06928-169.07036-169.07163-169.07301-169.07440
           R1           1.21009   1.21035   1.21060   1.21080   1.21094
           R2           1.08311   1.08293   1.08271   1.08246   1.08219
           R3           1.45493   1.45493   1.45493   1.45493   1.45493
           R4           0.96787   0.96768   0.96749   0.96728   0.96707
           A1         140.35437 140.32376 140.35804 140.44928 140.58421
           A2         120.98746 120.62851 120.35275 120.17157 120.07271
           A3         102.28910 102.01961 101.79554 101.61218 101.46522
           D1           1.21419   1.27067   1.26160   1.19338   1.08165
           D2          99.99999 107.99999 115.99999 123.99999 131.99999
                          41        42        43        44        45
     Eigenvalues --  -169.07575-169.07696-169.07797-169.07873-169.07921
           R1           1.21103   1.21108   1.21111   1.21112   1.21112
           R2           1.08192   1.08167   1.08146   1.08130   1.08130
           R3           1.45493   1.45493   1.45493   1.45493   1.45493
           R4           0.96685   0.96666   0.96650   0.96637   0.96637
           A1         140.74417 140.90782 141.05588 141.17345 141.17480
           A2         120.03370 120.03140 120.04630 120.06517 120.06278
           A3         101.35085 101.26540 101.20441 101.16373 101.16251
           D1           0.93649   0.76896   0.58654   0.39496   0.39477
           D2         139.99999 147.99999 155.99999 163.99999 171.99999
                          46
     Eigenvalues --  -169.07937
           R1           1.21113
           R2           1.08120
           R3           1.45493
           R4           0.96630
           A1         141.24904
           A2         120.07970
           A3         101.14056
           D1           0.19890
           D2         179.99999
 Largest change from initial coordinates is atom    4       0.576 Angstoms.
 Leave Link  103 at Sun Nov 13 00:15:36 2022, MaxMem=   939524096 cpu:         0.0
 (Enter /Local/ce_dana/g09/l202.exe)
                          Input orientation:                          
 ---------------------------------------------------------------------
 Center     Atomic      Atomic             Coordinates (Angstroms)
 Number     Number       Type             X           Y           Z
 ---------------------------------------------------------------------
      1          6           0       -0.935065   -0.678940    0.131666
      2          7           0        0.238683   -0.553671    0.402682
      3          8           0        0.801865    0.771774    0.609700
      4          1           0       -1.828882   -0.094082   -0.035742
      5          1           0        1.723399    0.554920    0.803304
 ---------------------------------------------------------------------
                    Distance matrix (angstroms):
                    1          2          3          4          5
     1  C    0.000000
     2  N    1.211126   0.000000
     3  O    2.313010   1.454934   0.000000
     4  H    1.081199   2.162929   2.843788   0.000000
     5  H    3.006816   1.895746   0.966299   3.707277   0.000000
 Stoichiometry    CH2NO(2)
 Framework group  C1[X(CH2NO)]
 Deg. of freedom     9
 Full point group                 C1      NOp   1
 RotChk:  IX=3 Diff= 5.05D-16
 Largest Abelian subgroup         C1      NOp   1
 Largest concise Abelian subgroup C1      NOp   1
                         Standard orientation:                         
 ---------------------------------------------------------------------
 Center     Atomic      Atomic             Coordinates (Angstroms)
 Number     Number       Type             X           Y           Z
 ---------------------------------------------------------------------
      1          6           0       -1.237809   -0.073345   -0.000353
      2          7           0       -0.164488    0.487732    0.000203
      3          8           0        1.065013   -0.290188   -0.000127
      4          1           0       -1.671546   -1.063730    0.001252
      5          1           0        1.729712    0.411175    0.000458
 ---------------------------------------------------------------------
 Rotational constants (GHZ):     85.9703338     11.7794154     10.3599287
 Leave Link  202 at Sun Nov 13 00:15:37 2022, MaxMem=   939524096 cpu:         0.0
 (Enter /Local/ce_dana/g09/l601.exe)
 Copying SCF densities to generalized density rwf, IOpCl= 1 IROHF=0.

 **********************************************************************

            Population analysis using the SCF density.

 **********************************************************************

 Orbital symmetries:
 Alpha Orbitals:
       Occupied  (A) (A) (A) (A) (A) (A) (A) (A) (A) (A) (A) (A)
       Virtual   (A) (A) (A) (A) (A) (A) (A) (A) (A) (A) (A) (A)
                 (A) (A) (A) (A) (A) (A) (A) (A) (A) (A) (A) (A)
                 (A) (A) (A) (A) (A) (A) (A) (A) (A) (A) (A) (A)
                 (A) (A) (A) (A) (A) (A) (A) (A) (A) (A) (A) (A)
                 (A) (A) (A) (A) (A) (A) (A) (A) (A) (A) (A) (A)
                 (A) (A) (A) (A) (A) (A) (A) (A) (A) (A) (A) (A)
                 (A) (A) (A) (A) (A) (A) (A) (A) (A) (A) (A) (A)
                 (A) (A) (A) (A) (A) (A) (A) (A) (A)
 Beta  Orbitals:
       Occupied  (A) (A) (A) (A) (A) (A) (A) (A) (A) (A) (A)
       Virtual   (A) (A) (A) (A) (A) (A) (A) (A) (A) (A) (A) (A)
                 (A) (A) (A) (A) (A) (A) (A) (A) (A) (A) (A) (A)
                 (A) (A) (A) (A) (A) (A) (A) (A) (A) (A) (A) (A)
                 (A) (A) (A) (A) (A) (A) (A) (A) (A) (A) (A) (A)
                 (A) (A) (A) (A) (A) (A) (A) (A) (A) (A) (A) (A)
                 (A) (A) (A) (A) (A) (A) (A) (A) (A) (A) (A) (A)
                 (A) (A) (A) (A) (A) (A) (A) (A) (A) (A) (A) (A)
                 (A) (A) (A) (A) (A) (A) (A) (A) (A) (A)
 The electronic state is 2-A.
 Alpha  occ. eigenvalues --  -19.78421 -14.91224 -10.68059  -1.22571  -1.02416
 Alpha  occ. eigenvalues --   -0.69681  -0.62657  -0.56588  -0.49406  -0.43055
 Alpha  occ. eigenvalues --   -0.36283  -0.30450
 Alpha virt. eigenvalues --    0.04891   0.07747   0.11164   0.16569   0.18144
 Alpha virt. eigenvalues --    0.26893   0.27494   0.32483   0.39388   0.46594
 Alpha virt. eigenvalues --    0.47293   0.48768   0.50670   0.53062   0.53881
 Alpha virt. eigenvalues --    0.58809   0.64971   0.68136   0.71215   0.77948
 Alpha virt. eigenvalues --    0.86161   0.89751   1.08303   1.19189   1.19760
 Alpha virt. eigenvalues --    1.31294   1.33273   1.40332   1.47460   1.50687
 Alpha virt. eigenvalues --    1.54280   1.56515   1.59170   1.71804   1.81835
 Alpha virt. eigenvalues --    1.87716   1.90502   2.10279   2.10952   2.16947
 Alpha virt. eigenvalues --    2.18655   2.25546   2.33107   2.34607   2.40016
 Alpha virt. eigenvalues --    2.42687   2.57918   2.68462   2.73919   2.78083
 Alpha virt. eigenvalues --    2.80530   2.82288   2.98552   3.01829   3.02877
 Alpha virt. eigenvalues --    3.04455   3.13871   3.24978   3.26205   3.48216
 Alpha virt. eigenvalues --    3.52687   3.63280   3.85828   4.00091   4.04591
 Alpha virt. eigenvalues --    4.08413   4.23310   4.49466   4.50946   4.67970
 Alpha virt. eigenvalues --    4.77093   4.94472   5.00802   5.17075   5.32883
 Alpha virt. eigenvalues --    5.36777   5.50932   5.55944   5.57586   5.61400
 Alpha virt. eigenvalues --    5.73137   5.92162   6.05224   6.36995   6.54800
 Alpha virt. eigenvalues --    6.70268   6.79169   6.90423   7.22536   7.58175
 Alpha virt. eigenvalues --   22.58917  32.45598  44.16105
  Beta  occ. eigenvalues --  -19.77601 -14.91269 -10.66223  -1.20757  -1.01034
  Beta  occ. eigenvalues --   -0.65762  -0.60923  -0.54629  -0.49306  -0.38527
  Beta  occ. eigenvalues --   -0.35339
  Beta virt. eigenvalues --   -0.03657   0.06139   0.08454   0.12131   0.17227
  Beta virt. eigenvalues --    0.19670   0.28757   0.30641   0.33369   0.40788
  Beta virt. eigenvalues --    0.47188   0.47261   0.49891   0.51497   0.53392
  Beta virt. eigenvalues --    0.53973   0.59505   0.65853   0.71236   0.73899
  Beta virt. eigenvalues --    0.78779   0.87036   0.91574   1.10200   1.20148
  Beta virt. eigenvalues --    1.20222   1.32981   1.33265   1.43415   1.47861
  Beta virt. eigenvalues --    1.52401   1.57258   1.58816   1.59475   1.72098
  Beta virt. eigenvalues --    1.82629   1.88669   1.90968   2.11263   2.11740
  Beta virt. eigenvalues --    2.18222   2.18693   2.26329   2.34261   2.34434
  Beta virt. eigenvalues --    2.40721   2.43952   2.58108   2.70070   2.75835
  Beta virt. eigenvalues --    2.81358   2.82624   2.83148   2.99504   3.03367
  Beta virt. eigenvalues --    3.07385   3.08169   3.18125   3.27390   3.30142
  Beta virt. eigenvalues --    3.49175   3.53987   3.64361   3.86936   4.00604
  Beta virt. eigenvalues --    4.05605   4.07902   4.24894   4.50128   4.51438
  Beta virt. eigenvalues --    4.68431   4.76539   4.94576   5.00704   5.18294
  Beta virt. eigenvalues --    5.33698   5.37027   5.51465   5.56177   5.58028
  Beta virt. eigenvalues --    5.62500   5.73878   5.93761   6.06024   6.38282
  Beta virt. eigenvalues --    6.55164   6.71727   6.80743   6.92086   7.23248
  Beta virt. eigenvalues --    7.59806  22.60658  32.45704  44.16733
          Condensed to atoms (all electrons):
               1          2          3          4          5
     1  C    5.090822   0.695749  -0.063528   0.348930   0.000741
     2  N    0.695749   6.361532   0.065681  -0.024560  -0.025788
     3  O   -0.063528   0.065681   8.069671  -0.006364   0.293745
     4  H    0.348930  -0.024560  -0.006364   0.513101   0.000243
     5  H    0.000741  -0.025788   0.293745   0.000243   0.395178
          Atomic-Atomic Spin Densities.
               1          2          3          4          5
     1  C    1.013594  -0.075608  -0.015804  -0.052160   0.001594
     2  N   -0.075608   0.015731  -0.068381   0.006367   0.008108
     3  O   -0.015804  -0.068381   0.299378  -0.009997  -0.003169
     4  H   -0.052160   0.006367  -0.009997   0.095269   0.000813
     5  H    0.001594   0.008108  -0.003169   0.000813  -0.007498
 Mulliken charges and spin densities:
               1          2
     1  C   -0.072714   0.871616
     2  N   -0.072613  -0.113783
     3  O   -0.359204   0.202027
     4  H    0.168649   0.040291
     5  H    0.335882  -0.000151
 Sum of Mulliken charges =  -0.00000   1.00000
 Mulliken charges and spin densities with hydrogens summed into heavy atoms:
               1          2
     1  C    0.095936   0.911907
     2  N   -0.072613  -0.113783
     3  O   -0.023323   0.201875
 Electronic spatial extent (au):  <R**2>=            136.1991
 Charge=             -0.0000 electrons
 Dipole moment (field-independent basis, Debye):
    X=              0.0063    Y=             -0.4800    Z=              0.0024  Tot=              0.4801
 Quadrupole moment (field-independent basis, Debye-Ang):
   XX=            -13.0410   YY=            -17.8205   ZZ=            -18.2536
   XY=              4.4034   XZ=             -0.0007   YZ=             -0.0008
 Traceless Quadrupole moment (field-independent basis, Debye-Ang):
   XX=              3.3308   YY=             -1.4488   ZZ=             -1.8819
   XY=              4.4034   XZ=             -0.0007   YZ=             -0.0008
 Octapole moment (field-independent basis, Debye-Ang**2):
  XXX=             12.4838  YYY=             -3.3975  ZZZ=              0.0025  XYY=              0.7823
  XXY=             -0.1440  XXZ=              0.0096  XZZ=              1.9725  YZZ=             -0.3634
  YYZ=              0.0026  XYZ=              0.0034
 Hexadecapole moment (field-independent basis, Debye-Ang**3):
 XXXX=           -107.9009 YYYY=            -33.8530 ZZZZ=            -17.3771 XXXY=             12.8828
 XXXZ=             -0.0075 YYYX=              4.5128 YYYZ=             -0.0026 ZZZX=             -0.0023
 ZZZY=              0.0002 XXYY=            -22.3984 XXZZ=            -24.7667 YYZZ=             -8.7583
 XXYZ=             -0.0030 YYXZ=             -0.0044 ZZXY=              0.8373
 N-N= 6.337067198985D+01 E-N=-5.237563270432D+02  KE= 1.683882749609D+02
                          Isotropic Fermi Contact Couplings
        Atom                 a.u.       MegaHertz       Gauss      10(-4) cm-1
     1  C(13)              0.40448     454.71585     162.25392     151.67688
     2  N(14)              0.52114     168.38335      60.08336      56.16664
     3  O(17)              0.11540     -69.95802     -24.96276     -23.33548
     4  H(1)               0.02455     109.72876      39.15395      36.60158
     5  H(1)              -0.00381     -17.01078      -6.06987      -5.67418
 --------------------------------------------------------
       Center         ----  Spin Dipole Couplings  ----
                      3XX-RR        3YY-RR        3ZZ-RR
 --------------------------------------------------------
     1   Atom        0.072216      0.316032     -0.388248
     2   Atom       -0.053702      0.059922     -0.006221
     3   Atom        0.337052      0.142287     -0.479339
     4   Atom        0.006656      0.038433     -0.045089
     5   Atom        0.028198      0.005224     -0.033422
 --------------------------------------------------------
                        XY            XZ            YZ
 --------------------------------------------------------
     1   Atom       -0.574419     -0.000130      0.000200
     2   Atom        0.214104     -0.000208     -0.000584
     3   Atom       -0.684290      0.000655     -0.000511
     4   Atom        0.026039     -0.000104     -0.000118
     5   Atom        0.024350      0.000050      0.000024
 --------------------------------------------------------


 ---------------------------------------------------------------------------------
              Anisotropic Spin Dipole Couplings in Principal Axis System
 ---------------------------------------------------------------------------------

       Atom             a.u.   MegaHertz   Gauss  10(-4) cm-1        Axes

              Baa    -0.3931   -52.749   -18.822   -17.595  0.7770  0.6294 -0.0051
     1 C(13)  Bbb    -0.3882   -52.099   -18.590   -17.378  0.0041  0.0031  1.0000
              Bcc     0.7813   104.848    37.412    34.973 -0.6294  0.7770  0.0002
 
              Baa    -0.2184    -8.423    -3.006    -2.810  0.7926 -0.6097 -0.0009
     2 N(14)  Bbb    -0.0062    -0.240    -0.086    -0.080  0.0023  0.0015  1.0000
              Bcc     0.2246     8.663     3.091     2.890  0.6097  0.7926 -0.0026
 
              Baa    -0.4793    34.685    12.376    11.570 -0.0015 -0.0008  1.0000
     3 O(17)  Bbb    -0.4515    32.671    11.658    10.898  0.6554  0.7553  0.0015
              Bcc     0.9309   -67.356   -24.034   -22.468  0.7553 -0.6554  0.0006
 
              Baa    -0.0451   -24.057    -8.584    -8.025  0.0015  0.0009  1.0000
     4 H(1)   Bbb    -0.0080    -4.246    -1.515    -1.416  0.8720 -0.4895 -0.0009
              Bcc     0.0530    28.304    10.099     9.441  0.4895  0.8720 -0.0016
 
              Baa    -0.0334   -17.832    -6.363    -5.948 -0.0008 -0.0001  1.0000
     5 H(1)   Bbb    -0.0102    -5.449    -1.944    -1.818 -0.5354  0.8446 -0.0003
              Bcc     0.0436    23.281     8.307     7.766  0.8446  0.5354  0.0007
 

 ---------------------------------------------------------------------------------

 No NMR shielding tensors so no spin-rotation constants.
 Leave Link  601 at Sun Nov 13 00:15:37 2022, MaxMem=   939524096 cpu:         3.2
 (Enter /Local/ce_dana/g09/l9999.exe)

 Test job not archived.
 1\1\GINC-TECH-WN226\Scan\UB2PLYPD3-FC\def2TZVP\C1H2N1O1(2)\ALONGD\13-N
 ov-2022\0\\#P opt=(modredundant, calcfc, noeigentest, maxStep=5) scf=(
 tight, direct) integral=(grid=ultrafine, Acc2E=12) guess=read ub2plypd
 3/def2tzvp IOp(2/9=2000) scf=xqc\\[Hydroxyimino]methyl\\0,2\C,-0.93506
 49412,-0.678940246,0.1316655834\N,0.2386832182,-0.5536707447,0.4026816
 746\O,0.8018649403,0.77177401,0.6096996709\H,-1.8288815519,-0.09408222
 13,-0.0357419115\H,1.7233992187,0.5549204837,0.8033039\\Version=ES64L-
 G09RevD.01\State=2-A\HF=-168.8895731,-168.8894319,-168.8890175,-168.88
 83594,-168.8874753,-168.8864136,-168.8852255,-168.8839687,-168.8827045
 ,-168.8814956,-168.8804053,-168.8794947,-168.8788158,-168.8784005,-168
 .8782536,-168.8783508,-168.8786447,-168.8790739,-168.8795705,-168.8800
 667,-168.8805004,-168.8808201,-168.8809893,-168.8809893,-168.8808201,-
 168.8805004,-168.8800668,-168.8795708,-168.8790747,-168.8786465,-168.8
 783536,-168.8782562,-168.8784004,-168.8788111,-168.8794868,-168.880397
 5,-168.8814906,-168.8827029,-168.8839695,-168.8852271,-168.8864148,-16
 8.8874758,-168.8883591,-168.8890225,-168.8894388,-168.8895746\MP2=-169
 .0793701,-169.0792091,-169.0787347,-169.0779708,-169.0769566,-169.0757
 456,-169.0744034,-169.0730053,-169.0716314,-169.0703629,-169.0692753,-
 169.0684321,-169.0678765,-169.0676265,-169.0676721,-169.0679767,-169.0
 684821,-169.0691158,-169.0697989,-169.0704537,-169.0710108,-169.071414
 5,-169.0716262,-169.0716262,-169.0714145,-169.0710107,-169.0704537,-16
 9.0697989,-169.0691159,-169.0684821,-169.0679767,-169.0676721,-169.067
 6265,-169.0678765,-169.068432,-169.0692754,-169.0703629,-169.0716314,-
 169.0730053,-169.0744034,-169.0757455,-169.0769566,-169.0779708,-169.0
 787349,-169.079209,-169.0793699\S2=0.776507,0.776474,0.776379,0.776227
 ,0.776021,0.775773,0.775498,0.77521,0.774926,0.774661,0.774422,0.77420
 6,0.774012,0.773841,0.77371,0.773636,0.773631,0.77369,0.773794,0.77391
 8,0.774033,0.774122,0.77417,0.77417,0.774123,0.774035,0.773918,0.77379
 5,0.773692,0.773633,0.773638,0.773711,0.773842,0.774012,0.774208,0.774
 423,0.774662,0.774926,0.775209,0.775497,0.775773,0.776021,0.776227,0.7
 7638,0.776475,0.776506\S2-1=0.,0.,0.,0.,0.,0.,0.,0.,0.,0.,0.,0.,0.,0.,
 0.,0.,0.,0.,0.,0.,0.,0.,0.,0.,0.,0.,0.,0.,0.,0.,0.,0.,0.,0.,0.,0.,0.,0
 .,0.,0.,0.,0.,0.,0.,0.,0.\S2A=0.750402,0.7504,0.750397,0.750392,0.7503
 85,0.750376,0.750367,0.750357,0.750347,0.750337,0.750328,0.750321,0.75
 0315,0.750313,0.750312,0.750315,0.75032,0.750327,0.750334,0.750341,0.7
 50347,0.750351,0.750354,0.750354,0.750352,0.750347,0.750341,0.750335,0
 .750327,0.750321,0.750315,0.750313,0.750313,0.750315,0.75032,0.750328,
 0.750337,0.750347,0.750357,0.750367,0.750376,0.750385,0.750392,0.75039
 7,0.750401,0.750402\RMSD=4.720e-09,3.669e-09,2.330e-09,3.854e-09,9.815
 e-09,5.944e-09,4.639e-09,5.457e-09,7.319e-09,8.413e-09,3.921e-09,4.818
 e-09,5.566e-09,6.093e-09,6.271e-09,5.465e-09,6.556e-09,6.352e-09,5.167
 e-09,3.134e-09,9.589e-09,7.586e-09,9.322e-09,4.206e-09,8.644e-09,6.977
 e-09,5.626e-09,3.532e-09,4.351e-09,3.273e-09,6.716e-09,9.310e-09,6.141
 e-09,5.843e-09,5.235e-09,4.729e-09,4.146e-09,3.521e-09,8.639e-09,5.810
 e-09,4.559e-09,5.023e-09,9.412e-09,6.902e-09,3.445e-09,1.462e-09\PG=C0
 1 [X(C1H2N1O1)]\\@


 It is also a good rule not to put too much confidence in
 experimental results until they have been confirmed by
 Theory.
                             -- Sir Arthur Eddington
 Job cpu time:       0 days  7 hours  3 minutes 17.3 seconds.
 File lengths (MBytes):  RWF=   1454 Int=      0 D2E=      0 Chk=      4 Scr=      1
 Normal termination of Gaussian 09 at Sun Nov 13 00:15:37 2022.
