
 Working directory              : /var/lib/condor/execute/dir_12120/molpro.NAFuU1AKaN/
 Global scratch directory       : /var/lib/condor/execute/dir_12120/molpro.NAFuU1AKaN/
 Wavefunction directory         : /srv01/technion/alongd/wfu/
 Main file repository           : /var/lib/condor/execute/dir_12120/molpro.NAFuU1AKaN/

 id        : dana

 Nodes     nprocs
 tech-wn004    9
 Distribution of processes:   nprocs(total)=   10   nprocs(compute)=    9   nprocs(helper)=    1
 GA implementation: MPI file
 GA implementation (serial work in mppx): MPI file

 Using customized tuning parameters: mindgm=1; mindgv=20; mindgc=4; mindgr=1; noblas=0; minvec=7
 default implementation of scratch files=sf  


 Variables initialized (1009), CPU time= 0.01 sec
 ***,[Hydroxyimino]methyl
 memory,90,m;
 file,1,file1.int                                                                !allocate permanent integral file
 file,2,file2.wfu                                                                !allocate permanent wave-function (dump) file
 
 geometry={angstrom;
 C      -0.95896200   -0.52629100   -0.06633600
 N       0.16750300   -0.09855900   -0.18865700
 O       0.84289500    0.51227800    0.94604900
 H      -1.74506400   -0.63440100    0.66801500
 H       1.69362900    0.74697400    0.55253800}
 
 basis=cc-pvtz-f12
 
 
 
 int;
 {hf;
 maxit,1000;
 wf,spin=1,charge=0;}
 
 uccsd(t)-f12;
 
 
 
 Commands initialized (810), CPU time= 0.02 sec, 661 directives.
 Default parameters read. Elapsed time= 0.19 sec

 Checking input...
 Passed
1


                                         ***  PROGRAM SYSTEM MOLPRO  ***
                                       Copyright, TTI GmbH Stuttgart, 2015
                                    Version 2021.2 linked Jul 16 2021 12:17:16


 **********************************************************************************************************************************
 LABEL *   [Hydroxyimino]methyl                                                          
  64 bit mpp version                                                                     DATE: 12-Nov-22          TIME: 21:57:03  
 **********************************************************************************************************************************

 SHA1:             dade016a989826d9d859d6207854b99675d53db3
 **********************************************************************************************************************************

 Memory per process:        90 MW
 Total memory per node:    810 MW

 GA preallocation disabled
 GA check disabled

 Variable memory set to 90.0 MW



 Permanent file  1  file1.int        assigned.  Implementation=df  
 Permanent file  2  file2.wfu        assigned.  Implementation=df    Size= 22.26 MB


 PROGRAM * RESTART 


 Reading variables from file 2

 _FNUC           =      0.00000000
 _BASIS          =    CC-PVTZ-F12
 _NELEC          =     24.00000000
 _PROGRAM        =    CCSD(T)-F12
 _DMX_SCF        =      0.07479082
 _DMY_SCF        =     -0.20642464
 _DMZ_SCF        =      0.69249554
 _HOMO           =     12.10000000
 _EHOMO          =     -0.39492431
 _LUMO           =     13.10000000
 _ELUMO          =      0.05069212
 _EMP2           =   -133.66937515
 _EMP2_SING      =     -0.37105387
 _EMP2_TRIP      =     -0.19792269
 _EMP2_SINGLES   =      0.00000000
 _EMP2_SCS       =   -133.66881512
 _ECSING(1:2)    =     -0.44390169    -0.43569170
 _ECTRIP(1:2)    =     -0.18325662    -0.18271604
 _ECTRIPAB(1:2)  =     -0.04604182    -0.04589467
 _ECTRIPAA(1:2)  =     -0.05241435    -0.05224119
 _ECTRIPBB(1:2)  =     -0.04194683    -0.04182579
 _ECSINGLES      =     -0.00459279
 _EF12           =     -0.04588765
 _EF12_SING      =     -0.04149219
 _EF12_TRIP      =     -0.00439547
 _ECSING_F12(1:2)=     -0.03162856    -0.02563115
 _ECTRIP_F12(1:2)=     -0.00354597    -0.00310462
 _ECTRIPAB_F12(1:2)   =     -0.00118323    -0.00103609
 _ECTRIPAA_F12(1:2)   =     -0.00142865    -0.00125550
 _ECTRIPBB_F12(1:2)   =     -0.00093408    -0.00081304
 _EF12_RHFRELAX  =     -0.00136291
 _EF12_CONVSUPPRS=     -0.00043897
 _EF12_CONVSUPPRT=     -0.00013803
 _EF12_SINGLES   =     -0.00136291
 _EF12_SCS       =     -0.05252558
 _EF12_STRONG    =     -0.04588765
 _EF12_CLOSE     =      0.00000000
 _EF12_WEAK      =      0.00000000
 _EF12_DIST      =      0.00000000
 _EF12S          =     -0.04562165
 _EF12S_SING     =     -0.04136844
 _EF12S_TRIP     =     -0.00425322
 _EF12S_SCS      =     -0.05228857
 _EF12S_STRONG   =     -0.04562165
 _EF12S_CLOSE    =      0.00000000
 _EF12S_WEAK     =      0.00000000
 _EF12S_DIST     =      0.00000000
 _EF12D          =     -0.04699339
 _EF12D_SING     =     -0.04271552
 _EF12D_TRIP     =     -0.00427787
 _EF12D_SCS      =     -0.05392041
 _EF12D_STRONG   =     -0.04699339
 _EF12D_CLOSE    =      0.00000000
 _EF12D_WEAK     =      0.00000000
 _EF12D_DIST     =      0.00000000
 _EF12F          =     -0.03703261
 _EF12F_SING     =     -0.03336182
 _EF12F_TRIP     =     -0.00367078
 _EF12F_SCS      =     -0.04231889
 _ENERGC(1:2)    =   -133.72755713  -133.71880657
 _ENERG_CC(1:2)  =      0.00000000     0.00000000
 _ENERG_CV(1:2)  =      0.00000000     0.00000000
 _ENERG_VV(1:2)  =     -0.62715855    -0.61840798
 _ENERGR         =   -133.10039859
 _ENERGT(1:3)    =   -133.74405326  -133.74467574  -133.74378284
 _ENERGY(1:2)    =   -133.75280382  -133.74405326
 _ENERGY_METHOD  =    CCSD(T)-F12
 _ENERGY_BASIS   =    cc-pVTZ-F12
 _ENUC           =     76.28151009
 _IPROC_MPP      =      0.00000000
 _IPROC_MPPX     =      0.00000000
 _ORBITAL        =   2102.20000000
 _ECDIAG(1:2)    =     -0.11233461    -0.11038206
 _EPDIAG(1:2)    =     -0.11233461    -0.11038206
 _STATUS         =      1.00000000
 _T1DIAG         =      0.00915715
 _D1DIAG         =      0.02076602
 _D2DIAG         =      0.15297523
 !DFBASIS_MP2    =    CC-PVTZ-F12-MP2FIT
 !DFBASIS_F12K   =    VTZ-F12-JKFIT
 !RIBASIS_MP2    =    CC-PVTZ-F12_OPT
 !RIBASIS_EXCH   =     
 _METHODC        =    CCSD-F12a
 _METHODC        =    CCSD-F12b
 _METHODT        =    CCSD(T)-F12b
 _METHODT        =    CCSD[T]-F12b
 _METHODT        =    CCSD-T-F12b
 _OUTPUT         =    /storage/ce_dana/alongd/runs/ARC/arkane_examples/thermo3/calcs/Species/Ethynol/sp_a48600/input.out
 _PGROUP         =    C1  
 _TIME           =    20:17:33
 _ANSATZ         =    F12/3C(FIX)
 _SVDDEL         =      0.00000000
 _SYM_CATION     =      1.00000000

 Geometry written to block  1 of record 701


 **********************************************************************************************************************************
 DATASETS  * FILE   NREC   LENGTH (MB)   RECORD NAMES
              1       2       11.48       500      701   
                                          VAR     GEOM   

              2      14       22.26       500      610      700     1000      520     2100     7360     7350      701     1001   
                                          VAR    BASINP    GEOM     BASIS   MCVARS     RHF    F12ABS    EF12     GEOM     BASIS   
                                         2101      701(1)  1002     2102   
                                          RHF     GEOM     BASIS     RHF  

 PROGRAMS   *        TOTAL   RESTART
 CPU TIMES  *         0.33      0.09
 REAL TIME  *         0.47 SEC
 DISK USED  *        33.74 MB (local),      303.66 MB (total)
 **********************************************************************************************************************************

 Geometry recognized as XYZ

 SETTING BASIS          =    CC-PVTZ-F12


 Using spherical harmonics

 Library entry C      S cc-pVTZ-F12          selected for orbital group  1
 Library entry C      P cc-pVTZ-F12          selected for orbital group  1
 Library entry C      D cc-pVTZ-F12          selected for orbital group  1
 Library entry C      F cc-pVTZ-F12          selected for orbital group  1
 Library entry N      S cc-pVTZ-F12          selected for orbital group  2
 Library entry N      P cc-pVTZ-F12          selected for orbital group  2
 Library entry N      D cc-pVTZ-F12          selected for orbital group  2
 Library entry N      F cc-pVTZ-F12          selected for orbital group  2
 Library entry O      S cc-pVTZ-F12          selected for orbital group  3
 Library entry O      P cc-pVTZ-F12          selected for orbital group  3
 Library entry O      D cc-pVTZ-F12          selected for orbital group  3
 Library entry O      F cc-pVTZ-F12          selected for orbital group  3
 Library entry H      S cc-pVTZ-F12          selected for orbital group  4
 Library entry H      P cc-pVTZ-F12          selected for orbital group  4
 Library entry H      D cc-pVTZ-F12          selected for orbital group  4


 PROGRAM * SEWARD (Integral evaluation for generally contracted gaussian basis sets)     Author: Roland Lindh, 1990

 Geometry written to block  1 of record 702


 Point group  C1  



 ATOMIC COORDINATES

 NR  ATOM    CHARGE       X              Y              Z

   1  C       6.00   -1.812175544   -0.994545852   -0.125356872
   2  N       7.00    0.316534795   -0.186249517   -0.356510061
   3  O       8.00    1.592840702    0.968065120    1.787773510
   4  H       1.00   -3.297693030   -1.198844143    1.262365397
   5  H       1.00    3.200494967    1.411576282    1.044145493

 Bond lengths in Bohr (Angstrom)

 1-2  2.288707598  1-4  2.043103788  2-3  2.749427410  3-5  1.825989325
     ( 1.211131903)     ( 1.081163964)     ( 1.454934329)     ( 0.966271938)

 Bond angles

  1-2-3  120.08349555   2-1-4  141.27651720   2-3-5  101.13161940

 NUCLEAR CHARGE:                   23
 NUMBER OF PRIMITIVE AOS:         258
 NUMBER OF SYMMETRY AOS:          229
 NUMBER OF CONTRACTIONS:          195   (  195A   )
 NUMBER OF INNER CORE ORBITALS:     0   (    0A   )
 NUMBER OF OUTER CORE ORBITALS:     3   (    3A   )
 NUMBER OF VALENCE ORBITALS:       14   (   14A   )

 MOLECULE CHANGED: INITIALIZING OCCUPATION AND DUMP RECORDS


 NUCLEAR REPULSION ENERGY   63.37181514


 Eigenvalues of metric

         1 0.108E-03 0.198E-03 0.221E-03 0.365E-03 0.447E-03 0.511E-03 0.523E-03 0.532E-03


 Contracted 2-electron integrals neglected if value below      1.0D-11
 AO integral compression algorithm  1   Integral accuracy      1.0D-11

     880.280 MB (compressed) written to integral file ( 50.4%)

     Node minimum: 83.624 MB, node maximum: 114.033 MB


 NUMBER OF SORTED TWO-ELECTRON INTEGRALS:   20291634.     BUFFER LENGTH:  32768
 NUMBER OF SEGMENTS:   2  SEGMENT LENGTH:   15997995      RECORD LENGTH: 524288

 Memory used in sort:      16.56 MW

 SORT1 READ   218474958. AND WROTE    19657128. INTEGRALS IN     58 RECORDS. CPU TIME:     3.95 SEC, REAL TIME:     4.31 SEC
 SORT2 READ   176996170. AND WROTE   182605605. INTEGRALS IN   3906 RECORDS. CPU TIME:     0.37 SEC, REAL TIME:     0.62 SEC

 Node minimum:    20281019.  Node maximum:    20298006. integrals

 OPERATOR DM      FOR CENTER  0  COORDINATES:    0.000000    0.000000    0.000000


 **********************************************************************************************************************************
 DATASETS  * FILE   NREC   LENGTH (MB)   RECORD NAMES
              1      19       30.28       500      701      610      702      900      950      970     1003      129      960   
                                          VAR     GEOM    BASINP    GEOM    SYMINP    ZMAT    AOBASIS   BASIS     P2S    ABASIS    
                                         1100     1400     1410     1200     1210     1080     1600     1650     1700   
                                           S        T        V       H0       H01     AOSYM     SMH    MOLCAS    OPER   

              2      16       23.24       500      610      700     1000      520     2100     7360     7350      701     1001   
                                          VAR    BASINP    GEOM     BASIS   MCVARS     RHF    F12ABS    EF12     GEOM     BASIS   
                                         2101      701(1)  1002     2102      702     1003   
                                          RHF     GEOM     BASIS     RHF     GEOM     BASIS   

 PROGRAMS   *        TOTAL       INT   RESTART
 CPU TIMES  *         5.59      5.25      0.09
 REAL TIME  *         6.72 SEC
 DISK USED  *        53.59 MB (local),        3.27 GB (total)
 GA USED    *         0.00 MB       (max)       0.00 MB       (current)
 **********************************************************************************************************************************


 Program * Restricted Hartree-Fock

 Orbital guess generated from atomic densities. Full valence occupancy:   17

 Initial alpha occupancy:  12
 Initial beta  occupancy:  11

 NELEC=   23   SYM=1   MS2= 1   THRE=1.0D-08   THRD=3.2D-06   THRG=3.2D-06  HFMA2=F  DIIS_START=2   DIIS_MAX=10   DIIS_INCORE=F

 Level shifts:    0.00 (CLOSED)    0.00 (OPEN)    0.30 (GAP_MIN)

 ITER           ETOT              DE          GRAD        DDIFF     DIIS  NEXP   TIME(IT)  TIME(TOT)  DIAG
   1     -168.21457886    -168.21457886     0.00D+00     0.47D-01     0     0       0.21      0.35    start
   2     -168.24701088      -0.03243202     0.39D-02     0.39D-02     1     0       0.16      0.51    diag2
   3     -168.25740017      -0.01038929     0.22D-02     0.16D-02     2     0       0.17      0.68    diag2
   4     -168.26176955      -0.00436939     0.66D-03     0.72D-03     3     0       0.20      0.88    diag2
   5     -168.26433023      -0.00256068     0.37D-03     0.55D-03     4     0       0.17      1.05    diag2
   6     -168.26549234      -0.00116211     0.20D-03     0.45D-03     5     0       0.19      1.24    diag2
   7     -168.26570290      -0.00021055     0.12D-03     0.22D-03     6     0       0.18      1.42    diag2
   8     -168.26572916      -0.00002626     0.48D-04     0.83D-04     7     0       0.19      1.61    diag2
   9     -168.26573285      -0.00000369     0.18D-04     0.32D-04     8     0       0.15      1.76    diag2
  10     -168.26573333      -0.00000047     0.59D-05     0.16D-04     9     0       0.17      1.93    diag2/orth
  11     -168.26573335      -0.00000002     0.13D-05     0.30D-05     9     0       0.18      2.11    diag2
  12     -168.26573335      -0.00000000     0.43D-06     0.81D-06     9     0       0.16      2.27    diag2
  13     -168.26573335      -0.00000000     0.15D-06     0.16D-06     0     0       0.17      2.44    diag

 Final alpha occupancy:  12
 Final beta  occupancy:  11

 !RHF STATE 1.1 Energy               -168.265733349327
  RHF One-electron energy            -355.141514018245
  RHF Two-electron energy             123.503965530308
  RHF Kinetic energy                  168.050882312168
  RHF Nuclear energy                   63.371815138609
  RHF Virial quotient                  -1.001278488004

 !RHF STATE 1.1 Dipole moment          -0.18726881    -0.03330868     0.14918982
 Dipole moment /Debye                  -0.47598984    -0.08466222     0.37920270

 Orbital energies:

           1.1          2.1          3.1          4.1          5.1          6.1          7.1          8.1          9.1         10.1
    -20.615165   -15.637811   -11.294212    -1.413477    -1.189036    -0.793194    -0.714056    -0.668743    -0.597939    -0.490960

          11.1         12.1         13.1         14.1
     -0.439898    -0.424595     0.057742     0.061844


 HOMO     12.1    -0.424595 =     -11.5538eV
 LUMO     13.1     0.057742 =       1.5712eV
 LUMO-HOMO         0.482337 =      13.1251eV

 Orbitals saved in record  2103.2


 **********************************************************************************************************************************
 DATASETS  * FILE   NREC   LENGTH (MB)   RECORD NAMES
              1      19       30.28       500      701      610      702      900      950      970     1003      129      960   
                                          VAR     GEOM    BASINP    GEOM    SYMINP    ZMAT    AOBASIS   BASIS     P2S    ABASIS    
                                         1100     1400     1410     1200     1210     1080     1600     1650     1700   
                                           S        T        V       H0       H01     AOSYM     SMH    MOLCAS    OPER   

              2      17       26.78       500      610      700     1000      520     2100     7360     7350      701     1001   
                                          VAR    BASINP    GEOM     BASIS   MCVARS     RHF    F12ABS    EF12     GEOM     BASIS   
                                         2101      701(1)  1002     2102      702     1003     2103   
                                          RHF     GEOM     BASIS     RHF     GEOM     BASIS     RHF  

 PROGRAMS   *        TOTAL    HF-SCF       INT   RESTART
 CPU TIMES  *         8.11      2.51      5.25      0.09
 REAL TIME  *         9.64 SEC
 DISK USED  *        62.38 MB (local),        3.35 GB (total)
 GA USED    *         0.00 MB       (max)       0.00 MB       (current)
 **********************************************************************************************************************************


 PROGRAM * CCSD (Unrestricted open-shell coupled cluster)     Authors: C. Hampel, H.-J. Werner, 1991, M. Deegan, P.J. Knowles, 1992

                           UCCSD-F12 implementation by G. Knizia and H.-J. Werner, 2008

                   Density fitting integral evaluation by F.R. Manby, 2003,2007, G. Knizia, 2010


 Basis set VTZ-F12/JKFIT generated.      Number of basis functions:   404 
 Basis set CC-PVTZ-F12/OPTRI generated.  Number of basis functions:   307 
 Basis set CC-PVTZ-F12/MP2FIT generated. Number of basis functions:   410 

 Convergence thresholds:  THRVAR = 1.00D-08  THRDEN = 1.00D-06

 CCSD(T)     terms to be evaluated (factor= 1.000)


 Number of core orbitals:           3 (   3 )
 Number of closed-shell orbitals:   8 (   8 )
 Number of active  orbitals:        1 (   1 )
 Number of external orbitals:     183 ( 183 )

 For full I/O caching in triples, increase memory by 17.48 Mwords to 107.53 Mwords.

 Number of N-1 electron functions:              17
 Number of N-2 electron functions:             136
 Number of singly external CSFs:              3128
 Number of doubly external CSFs:           3515136
 Total number of CSFs:                     3518264

 Molecular orbitals read from record     2103.2  Type=RHF/CANONICAL  

 Integral transformation finished. Total CPU:   4.38 sec, npass=  1  Memory used:  40.96 MW

 Geminal basis:    OPTFULL  GEM_TYPE=SLATER  BETA=1.0  NGEM=6

 Optimizing Gaussian exponents for each gem_beta

 Geminal optimization for beta= 1.0000
 Weight function:   m=0, omega= 1.4646

 Augmented Hessian optimization of geminal fit. Trust ratio= 0.40000
 Convergence reached after   2 iterations. Final gradient= 8.66D-16, Step= 4.23D-06, Delta= 1.28D-09

 Alpha:                 0.19532     0.81920     2.85917     9.50073    35.69989   197.79328
 Coeff:                 0.27070     0.30552     0.18297     0.10986     0.06810     0.04224


 WFN_F12=FIX,EG    DECOUPLE_EXPL=F   HYBRID=0    NOX=F   SEMIINT_F12=T   CORE_SINGLES=F


 AO(A)-basis ORBITAL           loaded. Number of functions:     195
 RI(R)-basis CC-PVTZ-F12/OPTRI loaded. Number of functions:     307
 DF-basis VTZ-F12/JKFIT        loaded. Number of functions:     404

 Screening thresholds:   THRAO=  1.00D-10  THRMO=  1.00D-09  THRPROD=  1.00D-09
                         THRSW=  1.00D-05  THROV=  1.00D-12  THRAOF12= 1.00D-08

 CPU time for one-electron matrices               0.43 sec

 Construction of ABS:
 Pseudo-inverse stability          4.49E-12
 Smallest eigenvalue of S          2.29E-04  (threshold= 1.00E-08)
 Ratio eigmin/eigmax               3.37E-05  (threshold= 1.00E-09)
 Smallest eigenvalue of S kept     2.29E-04  (threshold= 2.29E-04, 0 functions deleted, 307 kept)

 Construction of CABS:
 Pseudo-inverse stability          2.06E-10
 Smallest eigenvalue of S          5.74E-07  (threshold= 1.00E-08)
 Ratio eigmin/eigmax               5.74E-07  (threshold= 1.00E-09)
 Smallest eigenvalue of S kept     5.74E-07  (threshold= 5.74E-07, 0 functions deleted, 307 kept)

 CPU time for basis constructions                 0.05 sec
 Fock operators(MO) rebuilt from dump record.
 CPU time for Fock operator transformation        0.11 sec

                                      TOTAL          ALPHA          BETA    
  Singles Contributions MO        -0.002895369   -0.001460312   -0.001435057
  Singles Contributions CABS      -0.001515389   -0.000792979   -0.000722410
  Pure DF-RHF relaxation          -0.001510501

 CPU time for RHF CABS relaxation                 0.07 sec
 CPU time for singles (tot)                       0.18 sec

 AO(A)-basis ORBITAL           loaded. Number of functions:     195
 RI(R)-basis CC-PVTZ-F12/OPTRI loaded. Number of functions:     307
 DF-basis CC-PVTZ-F12/MP2FIT   loaded. Number of functions:     410

 Screening thresholds:   THRAO=  1.00D-10  THRMO=  1.00D-09  THRPROD=  1.00D-09
                         THRSW=  1.00D-05  THROV=  1.00D-12  THRAOF12= 1.00D-08

 CPU time for transformed integrals               1.94 sec
 CPU time for F12 matrices                        1.85 sec

 Diagonal F12 ansatz with fixed amplitudes:   TS= 0.5000  TT= 0.2500  TN= 0.3750

 ITER.     SQ.NORM      CORR.ENERGY   TOTAL ENERGY  ENERGY CHANGE      VAR         CPU   MICRO    DIIS
   1      1.17499981    -0.65759996  -168.92484382    -6.5911E-01   1.73E-01      0.18  1  1  1   0  0
   2      1.17443878    -0.65717905  -168.92442290     4.2091E-04   1.75E-04      0.60  0  0  0   1  1
   3      1.17480913    -0.65753650  -168.92478035    -3.5745E-04   1.58E-06      1.03  0  0  0   2  2
   4      1.17481278    -0.65753914  -168.92478299    -2.6428E-06   1.15E-08      1.59  0  0  0   3  3
   5      1.17481385    -0.65753916  -168.92478301    -1.9959E-08   1.06E-10      2.28  0  0  0   4  4

 - - Continuing with F12/conv. amplitude coupling turned on.

   6      1.17477936    -0.65775712  -168.92500097    -2.1798E-04   5.22E-05      2.78  1  1  1   1  1
   7      1.17477898    -0.65775747  -168.92500132    -3.5297E-07   2.07E-09      3.29  1  1  1   2  2

 CPU time for iterative RMP2-F12                  3.29 sec


 DF-RMP2-F12 doubles corrections:
 - - - - - - - - - - - - - - - - 
  Approx.                             TOTAL           A-B            A-A            B-B    
  RMP2-F12/3C(FIX)                -0.050786236   -0.047017609   -0.002070101   -0.001698525
  RMP2-F12/3*C(FIX)               -0.050567927   -0.046937718   -0.001997122   -0.001633087
  RMP2-F12/3*C(DX)                -0.050738978   -0.047093437   -0.002004633   -0.001640908
  RMP2-F12/3*C(FIX,DX)            -0.053593988   -0.049734811   -0.002113415   -0.001745761

 DF-RMP2-F12 doubles energies:
 - - - - - - - - - - - - - - -
  Approx.                             TOTAL           A-B            A-A            B-B    
  RMP2                            -0.604075868   -0.452928807   -0.080946096   -0.070200965
  RMP2-F12/3C(FIX)                -0.654862103   -0.499946416   -0.083016197   -0.071899490
  RMP2-F12/3*C(FIX)               -0.654643795   -0.499866525   -0.082943218   -0.071834052
  RMP2-F12/3*C(DX)                -0.654814846   -0.500022243   -0.082950729   -0.071841873
  RMP2-F12/3*C(FIX,DX)            -0.657669855   -0.502663618   -0.083059511   -0.071946726


  Reference energy                   -168.265733349328
  CABS relaxation correction to RHF    -0.001510501326
  New reference energy               -168.267243850654

  RMP2-F12 singles (MO) energy         -0.002895369342
  RMP2-F12 pair energy                 -0.654862103200
  RMP2-F12 correlation energy          -0.657757472542

 !RMP2-F12/3C(FIX) energy            -168.925001323196

 Starting RMP2 calculation, locsing= 0

 ITER.      SQ.NORM     CORR.ENERGY   TOTAL ENERGY   ENERGY CHANGE        DEN1      VAR(S)    VAR(P)  DIIS     TIME
   1      1.17239049    -0.60450179  -168.87023514    -0.60450179    -0.00226596  0.43D-04  0.89D-03  1  1    13.20
   2      1.17469655    -0.60696116  -168.87269451    -0.00245937    -0.00000818  0.16D-05  0.35D-05  2  2    13.66
   3      1.17481106    -0.60702516  -168.87275851    -0.00006400    -0.00000009  0.64D-07  0.20D-07  3  3    14.03
   4      1.17481554    -0.60702595  -168.87275930    -0.00000079    -0.00000000  0.16D-08  0.17D-09  4  4    14.47

 Norm of t1 vector:      0.04819901      S-energy:    -0.00289517      T1 diagnostic:  0.00114879
 Norm of t2 vector:      0.41532204      P-energy:    -0.60413078
                                         Alpha-Beta:  -0.45314264
                                         Alpha-Alpha: -0.08085573
                                         Beta-Beta:   -0.07013240

 Spin contamination <S**2-Sz**2-Sz>     0.00042576
  Reference energy                   -168.265733349327
  CABS singles correction              -0.001510501326
  New reference energy               -168.267243850654
  RHF-RMP2 correlation energy          -0.607025949014
 !RHF-RMP2 energy                    -168.874269799668

  F12/3C(FIX) correction               -0.050786235614
  RHF-RMP2-F12 correlation energy      -0.657812184628
 !RHF-RMP2-F12 total energy          -168.925056035282

 Starting UCCSD calculation

 ITER.      SQ.NORM     CORR.ENERGY   TOTAL ENERGY   ENERGY CHANGE        DEN1      VAR(S)    VAR(P)  DIIS     TIME
   1      1.16762716    -0.58672305  -168.85245640    -0.58672305    -0.01878717  0.50D-02  0.31D-02  1  1    19.43
   2      1.18581819    -0.60287928  -168.86861263    -0.01615624    -0.00250239  0.53D-03  0.80D-03  2  2    23.80
   3      1.19804153    -0.60672664  -168.87245999    -0.00384736    -0.00064410  0.49D-03  0.10D-03  3  3    28.21
   4      1.20803375    -0.60928871  -168.87502206    -0.00256208    -0.00022738  0.16D-03  0.40D-04  4  4    32.66
   5      1.21689188    -0.61038722  -168.87612057    -0.00109851    -0.00008747  0.75D-04  0.12D-04  5  5    37.05
   6      1.22438786    -0.61095666  -168.87669001    -0.00056943    -0.00002428  0.17D-04  0.45D-05  6  6    41.24
   7      1.22890787    -0.61127160  -168.87700495    -0.00031494    -0.00000621  0.39D-05  0.14D-05  6  1    45.79
   8      1.22983946    -0.61129006  -168.87702341    -0.00001846    -0.00000197  0.12D-05  0.46D-06  6  3    50.43
   9      1.23065942    -0.61135894  -168.87709229    -0.00006888    -0.00000053  0.34D-06  0.12D-06  6  2    54.96
  10      1.23082486    -0.61135476  -168.87708811     0.00000418    -0.00000014  0.77D-07  0.33D-07  6  5    59.74
  11      1.23097910    -0.61136473  -168.87709808    -0.00000997    -0.00000003  0.15D-07  0.60D-08  6  4    64.46
  12      1.23102320    -0.61136346  -168.87709681     0.00000127    -0.00000001  0.35D-08  0.13D-08  6  6    68.87
  13      1.23102924    -0.61136265  -168.87709600     0.00000081    -0.00000000  0.12D-08  0.31D-09  6  1    73.50

 Norm of t1 vector:      0.20071942      S-energy:    -0.00416776      T1 diagnostic:  0.03137318
                                                                       D1 diagnostic:  0.09998198
                                                                       D2 diagnostic:  0.18722006 (internal)
 Norm of t2 vector:      0.43673900      P-energy:    -0.60719488
                                         Alpha-Beta:  -0.47375512
                                         Alpha-Alpha: -0.07217966
                                         Beta-Beta:   -0.06126010

 Singles amplitudes (print threshold =  0.500E-01):

         I         SYM. A    A   T(IA) [Beta-Beta]

         7         1         1      0.13859427

 Spin contamination <S**2-Sz**2-Sz>     0.00177973

 For full I/O caching in triples, increase memory by 23.62 Mwords to 113.67 Mwords.


 RESULTS
 =======

  Reference energy                   -168.265733349327
  CABS relaxation correction to RHF    -0.001510501326
  New reference energy               -168.267243850654

  F12 corrections for ansatz 3C(FIX) added to UCCSD energy. Coupling mode: 15

  UCCSD-F12a singles energy            -0.004167764090
  UCCSD-F12a pair energy               -0.657234590656
  UCCSD-F12a correlation energy        -0.661402354746
  Triples (T) contribution             -0.029783764199
  Total correlation energy             -0.691186118946

  RHF-UCCSD-F12a energy              -168.928646205400
  RHF-UCCSD[T]-F12a energy           -168.960515224471
  RHF-UCCSD-T-F12a energy            -168.957911335400
 !RHF-UCCSD(T)-F12a energy           -168.958429969599

  F12 corrections for ansatz 3C(FIX) added to UCCSD energy. Coupling mode: 15

  UCCSD-F12b singles energy            -0.004167764090
  UCCSD-F12b pair energy               -0.648360763479
  UCCSD-F12b correlation energy        -0.652528527569
  Triples (T) contribution             -0.029783764199
  Total correlation energy             -0.682312291768

  RHF-UCCSD-F12b energy              -168.919772378222
  RHF-UCCSD[T]-F12b energy           -168.951641397293
  RHF-UCCSD-T-F12b energy            -168.949037508223
 !RHF-UCCSD(T)-F12b energy           -168.949556142422

 Program statistics:

 Available memory in ccsd:                89998450
 Min. memory needed in ccsd:              10540712
 Max. memory used in ccsd:                14806215
 Max. memory used in cckext:              11157806 (14 integral passes)
 Max. memory used in cckint:              40964322 ( 1 integral passes)



 **********************************************************************************************************************************
 DATASETS  * FILE   NREC   LENGTH (MB)   RECORD NAMES
              1      19       30.28       500      701      610      702      900      950      970     1003      129      960   
                                          VAR     GEOM    BASINP    GEOM    SYMINP    ZMAT    AOBASIS   BASIS     P2S    ABASIS    
                                         1100     1400     1410     1200     1210     1080     1600     1650     1700   
                                           S        T        V       H0       H01     AOSYM     SMH    MOLCAS    OPER   

              2      17       26.78       500      610      700     1000      520     2100     7360     7350      701     1001   
                                          VAR    BASINP    GEOM     BASIS   MCVARS     RHF    F12ABS    EF12     GEOM     BASIS   
                                         2101      701(1)  1002     2102      702     1003     2103   
                                          RHF     GEOM     BASIS     RHF     GEOM     BASIS     RHF  

 PROGRAMS   *        TOTAL  UCCSD(T)    HF-SCF       INT   RESTART
 CPU TIMES  *       126.61    118.50      2.51      5.25      0.09
 REAL TIME  *       143.77 SEC
 DISK USED  *       478.98 MB (local),        7.01 GB (total)
 SF USED    *         3.21 GB
 GA USED    *         3.05 MB       (max)       0.00 MB       (current)
 **********************************************************************************************************************************

 UCCSD(T)-F12/cc-pVTZ-F12 energy=   -168.949556142422

    UCCSD(T)-F12          HF-SCF
   -168.94955614   -168.26573335
 **********************************************************************************************************************************
 Molpro calculation terminated
