
    -----------------------------------------------------------------------
          Psi4: An Open-Source Ab Initio Electronic Structure Package
                               Psi4 1.3.2 release

                         Git: Rev {HEAD} ecbda83 


    R. M. Parrish, L. A. Burns, D. G. A. Smith, A. C. Simmonett,
    A. E. DePrince III, E. G. Hohenstein, U. Bozkaya, A. Yu. Sokolov,
    R. Di Remigio, R. M. Richard, J. F. Gonthier, A. M. James,
    H. R. McAlexander, A. Kumar, M. Saitow, X. Wang, B. P. Pritchard,
    P. Verma, H. F. Schaefer III, K. Patkowski, R. A. King, E. F. Valeev,
    F. A. Evangelista, J. M. Turney, T. D. Crawford, and C. D. Sherrill,
    J. Chem. Theory Comput. 13(7) pp 3185--3197 (2017).
    (doi: 10.1021/acs.jctc.7b00174)


                         Additional Contributions by
    P. Kraus, H. Kruse, M. H. Lechner, M. C. Schieber, R. A. Shaw,
    A. Alenaizan, R. Galvelis, Z. L. Glick, S. Lehtola, and J. P. Misiewicz

    -----------------------------------------------------------------------


    Psi4 started on: Sunday, 06 September 2020 04:11PM

    Process ID: 10137
    Host:       X1-ubuntu
    PSIDATADIR: /home/dranasinghe/anaconda2/envs/rmgpy3_env/share/psi4
    Memory:     500.0 MiB
    Threads:    1
    
  ==> Input File <==

--------------------------------------------------------------------------
memory 1024 mb

molecule mol {
0 1
O                 -1.02870815   -0.00797448    0.00000000
H                 -0.06870815   -0.00797448    0.00000000
H                 -1.34916274    0.89696135    0.00000000
}
set {
  basis 6-31G(d_p)
  geom_maxiter 50
  print 3
}

e, wfn = optimize('scf', return_wfn=True)
scf_e, wfn=frequencies('scf', return_wfn=True, dertype=1)
wfn.hessian().print_out()

--------------------------------------------------------------------------

  Memory set to 976.562 MiB by Python driver.
gradient() will perform analytic gradient computation.

*** tstart() called on X1-ubuntu
*** at Sun Sep  6 16:11:55 2020

   => Loading Basis Set <=

    Name: 6-31G(D_P)
    Role: ORBITAL
    Keyword: BASIS
    atoms 1   entry O          line   149 file /home/dranasinghe/anaconda2/envs/rmgpy3_env/share/psi4/basis/6-31g_d_p_.gbs 
    atoms 2-3 entry H          line    44 file /home/dranasinghe/anaconda2/envs/rmgpy3_env/share/psi4/basis/6-31g_d_p_.gbs 


         ---------------------------------------------------------
                                   SCF
               by Justin Turney, Rob Parrish, Andy Simmonett
                          and Daniel G. A. Smith
                              RHF Reference
                        1 Threads,    976 MiB Core
         ---------------------------------------------------------

  ==> Geometry <==

    Molecular point group: c2v
    Full point group: C2v

    Geometry (in Angstrom), charge = 0, multiplicity = 1:

       Center              X                  Y                   Z               Mass       
    ------------   -----------------  -----------------  -----------------  -----------------
         O           -0.000000000000     0.000000000000    -0.062007485347    15.994914619570
         H            0.783975894634     0.000000000000     0.492051895015     1.007825032230
         H           -0.783975894634    -0.000000000000     0.492051895015     1.007825032230

           O
              BASIS           6-31G(D_P)           ec2d227169b1af6c6a69bc8715bab79dbd7bb644
           H
              BASIS           6-31G(D_P)           902186d0f3205710946c2c15d2c68458d6f6cc2a
           H
              BASIS           6-31G(D_P)           902186d0f3205710946c2c15d2c68458d6f6cc2a

  Running in c2v symmetry.

  Rotational constants: A =     30.67709  B =     13.60742  C =      9.42623 [cm^-1]
  Rotational constants: A = 919675.97593  B = 407940.33087  C = 282591.37824 [MHz]
  Nuclear repulsion =    9.157116019082448

  Charge       = 0
  Multiplicity = 1
  Electrons    = 10
  Nalpha       = 5
  Nbeta        = 5

  ==> Algorithm <==

  SCF Algorithm Type is DF.
  DIIS enabled.
  MOM disabled.
  Fractional occupation disabled.
  Guess Type is SAD.
  Energy threshold   = 1.00e-08
  Density threshold  = 1.00e-08
  Integral threshold = 0.00e+00

  ==> Primary Basis <==

  -AO BASIS SET INFORMATION:
    Name                   = 6-31G(D_P)
    Blend                  = 6-31G(D_P)
    Total number of shells = 12
    Number of primitives   = 25
    Number of AO           = 25
    Number of SO           = 25
    Maximum AM             = 2
    Spherical Harmonics    = FALSE

  -Contraction Scheme:
    Atom   Type   All Primitives // Shells:
   ------ ------ --------------------------
       1     O     10s 4p 1d // 3s 2p 1d 
       2     H     4s 1p // 2s 1p 
       3     H     4s 1p // 2s 1p 

  ==> AO Basis Functions <==

    [ 6-31G(D_P) ]
    cartesian
    ****
    O   1
    S   6 1.00
                      5484.67170000           0.00183110
                       825.23495000           0.01395010
                       188.04696000           0.06844510
                        52.96450000           0.23271430
                        16.89757000           0.47019300
                         5.79963530           0.35852090
    S   3 1.00
                        15.53961600          -0.11077750
                         3.59993360          -0.14802630
                         1.01376180           1.13076700
    P   3 1.00
                        15.53961600           0.07087430
                         3.59993360           0.33975280
                         1.01376180           0.72715860
    S   1 1.00
                         0.27000580           1.00000000
    P   1 1.00
                         0.27000580           1.00000000
    D   1 1.00
                         0.80000000           1.00000000
    ****
    H   2
    S   3 1.00
                        18.73113700           0.03349460
                         2.82539370           0.23472695
                         0.64012170           0.81375733
    S   1 1.00
                         0.16127780           1.00000000
    P   1 1.00
                         1.10000000           1.00000000
    ****

   => Loading Basis Set <=

    Name: (6-31G(D_P) AUX)
    Role: JKFIT
    Keyword: DF_BASIS_SCF
    atoms 1   entry O          line   221 file /home/dranasinghe/anaconda2/envs/rmgpy3_env/share/psi4/basis/cc-pvdz-jkfit.gbs 
    atoms 2-3 entry H          line    51 file /home/dranasinghe/anaconda2/envs/rmgpy3_env/share/psi4/basis/cc-pvdz-jkfit.gbs 

  ==> Pre-Iterations <==

   -------------------------------------------------------
    Irrep   Nso     Nmo     Nalpha   Nbeta   Ndocc  Nsocc
   -------------------------------------------------------
     A1        12      12       0       0       0       0
     A2         2       2       0       0       0       0
     B1         7       7       0       0       0       0
     B2         4       4       0       0       0       0
   -------------------------------------------------------
    Total      25      25       5       5       5       0
   -------------------------------------------------------

  ==> Integral Setup <==

  DFHelper Memory: AOs need 0.001 GiB; user supplied 0.715 GiB. Using in-core AOs.

  ==> MemDFJK: Density-Fitted J/K Matrices <==

    J tasked:                   Yes
    K tasked:                   Yes
    wK tasked:                   No
    OpenMP threads:               1
    Memory [MiB]:               732
    Algorithm:                 Core
    Schwarz Cutoff:           1E-12
    Mask sparsity (%):       0.0000
    Fitting Condition:        1E-10

   => Auxiliary Basis Set <=

  -AO BASIS SET INFORMATION:
    Name                   = (6-31G(D_P) AUX)
    Blend                  = CC-PVDZ-JKFIT
    Total number of shells = 42
    Number of primitives   = 42
    Number of AO           = 131
    Number of SO           = 131
    Maximum AM             = 3
    Spherical Harmonics    = FALSE

  -Contraction Scheme:
    Atom   Type   All Primitives // Shells:
   ------ ------ --------------------------
       1     O     10s 7p 5d 2f // 10s 7p 5d 2f 
       2     H     4s 3p 2d // 4s 3p 2d 
       3     H     4s 3p 2d // 4s 3p 2d 

  ==> AO Basis Functions <==

    [ (6-31G(D_P) AUX) ]
    cartesian
    ****
    O   1
    S   1 1.00
                      1517.86675060           1.00000000
    S   1 1.00
                       489.67952008           1.00000000
    S   1 1.00
                       176.72118665           1.00000000
    S   1 1.00
                        63.79223314           1.00000000
    S   1 1.00
                        25.36649913           1.00000000
    S   1 1.00
                         9.91354912           1.00000000
    S   1 1.00
                         4.46453066           1.00000000
    S   1 1.00
                         1.80177437           1.00000000
    S   1 1.00
                         0.80789711           1.00000000
    S   1 1.00
                         0.33864327           1.00000000
    P   1 1.00
                       120.16030921           1.00000000
    P   1 1.00
                        34.40962247           1.00000000
    P   1 1.00
                        12.58114861           1.00000000
    P   1 1.00
                         5.06638242           1.00000000
    P   1 1.00
                         2.03469271           1.00000000
    P   1 1.00
                         0.86092967           1.00000000
    P   1 1.00
                         0.36681357           1.00000000
    D   1 1.00
                        19.04306281           1.00000000
    D   1 1.00
                         5.80603811           1.00000000
    D   1 1.00
                         2.18918416           1.00000000
    D   1 1.00
                         0.87794614           1.00000000
    D   1 1.00
                         0.35623647           1.00000000
    F   1 1.00
                         2.49391479           1.00000000
    F   1 1.00
                         0.82491479           1.00000000
    ****
    H   2
    S   1 1.00
                         9.53024933           1.00000000
    S   1 1.00
                         1.91745062           1.00000000
    S   1 1.00
                         0.68424049           1.00000000
    S   1 1.00
                         0.28413256           1.00000000
    P   1 1.00
                         2.91332320           1.00000000
    P   1 1.00
                         1.26212054           1.00000000
    P   1 1.00
                         0.50199776           1.00000000
    D   1 1.00
                         2.31353291           1.00000000
    D   1 1.00
                         0.71290724           1.00000000
    ****

  Minimum eigenvalue in the overlap matrix is 2.2118711913E-02.
  Using Symmetric Orthogonalization.

  SCF Guess: Superposition of Atomic Densities via on-the-fly atomic UHF.

DIIS coefficients:  1.000 
DIIS coefficients:  0.329  0.671 
DIIS coefficients:  -0.027  -0.001  1.028 
DIIS coefficients:  -0.002  -0.000  -0.045  1.047 
DIIS coefficients:  0.000  0.000  0.005  -0.173  1.168 
DIIS coefficients:  0.000  -0.000  -0.001  0.017  -0.113  1.097 
DIIS coefficients:  1.000 
DIIS coefficients:  -0.068  1.068 
DIIS coefficients:  -0.000  -0.002  1.002 
DIIS coefficients:  -0.000  -0.000  -0.001  1.001 
  ==> Iterations <==

                           Total Energy        Delta E     RMS |[F,P]|

   @DF-RHF iter SAD:   -75.51509099162368   -7.55151e+01   0.00000e+00 
DIIS coefficients:  1.000 
    Occupation by irrep:
             A1    A2    B1    B2 
    DOCC [     3,    0,    1,    1 ]

   @DF-RHF iter   1:   -75.95481028604769   -4.39719e-01   2.79127e-02 DIIS
DIIS coefficients:  0.355  0.645 
    Occupation by irrep:
             A1    A2    B1    B2 
    DOCC [     3,    0,    1,    1 ]

   @DF-RHF iter   2:   -76.00440574313588   -4.95955e-02   1.59864e-02 DIIS
DIIS coefficients:  -0.068  -0.101  1.169 
    Occupation by irrep:
             A1    A2    B1    B2 
    DOCC [     3,    0,    1,    1 ]

   @DF-RHF iter   3:   -76.02215040113671   -1.77447e-02   1.40166e-03 DIIS
DIIS coefficients:  -0.007  -0.024  -0.103  1.134 
    Occupation by irrep:
             A1    A2    B1    B2 
    DOCC [     3,    0,    1,    1 ]

   @DF-RHF iter   4:   -76.02249113240825   -3.40731e-04   3.47751e-04 DIIS
DIIS coefficients:  0.003  0.007  -0.002  -0.295  1.287 
    Occupation by irrep:
             A1    A2    B1    B2 
    DOCC [     3,    0,    1,    1 ]

   @DF-RHF iter   5:   -76.02251219824221   -2.10658e-05   6.40638e-05 DIIS
DIIS coefficients:  -0.001  -0.002  0.003  0.067  -0.436  1.369 
    Occupation by irrep:
             A1    A2    B1    B2 
    DOCC [     3,    0,    1,    1 ]

   @DF-RHF iter   6:   -76.02251325585839   -1.05762e-06   1.16789e-05 DIIS
DIIS coefficients:  0.000  0.001  -0.001  -0.019  0.133  -0.498  1.384 
    Occupation by irrep:
             A1    A2    B1    B2 
    DOCC [     3,    0,    1,    1 ]

   @DF-RHF iter   7:   -76.02251329621541   -4.03570e-08   1.94084e-06 DIIS
DIIS coefficients:  -0.000  -0.000  0.000  0.003  -0.025  0.108  -0.447  1.361 
    Occupation by irrep:
             A1    A2    B1    B2 
    DOCC [     3,    0,    1,    1 ]

   @DF-RHF iter   8:   -76.02251329730188   -1.08648e-09   3.66000e-07 DIIS
DIIS coefficients:  0.000  0.000  -0.000  -0.000  0.002  -0.008  0.043  -0.225  1.189 
    Occupation by irrep:
             A1    A2    B1    B2 
    DOCC [     3,    0,    1,    1 ]

   @DF-RHF iter   9:   -76.02251329733939   -3.75024e-11   5.16630e-08 DIIS
DIIS coefficients:  -0.000  0.000  -0.000  -0.000  0.000  -0.000  -0.002  0.025  -0.249  1.225 
    Occupation by irrep:
             A1    A2    B1    B2 
    DOCC [     3,    0,    1,    1 ]

   @DF-RHF iter  10:   -76.02251329733997   -5.82645e-13   5.32600e-09 DIIS
  Energy and wave function converged.


  ==> Post-Iterations <==

    Orbital Energies [Eh]
    ---------------------

    Doubly Occupied:                                                      

       1A1   -20.558113     2A1    -1.334605     1B1    -0.710755  
       3A1    -0.558044     1B2    -0.494818  

    Virtual:                                                              

       4A1     0.211954     2B1     0.304421     3B1     1.023689  
       5A1     1.065298     6A1     1.134138     2B2     1.170472  
       4B1     1.296156     7A1     1.397307     1A2     1.793513  
       8A1     1.855453     3B2     1.943037     5B1     2.534746  
       9A1     2.562551     6B1     2.820532     4B2     2.951590  
       2A2     3.009380    10A1     3.367289    11A1     3.715355  
       7B1     3.904116    12A1     4.135513  

    Final Occupation by Irrep:
             A1    A2    B1    B2 
    DOCC [     3,    0,    1,    1 ]

  @DF-RHF Final Energy:   -76.02251329733997

   => Energetics <=

    Nuclear Repulsion Energy =              9.1571160190824479
    One-Electron Energy =                -123.0465902145743513
    Two-Electron Energy =                  37.8669608981519161
    Total Energy =                        -76.0225132973399838

Computation Completed


Properties will be evaluated at   0.000000,   0.000000,   0.000000 [a0]

Properties computed using the SCF density matrix

  Nuclear Dipole Moment: [e a0]
     X:     0.0000      Y:     0.0000      Z:     0.9223

  Electronic Dipole Moment: [e a0]
     X:     0.0000      Y:     0.0000      Z:    -0.0964

  Dipole Moment: [e a0]
     X:     0.0000      Y:     0.0000      Z:     0.8259     Total:     0.8259

  Dipole Moment: [D]
     X:     0.0000      Y:     0.0000      Z:     2.0993     Total:     2.0993


*** tstop() called on X1-ubuntu at Sun Sep  6 16:11:56 2020
Module time:
	user time   =       0.71 seconds =       0.01 minutes
	system time =       0.02 seconds =       0.00 minutes
	total time  =          1 seconds =       0.02 minutes
Total time:
	user time   =       0.71 seconds =       0.01 minutes
	system time =       0.02 seconds =       0.00 minutes
	total time  =          1 seconds =       0.02 minutes

*** tstart() called on X1-ubuntu
*** at Sun Sep  6 16:11:56 2020


         ------------------------------------------------------------
                                   SCF GRAD                          
                          Rob Parrish, Justin Turney,                
                       Andy Simmonett, and Alex Sokolov              
         ------------------------------------------------------------

  ==> Geometry <==

    Molecular point group: c2v
    Full point group: C2v

    Geometry (in Angstrom), charge = 0, multiplicity = 1:

       Center              X                  Y                   Z               Mass       
    ------------   -----------------  -----------------  -----------------  -----------------
         O           -0.000000000000     0.000000000000    -0.062007485347    15.994914619570
         H            0.783975894634     0.000000000000     0.492051895015     1.007825032230
         H           -0.783975894634    -0.000000000000     0.492051895015     1.007825032230

           O
              BASIS           6-31G(D_P)           ec2d227169b1af6c6a69bc8715bab79dbd7bb644
              DF_BASIS_SCF    (6-31G(D_P) AUX)     b57462463db1b385e39e4428a46364991bcd7673
           H
              BASIS           6-31G(D_P)           902186d0f3205710946c2c15d2c68458d6f6cc2a
              DF_BASIS_SCF    (6-31G(D_P) AUX)     1164366b470d7a66fddaf681ef9d1c28421b3e4a
           H
              BASIS           6-31G(D_P)           902186d0f3205710946c2c15d2c68458d6f6cc2a
              DF_BASIS_SCF    (6-31G(D_P) AUX)     1164366b470d7a66fddaf681ef9d1c28421b3e4a

  Nuclear repulsion =    9.157116019082448

  ==> Basis Set <==

  -AO BASIS SET INFORMATION:
    Name                   = 6-31G(D_P)
    Blend                  = 6-31G(D_P)
    Total number of shells = 12
    Number of primitives   = 25
    Number of AO           = 25
    Number of SO           = 25
    Maximum AM             = 2
    Spherical Harmonics    = FALSE

  -Contraction Scheme:
    Atom   Type   All Primitives // Shells:
   ------ ------ --------------------------
       1     O     10s 4p 1d // 3s 2p 1d 
       2     H     4s 1p // 2s 1p 
       3     H     4s 1p // 2s 1p 

  ==> AO Basis Functions <==

    [ 6-31G(D_P) ]
    cartesian
    ****
    O   1
    S   6 1.00
                      5484.67170000           0.00183110
                       825.23495000           0.01395010
                       188.04696000           0.06844510
                        52.96450000           0.23271430
                        16.89757000           0.47019300
                         5.79963530           0.35852090
    S   3 1.00
                        15.53961600          -0.11077750
                         3.59993360          -0.14802630
                         1.01376180           1.13076700
    P   3 1.00
                        15.53961600           0.07087430
                         3.59993360           0.33975280
                         1.01376180           0.72715860
    S   1 1.00
                         0.27000580           1.00000000
    P   1 1.00
                         0.27000580           1.00000000
    D   1 1.00
                         0.80000000           1.00000000
    ****
    H   2
    S   3 1.00
                        18.73113700           0.03349460
                         2.82539370           0.23472695
                         0.64012170           0.81375733
    S   1 1.00
                         0.16127780           1.00000000
    P   1 1.00
                         1.10000000           1.00000000
    ****

  ==> DFJKGrad: Density-Fitted SCF Gradients <==

    Gradient:                    1
    J tasked:                  Yes
    K tasked:                  Yes
    wK tasked:                  No
    OpenMP threads:              1
    Integrals threads:           1
    Memory [MiB]:              732
    Schwarz Cutoff:          0E+00
    Fitting Condition:       1E-10

   => Auxiliary Basis Set <=

  -AO BASIS SET INFORMATION:
    Name                   = (6-31G(D_P) AUX)
    Blend                  = CC-PVDZ-JKFIT
    Total number of shells = 42
    Number of primitives   = 42
    Number of AO           = 131
    Number of SO           = 131
    Maximum AM             = 3
    Spherical Harmonics    = FALSE

  -Contraction Scheme:
    Atom   Type   All Primitives // Shells:
   ------ ------ --------------------------
       1     O     10s 7p 5d 2f // 10s 7p 5d 2f 
       2     H     4s 3p 2d // 4s 3p 2d 
       3     H     4s 3p 2d // 4s 3p 2d 

  ==> AO Basis Functions <==

    [ (6-31G(D_P) AUX) ]
    cartesian
    ****
    O   1
    S   1 1.00
                      1517.86675060           1.00000000
    S   1 1.00
                       489.67952008           1.00000000
    S   1 1.00
                       176.72118665           1.00000000
    S   1 1.00
                        63.79223314           1.00000000
    S   1 1.00
                        25.36649913           1.00000000
    S   1 1.00
                         9.91354912           1.00000000
    S   1 1.00
                         4.46453066           1.00000000
    S   1 1.00
                         1.80177437           1.00000000
    S   1 1.00
                         0.80789711           1.00000000
    S   1 1.00
                         0.33864327           1.00000000
    P   1 1.00
                       120.16030921           1.00000000
    P   1 1.00
                        34.40962247           1.00000000
    P   1 1.00
                        12.58114861           1.00000000
    P   1 1.00
                         5.06638242           1.00000000
    P   1 1.00
                         2.03469271           1.00000000
    P   1 1.00
                         0.86092967           1.00000000
    P   1 1.00
                         0.36681357           1.00000000
    D   1 1.00
                        19.04306281           1.00000000
    D   1 1.00
                         5.80603811           1.00000000
    D   1 1.00
                         2.18918416           1.00000000
    D   1 1.00
                         0.87794614           1.00000000
    D   1 1.00
                         0.35623647           1.00000000
    F   1 1.00
                         2.49391479           1.00000000
    F   1 1.00
                         0.82491479           1.00000000
    ****
    H   2
    S   1 1.00
                         9.53024933           1.00000000
    S   1 1.00
                         1.91745062           1.00000000
    S   1 1.00
                         0.68424049           1.00000000
    S   1 1.00
                         0.28413256           1.00000000
    P   1 1.00
                         2.91332320           1.00000000
    P   1 1.00
                         1.26212054           1.00000000
    P   1 1.00
                         0.50199776           1.00000000
    D   1 1.00
                         2.31353291           1.00000000
    D   1 1.00
                         0.71290724           1.00000000
    ****


  -Nuclear Gradient:
     Atom            X                  Y                   Z
    ------   -----------------  -----------------  -----------------
       1        0.000000000000     0.000000000000     2.805852653943
       2       -2.098998293477    -0.000000000000    -1.402926326972
       3        2.098998293477     0.000000000000    -1.402926326972


  -Core Hamiltonian Gradient:
     Atom            X                  Y                   Z
    ------   -----------------  -----------------  -----------------
       1       -0.000000000000    -0.000000000000    -6.481366012589
       2        4.935410691047     0.000000000000     3.240683006294
       3       -4.935410691047    -0.000000000000     3.240683006294


  -Overlap Gradient:
     Atom            X                  Y                   Z
    ------   -----------------  -----------------  -----------------
       1        0.000000000000    -0.000000000000     0.390266396269
       2       -0.275771948035    -0.000000000000    -0.195133198135
       3        0.275771948035     0.000000000000    -0.195133198135


  -Coulomb Gradient:
     Atom            X                  Y                   Z
    ------   -----------------  -----------------  -----------------
       1       -0.000000000018     0.000000000000     3.797435987683
       2       -2.944598388221    -0.000000000000    -1.898717993837
       3        2.944598388239    -0.000000000000    -1.898717993845


  -Exchange Gradient:
     Atom            X                  Y                   Z
    ------   -----------------  -----------------  -----------------
       1        0.000000000001    -0.000000000000    -0.524930327612
       2        0.404876133877     0.000000000000     0.262465163806
       3       -0.404876133878    -0.000000000000     0.262465163806


  -Total Gradient:
     Atom            X                  Y                   Z
    ------   -----------------  -----------------  -----------------
       1        0.000000000000     0.000000000000    -0.012741302305
       2        0.020918195183     0.000000000000     0.006370651153
       3       -0.020918195183    -0.000000000000     0.006370651153


*** tstop() called on X1-ubuntu at Sun Sep  6 16:11:56 2020
Module time:
	user time   =       0.15 seconds =       0.00 minutes
	system time =       0.00 seconds =       0.00 minutes
	total time  =          0 seconds =       0.00 minutes
Total time:
	user time   =       0.86 seconds =       0.01 minutes
	system time =       0.02 seconds =       0.00 minutes
	total time  =          1 seconds =       0.02 minutes

			-----------------------------------------
			 OPTKING 2.0: for geometry optimizations 
			  - R.A. King,  Bethel University        
			-----------------------------------------
dynamic level          =                  0
conv_max_force         =           3.00e-04
conv_rms_force         =           0.00e+00
conv_max_DE            =           1.00e-06
conv_max_disp          =           1.20e-03
conv_rms_disp          =           0.00e+00
SD Hessian             =           1.00e+00
scale_connectivity     =           1.30e+00
interfragment_scale_connectivity =           1.80e+00
fragment_mode          =             single
interfragment_mode        =              fixed
intcos_generate_exit   =              false
print_params           =              false
print_lvl              = 3
ensure_bt_convergence =             false
rfo_follow_root        =              false
rfo_root               =                  0
rfo_normalization_max  =           1.00e+02
rsrfo_alpha_max        =          1.000e+08
step_type              =                RFO
opt. coordinates       = Redundant Internals
linesearch_static_N    =                  8
linesearch_static_min  =          1.000e-03
linesearch_static_max  =          1.000e-01
consecutive_backsteps  =                  0
intrafragment_H        =           Schlegel
interfragment_H        =            Default
H_update               =               BFGS
H_update_use_last      =                  2
freeze_intrafragment   =              false
intrafragment_step_limit=          5.00e-01
interfragment_step_limit=          5.00e-01
add_auxiliary_bonds   =               true
H_guess_every         =              false
auxiliary_bond_factor =          2.50e+00
H_update_limit         =               true
H_update_limit_scale   =           5.00e-01
H_update_limit_max     =           1.00e+00
H_update_den_tol       =           1.00e-07
interfragment_distance_inverse=       false
write_final_step_geometry=            false
maximum_H_bond_distance=           4.30e+00
read_cartesian_H       =              false
fb_fragments          =              false
fb_fragments_only     =              false
frozen_distance: 
frozen_bend: 
frozen_dihedral: 
frozen_cartesian: 
fixed_distance: 
fixed_bend: 
fixed_dihedral: 
print_trajectory_xyz_file =              false

	Internal coordinates to be generated automatically.
	Detected frag 1 with atoms:  1 2 3
	---Fragment 1 Bond Connectivity---
	 1 : 2 3
	 2 : 1
	 3 : 1

	---Fragment 1 Geometry and Gradient---
	 O          -0.0000000000        0.0000000000       -0.1171771650
	 H           1.4814997298        0.0000000000        0.9298433211
	 H          -1.4814997298       -0.0000000000        0.9298433211
	             0.0000000000        0.0000000000       -0.0127413023
	             0.0209181952        0.0000000000        0.0063706512
	            -0.0209181952       -0.0000000000        0.0063706512

	Previous optimization step data not found.  Starting new optimization.

	---Fragment 1 Intrafragment Coordinates---
	 - Coordinate -           - BOHR/RAD -       - ANG/DEG -
	 R(1,2)           =         1.814137	       0.960000
	 R(1,3)           =         1.814137	       0.960000
	 B(2,1,3)         =         1.911136	     109.500000

	Current energy   :       -76.0225132973

B matrix
 -0.816642 -0.000000 -0.577145  0.816642  0.000000  0.577145  0.000000  0.000000
  0.000000
  0.816642  0.000000 -0.577145  0.000000  0.000000  0.000000 -0.816642 -0.000000
  0.577145
  0.000000  0.000000  0.900309  0.318138  0.000000 -0.450154 -0.318138 -0.000000
 -0.450154
Internal forces in au
  -0.020759458134900  -0.020759458134900  -0.012463660928070
	Generating empirical Hessian (Schlegel '84) for each fragment.
diagonal Hessian values for simple coordinates.
  0.554734  0.554734  0.160000

Initial Hessian guess
  0.554734  0.000000  0.000000
  0.000000  0.554734  0.000000
  0.000000  0.000000  0.160000
	Projection matrix for redundancies.
  1.000000 -0.000000 -0.000000
 -0.000000  1.000000 -0.000000
  0.000000 -0.000000  1.000000
Constraint matrix
  0.000000  0.000000  0.000000
  0.000000  0.000000  0.000000
  0.000000  0.000000  0.000000
	Internal forces in au, after projection of redundancies and constraints.
 -0.020759 -0.020759 -0.012464
Projected (PHP) Hessian matrix
  0.554734 -0.000000 -0.000000
 -0.000000  0.554734 -0.000000
  0.000000 -0.000000  0.160000
	Taking RFO optimization step.
Eigenvalues of scaled RFO matrix.
 -0.002503  0.160952  0.554734  0.556285
First eigenvector (unnormalized) of scaled RFO matrix.
 -0.037094 -0.037094 -0.076368  0.995699
	Going to follow RFO solution 1.
	Using RFO vector 1.
	rfo_root is 1

Scaled RFO eigenvalue 1:   -0.0025026978 (or 2*-0.0012513489  )
eigenvector:
 -0.037254 -0.037254 -0.076698  1.000000

Projection of redundancies out of step:
	Original dq     Projected dq     Difference
	   -0.037254       -0.037254       0.000000
	   -0.037254       -0.037254       0.000000
	   -0.076698       -0.076698       0.000000
dq:
 -0.037254 -0.037254 -0.076698
fq:
 -0.020759 -0.020759 -0.012464
	lambda calculated by (dq^t).(-f)     =        -0.0025026978
	Analytic derivative d(norm)/d(alpha) =        -0.0002043597
	Final scaled step dq:
 -0.037254 -0.037254 -0.076698
	Norm of target step-size    0.09305
	Projected energy change by RFO approximation:        -0.0004887594

	Back-transformation to cartesian coordinates...
	 In displace_util 
	       Original         Target           Dq
	   1.8141370808   1.7768827926  -0.0372542881
	   1.8141370808   1.7768827926  -0.0372542881
	   1.9111355365   1.8344373579  -0.0766981786
	---------------------------------------------------
	 Iter        RMS(dx)        Max(dx)        RMS(dq) 
	---------------------------------------------------
	    1        3.5e-02        7.1e-02        1.4e-03
	    2        5.4e-04        1.3e-03        8.2e-07
	    3        5.3e-07        1.1e-06        3.4e-13
	    4        1.3e-13        3.0e-13        1.3e-16
	---------------------------------------------------

	Report of back-transformation:
	  int       q_target          Error
	-----------------------------------
	    1   1.7768827926  -0.0000000000
	    2   1.7768827926  -0.0000000000
	    3   1.8344373579   0.0000000000

	Successfully converged to displaced geometry.

	--- Internal Coordinate Step in ANG or DEG, aJ/ANG or AJ/DEG ---
	 ---------------------------------------------------------------------------
	   Coordinate                Previous        Force       Change         New 
	   ----------                --------       ------       ------       ------
	    1 R(1,2)          =      0.960000    -0.171031    -0.019714     0.940286
	    2 R(1,3)          =      0.960000    -0.171031    -0.019714     0.940286
	    3 B(2,1,3)        =    109.500000    -0.000948    -4.394482   105.105518
	 ---------------------------------------------------------------------------
	Successfully symmetrized geometry.
Symmetrized geometry
  0.000000 -0.000000 -0.139430
  1.410691  0.000000  0.940970
 -1.410691 -0.000000  0.940970

  ==> Convergence Check <==

  Measures of convergence in internal coordinates in au.
  Criteria marked as inactive (o), active & met (*), and active & unmet ( ).
  --------------------------------------------------------------------------------------------- ~
   Step     Total Energy     Delta E     MAX Force     RMS Force      MAX Disp      RMS Disp    ~
  --------------------------------------------------------------------------------------------- ~
    Convergence Criteria    1.00e-06 *    3.00e-04 *             o    1.20e-03 *             o  ~
  --------------------------------------------------------------------------------------------- ~
      1     -76.02251330   -7.60e+01      2.08e-02      1.84e-02 o    7.67e-02      5.37e-02 o  ~
  ---------------------------------------------------------------------------------------------

	Writing optimization data to binary file.
	Structure for next step:
	Cartesian Geometry (in Angstrom)
	    O     0.0000000000  -0.0000000000  -0.0737829780
	    H     0.7465057117   0.0000000000   0.4979396395
	    H    -0.7465057117  -0.0000000000   0.4979396395
			--------------------------
			 OPTKING Finished Execution 
			--------------------------

    Structure for next step:
    Molecular point group: c2v
    Full point group: C2v

    Geometry (in Angstrom), charge = 0, multiplicity = 1:

    O           -0.000000000000     0.000000000000    -0.063984264547
    H            0.746505714634     0.000000000000     0.507738355222
    H           -0.746505714634    -0.000000000000     0.507738355222

gradient() will perform analytic gradient computation.

*** tstart() called on X1-ubuntu
*** at Sun Sep  6 16:11:56 2020

   => Loading Basis Set <=

    Name: 6-31G(D_P)
    Role: ORBITAL
    Keyword: BASIS
    atoms 1   entry O          line   149 file /home/dranasinghe/anaconda2/envs/rmgpy3_env/share/psi4/basis/6-31g_d_p_.gbs 
    atoms 2-3 entry H          line    44 file /home/dranasinghe/anaconda2/envs/rmgpy3_env/share/psi4/basis/6-31g_d_p_.gbs 


         ---------------------------------------------------------
                                   SCF
               by Justin Turney, Rob Parrish, Andy Simmonett
                          and Daniel G. A. Smith
                              RHF Reference
                        1 Threads,    976 MiB Core
         ---------------------------------------------------------

  ==> Geometry <==

    Molecular point group: c2v
    Full point group: C2v

    Geometry (in Angstrom), charge = 0, multiplicity = 1:

       Center              X                  Y                   Z               Mass       
    ------------   -----------------  -----------------  -----------------  -----------------
         O            0.000000000000     0.000000000000    -0.063984264547    15.994914619570
         H            0.746505714634     0.000000000000     0.507738355222     1.007825032230
         H           -0.746505714634    -0.000000000000     0.507738355222     1.007825032230

           O
              BASIS           6-31G(D_P)           ec2d227169b1af6c6a69bc8715bab79dbd7bb644
              DF_BASIS_SCF    (6-31G(D_P) AUX)     b57462463db1b385e39e4428a46364991bcd7673
           H
              BASIS           6-31G(D_P)           902186d0f3205710946c2c15d2c68458d6f6cc2a
              DF_BASIS_SCF    (6-31G(D_P) AUX)     1164366b470d7a66fddaf681ef9d1c28421b3e4a
           H
              BASIS           6-31G(D_P)           902186d0f3205710946c2c15d2c68458d6f6cc2a
              DF_BASIS_SCF    (6-31G(D_P) AUX)     1164366b470d7a66fddaf681ef9d1c28421b3e4a

  Running in c2v symmetry.

  Rotational constants: A =     28.81085  B =     15.00773  C =      9.86763 [cm^-1]
  Rotational constants: A = 863727.43726  B = 449920.50785  C = 295824.07422 [MHz]
  Nuclear repulsion =    9.358969286168852

  Charge       = 0
  Multiplicity = 1
  Electrons    = 10
  Nalpha       = 5
  Nbeta        = 5

  ==> Algorithm <==

  SCF Algorithm Type is DF.
  DIIS enabled.
  MOM disabled.
  Fractional occupation disabled.
  Guess Type is READ.
  Energy threshold   = 1.00e-08
  Density threshold  = 1.00e-08
  Integral threshold = 0.00e+00

  ==> Primary Basis <==

  -AO BASIS SET INFORMATION:
    Name                   = 6-31G(D_P)
    Blend                  = 6-31G(D_P)
    Total number of shells = 12
    Number of primitives   = 25
    Number of AO           = 25
    Number of SO           = 25
    Maximum AM             = 2
    Spherical Harmonics    = FALSE

  -Contraction Scheme:
    Atom   Type   All Primitives // Shells:
   ------ ------ --------------------------
       1     O     10s 4p 1d // 3s 2p 1d 
       2     H     4s 1p // 2s 1p 
       3     H     4s 1p // 2s 1p 

  ==> AO Basis Functions <==

    [ 6-31G(D_P) ]
    cartesian
    ****
    O   1
    S   6 1.00
                      5484.67170000           0.00183110
                       825.23495000           0.01395010
                       188.04696000           0.06844510
                        52.96450000           0.23271430
                        16.89757000           0.47019300
                         5.79963530           0.35852090
    S   3 1.00
                        15.53961600          -0.11077750
                         3.59993360          -0.14802630
                         1.01376180           1.13076700
    P   3 1.00
                        15.53961600           0.07087430
                         3.59993360           0.33975280
                         1.01376180           0.72715860
    S   1 1.00
                         0.27000580           1.00000000
    P   1 1.00
                         0.27000580           1.00000000
    D   1 1.00
                         0.80000000           1.00000000
    ****
    H   2
    S   3 1.00
                        18.73113700           0.03349460
                         2.82539370           0.23472695
                         0.64012170           0.81375733
    S   1 1.00
                         0.16127780           1.00000000
    P   1 1.00
                         1.10000000           1.00000000
    ****

   => Loading Basis Set <=

    Name: (6-31G(D_P) AUX)
    Role: JKFIT
    Keyword: DF_BASIS_SCF
    atoms 1   entry O          line   221 file /home/dranasinghe/anaconda2/envs/rmgpy3_env/share/psi4/basis/cc-pvdz-jkfit.gbs 
    atoms 2-3 entry H          line    51 file /home/dranasinghe/anaconda2/envs/rmgpy3_env/share/psi4/basis/cc-pvdz-jkfit.gbs 

   => Loading Basis Set <=

    Name: 6-31G(D_P)
    Role: ORBITAL
    Keyword: BASIS
    atoms 1   entry O          line   149 file /home/dranasinghe/anaconda2/envs/rmgpy3_env/share/psi4/basis/6-31g_d_p_.gbs 
    atoms 2-3 entry H          line    44 file /home/dranasinghe/anaconda2/envs/rmgpy3_env/share/psi4/basis/6-31g_d_p_.gbs 

  Reading orbitals from file 180, no projection.

  ==> Pre-Iterations <==

   -------------------------------------------------------
    Irrep   Nso     Nmo     Nalpha   Nbeta   Ndocc  Nsocc
   -------------------------------------------------------
     A1        12      12       0       0       0       0
     A2         2       2       0       0       0       0
     B1         7       7       0       0       0       0
     B2         4       4       0       0       0       0
   -------------------------------------------------------
    Total      25      25       5       5       5       0
   -------------------------------------------------------

  ==> Integral Setup <==

  DFHelper Memory: AOs need 0.001 GiB; user supplied 0.715 GiB. Using in-core AOs.

  ==> MemDFJK: Density-Fitted J/K Matrices <==

    J tasked:                   Yes
    K tasked:                   Yes
    wK tasked:                   No
    OpenMP threads:               1
    Memory [MiB]:               732
    Algorithm:                 Core
    Schwarz Cutoff:           1E-12
    Mask sparsity (%):       0.0000
    Fitting Condition:        1E-10

   => Auxiliary Basis Set <=

  -AO BASIS SET INFORMATION:
    Name                   = (6-31G(D_P) AUX)
    Blend                  = CC-PVDZ-JKFIT
    Total number of shells = 42
    Number of primitives   = 42
    Number of AO           = 131
    Number of SO           = 131
    Maximum AM             = 3
    Spherical Harmonics    = FALSE

  -Contraction Scheme:
    Atom   Type   All Primitives // Shells:
   ------ ------ --------------------------
       1     O     10s 7p 5d 2f // 10s 7p 5d 2f 
       2     H     4s 3p 2d // 4s 3p 2d 
       3     H     4s 3p 2d // 4s 3p 2d 

  ==> AO Basis Functions <==

    [ (6-31G(D_P) AUX) ]
    cartesian
    ****
    O   1
    S   1 1.00
                      1517.86675060           1.00000000
    S   1 1.00
                       489.67952008           1.00000000
    S   1 1.00
                       176.72118665           1.00000000
    S   1 1.00
                        63.79223314           1.00000000
    S   1 1.00
                        25.36649913           1.00000000
    S   1 1.00
                         9.91354912           1.00000000
    S   1 1.00
                         4.46453066           1.00000000
    S   1 1.00
                         1.80177437           1.00000000
    S   1 1.00
                         0.80789711           1.00000000
    S   1 1.00
                         0.33864327           1.00000000
    P   1 1.00
                       120.16030921           1.00000000
    P   1 1.00
                        34.40962247           1.00000000
    P   1 1.00
                        12.58114861           1.00000000
    P   1 1.00
                         5.06638242           1.00000000
    P   1 1.00
                         2.03469271           1.00000000
    P   1 1.00
                         0.86092967           1.00000000
    P   1 1.00
                         0.36681357           1.00000000
    D   1 1.00
                        19.04306281           1.00000000
    D   1 1.00
                         5.80603811           1.00000000
    D   1 1.00
                         2.18918416           1.00000000
    D   1 1.00
                         0.87794614           1.00000000
    D   1 1.00
                         0.35623647           1.00000000
    F   1 1.00
                         2.49391479           1.00000000
    F   1 1.00
                         0.82491479           1.00000000
    ****
    H   2
    S   1 1.00
                         9.53024933           1.00000000
    S   1 1.00
                         1.91745062           1.00000000
    S   1 1.00
                         0.68424049           1.00000000
    S   1 1.00
                         0.28413256           1.00000000
    P   1 1.00
                         2.91332320           1.00000000
    P   1 1.00
                         1.26212054           1.00000000
    P   1 1.00
                         0.50199776           1.00000000
    D   1 1.00
                         2.31353291           1.00000000
    D   1 1.00
                         0.71290724           1.00000000
    ****

  Minimum eigenvalue in the overlap matrix is 2.1315560931E-02.
  Using Symmetric Orthogonalization.

  SCF Guess: Orbitals guess was supplied from a previous computation.

  ==> Iterations <==

                           Total Energy        Delta E     RMS |[F,P]|

   @DF-RHF iter   0:   -76.04877857606871   -7.60488e+01   3.92468e-03 
DIIS coefficients:  1.000 
    Occupation by irrep:
             A1    A2    B1    B2 
    DOCC [     3,    0,    1,    1 ]

   @DF-RHF iter   1:   -76.02348536073903    2.52932e-02   7.36546e-04 DIIS
DIIS coefficients:  0.290  0.710 
    Occupation by irrep:
             A1    A2    B1    B2 
    DOCC [     3,    0,    1,    1 ]

   @DF-RHF iter   2:   -76.02352898283647   -4.36221e-05   3.53997e-04 DIIS
DIIS coefficients:  -0.040  0.028  1.012 
    Occupation by irrep:
             A1    A2    B1    B2 
    DOCC [     3,    0,    1,    1 ]

   @DF-RHF iter   3:   -76.02353757860853   -8.59577e-06   5.43978e-05 DIIS
DIIS coefficients:  -0.009  -0.039  -0.104  1.152 
    Occupation by irrep:
             A1    A2    B1    B2 
    DOCC [     3,    0,    1,    1 ]

   @DF-RHF iter   4:   -76.02353799349854   -4.14890e-07   1.30769e-05 DIIS
DIIS coefficients:  0.004  0.012  -0.005  -0.341  1.330 
    Occupation by irrep:
             A1    A2    B1    B2 
    DOCC [     3,    0,    1,    1 ]

   @DF-RHF iter   5:   -76.02353802539157   -3.18930e-08   2.68774e-06 DIIS
DIIS coefficients:  -0.001  -0.002  0.003  0.072  -0.396  1.325 
    Occupation by irrep:
             A1    A2    B1    B2 
    DOCC [     3,    0,    1,    1 ]

   @DF-RHF iter   6:   -76.02353802721755   -1.82598e-09   4.17988e-07 DIIS
DIIS coefficients:  0.000  0.001  -0.001  -0.022  0.125  -0.494  1.391 
    Occupation by irrep:
             A1    A2    B1    B2 
    DOCC [     3,    0,    1,    1 ]

   @DF-RHF iter   7:   -76.02353802727190   -5.43423e-11   7.34924e-08 DIIS
DIIS coefficients:  -0.000  -0.000  0.000  0.005  -0.029  0.127  -0.499  1.396 
    Occupation by irrep:
             A1    A2    B1    B2 
    DOCC [     3,    0,    1,    1 ]

   @DF-RHF iter   8:   -76.02353802727347   -1.57740e-12   1.29160e-08 DIIS
DIIS coefficients:  0.000  0.000  -0.000  -0.001  0.005  -0.025  0.105  -0.343  1.258 
    Occupation by irrep:
             A1    A2    B1    B2 
    DOCC [     3,    0,    1,    1 ]

   @DF-RHF iter   9:   -76.02353802727352   -4.26326e-14   1.09019e-09 DIIS
  Energy and wave function converged.


  ==> Post-Iterations <==

    Orbital Energies [Eh]
    ---------------------

    Doubly Occupied:                                                      

       1A1   -20.557264     2A1    -1.348731     1B1    -0.713801  
       3A1    -0.570553     1B2    -0.498161  

    Virtual:                                                              

       4A1     0.215762     2B1     0.309120     3B1     1.014737  
       5A1     1.097239     6A1     1.136154     2B2     1.168694  
       4B1     1.295761     7A1     1.415220     1A2     1.805294  
       8A1     1.823617     3B2     1.929365     5B1     2.593546  
       9A1     2.593868     6B1     2.845509     2A2     3.004948  
       4B2     3.008070    10A1     3.411821    11A1     3.751769  
       7B1     3.954615    12A1     4.126599  

    Final Occupation by Irrep:
             A1    A2    B1    B2 
    DOCC [     3,    0,    1,    1 ]

  @DF-RHF Final Energy:   -76.02353802727352

   => Energetics <=

    Nuclear Repulsion Energy =              9.3589692861688523
    One-Electron Energy =                -123.3879940918026961
    Two-Electron Energy =                  38.0054867783603285
    Total Energy =                        -76.0235380272735028

Computation Completed


Properties will be evaluated at   0.000000,   0.000000,   0.000000 [a0]

Properties computed using the SCF density matrix

  Nuclear Dipole Moment: [e a0]
     X:     0.0000      Y:    -0.0000      Z:     0.9517

  Electronic Dipole Moment: [e a0]
     X:     0.0000      Y:     0.0000      Z:    -0.1018

  Dipole Moment: [e a0]
     X:     0.0000      Y:    -0.0000      Z:     0.8499     Total:     0.8499

  Dipole Moment: [D]
     X:     0.0000      Y:    -0.0000      Z:     2.1603     Total:     2.1603


*** tstop() called on X1-ubuntu at Sun Sep  6 16:11:57 2020
Module time:
	user time   =       0.40 seconds =       0.01 minutes
	system time =       0.01 seconds =       0.00 minutes
	total time  =          1 seconds =       0.02 minutes
Total time:
	user time   =       1.28 seconds =       0.02 minutes
	system time =       0.03 seconds =       0.00 minutes
	total time  =          2 seconds =       0.03 minutes

*** tstart() called on X1-ubuntu
*** at Sun Sep  6 16:11:57 2020


         ------------------------------------------------------------
                                   SCF GRAD                          
                          Rob Parrish, Justin Turney,                
                       Andy Simmonett, and Alex Sokolov              
         ------------------------------------------------------------

  ==> Geometry <==

    Molecular point group: c2v
    Full point group: C2v

    Geometry (in Angstrom), charge = 0, multiplicity = 1:

       Center              X                  Y                   Z               Mass       
    ------------   -----------------  -----------------  -----------------  -----------------
         O           -0.000000000000     0.000000000000    -0.063984264547    15.994914619570
         H            0.746505714634     0.000000000000     0.507738355222     1.007825032230
         H           -0.746505714634    -0.000000000000     0.507738355222     1.007825032230

           O
              BASIS           6-31G(D_P)           ec2d227169b1af6c6a69bc8715bab79dbd7bb644
              DF_BASIS_SCF    (6-31G(D_P) AUX)     b57462463db1b385e39e4428a46364991bcd7673
           H
              BASIS           6-31G(D_P)           902186d0f3205710946c2c15d2c68458d6f6cc2a
              DF_BASIS_SCF    (6-31G(D_P) AUX)     1164366b470d7a66fddaf681ef9d1c28421b3e4a
           H
              BASIS           6-31G(D_P)           902186d0f3205710946c2c15d2c68458d6f6cc2a
              DF_BASIS_SCF    (6-31G(D_P) AUX)     1164366b470d7a66fddaf681ef9d1c28421b3e4a

  Nuclear repulsion =    9.358969286168852

  ==> Basis Set <==

  -AO BASIS SET INFORMATION:
    Name                   = 6-31G(D_P)
    Blend                  = 6-31G(D_P)
    Total number of shells = 12
    Number of primitives   = 25
    Number of AO           = 25
    Number of SO           = 25
    Maximum AM             = 2
    Spherical Harmonics    = FALSE

  -Contraction Scheme:
    Atom   Type   All Primitives // Shells:
   ------ ------ --------------------------
       1     O     10s 4p 1d // 3s 2p 1d 
       2     H     4s 1p // 2s 1p 
       3     H     4s 1p // 2s 1p 

  ==> AO Basis Functions <==

    [ 6-31G(D_P) ]
    cartesian
    ****
    O   1
    S   6 1.00
                      5484.67170000           0.00183110
                       825.23495000           0.01395010
                       188.04696000           0.06844510
                        52.96450000           0.23271430
                        16.89757000           0.47019300
                         5.79963530           0.35852090
    S   3 1.00
                        15.53961600          -0.11077750
                         3.59993360          -0.14802630
                         1.01376180           1.13076700
    P   3 1.00
                        15.53961600           0.07087430
                         3.59993360           0.33975280
                         1.01376180           0.72715860
    S   1 1.00
                         0.27000580           1.00000000
    P   1 1.00
                         0.27000580           1.00000000
    D   1 1.00
                         0.80000000           1.00000000
    ****
    H   2
    S   3 1.00
                        18.73113700           0.03349460
                         2.82539370           0.23472695
                         0.64012170           0.81375733
    S   1 1.00
                         0.16127780           1.00000000
    P   1 1.00
                         1.10000000           1.00000000
    ****

  ==> DFJKGrad: Density-Fitted SCF Gradients <==

    Gradient:                    1
    J tasked:                  Yes
    K tasked:                  Yes
    wK tasked:                  No
    OpenMP threads:              1
    Integrals threads:           1
    Memory [MiB]:              732
    Schwarz Cutoff:          0E+00
    Fitting Condition:       1E-10

   => Auxiliary Basis Set <=

  -AO BASIS SET INFORMATION:
    Name                   = (6-31G(D_P) AUX)
    Blend                  = CC-PVDZ-JKFIT
    Total number of shells = 42
    Number of primitives   = 42
    Number of AO           = 131
    Number of SO           = 131
    Maximum AM             = 3
    Spherical Harmonics    = FALSE

  -Contraction Scheme:
    Atom   Type   All Primitives // Shells:
   ------ ------ --------------------------
       1     O     10s 7p 5d 2f // 10s 7p 5d 2f 
       2     H     4s 3p 2d // 4s 3p 2d 
       3     H     4s 3p 2d // 4s 3p 2d 

  ==> AO Basis Functions <==

    [ (6-31G(D_P) AUX) ]
    cartesian
    ****
    O   1
    S   1 1.00
                      1517.86675060           1.00000000
    S   1 1.00
                       489.67952008           1.00000000
    S   1 1.00
                       176.72118665           1.00000000
    S   1 1.00
                        63.79223314           1.00000000
    S   1 1.00
                        25.36649913           1.00000000
    S   1 1.00
                         9.91354912           1.00000000
    S   1 1.00
                         4.46453066           1.00000000
    S   1 1.00
                         1.80177437           1.00000000
    S   1 1.00
                         0.80789711           1.00000000
    S   1 1.00
                         0.33864327           1.00000000
    P   1 1.00
                       120.16030921           1.00000000
    P   1 1.00
                        34.40962247           1.00000000
    P   1 1.00
                        12.58114861           1.00000000
    P   1 1.00
                         5.06638242           1.00000000
    P   1 1.00
                         2.03469271           1.00000000
    P   1 1.00
                         0.86092967           1.00000000
    P   1 1.00
                         0.36681357           1.00000000
    D   1 1.00
                        19.04306281           1.00000000
    D   1 1.00
                         5.80603811           1.00000000
    D   1 1.00
                         2.18918416           1.00000000
    D   1 1.00
                         0.87794614           1.00000000
    D   1 1.00
                         0.35623647           1.00000000
    F   1 1.00
                         2.49391479           1.00000000
    F   1 1.00
                         0.82491479           1.00000000
    ****
    H   2
    S   1 1.00
                         9.53024933           1.00000000
    S   1 1.00
                         1.91745062           1.00000000
    S   1 1.00
                         0.68424049           1.00000000
    S   1 1.00
                         0.28413256           1.00000000
    P   1 1.00
                         2.91332320           1.00000000
    P   1 1.00
                         1.26212054           1.00000000
    P   1 1.00
                         0.50199776           1.00000000
    D   1 1.00
                         2.31353291           1.00000000
    D   1 1.00
                         0.71290724           1.00000000
    ****


  -Nuclear Gradient:
     Atom            X                  Y                   Z
    ------   -----------------  -----------------  -----------------
       1        0.000000000000    -0.000000000000     3.081256692906
       2       -2.137243593986    -0.000000000000    -1.540628346453
       3        2.137243593986     0.000000000000    -1.540628346453


  -Core Hamiltonian Gradient:
     Atom            X                  Y                   Z
    ------   -----------------  -----------------  -----------------
       1        0.000000000000    -0.000000000000    -7.166477132211
       2        4.894185475880     0.000000000000     3.583238566105
       3       -4.894185475880    -0.000000000000     3.583238566105


  -Overlap Gradient:
     Atom            X                  Y                   Z
    ------   -----------------  -----------------  -----------------
       1        0.000000000000     0.000000000000     0.432082768521
       2       -0.271516100169    -0.000000000000    -0.216041384260
       3        0.271516100169     0.000000000000    -0.216041384260


  -Coulomb Gradient:
     Atom            X                  Y                   Z
    ------   -----------------  -----------------  -----------------
       1       -0.000000000015     0.000000000000     4.243062695808
       2       -2.885633582522    -0.000000000000    -2.121531347900
       3        2.885633582537    -0.000000000000    -2.121531347908


  -Exchange Gradient:
     Atom            X                  Y                   Z
    ------   -----------------  -----------------  -----------------
       1        0.000000000002    -0.000000000000    -0.588046279939
       2        0.396161190674    -0.000000000000     0.294023139969
       3       -0.396161190677     0.000000000000     0.294023139971


  -Total Gradient:
     Atom            X                  Y                   Z
    ------   -----------------  -----------------  -----------------
       1        0.000000000000     0.000000000000     0.001878745085
       2       -0.004046610128    -0.000000000000    -0.000939372542
       3        0.004046610128     0.000000000000    -0.000939372542


*** tstop() called on X1-ubuntu at Sun Sep  6 16:11:57 2020
Module time:
	user time   =       0.14 seconds =       0.00 minutes
	system time =       0.01 seconds =       0.00 minutes
	total time  =          0 seconds =       0.00 minutes
Total time:
	user time   =       1.42 seconds =       0.02 minutes
	system time =       0.04 seconds =       0.00 minutes
	total time  =          2 seconds =       0.03 minutes

			-----------------------------------------
			 OPTKING 2.0: for geometry optimizations 
			  - R.A. King,  Bethel University        
			-----------------------------------------
dynamic level          =                  0
conv_max_force         =           3.00e-04
conv_rms_force         =           0.00e+00
conv_max_DE            =           1.00e-06
conv_max_disp          =           1.20e-03
conv_rms_disp          =           0.00e+00
SD Hessian             =           1.00e+00
scale_connectivity     =           1.30e+00
interfragment_scale_connectivity =           1.80e+00
fragment_mode          =             single
interfragment_mode        =              fixed
intcos_generate_exit   =              false
print_params           =              false
print_lvl              = 3
ensure_bt_convergence =             false
rfo_follow_root        =              false
rfo_root               =                  0
rfo_normalization_max  =           1.00e+02
rsrfo_alpha_max        =          1.000e+08
step_type              =                RFO
opt. coordinates       = Redundant Internals
linesearch_static_N    =                  8
linesearch_static_min  =          1.000e-03
linesearch_static_max  =          1.000e-01
consecutive_backsteps  =                  0
intrafragment_H        =           Schlegel
interfragment_H        =            Default
H_update               =               BFGS
H_update_use_last      =                  2
freeze_intrafragment   =              false
intrafragment_step_limit=          5.00e-01
interfragment_step_limit=          5.00e-01
add_auxiliary_bonds   =               true
H_guess_every         =              false
auxiliary_bond_factor =          2.50e+00
H_update_limit         =               true
H_update_limit_scale   =           5.00e-01
H_update_limit_max     =           1.00e+00
H_update_den_tol       =           1.00e-07
interfragment_distance_inverse=       false
write_final_step_geometry=            false
maximum_H_bond_distance=           4.30e+00
read_cartesian_H       =              false
fb_fragments          =              false
fb_fragments_only     =              false
frozen_distance: 
frozen_bend: 
frozen_dihedral: 
frozen_cartesian: 
fixed_distance: 
fixed_bend: 
fixed_dihedral: 
print_trajectory_xyz_file =              false

	Previous internal coordinate definitions found.
	---Fragment 1 Geometry and Gradient---
	 O          -0.0000000000        0.0000000000       -0.1209127363
	 H           1.4106913517        0.0000000000        0.9594864348
	 H          -1.4106913517       -0.0000000000        0.9594864348
	             0.0000000000        0.0000000000        0.0018787451
	            -0.0040466101       -0.0000000000       -0.0009393725
	             0.0040466101        0.0000000000       -0.0009393725

	---Fragment 1 Intrafragment Coordinates---
	 - Coordinate -           - BOHR/RAD -       - ANG/DEG -
	 R(1,2)           =         1.776883	       0.940286
	 R(1,3)           =         1.776883	       0.940286
	 B(2,1,3)         =         1.834437	     105.105518

	Current energy   :       -76.0235380273

	Energy change for the previous step:
		Projected    :        -0.0004887594
		Actual       :        -0.0010247299
	Energy ratio =    2.09659
	Energy ratio indicates good step: Trust radius increased to 1.000e+00.

B matrix
 -0.793914 -0.000000 -0.608031  0.793914  0.000000  0.608031  0.000000  0.000000
  0.000000
  0.793914  0.000000 -0.608031  0.000000  0.000000  0.000000 -0.793914 -0.000000
  0.608031
  0.000000  0.000000  0.893603  0.342189  0.000000 -0.446801 -0.342189 -0.000000
 -0.446801
Internal forces in au
   0.003783825954061   0.003783825954061   0.003046789506942

	Performing BFGS update.
	Previous computed or guess Hessian on step 1.
	Steps to be used in Hessian update: 1

Updated Hessian (in au)
  0.582164  0.027430  0.023903
  0.027430  0.582164  0.023903
  0.023903  0.023903  0.179006
	Projection matrix for redundancies.
  1.000000  0.000000 -0.000000
 -0.000000  1.000000 -0.000000
 -0.000000  0.000000  1.000000
Constraint matrix
  0.000000  0.000000  0.000000
  0.000000  0.000000  0.000000
  0.000000  0.000000  0.000000
	Internal forces in au, after projection of redundancies and constraints.
  0.003784  0.003784  0.003047
Projected (PHP) Hessian matrix
  0.582164  0.027430  0.023903
  0.027430  0.582164  0.023903
  0.023903  0.023903  0.179006
	Taking RFO optimization step.
Eigenvalues of scaled RFO matrix.
 -0.000090  0.176408  0.554734  0.612282
First eigenvector (unnormalized) of scaled RFO matrix.
  0.005597  0.005597  0.015515  0.999848
	Going to follow RFO solution 1.
	Using RFO vector 1.
	rfo_root is 1

Scaled RFO eigenvalue 1:   -0.0000896419 (or 2*-0.0000448210  )
eigenvector:
  0.005598  0.005598  0.015518  1.000000

Projection of redundancies out of step:
	Original dq     Projected dq     Difference
	    0.005598        0.005598       0.000000
	    0.005598        0.005598      -0.000000
	    0.015518        0.015518      -0.000000
dq:
  0.005598  0.005598  0.015518
fq:
  0.003784  0.003784  0.003047
	lambda calculated by (dq^t).(-f)     =        -0.0000896419
	Analytic derivative d(norm)/d(alpha) =        -0.0000002484
	Final scaled step dq:
  0.005598  0.005598  0.015518
	Norm of target step-size    0.01742
	Projected energy change by RFO approximation:        -0.0001186320

	Back-transformation to cartesian coordinates...
	 In displace_util 
	       Original         Target           Dq
	   1.7768827926   1.7824806248   0.0055978322
	   1.7768827926   1.7824806248   0.0055978322
	   1.8344373579   1.8499551690   0.0155178111
	---------------------------------------------------
	 Iter        RMS(dx)        Max(dx)        RMS(dq) 
	---------------------------------------------------
	    1        6.4e-03        1.3e-02        5.2e-05
	    2        2.0e-05        4.5e-05        9.5e-10
	    3        6.1e-10        1.2e-09        1.3e-16
	---------------------------------------------------

	Report of back-transformation:
	  int       q_target          Error
	-----------------------------------
	    1   1.7824806248  -0.0000000000
	    2   1.7824806248  -0.0000000000
	    3   1.8499551690  -0.0000000000

	Successfully converged to displaced geometry.

	--- Internal Coordinate Step in ANG or DEG, aJ/ANG or AJ/DEG ---
	 ---------------------------------------------------------------------------
	   Coordinate                Previous        Force       Change         New 
	   ----------                --------       ------       ------       ------
	    1 R(1,2)          =      0.940286     0.031174     0.002962     0.943248
	    2 R(1,3)          =      0.940286     0.031174     0.002962     0.943248
	    3 B(2,1,3)        =    105.105518     0.000232     0.889105   105.994623
	 ---------------------------------------------------------------------------
	Successfully symmetrized geometry.
Symmetrized geometry
  0.000000  0.000000 -0.115840
  1.423502  0.000000  0.956950
 -1.423502 -0.000000  0.956950

  ==> Convergence Check <==

  Measures of convergence in internal coordinates in au.
  Criteria marked as inactive (o), active & met (*), and active & unmet ( ).
  ---------------------------------------------------------------------------------------------
   Step     Total Energy     Delta E     MAX Force     RMS Force      MAX Disp      RMS Disp   
  ---------------------------------------------------------------------------------------------
    Convergence Criteria    1.00e-06 *    3.00e-04 *             o    1.20e-03 *             o
  ---------------------------------------------------------------------------------------------
      2     -76.02353803   -1.02e-03      3.78e-03      3.56e-03 o    1.55e-02      1.01e-02 o  ~
  ---------------------------------------------------------------------------------------------

	Writing optimization data to binary file.
	Structure for next step:
	Cartesian Geometry (in Angstrom)
	    O     0.0000000000   0.0000000000  -0.0613000087
	    H     0.7532848096   0.0000000000   0.5063962254
	    H    -0.7532848096  -0.0000000000   0.5063962254
			--------------------------
			 OPTKING Finished Execution 
			--------------------------

    Structure for next step:
    Molecular point group: c2v
    Full point group: C2v

    Geometry (in Angstrom), charge = 0, multiplicity = 1:

    O           -0.000000000000     0.000000000000    -0.063533652351
    H            0.753284812566     0.000000000000     0.504162583947
    H           -0.753284812566    -0.000000000000     0.504162583947

gradient() will perform analytic gradient computation.

*** tstart() called on X1-ubuntu
*** at Sun Sep  6 16:11:57 2020

   => Loading Basis Set <=

    Name: 6-31G(D_P)
    Role: ORBITAL
    Keyword: BASIS
    atoms 1   entry O          line   149 file /home/dranasinghe/anaconda2/envs/rmgpy3_env/share/psi4/basis/6-31g_d_p_.gbs 
    atoms 2-3 entry H          line    44 file /home/dranasinghe/anaconda2/envs/rmgpy3_env/share/psi4/basis/6-31g_d_p_.gbs 


         ---------------------------------------------------------
                                   SCF
               by Justin Turney, Rob Parrish, Andy Simmonett
                          and Daniel G. A. Smith
                              RHF Reference
                        1 Threads,    976 MiB Core
         ---------------------------------------------------------

  ==> Geometry <==

    Molecular point group: c2v
    Full point group: C2v

    Geometry (in Angstrom), charge = 0, multiplicity = 1:

       Center              X                  Y                   Z               Mass       
    ------------   -----------------  -----------------  -----------------  -----------------
         O            0.000000000000     0.000000000000    -0.063533652351    15.994914619570
         H            0.753284812566     0.000000000000     0.504162583947     1.007825032230
         H           -0.753284812566    -0.000000000000     0.504162583947     1.007825032230

           O
              BASIS           6-31G(D_P)           ec2d227169b1af6c6a69bc8715bab79dbd7bb644
              DF_BASIS_SCF    (6-31G(D_P) AUX)     b57462463db1b385e39e4428a46364991bcd7673
           H
              BASIS           6-31G(D_P)           902186d0f3205710946c2c15d2c68458d6f6cc2a
              DF_BASIS_SCF    (6-31G(D_P) AUX)     1164366b470d7a66fddaf681ef9d1c28421b3e4a
           H
              BASIS           6-31G(D_P)           902186d0f3205710946c2c15d2c68458d6f6cc2a
              DF_BASIS_SCF    (6-31G(D_P) AUX)     1164366b470d7a66fddaf681ef9d1c28421b3e4a

  Running in c2v symmetry.

  Rotational constants: A =     29.22098  B =     14.73883  C =      9.79720 [cm^-1]
  Rotational constants: A = 876022.85313  B = 441858.93319  C = 293712.62836 [MHz]
  Nuclear repulsion =    9.327501087066128

  Charge       = 0
  Multiplicity = 1
  Electrons    = 10
  Nalpha       = 5
  Nbeta        = 5

  ==> Algorithm <==

  SCF Algorithm Type is DF.
  DIIS enabled.
  MOM disabled.
  Fractional occupation disabled.
  Guess Type is READ.
  Energy threshold   = 1.00e-08
  Density threshold  = 1.00e-08
  Integral threshold = 0.00e+00

  ==> Primary Basis <==

  -AO BASIS SET INFORMATION:
    Name                   = 6-31G(D_P)
    Blend                  = 6-31G(D_P)
    Total number of shells = 12
    Number of primitives   = 25
    Number of AO           = 25
    Number of SO           = 25
    Maximum AM             = 2
    Spherical Harmonics    = FALSE

  -Contraction Scheme:
    Atom   Type   All Primitives // Shells:
   ------ ------ --------------------------
       1     O     10s 4p 1d // 3s 2p 1d 
       2     H     4s 1p // 2s 1p 
       3     H     4s 1p // 2s 1p 

  ==> AO Basis Functions <==

    [ 6-31G(D_P) ]
    cartesian
    ****
    O   1
    S   6 1.00
                      5484.67170000           0.00183110
                       825.23495000           0.01395010
                       188.04696000           0.06844510
                        52.96450000           0.23271430
                        16.89757000           0.47019300
                         5.79963530           0.35852090
    S   3 1.00
                        15.53961600          -0.11077750
                         3.59993360          -0.14802630
                         1.01376180           1.13076700
    P   3 1.00
                        15.53961600           0.07087430
                         3.59993360           0.33975280
                         1.01376180           0.72715860
    S   1 1.00
                         0.27000580           1.00000000
    P   1 1.00
                         0.27000580           1.00000000
    D   1 1.00
                         0.80000000           1.00000000
    ****
    H   2
    S   3 1.00
                        18.73113700           0.03349460
                         2.82539370           0.23472695
                         0.64012170           0.81375733
    S   1 1.00
                         0.16127780           1.00000000
    P   1 1.00
                         1.10000000           1.00000000
    ****

   => Loading Basis Set <=

    Name: (6-31G(D_P) AUX)
    Role: JKFIT
    Keyword: DF_BASIS_SCF
    atoms 1   entry O          line   221 file /home/dranasinghe/anaconda2/envs/rmgpy3_env/share/psi4/basis/cc-pvdz-jkfit.gbs 
    atoms 2-3 entry H          line    51 file /home/dranasinghe/anaconda2/envs/rmgpy3_env/share/psi4/basis/cc-pvdz-jkfit.gbs 

   => Loading Basis Set <=

    Name: 6-31G(D_P)
    Role: ORBITAL
    Keyword: BASIS
    atoms 1   entry O          line   149 file /home/dranasinghe/anaconda2/envs/rmgpy3_env/share/psi4/basis/6-31g_d_p_.gbs 
    atoms 2-3 entry H          line    44 file /home/dranasinghe/anaconda2/envs/rmgpy3_env/share/psi4/basis/6-31g_d_p_.gbs 

  Reading orbitals from file 180, no projection.

  ==> Pre-Iterations <==

   -------------------------------------------------------
    Irrep   Nso     Nmo     Nalpha   Nbeta   Ndocc  Nsocc
   -------------------------------------------------------
     A1        12      12       0       0       0       0
     A2         2       2       0       0       0       0
     B1         7       7       0       0       0       0
     B2         4       4       0       0       0       0
   -------------------------------------------------------
    Total      25      25       5       5       5       0
   -------------------------------------------------------

  ==> Integral Setup <==

  DFHelper Memory: AOs need 0.001 GiB; user supplied 0.715 GiB. Using in-core AOs.

  ==> MemDFJK: Density-Fitted J/K Matrices <==

    J tasked:                   Yes
    K tasked:                   Yes
    wK tasked:                   No
    OpenMP threads:               1
    Memory [MiB]:               732
    Algorithm:                 Core
    Schwarz Cutoff:           1E-12
    Mask sparsity (%):       0.0000
    Fitting Condition:        1E-10

   => Auxiliary Basis Set <=

  -AO BASIS SET INFORMATION:
    Name                   = (6-31G(D_P) AUX)
    Blend                  = CC-PVDZ-JKFIT
    Total number of shells = 42
    Number of primitives   = 42
    Number of AO           = 131
    Number of SO           = 131
    Maximum AM             = 3
    Spherical Harmonics    = FALSE

  -Contraction Scheme:
    Atom   Type   All Primitives // Shells:
   ------ ------ --------------------------
       1     O     10s 7p 5d 2f // 10s 7p 5d 2f 
       2     H     4s 3p 2d // 4s 3p 2d 
       3     H     4s 3p 2d // 4s 3p 2d 

  ==> AO Basis Functions <==

    [ (6-31G(D_P) AUX) ]
    cartesian
    ****
    O   1
    S   1 1.00
                      1517.86675060           1.00000000
    S   1 1.00
                       489.67952008           1.00000000
    S   1 1.00
                       176.72118665           1.00000000
    S   1 1.00
                        63.79223314           1.00000000
    S   1 1.00
                        25.36649913           1.00000000
    S   1 1.00
                         9.91354912           1.00000000
    S   1 1.00
                         4.46453066           1.00000000
    S   1 1.00
                         1.80177437           1.00000000
    S   1 1.00
                         0.80789711           1.00000000
    S   1 1.00
                         0.33864327           1.00000000
    P   1 1.00
                       120.16030921           1.00000000
    P   1 1.00
                        34.40962247           1.00000000
    P   1 1.00
                        12.58114861           1.00000000
    P   1 1.00
                         5.06638242           1.00000000
    P   1 1.00
                         2.03469271           1.00000000
    P   1 1.00
                         0.86092967           1.00000000
    P   1 1.00
                         0.36681357           1.00000000
    D   1 1.00
                        19.04306281           1.00000000
    D   1 1.00
                         5.80603811           1.00000000
    D   1 1.00
                         2.18918416           1.00000000
    D   1 1.00
                         0.87794614           1.00000000
    D   1 1.00
                         0.35623647           1.00000000
    F   1 1.00
                         2.49391479           1.00000000
    F   1 1.00
                         0.82491479           1.00000000
    ****
    H   2
    S   1 1.00
                         9.53024933           1.00000000
    S   1 1.00
                         1.91745062           1.00000000
    S   1 1.00
                         0.68424049           1.00000000
    S   1 1.00
                         0.28413256           1.00000000
    P   1 1.00
                         2.91332320           1.00000000
    P   1 1.00
                         1.26212054           1.00000000
    P   1 1.00
                         0.50199776           1.00000000
    D   1 1.00
                         2.31353291           1.00000000
    D   1 1.00
                         0.71290724           1.00000000
    ****

  Minimum eigenvalue in the overlap matrix is 2.1439425656E-02.
  Using Symmetric Orthogonalization.

  SCF Guess: Orbitals guess was supplied from a previous computation.

  ==> Iterations <==

                           Total Energy        Delta E     RMS |[F,P]|

   @DF-RHF iter   0:   -76.01987477904051   -7.60199e+01   6.35396e-04 
DIIS coefficients:  1.000 
    Occupation by irrep:
             A1    A2    B1    B2 
    DOCC [     3,    0,    1,    1 ]

   @DF-RHF iter   1:   -76.02357910273876   -3.70432e-03   1.22621e-04 DIIS
DIIS coefficients:  0.281  0.719 
    Occupation by irrep:
             A1    A2    B1    B2 
    DOCC [     3,    0,    1,    1 ]

   @DF-RHF iter   2:   -76.02358030192607   -1.19919e-06   5.76584e-05 DIIS
DIIS coefficients:  -0.052  0.028  1.024 
    Occupation by irrep:
             A1    A2    B1    B2 
    DOCC [     3,    0,    1,    1 ]

   @DF-RHF iter   3:   -76.02358053896202   -2.37036e-07   1.03638e-05 DIIS
DIIS coefficients:  -0.008  -0.040  -0.135  1.184 
    Occupation by irrep:
             A1    A2    B1    B2 
    DOCC [     3,    0,    1,    1 ]

   @DF-RHF iter   4:   -76.02358055452079   -1.55588e-08   2.48703e-06 DIIS
DIIS coefficients:  0.005  0.014  -0.008  -0.377  1.367 
    Occupation by irrep:
             A1    A2    B1    B2 
    DOCC [     3,    0,    1,    1 ]

   @DF-RHF iter   5:   -76.02358055598573   -1.46494e-09   5.97090e-07 DIIS
DIIS coefficients:  -0.001  -0.003  0.003  0.076  -0.380  1.304 
    Occupation by irrep:
             A1    A2    B1    B2 
    DOCC [     3,    0,    1,    1 ]

   @DF-RHF iter   6:   -76.02358055609142   -1.05686e-10   8.20241e-08 DIIS
DIIS coefficients:  0.000  0.001  -0.001  -0.021  0.112  -0.458  1.367 
    Occupation by irrep:
             A1    A2    B1    B2 
    DOCC [     3,    0,    1,    1 ]

   @DF-RHF iter   7:   -76.02358055609366   -2.24532e-12   1.32517e-08 DIIS
DIIS coefficients:  -0.000  -0.000  0.000  0.004  -0.023  0.103  -0.427  1.342 
    Occupation by irrep:
             A1    A2    B1    B2 
    DOCC [     3,    0,    1,    1 ]

   @DF-RHF iter   8:   -76.02358055609371   -4.26326e-14   1.99611e-09 DIIS
  Energy and wave function converged.


  ==> Post-Iterations <==

    Orbital Energies [Eh]
    ---------------------

    Doubly Occupied:                                                      

       1A1   -20.557288     2A1    -1.346348     1B1    -0.713835  
       3A1    -0.568186     1B2    -0.497573  

    Virtual:                                                              

       4A1     0.215295     2B1     0.308405     3B1     1.016957  
       5A1     1.092856     6A1     1.134581     2B2     1.169027  
       4B1     1.295669     7A1     1.411643     1A2     1.802930  
       8A1     1.830332     3B2     1.932185     5B1     2.583055  
       9A1     2.588974     6B1     2.841468     4B2     2.997969  
       2A2     3.007047    10A1     3.406732    11A1     3.746072  
       7B1     3.945847    12A1     4.128882  

    Final Occupation by Irrep:
             A1    A2    B1    B2 
    DOCC [     3,    0,    1,    1 ]

  @DF-RHF Final Energy:   -76.02358055609371

   => Energetics <=

    Nuclear Repulsion Energy =              9.3275010870661283
    One-Electron Energy =                -123.3357060585362603
    Two-Electron Energy =                  37.9846244153764303
    Total Energy =                        -76.0235805560937052

Computation Completed


Properties will be evaluated at   0.000000,   0.000000,   0.000000 [a0]

Properties computed using the SCF density matrix

  Nuclear Dipole Moment: [e a0]
     X:     0.0000      Y:     0.0000      Z:     0.9450

  Electronic Dipole Moment: [e a0]
     X:     0.0000      Y:     0.0000      Z:    -0.1001

  Dipole Moment: [e a0]
     X:     0.0000      Y:     0.0000      Z:     0.8449     Total:     0.8449

  Dipole Moment: [D]
     X:     0.0000      Y:     0.0000      Z:     2.1475     Total:     2.1475


[...]
                        12.58114861           1.00000000
    P   1 1.00
                         5.06638242           1.00000000
    P   1 1.00
                         2.03469271           1.00000000
    P   1 1.00
                         0.86092967           1.00000000
    P   1 1.00
                         0.36681357           1.00000000
    D   1 1.00
                        19.04306281           1.00000000
    D   1 1.00
                         5.80603811           1.00000000
    D   1 1.00
                         2.18918416           1.00000000
    D   1 1.00
                         0.87794614           1.00000000
    D   1 1.00
                         0.35623647           1.00000000
    F   1 1.00
                         2.49391479           1.00000000
    F   1 1.00
                         0.82491479           1.00000000
    ****
    H   2
    S   1 1.00
                         9.53024933           1.00000000
    S   1 1.00
                         1.91745062           1.00000000
    S   1 1.00
                         0.68424049           1.00000000
    S   1 1.00
                         0.28413256           1.00000000
    P   1 1.00
                         2.91332320           1.00000000
    P   1 1.00
                         1.26212054           1.00000000
    P   1 1.00
                         0.50199776           1.00000000
    D   1 1.00
                         2.31353291           1.00000000
    D   1 1.00
                         0.71290724           1.00000000
    ****
    H   3
    S   1 1.00
                         9.53024933           1.00000000
    S   1 1.00
                         1.91745062           1.00000000
    S   1 1.00
                         0.68424049           1.00000000
    S   1 1.00
                         0.28413256           1.00000000
    P   1 1.00
                         2.91332320           1.00000000
    P   1 1.00
                         1.26212054           1.00000000
    P   1 1.00
                         0.50199776           1.00000000
    D   1 1.00
                         2.31353291           1.00000000
    D   1 1.00
                         0.71290724           1.00000000
    ****


  -Nuclear Gradient:
     Atom            X                  Y                   Z
    ------   -----------------  -----------------  -----------------
       1       -0.016169184748     0.000000000000     3.030863001563
       2       -2.126135338793     0.000000000000    -1.509152450943
       3        2.142304523541     0.000000000000    -1.521710550620


  -Core Hamiltonian Gradient:
     Atom            X                  Y                   Z
    ------   -----------------  -----------------  -----------------
       1        0.022416524355     0.000000000000    -7.037901093244
       2        4.900536034794     0.000000000000     3.508946258174
       3       -4.922952559149     0.000000000000     3.528954835070


  -Overlap Gradient:
     Atom            X                  Y                   Z
    ------   -----------------  -----------------  -----------------
       1       -0.001128611680    -0.000000000000     0.424281284405
       2       -0.272307643563    -0.000000000000    -0.211612059623
       3        0.273436255242    -0.000000000000    -0.212669224782


  -Coulomb Gradient:
     Atom            X                  Y                   Z
    ------   -----------------  -----------------  -----------------
       1       -0.010487142490    -0.000000000000     4.158664584112
       2       -2.897870632678    -0.000000000000    -2.073965936942
       3        2.908357775168     0.000000000000    -2.084698647170


  -Exchange Gradient:
     Atom            X                  Y                   Z
    ------   -----------------  -----------------  -----------------
       1        0.001619718434    -0.000000000000    -0.576109925560
       2        0.397873356952     0.000000000000     0.287297924949
       3       -0.399493075387    -0.000000000000     0.288812000611


  -Total Gradient:
     Atom            X                  Y                   Z
    ------   -----------------  -----------------  -----------------
       1       -0.003748696129     0.000000000000    -0.000202148724
       2        0.002095776713     0.000000000000     0.001513735615
       3        0.001652919416     0.000000000000    -0.001311586891


*** tstop() called on X1-ubuntu at Sun Sep  6 16:12:04 2020
Module time:
	user time   =       0.14 seconds =       0.00 minutes
	system time =       0.02 seconds =       0.00 minutes
	total time  =          0 seconds =       0.00 minutes
Total time:
	user time   =       8.87 seconds =       0.15 minutes
	system time =       0.25 seconds =       0.00 minutes
	total time  =          9 seconds =       0.15 minutes

         ----------------------------------------------------------
                                   FINDIF
                     R. A. King and Jonathon Misiewicz
         ---------------------------------------------------------

  Computing second-derivative from gradients using projected, 
  symmetry-adapted, cartesian coordinates.

  6 gradients passed in, including the reference geometry.
  Generating complete list of displacements from unique ones.

    The atom map:
     1 :    1   1   1   1
     2 :    2   3   2   3
     3 :    3   2   3   2

    Symmetric gradients

[[ 0.0000000000e+00 -7.2566575114e-28 -2.2109769598e-03]
 [ 1.1206319660e-03  3.4309459115e-20  1.1054884799e-03]
 [-1.1206319660e-03 -3.4309458391e-20  1.1054884799e-03]]

[[ 0.0000000000e+00 -9.6635460890e-29  1.7728890604e-03]
 [-6.6274599457e-04 -2.0290743975e-20 -8.8644453002e-04]
 [ 6.6274599457e-04  2.0290744070e-20 -8.8644453002e-04]]

[[ 0.0000000000e+00 -1.0362550807e-27  1.4711759992e-03]
 [-1.4447742554e-03 -4.4233453667e-20 -7.3558799956e-04]
 [ 1.4447742554e-03  4.4233454703e-20 -7.3558799956e-04]]

[[ 0.0000000000e+00 -2.5847520598e-28 -1.8901342834e-03]
 [ 1.8978127130e-03  5.8103756738e-20  9.4506714176e-04]
 [-1.8978127130e-03 -5.8103756480e-20  9.4506714176e-04]]
Characters for irrep 2
   1.0  -1.0   1.0  -1.0
    Operation 2 takes plus displacements of irrep B1 to minus ones.
    All mass-weighted gradients

[[ 0.0000000000e+00 -1.8144527502e-28 -5.5283210197e-04]
 [ 1.1162730403e-03  3.4176005504e-20  1.1011884579e-03]
 [-1.1162730403e-03 -3.4176004782e-20  1.1011884579e-03]]

[[ 0.0000000000e+00 -2.4162705420e-29  4.4329271794e-04]
 [-6.6016810938e-04 -2.0211819004e-20 -8.8299652394e-04]
 [ 6.6016810938e-04  2.0211819099e-20 -8.8299652394e-04]]

[[ 0.0000000000e+00 -2.5910494992e-28  3.6785246287e-04]
 [-1.4391545125e-03 -4.4061398663e-20 -7.3272678060e-04]
 [ 1.4391545125e-03  4.4061399695e-20 -7.3272678060e-04]]

[[ 0.0000000000e+00 -6.4629073042e-29 -4.7260868292e-04]
 [ 1.8904307849e-03  5.7877750373e-20  9.4139111112e-04]
 [-1.8904307849e-03 -5.7877750115e-20  9.4139111112e-04]]

[[-9.3732300166e-04  0.0000000000e+00 -5.0545214264e-05]
 [ 2.0876247635e-03  0.0000000000e+00  1.5078476328e-03]
 [ 1.6464900502e-03  0.0000000000e+00 -1.3064852070e-03]]

[[ 9.3732300166e-04  1.1478896137e-19 -5.0545214264e-05]
 [-1.6464900502e-03 -2.0163687698e-19 -1.3064852070e-03]
 [-2.0876247635e-03 -2.5566029844e-19  1.5078476328e-03]]
Gradients in B-matrix coordinates
 disp 0:   -0.0016525300   0.0015786485
 disp 1:    0.0013250940  -0.0009336187
 disp 2:    0.0010995874  -0.0020352718
 disp 3:   -0.0014127255   0.0026734729

    Force Constants for irrep A1 in mass-weighted, symmetry-adapted cartesian coordinates.

[[ 0.2977624009 -0.2512290059]
 [-0.2512290059  0.4708744685]]

    Normal coordinates (non-mass-weighted) for irrep A1:

[[ 0.            0.          ]
 [ 0.            0.          ]
 [-0.0485681745 -0.0681031268]
 [ 0.5734645059 -0.4089698304]
 [ 0.            0.          ]
 [ 0.3854060873  0.5404230214]
 [-0.5734645059  0.4089698304]
 [ 0.            0.          ]
 [ 0.3854060873  0.5404230214]]
Gradients in B-matrix coordinates
 disp 0:   -0.0034366576

    Force Constants for irrep B1 in mass-weighted, symmetry-adapted cartesian coordinates.

[[0.6873315294]]

    Normal coordinates (non-mass-weighted) for irrep B1:

[[ 0.0681981244]
 [ 0.          ]
 [ 0.          ]
 [-0.5411768619]
 [ 0.          ]
 [-0.4078458274]
 [-0.5411768619]
 [ 0.          ]
 [ 0.4078458274]]

    Force constant matrix for all computed irreps in mass-weighted SALCS.

[[ 0.2977624009 -0.2512290059  0.          ]
 [-0.2512290059  0.4708744685  0.          ]
 [ 0.            0.            0.6873315294]]

    Force constants in mass-weighted Cartesian coordinates.

[[ 0.0511320322  0.            0.           -0.1018500979  0.
  -0.0767570463 -0.1018500979  0.            0.0767570463]
 [ 0.            0.            0.            0.            0.
   0.            0.            0.            0.          ]
 [ 0.            0.            0.0333240414 -0.059429036   0.
  -0.0663782903  0.059429036   0.           -0.0663782903]
 [-0.1018500979  0.           -0.059429036   0.4383128484  0.
   0.2712695978 -0.0325616201  0.           -0.0345157324]
 [ 0.            0.            0.            0.            0.
   0.            0.            0.            0.          ]
 [-0.0767570463  0.           -0.0663782903  0.2712695978  0.
   0.2474433143  0.0345157324  0.            0.0169950453]
 [-0.1018500979  0.            0.059429036  -0.0325616201  0.
   0.0345157324  0.4383128484  0.           -0.2712695978]
 [ 0.            0.            0.            0.            0.
   0.            0.            0.            0.          ]
 [ 0.0767570463  0.           -0.0663782903 -0.0345157324  0.
   0.0169950453 -0.2712695978  0.            0.2474433143]]

    Force constants in Cartesian coordinates.

[[ 0.8178524894  0.            0.           -0.4089262447  0.
  -0.3081781103 -0.4089262447  0.            0.3081781103]
 [ 0.            0.            0.            0.            0.
   0.            0.            0.            0.          ]
 [ 0.            0.            0.5330151965 -0.238606472   0.
  -0.2665075982  0.238606472   0.           -0.2665075982]
 [-0.4089262447  0.           -0.238606472   0.4417426605  0.
   0.2733922911 -0.0328164158  0.           -0.0347858191]
 [ 0.            0.            0.            0.            0.
   0.            0.            0.            0.          ]
 [-0.3081781103  0.           -0.2665075982  0.2733922911  0.
   0.2493795662  0.0347858191  0.            0.0171280321]
 [-0.4089262447  0.            0.238606472  -0.0328164158  0.
   0.0347858191  0.4417426605  0.           -0.2733922911]
 [ 0.            0.            0.            0.            0.
   0.            0.            0.            0.          ]
 [ 0.3081781103  0.           -0.2665075982 -0.0347858191  0.
   0.0171280321 -0.2733922911  0.            0.2493795662]]

-------------------------------------------------------------


  ==> Harmonic Vibrational Analysis <==

  non-mass-weighted Hessian:       Symmetric? True   Hermitian? True   Lin Dep Dim?  6 (0)
  projection of translations (True) and rotations (True) removed 6 degrees of freedom (6)
  total projector:                 Symmetric? True   Hermitian? True   Lin Dep Dim?  6 (6)
  mass-weighted Hessian:           Symmetric? True   Hermitian? True   Lin Dep Dim?  6 (0)
  pre-proj  low-frequency mode:    0.0000i [cm^-1]
  pre-proj  low-frequency mode:    0.0000i [cm^-1]
  pre-proj  low-frequency mode:    0.0000  [cm^-1]
  pre-proj  low-frequency mode:    0.0000  [cm^-1]
  pre-proj  low-frequency mode:    0.0000  [cm^-1]
  pre-proj  low-frequency mode:    0.0000  [cm^-1]
  pre-proj  all modes:['0.0001i' '0.0000i' '0.0000' '0.0000' '0.0000' '0.0000' '1770.2755'
 '4144.5208' '4261.7445']
  projected mass-weighted Hessian: Symmetric? True   Hermitian? True   Lin Dep Dim?  6 (6)
  post-proj low-frequency mode:    0.0001i [cm^-1] (TR)
  post-proj low-frequency mode:    0.0000i [cm^-1] (TR)
  post-proj low-frequency mode:    0.0000i [cm^-1] (TR)
  post-proj low-frequency mode:    0.0000i [cm^-1] (TR)
  post-proj low-frequency mode:    0.0000  [cm^-1] (TR)
  post-proj low-frequency mode:    0.0000  [cm^-1] (TR)
  post-proj  all modes:['0.0001i' '0.0000i' '0.0000i' '0.0000i' '0.0000' '0.0000' '1770.2755'
 '4144.5208' '4261.7445']

  Vibration                       7                   8                   9           
  Freq [cm^-1]                1770.2755           4144.5208           4261.7445       
  Irrep                           A1                  A1                  B1          
  Reduced mass [u]              1.0831              1.0448              1.0833        
  Force const [mDyne/A]         1.9999             10.5734             11.5928        
  Turning point v=0 [a0]        0.2506              0.1668              0.1615        
  RMS dev v=0 [a0 u^1/2]        0.1844              0.1205              0.1189        
  Char temp [K]               2547.0323           5963.0427           6131.7015       
  ----------------------------------------------------------------------------------
      1   O                0.00  0.00 -0.07   -0.00 -0.00 -0.05   -0.07  0.00 -0.00   
      2   H               -0.43 -0.00  0.56    0.59  0.00  0.39    0.56  0.00  0.42   
      3   H                0.43 -0.00  0.56   -0.59 -0.00  0.39    0.56 -0.00 -0.42   

  ==> Thermochemistry Components <==

  Entropy, S
    Electronic S            0.000 [cal/(mol K)]        0.000 [J/(mol K)]       0.00000000 [mEh/K] (multiplicity = 1)
    Translational S        34.608 [cal/(mol K)]      144.801 [J/(mol K)]       0.05515177 [mEh/K] (mol. weight = 18.0106 [u], P = 101325.00 [Pa])
    Rotational S           10.346 [cal/(mol K)]       43.287 [J/(mol K)]       0.01648701 [mEh/K] (symmetry no. = 2)
    Vibrational S           0.004 [cal/(mol K)]        0.015 [J/(mol K)]       0.00000589 [mEh/K]
  Total S                  44.958 [cal/(mol K)]      188.103 [J/(mol K)]       0.07164468 [mEh/K]
  Correction S              0.000 [cal/(mol K)]        0.000 [J/(mol K)]       0.00000000 [mEh/K]

  Constant volume heat capacity, Cv
    Electronic Cv           0.000 [cal/(mol K)]        0.000 [J/(mol K)]       0.00000000 [mEh/K]
    Translational Cv        2.981 [cal/(mol K)]       12.472 [J/(mol K)]       0.00475022 [mEh/K]
    Rotational Cv           2.981 [cal/(mol K)]       12.472 [J/(mol K)]       0.00475022 [mEh/K]
    Vibrational Cv          0.028 [cal/(mol K)]        0.118 [J/(mol K)]       0.00004508 [mEh/K]
  Total Cv                  5.990 [cal/(mol K)]       25.062 [J/(mol K)]       0.00954551 [mEh/K]
  Correction Cv             0.000 [cal/(mol K)]        0.000 [J/(mol K)]       0.00000000 [mEh/K]

  Constant pressure heat capacity, Cp
    Electronic Cp           0.000 [cal/(mol K)]        0.000 [J/(mol K)]       0.00000000 [mEh/K]
    Translational Cp        4.968 [cal/(mol K)]       20.786 [J/(mol K)]       0.00791703 [mEh/K]
    Rotational Cp           2.981 [cal/(mol K)]       12.472 [J/(mol K)]       0.00475022 [mEh/K]
    Vibrational Cp          0.028 [cal/(mol K)]        0.118 [J/(mol K)]       0.00004508 [mEh/K]
  Total Cp                  7.977 [cal/(mol K)]       33.376 [J/(mol K)]       0.01271232 [mEh/K]
  Correction Cp             0.000 [cal/(mol K)]        0.000 [J/(mol K)]       0.00000000 [mEh/K]

  ==> Thermochemistry Energy Analysis <==

  Raw electronic energy, E0
  Total E0, Electronic energy at well bottom at 0 [K]                  -76.02358056 [Eh]

  Zero-point energy, ZPE_vib = Sum_i nu_i / 2
    Electronic ZPE          0.000 [kcal/mol]        0.000 [kJ/mol]       0.00000000 [Eh]
    Translational ZPE       0.000 [kcal/mol]        0.000 [kJ/mol]       0.00000000 [Eh]
    Rotational ZPE          0.000 [kcal/mol]        0.000 [kJ/mol]       0.00000000 [Eh]
    Vibrational ZPE        14.548 [kcal/mol]       60.869 [kJ/mol]       0.02318387 [Eh]        5088.270 [cm^-1]
  Correction ZPE           14.548 [kcal/mol]       60.869 [kJ/mol]       0.02318387 [Eh]        5088.270 [cm^-1]
  Total ZPE, Electronic energy at 0 [K]                                -76.00039669 [Eh]

  Thermal Energy, E (includes ZPE)
    Electronic E            0.000 [kcal/mol]        0.000 [kJ/mol]       0.00000000 [Eh]
    Translational E         0.889 [kcal/mol]        3.718 [kJ/mol]       0.00141628 [Eh]
    Rotational E            0.889 [kcal/mol]        3.718 [kJ/mol]       0.00141628 [Eh]
    Vibrational E          14.549 [kcal/mol]       60.873 [kJ/mol]       0.02318544 [Eh]
  Correction E             16.327 [kcal/mol]       68.310 [kJ/mol]       0.02601799 [Eh]
  Total E, Electronic energy at  298.15 [K]                            -75.99756256 [Eh]

  Enthalpy, H_trans = E_trans + k_B * T
    Electronic H            0.000 [kcal/mol]        0.000 [kJ/mol]       0.00000000 [Eh]
    Translational H         1.481 [kcal/mol]        6.197 [kJ/mol]       0.00236046 [Eh]
    Rotational H            0.889 [kcal/mol]        3.718 [kJ/mol]       0.00141628 [Eh]
    Vibrational H          14.549 [kcal/mol]       60.873 [kJ/mol]       0.02318544 [Eh]
  Correction H             16.919 [kcal/mol]       70.789 [kJ/mol]       0.02696218 [Eh]
  Total H, Enthalpy at  298.15 [K]                                     -75.99661838 [Eh]

  Gibbs free energy, G = H - T * S
    Electronic G            0.000 [kcal/mol]        0.000 [kJ/mol]       0.00000000 [Eh]
    Translational G        -8.837 [kcal/mol]      -36.975 [kJ/mol]      -0.01408304 [Eh]
    Rotational G           -2.196 [kcal/mol]       -9.187 [kJ/mol]      -0.00349933 [Eh]
    Vibrational G          14.548 [kcal/mol]       60.869 [kJ/mol]       0.02318368 [Eh]
  Correction G              3.515 [kcal/mol]       14.706 [kJ/mol]       0.00560132 [Eh]
  Total G, Free enthalpy at  298.15 [K]                                -76.01797924 [Eh]
  ## New Matrix (Symmetry 0) ##
  Irrep: 1 Size: 9 x 9

                 1                   2                   3                   4                   5

    1     0.81785248941950     0.00000000000000     0.00000000000000    -0.40892624470975     0.00000000000000
    2     0.00000000000000     0.00000000000000     0.00000000000000     0.00000000000000     0.00000000000000
    3     0.00000000000000     0.00000000000000     0.53301519649684    -0.23860647201036     0.00000000000000
    4    -0.40892624470975     0.00000000000000    -0.23860647201036     0.44174266053145     0.00000000000000
    5     0.00000000000000     0.00000000000000     0.00000000000000     0.00000000000000     0.00000000000000
    6    -0.30817811028781     0.00000000000000    -0.26650759824842     0.27339229114909     0.00000000000000
    7    -0.40892624470975     0.00000000000000     0.23860647201036    -0.03281641582170     0.00000000000000
    8     0.00000000000000     0.00000000000000     0.00000000000000     0.00000000000000     0.00000000000000
    9     0.30817811028781     0.00000000000000    -0.26650759824842    -0.03478581913872     0.00000000000000

                 6                   7                   8                   9

    1    -0.30817811028781    -0.40892624470975     0.00000000000000     0.30817811028781
    2     0.00000000000000     0.00000000000000     0.00000000000000     0.00000000000000
    3    -0.26650759824842     0.23860647201036     0.00000000000000    -0.26650759824842
    4     0.27339229114909    -0.03281641582170     0.00000000000000    -0.03478581913872
    5     0.00000000000000     0.00000000000000     0.00000000000000     0.00000000000000
    6     0.24937956616562     0.03478581913872     0.00000000000000     0.01712803208280
    7     0.03478581913872     0.44174266053145     0.00000000000000    -0.27339229114909
    8     0.00000000000000     0.00000000000000     0.00000000000000     0.00000000000000
    9     0.01712803208280    -0.27339229114909     0.00000000000000     0.24937956616562




    Psi4 stopped on: Sunday, 06 September 2020 04:12PM
    Psi4 wall time for execution: 0:00:09.29

*** Psi4 exiting successfully. Buy a developer a beer!
