
    -----------------------------------------------------------------------
          Psi4: An Open-Source Ab Initio Electronic Structure Package
                               Psi4 1.3.2 release

                         Git: Rev {HEAD} ecbda83 


    R. M. Parrish, L. A. Burns, D. G. A. Smith, A. C. Simmonett,
    A. E. DePrince III, E. G. Hohenstein, U. Bozkaya, A. Yu. Sokolov,
    R. Di Remigio, R. M. Richard, J. F. Gonthier, A. M. James,
    H. R. McAlexander, A. Kumar, M. Saitow, X. Wang, B. P. Pritchard,
    P. Verma, H. F. Schaefer III, K. Patkowski, R. A. King, E. F. Valeev,
    F. A. Evangelista, J. M. Turney, T. D. Crawford, and C. D. Sherrill,
    J. Chem. Theory Comput. 13(7) pp 3185--3197 (2017).
    (doi: 10.1021/acs.jctc.7b00174)


                         Additional Contributions by
    P. Kraus, H. Kruse, M. H. Lechner, M. C. Schieber, R. A. Shaw,
    A. Alenaizan, R. Galvelis, Z. L. Glick, S. Lehtola, and J. P. Misiewicz

    -----------------------------------------------------------------------


    Psi4 started on: Sunday, 06 September 2020 03:58PM

    Process ID: 10059
    Host:       X1-ubuntu
    PSIDATADIR: /home/dranasinghe/anaconda2/envs/rmgpy3_env/share/psi4
    Memory:     500.0 MiB
    Threads:    1
    
  ==> Input File <==

--------------------------------------------------------------------------
memory 1024 mb

molecule mol {
0 1
O                 -1.02870815   -0.00797448    0.00000000
H                 -0.06870815   -0.00797448    0.00000000
H                 -1.34916274    0.89696135    0.00000000
}
set {
  scf_type DIRECT
  basis 6-31G(d_p)
  reference uks
  geom_maxiter 50
  print 3
}

optimize('b3lyp')
scf_e, wfn=frequencies('b3lyp', return_wfn=True, dertype=1)
wfn.hessian().print_out()

--------------------------------------------------------------------------

  Memory set to 976.562 MiB by Python driver.
gradient() will perform analytic gradient computation.

*** tstart() called on X1-ubuntu
*** at Sun Sep  6 15:58:59 2020

   => Loading Basis Set <=

    Name: 6-31G(D_P)
    Role: ORBITAL
    Keyword: BASIS
    atoms 1   entry O          line   149 file /home/dranasinghe/anaconda2/envs/rmgpy3_env/share/psi4/basis/6-31g_d_p_.gbs 
    atoms 2-3 entry H          line    44 file /home/dranasinghe/anaconda2/envs/rmgpy3_env/share/psi4/basis/6-31g_d_p_.gbs 


         ---------------------------------------------------------
                                   SCF
               by Justin Turney, Rob Parrish, Andy Simmonett
                          and Daniel G. A. Smith
                              UKS Reference
                        1 Threads,    976 MiB Core
         ---------------------------------------------------------

  ==> Geometry <==

    Molecular point group: c2v
    Full point group: C2v

    Geometry (in Angstrom), charge = 0, multiplicity = 1:

       Center              X                  Y                   Z               Mass       
    ------------   -----------------  -----------------  -----------------  -----------------
         O           -0.000000000000     0.000000000000    -0.062007485347    15.994914619570
         H            0.783975894634     0.000000000000     0.492051895015     1.007825032230
         H           -0.783975894634    -0.000000000000     0.492051895015     1.007825032230

           O
              BASIS           6-31G(D_P)           ec2d227169b1af6c6a69bc8715bab79dbd7bb644
           H
              BASIS           6-31G(D_P)           902186d0f3205710946c2c15d2c68458d6f6cc2a
           H
              BASIS           6-31G(D_P)           902186d0f3205710946c2c15d2c68458d6f6cc2a

  Running in c2v symmetry.

  Rotational constants: A =     30.67709  B =     13.60742  C =      9.42623 [cm^-1]
  Rotational constants: A = 919675.97593  B = 407940.33087  C = 282591.37824 [MHz]
  Nuclear repulsion =    9.157116019082448

  Charge       = 0
  Multiplicity = 1
  Electrons    = 10
  Nalpha       = 5
  Nbeta        = 5

  ==> Algorithm <==

  SCF Algorithm Type is DIRECT.
  DIIS enabled.
  MOM disabled.
  Fractional occupation disabled.
  Guess Type is SAD.
  Energy threshold   = 1.00e-08
  Density threshold  = 1.00e-08
  Integral threshold = 0.00e+00

  ==> Primary Basis <==

  -AO BASIS SET INFORMATION:
    Name                   = 6-31G(D_P)
    Blend                  = 6-31G(D_P)
    Total number of shells = 12
    Number of primitives   = 25
    Number of AO           = 25
    Number of SO           = 25
    Maximum AM             = 2
    Spherical Harmonics    = FALSE

  -Contraction Scheme:
    Atom   Type   All Primitives // Shells:
   ------ ------ --------------------------
       1     O     10s 4p 1d // 3s 2p 1d 
       2     H     4s 1p // 2s 1p 
       3     H     4s 1p // 2s 1p 

  ==> AO Basis Functions <==

    [ 6-31G(D_P) ]
    cartesian
    ****
    O   1
    S   6 1.00
                      5484.67170000           0.00183110
                       825.23495000           0.01395010
                       188.04696000           0.06844510
                        52.96450000           0.23271430
                        16.89757000           0.47019300
                         5.79963530           0.35852090
    S   3 1.00
                        15.53961600          -0.11077750
                         3.59993360          -0.14802630
                         1.01376180           1.13076700
    P   3 1.00
                        15.53961600           0.07087430
                         3.59993360           0.33975280
                         1.01376180           0.72715860
    S   1 1.00
                         0.27000580           1.00000000
    P   1 1.00
                         0.27000580           1.00000000
    D   1 1.00
                         0.80000000           1.00000000
    ****
    H   2
    S   3 1.00
                        18.73113700           0.03349460
                         2.82539370           0.23472695
                         0.64012170           0.81375733
    S   1 1.00
                         0.16127780           1.00000000
    P   1 1.00
                         1.10000000           1.00000000
    ****

  ==> DFT Potential <==

   => Composite Functional: B3LYP <= 

    B3LYP Hyb-GGA Exchange-Correlation Functional

    P. J. Stephens, F. J. Devlin, C. F. Chabalowski, and M. J. Frisch, J. Phys. Chem. 98, 11623 (1994)

    Deriv               =              1
    GGA                 =           TRUE
    Meta                =          FALSE

    Exchange Hybrid     =           TRUE
    MP2 Hybrid          =          FALSE

   => Exchange Functionals <=

    0.0800   Slater exchange
    0.7200         Becke 88

   => Exact (HF) Exchange <=

    0.2000               HF 

   => Correlation Functionals <=

    0.1900   Vosko, Wilk & Nusair (VWN5_RPA)
    0.8100   Lee, Yang & Parr

   => XC_HYB_GGA_XC_B3LYP Functional <=

    B3LYP
    P. J. Stephens, F. J. Devlin, C. F. Chabalowski, and M. J. Frisch, J. Phys. Chem. 98, 11623 (1994)
    GGA   =           TRUE
    Meta  =          FALSE
    LRC   =          FALSE
    Alpha =   1.000000E+00
    Omega =   0.000000E+00

    > Parameters <


   => Molecular Quadrature <=

    Radial Scheme          =       TREUTLER
    Pruning Scheme         =           FLAT
    Nuclear Scheme         =       TREUTLER

    BS radius alpha        =              1
    Pruning alpha          =              1
    Radial Points          =             75
    Spherical Points       =            302
    Total Points           =          65565
    Total Blocks           =            562
    Max Points             =            256
    Max Functions          =             25

   => Loading Basis Set <=

    Name: (6-31G(D_P) AUX)
    Role: JKFIT
    Keyword: DF_BASIS_SCF
    atoms 1   entry O          line   221 file /home/dranasinghe/anaconda2/envs/rmgpy3_env/share/psi4/basis/cc-pvdz-jkfit.gbs 
    atoms 2-3 entry H          line    51 file /home/dranasinghe/anaconda2/envs/rmgpy3_env/share/psi4/basis/cc-pvdz-jkfit.gbs 

  Starting with a DF guess...

  ==> Pre-Iterations <==

   -------------------------------------------------------
    Irrep   Nso     Nmo     Nalpha   Nbeta   Ndocc  Nsocc
   -------------------------------------------------------
     A1        12      12       0       0       0       0
     A2         2       2       0       0       0       0
     B1         7       7       0       0       0       0
     B2         4       4       0       0       0       0
   -------------------------------------------------------
    Total      25      25       5       5       5       0
   -------------------------------------------------------

  ==> Integral Setup <==

  DFHelper Memory: AOs need 0.001 GiB; user supplied 0.669 GiB. Using in-core AOs.

  ==> MemDFJK: Density-Fitted J/K Matrices <==

    J tasked:                   Yes
    K tasked:                   Yes
    wK tasked:                   No
    OpenMP threads:               1
    Memory [MiB]:               685
    Algorithm:                 Core
    Schwarz Cutoff:           1E-12
    Mask sparsity (%):       0.0000
    Fitting Condition:        1E-10

   => Auxiliary Basis Set <=

  -AO BASIS SET INFORMATION:
    Name                   = (6-31G(D_P) AUX)
    Blend                  = CC-PVDZ-JKFIT
    Total number of shells = 42
    Number of primitives   = 42
    Number of AO           = 131
    Number of SO           = 131
    Maximum AM             = 3
    Spherical Harmonics    = FALSE

  -Contraction Scheme:
    Atom   Type   All Primitives // Shells:
   ------ ------ --------------------------
       1     O     10s 7p 5d 2f // 10s 7p 5d 2f 
       2     H     4s 3p 2d // 4s 3p 2d 
       3     H     4s 3p 2d // 4s 3p 2d 

  ==> AO Basis Functions <==

    [ (6-31G(D_P) AUX) ]
    cartesian
    ****
    O   1
    S   1 1.00
                      1517.86675060           1.00000000
    S   1 1.00
                       489.67952008           1.00000000
    S   1 1.00
                       176.72118665           1.00000000
    S   1 1.00
                        63.79223314           1.00000000
    S   1 1.00
                        25.36649913           1.00000000
    S   1 1.00
                         9.91354912           1.00000000
    S   1 1.00
                         4.46453066           1.00000000
    S   1 1.00
                         1.80177437           1.00000000
    S   1 1.00
                         0.80789711           1.00000000
    S   1 1.00
                         0.33864327           1.00000000
    P   1 1.00
                       120.16030921           1.00000000
    P   1 1.00
                        34.40962247           1.00000000
    P   1 1.00
                        12.58114861           1.00000000
    P   1 1.00
                         5.06638242           1.00000000
    P   1 1.00
                         2.03469271           1.00000000
    P   1 1.00
                         0.86092967           1.00000000
    P   1 1.00
                         0.36681357           1.00000000
    D   1 1.00
                        19.04306281           1.00000000
    D   1 1.00
                         5.80603811           1.00000000
    D   1 1.00
                         2.18918416           1.00000000
    D   1 1.00
                         0.87794614           1.00000000
    D   1 1.00
                         0.35623647           1.00000000
    F   1 1.00
                         2.49391479           1.00000000
    F   1 1.00
                         0.82491479           1.00000000
    ****
    H   2
    S   1 1.00
                         9.53024933           1.00000000
    S   1 1.00
                         1.91745062           1.00000000
    S   1 1.00
                         0.68424049           1.00000000
    S   1 1.00
                         0.28413256           1.00000000
    P   1 1.00
                         2.91332320           1.00000000
    P   1 1.00
                         1.26212054           1.00000000
    P   1 1.00
                         0.50199776           1.00000000
    D   1 1.00
                         2.31353291           1.00000000
    D   1 1.00
                         0.71290724           1.00000000
    ****

  Cached 100.0% of DFT collocation blocks in 0.046 [GiB].

  Minimum eigenvalue in the overlap matrix is 2.2118711913E-02.
  Using Symmetric Orthogonalization.

  SCF Guess: Superposition of Atomic Densities via on-the-fly atomic UHF.

DIIS coefficients:  1.000 
DIIS coefficients:  0.329  0.671 
DIIS coefficients:  -0.027  -0.001  1.028 
DIIS coefficients:  -0.002  -0.000  -0.045  1.047 
DIIS coefficients:  0.000  0.000  0.005  -0.173  1.168 
DIIS coefficients:  0.000  -0.000  -0.001  0.017  -0.113  1.097 
DIIS coefficients:  1.000 
DIIS coefficients:  -0.068  1.068 
DIIS coefficients:  -0.000  -0.002  1.002 
DIIS coefficients:  -0.000  -0.000  -0.001  1.001 
  ==> Iterations <==

                           Total Energy        Delta E     RMS |[F,P]|

   @DF-UKS iter SAD:   -76.11083289049796   -7.61108e+01   0.00000e+00 
DIIS coefficients:  1.000 
    Occupation by irrep:
             A1    A2    B1    B2 
    DOCC [     3,    0,    1,    1 ]
    SOCC [     0,    0,    0,    0 ]

   @DF-UKS iter   1:   -76.27400071955661   -1.63168e-01   4.33185e-02 DIIS
DIIS coefficients:  0.585  0.415 
    Occupation by irrep:
             A1    A2    B1    B2 
    DOCC [     3,    0,    1,    1 ]
    SOCC [     0,    0,    0,    0 ]

   @DF-UKS iter   2:   -76.12784104051872    1.46160e-01   6.08803e-02 DIIS
DIIS coefficients:  0.020  0.022  0.958 
    Occupation by irrep:
             A1    A2    B1    B2 
    DOCC [     3,    0,    1,    1 ]
    SOCC [     0,    0,    0,    0 ]

   @DF-UKS iter   3:   -76.41886837460626   -2.91027e-01   7.66685e-04 DIIS
DIIS coefficients:  0.001  0.000  0.136  0.863 
    Occupation by irrep:
             A1    A2    B1    B2 
    DOCC [     3,    0,    1,    1 ]
    SOCC [     0,    0,    0,    0 ]

   @DF-UKS iter   4:   -76.41892782786203   -5.94533e-05   1.88739e-04 DIIS
DIIS coefficients:  0.001  -0.000  -0.006  0.112  0.894 
    Occupation by irrep:
             A1    A2    B1    B2 
    DOCC [     3,    0,    1,    1 ]
    SOCC [     0,    0,    0,    0 ]

   @DF-UKS iter   5:   -76.41893034947549   -2.52161e-06   3.57843e-05 DIIS
DIIS coefficients:  -0.000  -0.000  -0.000  -0.004  -0.014  1.018 
    Occupation by irrep:
             A1    A2    B1    B2 
    DOCC [     3,    0,    1,    1 ]
    SOCC [     0,    0,    0,    0 ]

   @DF-UKS iter   6:   -76.41893044856465   -9.90892e-08   1.07750e-06 DIIS
DIIS coefficients:  -0.000  0.000  0.000  -0.000  -0.004  -0.026  1.030 
    Occupation by irrep:
             A1    A2    B1    B2 
    DOCC [     3,    0,    1,    1 ]
    SOCC [     0,    0,    0,    0 ]

   @DF-UKS iter   7:   -76.41893044867491   -1.10262e-10   6.40900e-08 DIIS
DIIS coefficients:  -0.000  0.000  -0.000  0.000  0.000  -0.003  -0.021  1.023 
    Occupation by irrep:
             A1    A2    B1    B2 
    DOCC [     3,    0,    1,    1 ]
    SOCC [     0,    0,    0,    0 ]

   @DF-UKS iter   8:   -76.41893044867540   -4.83169e-13   5.60599e-09 DIIS

  DF guess converged.

  ==> DirectJK: Integral-Direct J/K Matrices <==

    J tasked:                  Yes
    K tasked:                  Yes
    wK tasked:                  No
    Integrals threads:           1
    Schwarz Cutoff:          1E-12

DIIS coefficients:  1.000 
    Occupation by irrep:
             A1    A2    B1    B2 
    DOCC [     3,    0,    1,    1 ]
    SOCC [     0,    0,    0,    0 ]

   @UKS iter   9:   -76.41893013684697   -7.64189e+01   4.53904e-06 DIIS
DIIS coefficients:  -0.019  1.019 
    Occupation by irrep:
             A1    A2    B1    B2 
    DOCC [     3,    0,    1,    1 ]
    SOCC [     0,    0,    0,    0 ]

   @UKS iter  10:   -76.41893013854479   -1.69783e-09   3.79913e-07 DIIS
DIIS coefficients:  -0.013  0.360  0.653 
    Occupation by irrep:
             A1    A2    B1    B2 
    DOCC [     3,    0,    1,    1 ]
    SOCC [     0,    0,    0,    0 ]

   @UKS iter  11:   -76.41893013855383   -9.03810e-12   2.13762e-07 DIIS
DIIS coefficients:  -0.006  0.140  0.380  0.486 
    Occupation by irrep:
             A1    A2    B1    B2 
    DOCC [     3,    0,    1,    1 ]
    SOCC [     0,    0,    0,    0 ]

   @UKS iter  12:   -76.41893013855649   -2.65743e-12   1.01488e-07 DIIS
DIIS coefficients:  0.000  -0.005  0.001  -0.015  1.019 
    Occupation by irrep:
             A1    A2    B1    B2 
    DOCC [     3,    0,    1,    1 ]
    SOCC [     0,    0,    0,    0 ]

   @UKS iter  13:   -76.41893013855720   -7.10543e-13   3.09641e-09 DIIS
  Energy and wave function converged.


  ==> Post-Iterations <==

   @Spin Contamination Metric:   1.065814104E-14
   @S^2 Expected:                0.000000000E+00
   @S^2 Observed:                1.065814104E-14
   @S   Expected:                0.000000000E+00
   @S   Observed:                0.000000000E+00

    Orbital Energies [Eh]
    ---------------------

    Alpha Occupied:                                                       

       1A1   -19.134000     2A1    -0.994527     1B1    -0.526337  
       3A1    -0.359652     1B2    -0.290319  

    Alpha Virtual:                                                        

       4A1     0.067218     2B1     0.154488     3B1     0.778494  
       5A1     0.795396     6A1     0.888247     2B2     0.892800  
       4B1     1.019250     7A1     1.159733     1A2     1.518626  
       8A1     1.578941     3B2     1.662928     5B1     2.231199  
       9A1     2.241256     6B1     2.480156     4B2     2.633027  
       2A2     2.682738    10A1     3.034468    11A1     3.328487  
       7B1     3.514718    12A1     3.728894  

    Beta Occupied:                                                        

       1A1   -19.134000     2A1    -0.994527     1B1    -0.526337  
       3A1    -0.359652     1B2    -0.290319  

    Beta Virtual:                                                         

       4A1     0.067218     2B1     0.154488     3B1     0.778494  
       5A1     0.795396     6A1     0.888247     2B2     0.892800  
       4B1     1.019250     7A1     1.159733     1A2     1.518626  
       8A1     1.578941     3B2     1.662928     5B1     2.231199  
       9A1     2.241256     6B1     2.480156     4B2     2.633027  
       2A2     2.682738    10A1     3.034468    11A1     3.328487  
       7B1     3.514718    12A1     3.728894  

    Final Occupation by Irrep:
             A1    A2    B1    B2 
    DOCC [     3,    0,    1,    1 ]
    SOCC [     0,    0,    0,    0 ]

  @UKS Final Energy:   -76.41893013855720

   => Energetics <=

    Nuclear Repulsion Energy =              9.1571160190824479
    One-Electron Energy =                -123.1112781131524940
    Two-Electron Energy =                  45.1009057969241525
    DFT Exchange-Correlation Energy =      -7.5656738414113178
    Empirical Dispersion Energy =           0.0000000000000000
    VV10 Nonlocal Energy =                  0.0000000000000000
    Total Energy =                        -76.4189301385572151

  UHF NO Occupations:
  HONO-2 :    2 A1 2.0000000
  HONO-1 :    1 B2 2.0000000
  HONO-0 :    3 A1 2.0000000
  LUNO+0 :    4 A1 0.0000000
  LUNO+1 :    5 A1 0.0000000
  LUNO+2 :    2 B2 0.0000000
  LUNO+3 :    2 B1 0.0000000


Computation Completed


Properties will be evaluated at   0.000000,   0.000000,   0.000000 [a0]

Properties computed using the SCF density matrix

  Nuclear Dipole Moment: [e a0]
     X:     0.0000      Y:     0.0000      Z:     0.9223

  Electronic Dipole Moment: [e a0]
     X:     0.0000      Y:     0.0000      Z:    -0.1539

  Dipole Moment: [e a0]
     X:     0.0000      Y:     0.0000      Z:     0.7684     Total:     0.7684

  Dipole Moment: [D]
     X:     0.0000      Y:     0.0000      Z:     1.9531     Total:     1.9531


*** tstop() called on X1-ubuntu at Sun Sep  6 15:59:03 2020
Module time:
	user time   =       3.95 seconds =       0.07 minutes
	system time =       0.09 seconds =       0.00 minutes
	total time  =          4 seconds =       0.07 minutes
Total time:
	user time   =       3.95 seconds =       0.07 minutes
	system time =       0.09 seconds =       0.00 minutes
	total time  =          4 seconds =       0.07 minutes

*** tstart() called on X1-ubuntu
*** at Sun Sep  6 15:59:03 2020


         ------------------------------------------------------------
                                   SCF GRAD                          
                          Rob Parrish, Justin Turney,                
                       Andy Simmonett, and Alex Sokolov              
         ------------------------------------------------------------

  ==> Geometry <==

    Molecular point group: c2v
    Full point group: C2v

    Geometry (in Angstrom), charge = 0, multiplicity = 1:

       Center              X                  Y                   Z               Mass       
    ------------   -----------------  -----------------  -----------------  -----------------
         O           -0.000000000000     0.000000000000    -0.062007485347    15.994914619570
         H            0.783975894634     0.000000000000     0.492051895015     1.007825032230
         H           -0.783975894634    -0.000000000000     0.492051895015     1.007825032230

           O
              BASIS           6-31G(D_P)           ec2d227169b1af6c6a69bc8715bab79dbd7bb644
              DF_BASIS_SCF    (6-31G(D_P) AUX)     b57462463db1b385e39e4428a46364991bcd7673
           H
              BASIS           6-31G(D_P)           902186d0f3205710946c2c15d2c68458d6f6cc2a
              DF_BASIS_SCF    (6-31G(D_P) AUX)     1164366b470d7a66fddaf681ef9d1c28421b3e4a
           H
              BASIS           6-31G(D_P)           902186d0f3205710946c2c15d2c68458d6f6cc2a
              DF_BASIS_SCF    (6-31G(D_P) AUX)     1164366b470d7a66fddaf681ef9d1c28421b3e4a

  Nuclear repulsion =    9.157116019082448

  ==> Basis Set <==

  -AO BASIS SET INFORMATION:
    Name                   = 6-31G(D_P)
    Blend                  = 6-31G(D_P)
    Total number of shells = 12
    Number of primitives   = 25
    Number of AO           = 25
    Number of SO           = 25
    Maximum AM             = 2
    Spherical Harmonics    = FALSE

  -Contraction Scheme:
    Atom   Type   All Primitives // Shells:
   ------ ------ --------------------------
       1     O     10s 4p 1d // 3s 2p 1d 
       2     H     4s 1p // 2s 1p 
       3     H     4s 1p // 2s 1p 

  ==> AO Basis Functions <==

    [ 6-31G(D_P) ]
    cartesian
    ****
    O   1
    S   6 1.00
                      5484.67170000           0.00183110
                       825.23495000           0.01395010
                       188.04696000           0.06844510
                        52.96450000           0.23271430
                        16.89757000           0.47019300
                         5.79963530           0.35852090
    S   3 1.00
                        15.53961600          -0.11077750
                         3.59993360          -0.14802630
                         1.01376180           1.13076700
    P   3 1.00
                        15.53961600           0.07087430
                         3.59993360           0.33975280
                         1.01376180           0.72715860
    S   1 1.00
                         0.27000580           1.00000000
    P   1 1.00
                         0.27000580           1.00000000
    D   1 1.00
                         0.80000000           1.00000000
    ****
    H   2
    S   3 1.00
                        18.73113700           0.03349460
                         2.82539370           0.23472695
                         0.64012170           0.81375733
    S   1 1.00
                         0.16127780           1.00000000
    P   1 1.00
                         1.10000000           1.00000000
    ****

  ==> DirectJKGrad: Integral-Direct SCF Gradients <==

    Gradient:                    1
    J tasked:                  Yes
    K tasked:                  Yes
    wK tasked:                  No
    Integrals threads:           1
    Schwarz Cutoff:          0E+00

  ==> DFT Potential <==

   => Composite Functional: B3LYP <= 

    B3LYP Hyb-GGA Exchange-Correlation Functional

    P. J. Stephens, F. J. Devlin, C. F. Chabalowski, and M. J. Frisch, J. Phys. Chem. 98, 11623 (1994)

    Deriv               =              1
    GGA                 =           TRUE
    Meta                =          FALSE

    Exchange Hybrid     =           TRUE
    MP2 Hybrid          =          FALSE

   => Exchange Functionals <=

    0.0800   Slater exchange
    0.7200         Becke 88

   => Exact (HF) Exchange <=

    0.2000               HF 

   => Correlation Functionals <=

    0.1900   Vosko, Wilk & Nusair (VWN5_RPA)
    0.8100   Lee, Yang & Parr

   => XC_HYB_GGA_XC_B3LYP Functional <=

    B3LYP
    P. J. Stephens, F. J. Devlin, C. F. Chabalowski, and M. J. Frisch, J. Phys. Chem. 98, 11623 (1994)
    GGA   =           TRUE
    Meta  =          FALSE
    LRC   =          FALSE
    Alpha =   1.000000E+00
    Omega =   0.000000E+00

    > Parameters <


   => Molecular Quadrature <=

    Radial Scheme          =       TREUTLER
    Pruning Scheme         =           FLAT
    Nuclear Scheme         =       TREUTLER

    BS radius alpha        =              1
    Pruning alpha          =              1
    Radial Points          =             75
    Spherical Points       =            302
    Total Points           =          65565
    Total Blocks           =            562
    Max Points             =            256
    Max Functions          =             25


  -Nuclear Gradient:
     Atom            X                  Y                   Z
    ------   -----------------  -----------------  -----------------
       1        0.000000000000     0.000000000000     2.805852653943
       2       -2.098998293477    -0.000000000000    -1.402926326972
       3        2.098998293477     0.000000000000    -1.402926326972


  -Core Hamiltonian Gradient:
     Atom            X                  Y                   Z
    ------   -----------------  -----------------  -----------------
       1        0.000000000000     0.000000000000    -6.414628326275
       2        4.924563569865     0.000000000000     3.207314163138
       3       -4.924563569865    -0.000000000000     3.207314163138


  -Overlap Gradient:
     Atom            X                  Y                   Z
    ------   -----------------  -----------------  -----------------
       1        0.000000000000     0.000000000000     0.296615581291
       2       -0.202704361803    -0.000000000000    -0.148307790645
       3        0.202704361803     0.000000000000    -0.148307790645


  -Coulomb Gradient:
     Atom            X                  Y                   Z
    ------   -----------------  -----------------  -----------------
       1       -0.000000000000     0.000000000000     3.732016081386
       2       -2.934206153727    -0.000000000000    -1.866008040693
       3        2.934206153727     0.000000000000    -1.866008040693


  -Exchange Gradient:
     Atom            X                  Y                   Z
    ------   -----------------  -----------------  -----------------
       1       -0.000000000000     0.000000000000    -0.103480942456
       2        0.080720410529     0.000000000000     0.051740471228
       3       -0.080720410529    -0.000000000000     0.051740471228


  -XC Gradient:
     Atom            X                  Y                   Z
    ------   -----------------  -----------------  -----------------
       1       -0.000000000000    -0.000000000000    -0.300012747813
       2        0.233697988822     0.000000000000     0.149996456872
       3       -0.233697988822    -0.000000000000     0.149996456872


  -Total Gradient:
     Atom            X                  Y                   Z
    ------   -----------------  -----------------  -----------------
       1        0.000000000000     0.000000000000     0.016362300076
       2        0.003073160210     0.000000000000    -0.008191067072
       3       -0.003073160210    -0.000000000000    -0.008191067072


*** tstop() called on X1-ubuntu at Sun Sep  6 15:59:03 2020
Module time:
	user time   =       0.46 seconds =       0.01 minutes
	system time =       0.00 seconds =       0.00 minutes
	total time  =          0 seconds =       0.00 minutes
Total time:
	user time   =       4.41 seconds =       0.07 minutes
	system time =       0.09 seconds =       0.00 minutes
	total time  =          4 seconds =       0.07 minutes

			-----------------------------------------
			 OPTKING 2.0: for geometry optimizations 
			  - R.A. King,  Bethel University        
			-----------------------------------------
dynamic level          =                  0
conv_max_force         =           3.00e-04
conv_rms_force         =           0.00e+00
conv_max_DE            =           1.00e-06
conv_max_disp          =           1.20e-03
conv_rms_disp          =           0.00e+00
SD Hessian             =           1.00e+00
scale_connectivity     =           1.30e+00
interfragment_scale_connectivity =           1.80e+00
fragment_mode          =             single
interfragment_mode        =              fixed
intcos_generate_exit   =              false
print_params           =              false
print_lvl              = 3
ensure_bt_convergence =             false
rfo_follow_root        =              false
rfo_root               =                  0
rfo_normalization_max  =           1.00e+02
rsrfo_alpha_max        =          1.000e+08
step_type              =                RFO
opt. coordinates       = Redundant Internals
linesearch_static_N    =                  8
linesearch_static_min  =          1.000e-03
linesearch_static_max  =          1.000e-01
consecutive_backsteps  =                  0
intrafragment_H        =           Schlegel
interfragment_H        =            Default
H_update               =               BFGS
H_update_use_last      =                  2
freeze_intrafragment   =              false
intrafragment_step_limit=          5.00e-01
interfragment_step_limit=          5.00e-01
add_auxiliary_bonds   =               true
H_guess_every         =              false
auxiliary_bond_factor =          2.50e+00
H_update_limit         =               true
H_update_limit_scale   =           5.00e-01
H_update_limit_max     =           1.00e+00
H_update_den_tol       =           1.00e-07
interfragment_distance_inverse=       false
write_final_step_geometry=            false
maximum_H_bond_distance=           4.30e+00
read_cartesian_H       =              false
fb_fragments          =              false
fb_fragments_only     =              false
frozen_distance: 
frozen_bend: 
frozen_dihedral: 
frozen_cartesian: 
fixed_distance: 
fixed_bend: 
fixed_dihedral: 
print_trajectory_xyz_file =              false

	Internal coordinates to be generated automatically.
	Detected frag 1 with atoms:  1 2 3
	---Fragment 1 Bond Connectivity---
	 1 : 2 3
	 2 : 1
	 3 : 1

	---Fragment 1 Geometry and Gradient---
	 O          -0.0000000000        0.0000000000       -0.1171771650
	 H           1.4814997298        0.0000000000        0.9298433211
	 H          -1.4814997298       -0.0000000000        0.9298433211
	             0.0000000000        0.0000000000        0.0163623001
	             0.0030731602        0.0000000000       -0.0081910671
	            -0.0030731602       -0.0000000000       -0.0081910671

	Previous optimization step data not found.  Starting new optimization.

	---Fragment 1 Intrafragment Coordinates---
	 - Coordinate -           - BOHR/RAD -       - ANG/DEG -
	 R(1,2)           =         1.814137	       0.960000
	 R(1,3)           =         1.814137	       0.960000
	 B(2,1,3)         =         1.911136	     109.500000

	Current energy   :       -76.4189301386

B matrix
 -0.816642 -0.000000 -0.577145  0.816642  0.000000  0.577145  0.000000  0.000000
  0.000000
  0.816642  0.000000 -0.577145  0.000000  0.000000  0.000000 -0.816642 -0.000000
  0.577145
  0.000000  0.000000  0.900309  0.318138  0.000000 -0.450154 -0.318138 -0.000000
 -0.450154
Internal forces in au
   0.002213948893133   0.002213948893133  -0.015342930628758
	Generating empirical Hessian (Schlegel '84) for each fragment.
diagonal Hessian values for simple coordinates.
  0.554734  0.554734  0.160000

Initial Hessian guess
  0.554734  0.000000  0.000000
  0.000000  0.554734  0.000000
  0.000000  0.000000  0.160000
	Projection matrix for redundancies.
  1.000000 -0.000000 -0.000000
 -0.000000  1.000000 -0.000000
  0.000000 -0.000000  1.000000
Constraint matrix
  0.000000  0.000000  0.000000
  0.000000  0.000000  0.000000
  0.000000  0.000000  0.000000
	Internal forces in au, after projection of redundancies and constraints.
  0.002214  0.002214 -0.015343
Projected (PHP) Hessian matrix
  0.554734 -0.000000 -0.000000
 -0.000000  0.554734 -0.000000
  0.000000 -0.000000  0.160000
	Taking RFO optimization step.
Eigenvalues of scaled RFO matrix.
 -0.001475  0.161458  0.554734  0.554752
First eigenvector (unnormalized) of scaled RFO matrix.
  0.003963  0.003963 -0.094590  0.995501
	Going to follow RFO solution 1.
	Using RFO vector 1.
	rfo_root is 1

Scaled RFO eigenvalue 1:   -0.0014754657 (or 2*-0.0007377328  )
eigenvector:
  0.003980  0.003980 -0.095017  1.000000

Projection of redundancies out of step:
	Original dq     Projected dq     Difference
	    0.003980        0.003980       0.000000
	    0.003980        0.003980       0.000000
	   -0.095017       -0.095017       0.000000
dq:
  0.003980  0.003980 -0.095017
fq:
  0.002214  0.002214 -0.015343
	lambda calculated by (dq^t).(-f)     =        -0.0014754657
	Analytic derivative d(norm)/d(alpha) =        -0.0001636747
	Final scaled step dq:
  0.003980  0.003980 -0.095017
	Norm of target step-size    0.09518
	Projected energy change by RFO approximation:        -0.0015885365

	Back-transformation to cartesian coordinates...
	 In displace_util 
	       Original         Target           Dq
	   1.8141370808   1.8181175034   0.0039804226
	   1.8141370808   1.8181175034   0.0039804226
	   1.9111355365   1.8161184355  -0.0950171010
	---------------------------------------------------
	 Iter        RMS(dx)        Max(dx)        RMS(dq) 
	---------------------------------------------------
	    1        3.0e-02        4.8e-02        1.7e-03
	    2        8.8e-04        1.8e-03        1.8e-07
	    3        9.9e-08        1.6e-07        1.8e-14
	---------------------------------------------------

	Report of back-transformation:
	  int       q_target          Error
	-----------------------------------
	    1   1.8181175034   0.0000000000
	    2   1.8181175034   0.0000000000
	    3   1.8161184355   0.0000000000

	Successfully converged to displaced geometry.

	--- Internal Coordinate Step in ANG or DEG, aJ/ANG or AJ/DEG ---
	 ---------------------------------------------------------------------------
	   Coordinate                Previous        Force       Change         New 
	   ----------                --------       ------       ------       ------
	    1 R(1,2)          =      0.960000     0.018240     0.002106     0.962106
	    2 R(1,3)          =      0.960000     0.018240     0.002106     0.962106
	    3 B(2,1,3)        =    109.500000    -0.001167    -5.444079   104.055921
	 ---------------------------------------------------------------------------
	Successfully symmetrized geometry.
Symmetrized geometry
  0.000000 -0.000000 -0.164927
  1.433242  0.000000  0.953718
 -1.433242 -0.000000  0.953718

  ==> Convergence Check <==

  Measures of convergence in internal coordinates in au.
  Criteria marked as inactive (o), active & met (*), and active & unmet ( ).
  --------------------------------------------------------------------------------------------- ~
   Step     Total Energy     Delta E     MAX Force     RMS Force      MAX Disp      RMS Disp    ~
  --------------------------------------------------------------------------------------------- ~
    Convergence Criteria    1.00e-06 *    3.00e-04 *             o    1.20e-03 *             o  ~
  --------------------------------------------------------------------------------------------- ~
      1     -76.41893014   -7.64e+01      1.53e-02      9.04e-03 o    9.50e-02      5.50e-02 o  ~
  ---------------------------------------------------------------------------------------------

	Writing optimization data to binary file.
	Structure for next step:
	Cartesian Geometry (in Angstrom)
	    O     0.0000000000  -0.0000000000  -0.0872757390
	    H     0.7584391178   0.0000000000   0.5046860201
	    H    -0.7584391178  -0.0000000000   0.5046860201
			--------------------------
			 OPTKING Finished Execution 
			--------------------------

    Structure for next step:
    Molecular point group: c2v
    Full point group: C2v

    Geometry (in Angstrom), charge = 0, multiplicity = 1:

    O           -0.000000000000     0.000000000000    -0.066249325521
    H            0.758439120814     0.000000000000     0.525712435901
    H           -0.758439120814    -0.000000000000     0.525712435901

gradient() will perform analytic gradient computation.

*** tstart() called on X1-ubuntu
*** at Sun Sep  6 15:59:04 2020

   => Loading Basis Set <=

    Name: 6-31G(D_P)
    Role: ORBITAL
    Keyword: BASIS
    atoms 1   entry O          line   149 file /home/dranasinghe/anaconda2/envs/rmgpy3_env/share/psi4/basis/6-31g_d_p_.gbs 
    atoms 2-3 entry H          line    44 file /home/dranasinghe/anaconda2/envs/rmgpy3_env/share/psi4/basis/6-31g_d_p_.gbs 


         ---------------------------------------------------------
                                   SCF
               by Justin Turney, Rob Parrish, Andy Simmonett
                          and Daniel G. A. Smith
                              UKS Reference
                        1 Threads,    976 MiB Core
         ---------------------------------------------------------

  ==> Geometry <==

    Molecular point group: c2v
    Full point group: C2v

    Geometry (in Angstrom), charge = 0, multiplicity = 1:

       Center              X                  Y                   Z               Mass       
    ------------   -----------------  -----------------  -----------------  -----------------
         O           -0.000000000000     0.000000000000    -0.066249325521    15.994914619570
         H            0.758439120814     0.000000000000     0.525712435901     1.007825032230
         H           -0.758439120814    -0.000000000000     0.525712435901     1.007825032230

           O
              BASIS           6-31G(D_P)           ec2d227169b1af6c6a69bc8715bab79dbd7bb644
              DF_BASIS_SCF    (6-31G(D_P) AUX)     b57462463db1b385e39e4428a46364991bcd7673
           H
              BASIS           6-31G(D_P)           902186d0f3205710946c2c15d2c68458d6f6cc2a
              DF_BASIS_SCF    (6-31G(D_P) AUX)     1164366b470d7a66fddaf681ef9d1c28421b3e4a
           H
              BASIS           6-31G(D_P)           902186d0f3205710946c2c15d2c68458d6f6cc2a
              DF_BASIS_SCF    (6-31G(D_P) AUX)     1164366b470d7a66fddaf681ef9d1c28421b3e4a

  Running in c2v symmetry.

  Rotational constants: A =     26.87444  B =     14.53918  C =      9.43487 [cm^-1]
  Rotational constants: A = 805675.50184  B = 435873.64504  C = 282850.43616 [MHz]
  Nuclear repulsion =    9.149170679907046

  Charge       = 0
  Multiplicity = 1
  Electrons    = 10
  Nalpha       = 5
  Nbeta        = 5

  ==> Algorithm <==

  SCF Algorithm Type is DIRECT.
  DIIS enabled.
  MOM disabled.
  Fractional occupation disabled.
  Guess Type is READ.
  Energy threshold   = 1.00e-08
  Density threshold  = 1.00e-08
  Integral threshold = 0.00e+00

  ==> Primary Basis <==

  -AO BASIS SET INFORMATION:
    Name                   = 6-31G(D_P)
    Blend                  = 6-31G(D_P)
    Total number of shells = 12
    Number of primitives   = 25
    Number of AO           = 25
    Number of SO           = 25
    Maximum AM             = 2
    Spherical Harmonics    = FALSE

  -Contraction Scheme:
    Atom   Type   All Primitives // Shells:
   ------ ------ --------------------------
       1     O     10s 4p 1d // 3s 2p 1d 
       2     H     4s 1p // 2s 1p 
       3     H     4s 1p // 2s 1p 

  ==> AO Basis Functions <==

    [ 6-31G(D_P) ]
    cartesian
    ****
    O   1
    S   6 1.00
                      5484.67170000           0.00183110
                       825.23495000           0.01395010
                       188.04696000           0.06844510
                        52.96450000           0.23271430
                        16.89757000           0.47019300
                         5.79963530           0.35852090
    S   3 1.00
                        15.53961600          -0.11077750
                         3.59993360          -0.14802630
                         1.01376180           1.13076700
    P   3 1.00
                        15.53961600           0.07087430
                         3.59993360           0.33975280
                         1.01376180           0.72715860
    S   1 1.00
                         0.27000580           1.00000000
    P   1 1.00
                         0.27000580           1.00000000
    D   1 1.00
                         0.80000000           1.00000000
    ****
    H   2
    S   3 1.00
                        18.73113700           0.03349460
                         2.82539370           0.23472695
                         0.64012170           0.81375733
    S   1 1.00
                         0.16127780           1.00000000
    P   1 1.00
                         1.10000000           1.00000000
    ****

  ==> DFT Potential <==

   => Composite Functional: B3LYP <= 

    B3LYP Hyb-GGA Exchange-Correlation Functional

    P. J. Stephens, F. J. Devlin, C. F. Chabalowski, and M. J. Frisch, J. Phys. Chem. 98, 11623 (1994)

    Deriv               =              1
    GGA                 =           TRUE
    Meta                =          FALSE

    Exchange Hybrid     =           TRUE
    MP2 Hybrid          =          FALSE

   => Exchange Functionals <=

    0.0800   Slater exchange
    0.7200         Becke 88

   => Exact (HF) Exchange <=

    0.2000               HF 

   => Correlation Functionals <=

    0.1900   Vosko, Wilk & Nusair (VWN5_RPA)
    0.8100   Lee, Yang & Parr

   => XC_HYB_GGA_XC_B3LYP Functional <=

    B3LYP
    P. J. Stephens, F. J. Devlin, C. F. Chabalowski, and M. J. Frisch, J. Phys. Chem. 98, 11623 (1994)
    GGA   =           TRUE
    Meta  =          FALSE
    LRC   =          FALSE
    Alpha =   1.000000E+00
    Omega =   0.000000E+00

    > Parameters <


   => Molecular Quadrature <=

    Radial Scheme          =       TREUTLER
    Pruning Scheme         =           FLAT
    Nuclear Scheme         =       TREUTLER

    BS radius alpha        =              1
    Pruning alpha          =              1
    Radial Points          =             75
    Spherical Points       =            302
    Total Points           =          65565
    Total Blocks           =            562
    Max Points             =            256
    Max Functions          =             25

   => Loading Basis Set <=

    Name: (6-31G(D_P) AUX)
    Role: JKFIT
    Keyword: DF_BASIS_SCF
    atoms 1   entry O          line   221 file /home/dranasinghe/anaconda2/envs/rmgpy3_env/share/psi4/basis/cc-pvdz-jkfit.gbs 
    atoms 2-3 entry H          line    51 file /home/dranasinghe/anaconda2/envs/rmgpy3_env/share/psi4/basis/cc-pvdz-jkfit.gbs 

   => Loading Basis Set <=

    Name: 6-31G(D_P)
    Role: ORBITAL
    Keyword: BASIS
    atoms 1   entry O          line   149 file /home/dranasinghe/anaconda2/envs/rmgpy3_env/share/psi4/basis/6-31g_d_p_.gbs 
    atoms 2-3 entry H          line    44 file /home/dranasinghe/anaconda2/envs/rmgpy3_env/share/psi4/basis/6-31g_d_p_.gbs 

  Reading orbitals from file 180, no projection.

  Starting with a DF guess...

  ==> Pre-Iterations <==

   -------------------------------------------------------
    Irrep   Nso     Nmo     Nalpha   Nbeta   Ndocc  Nsocc
   -------------------------------------------------------
     A1        12      12       0       0       0       0
     A2         2       2       0       0       0       0
     B1         7       7       0       0       0       0
     B2         4       4       0       0       0       0
   -------------------------------------------------------
    Total      25      25       5       5       5       0
   -------------------------------------------------------

  ==> Integral Setup <==

  DFHelper Memory: AOs need 0.001 GiB; user supplied 0.669 GiB. Using in-core AOs.

  ==> MemDFJK: Density-Fitted J/K Matrices <==

    J tasked:                   Yes
    K tasked:                   Yes
    wK tasked:                   No
    OpenMP threads:               1
    Memory [MiB]:               685
    Algorithm:                 Core
    Schwarz Cutoff:           1E-12
    Mask sparsity (%):       0.0000
    Fitting Condition:        1E-10

   => Auxiliary Basis Set <=

  -AO BASIS SET INFORMATION:
    Name                   = (6-31G(D_P) AUX)
    Blend                  = CC-PVDZ-JKFIT
    Total number of shells = 42
    Number of primitives   = 42
    Number of AO           = 131
    Number of SO           = 131
    Maximum AM             = 3
    Spherical Harmonics    = FALSE

  -Contraction Scheme:
    Atom   Type   All Primitives // Shells:
   ------ ------ --------------------------
       1     O     10s 7p 5d 2f // 10s 7p 5d 2f 
       2     H     4s 3p 2d // 4s 3p 2d 
       3     H     4s 3p 2d // 4s 3p 2d 

  ==> AO Basis Functions <==

    [ (6-31G(D_P) AUX) ]
    cartesian
    ****
    O   1
    S   1 1.00
                      1517.86675060           1.00000000
    S   1 1.00
                       489.67952008           1.00000000
    S   1 1.00
                       176.72118665           1.00000000
    S   1 1.00
                        63.79223314           1.00000000
    S   1 1.00
                        25.36649913           1.00000000
    S   1 1.00
                         9.91354912           1.00000000
    S   1 1.00
                         4.46453066           1.00000000
    S   1 1.00
                         1.80177437           1.00000000
    S   1 1.00
                         0.80789711           1.00000000
    S   1 1.00
                         0.33864327           1.00000000
    P   1 1.00
                       120.16030921           1.00000000
    P   1 1.00
                        34.40962247           1.00000000
    P   1 1.00
                        12.58114861           1.00000000
    P   1 1.00
                         5.06638242           1.00000000
    P   1 1.00
                         2.03469271           1.00000000
    P   1 1.00
                         0.86092967           1.00000000
    P   1 1.00
                         0.36681357           1.00000000
    D   1 1.00
                        19.04306281           1.00000000
    D   1 1.00
                         5.80603811           1.00000000
    D   1 1.00
                         2.18918416           1.00000000
    D   1 1.00
                         0.87794614           1.00000000
    D   1 1.00
                         0.35623647           1.00000000
    F   1 1.00
                         2.49391479           1.00000000
    F   1 1.00
                         0.82491479           1.00000000
    ****
    H   2
    S   1 1.00
                         9.53024933           1.00000000
    S   1 1.00
                         1.91745062           1.00000000
    S   1 1.00
                         0.68424049           1.00000000
    S   1 1.00
                         0.28413256           1.00000000
    P   1 1.00
                         2.91332320           1.00000000
    P   1 1.00
                         1.26212054           1.00000000
    P   1 1.00
                         0.50199776           1.00000000
    D   1 1.00
                         2.31353291           1.00000000
    D   1 1.00
                         0.71290724           1.00000000
    ****

  Cached 100.0% of DFT collocation blocks in 0.046 [GiB].

  Minimum eigenvalue in the overlap matrix is 2.2055282817E-02.
  Using Symmetric Orthogonalization.

  SCF Guess: Orbitals guess was supplied from a previous computation.

  ==> Iterations <==

                           Total Energy        Delta E     RMS |[F,P]|

   @DF-UKS iter   0:   -76.41664137723299   -7.64166e+01   1.78689e-03 
DIIS coefficients:  1.000 
    Occupation by irrep:
             A1    A2    B1    B2 
    DOCC [     3,    0,    1,    1 ]
    SOCC [     0,    0,    0,    0 ]

   @DF-UKS iter   1:   -76.41969999560735   -3.05862e-03   4.89249e-04 DIIS
DIIS coefficients:  0.561  0.439 
    Occupation by irrep:
             A1    A2    B1    B2 
    DOCC [     3,    0,    1,    1 ]
    SOCC [     0,    0,    0,    0 ]

   @DF-UKS iter   2:   -76.41968945233003    1.05433e-05   6.19801e-04 DIIS
DIIS coefficients:  0.004  0.058  0.938 
    Occupation by irrep:
             A1    A2    B1    B2 
    DOCC [     3,    0,    1,    1 ]
    SOCC [     0,    0,    0,    0 ]

   @DF-UKS iter   3:   -76.41971768338038   -2.82311e-05   3.69436e-05 DIIS
DIIS coefficients:  -0.003  -0.004  -0.038  1.044 
    Occupation by irrep:
             A1    A2    B1    B2 
    DOCC [     3,    0,    1,    1 ]
    SOCC [     0,    0,    0,    0 ]

   @DF-UKS iter   4:   -76.41971778808002   -1.04700e-07   1.09083e-06 DIIS
DIIS coefficients:  -0.001  -0.001  -0.017  0.190  0.829 
    Occupation by irrep:
             A1    A2    B1    B2 
    DOCC [     3,    0,    1,    1 ]
    SOCC [     0,    0,    0,    0 ]

   @DF-UKS iter   5:   -76.41971778827831   -1.98284e-10   2.09979e-07 DIIS
DIIS coefficients:  0.000  0.000  -0.000  -0.011  0.056  0.955 
    Occupation by irrep:
             A1    A2    B1    B2 
    DOCC [     3,    0,    1,    1 ]
    SOCC [     0,    0,    0,    0 ]

   @DF-UKS iter   6:   -76.41971778828241   -4.10694e-12   2.16789e-08 DIIS
DIIS coefficients:  0.000  0.000  0.000  -0.001  -0.006  0.016  0.991 
    Occupation by irrep:
             A1    A2    B1    B2 
    DOCC [     3,    0,    1,    1 ]
    SOCC [     0,    0,    0,    0 ]

   @DF-UKS iter   7:   -76.41971778828244   -2.84217e-14   9.34953e-10 DIIS

  DF guess converged.

  ==> DirectJK: Integral-Direct J/K Matrices <==

    J tasked:                  Yes
    K tasked:                  Yes
    wK tasked:                  No
    Integrals threads:           1
    Schwarz Cutoff:          1E-12

DIIS coefficients:  1.000 
    Occupation by irrep:
             A1    A2    B1    B2 
    DOCC [     3,    0,    1,    1 ]
    SOCC [     0,    0,    0,    0 ]

   @UKS iter   8:   -76.41971735753324   -7.64197e+01   4.62848e-06 DIIS
DIIS coefficients:  -0.016  1.016 
    Occupation by irrep:
             A1    A2    B1    B2 
    DOCC [     3,    0,    1,    1 ]
    SOCC [     0,    0,    0,    0 ]

   @UKS iter   9:   -76.41971735936663   -1.83338e-09   4.09213e-07 DIIS
DIIS coefficients:  -0.013  0.347  0.665 
    Occupation by irrep:
             A1    A2    B1    B2 
    DOCC [     3,    0,    1,    1 ]
    SOCC [     0,    0,    0,    0 ]

   @UKS iter  10:   -76.41971735937756   -1.09281e-11   2.21304e-07 DIIS
DIIS coefficients:  -0.006  0.143  0.390  0.473 
    Occupation by irrep:
             A1    A2    B1    B2 
    DOCC [     3,    0,    1,    1 ]
    SOCC [     0,    0,    0,    0 ]

   @UKS iter  11:   -76.41971735938034   -2.78533e-12   1.07099e-07 DIIS
DIIS coefficients:  0.000  -0.005  0.001  -0.013  1.017 
    Occupation by irrep:
             A1    A2    B1    B2 
    DOCC [     3,    0,    1,    1 ]
    SOCC [     0,    0,    0,    0 ]

   @UKS iter  12:   -76.41971735938120   -8.52651e-13   2.82389e-09 DIIS
  Energy and wave function converged.


  ==> Post-Iterations <==

   @Spin Contamination Metric:  -2.664535259E-15
   @S^2 Expected:                0.000000000E+00
   @S^2 Observed:               -2.664535259E-15
   @S   Expected:                0.000000000E+00
   @S   Observed:                0.000000000E+00

    Orbital Energies [Eh]
    ---------------------

    Alpha Occupied:                                                       

       1A1   -19.137323     2A1    -0.998421     1B1    -0.516706  
       3A1    -0.370591     1B2    -0.292090  

    Alpha Virtual:                                                        

       4A1     0.066271     2B1     0.152446     3B1     0.759174  
       5A1     0.807062     2B2     0.891416     6A1     0.893708  
       4B1     1.015906     7A1     1.175050     1A2     1.529127  
       8A1     1.540034     3B2     1.644800     9A1     2.242751  
       5B1     2.269733     6B1     2.457075     2A2     2.646508  
       4B2     2.668437    10A1     3.034617    11A1     3.313536  
       7B1     3.534245    12A1     3.696469  

    Beta Occupied:                                                        

       1A1   -19.137323     2A1    -0.998421     1B1    -0.516706  
       3A1    -0.370591     1B2    -0.292090  

    Beta Virtual:                                                         

       4A1     0.066271     2B1     0.152446     3B1     0.759174  
       5A1     0.807062     2B2     0.891416     6A1     0.893708  
       4B1     1.015906     7A1     1.175050     1A2     1.529127  
       8A1     1.540034     3B2     1.644800     9A1     2.242751  
       5B1     2.269733     6B1     2.457075     2A2     2.646508  
       4B2     2.668437    10A1     3.034617    11A1     3.313536  
       7B1     3.534245    12A1     3.696469  

    Final Occupation by Irrep:
             A1    A2    B1    B2 
    DOCC [     3,    0,    1,    1 ]
    SOCC [     0,    0,    0,    0 ]

  @UKS Final Energy:   -76.41971735938120

   => Energetics <=

    Nuclear Repulsion Energy =              9.1491706799070460
    One-Electron Energy =                -123.0775266107215629
    Two-Electron Energy =                  45.0725683534601274
    DFT Exchange-Correlation Energy =      -7.5639297820268006
    Empirical Dispersion Energy =           0.0000000000000000
    VV10 Nonlocal Energy =                  0.0000000000000000
    Total Energy =                        -76.4197173593811954

  UHF NO Occupations:
  HONO-2 :    1 B1 2.0000000
  HONO-1 :    2 A1 2.0000000
  HONO-0 :    3 A1 2.0000000
  LUNO+0 :    4 A1 0.0000000
  LUNO+1 :    2 B1 0.0000000
  LUNO+2 :    5 A1 0.0000000
  LUNO+3 :    2 B2 0.0000000


Computation Completed


Properties will be evaluated at   0.000000,   0.000000,   0.000000 [a0]

Properties computed using the SCF density matrix

  Nuclear Dipole Moment: [e a0]
     X:     0.0000      Y:     0.0000      Z:     0.9854

  Electronic Dipole Moment: [e a0]
     X:     0.0000      Y:     0.0000      Z:    -0.1838

  Dipole Moment: [e a0]
     X:     0.0000      Y:     0.0000      Z:     0.8015     Total:     0.8015

  Dipole Moment: [D]
     X:     0.0000      Y:     0.0000      Z:     2.0373     Total:     2.0373


*** tstop() called on X1-ubuntu at Sun Sep  6 15:59:07 2020
Module time:
	user time   =       3.76 seconds =       0.06 minutes
	system time =       0.05 seconds =       0.00 minutes
	total time  =          3 seconds =       0.05 minutes
Total time:
	user time   =       8.18 seconds =       0.14 minutes
	system time =       0.15 seconds =       0.00 minutes
	total time  =          8 seconds =       0.13 minutes

*** tstart() called on X1-ubuntu
*** at Sun Sep  6 15:59:07 2020


         ------------------------------------------------------------
                                   SCF GRAD                          
                          Rob Parrish, Justin Turney,                
                       Andy Simmonett, and Alex Sokolov              
         ------------------------------------------------------------

  ==> Geometry <==

    Molecular point group: c2v
    Full point group: C2v

    Geometry (in Angstrom), charge = 0, multiplicity = 1:

       Center              X                  Y                   Z               Mass       
    ------------   -----------------  -----------------  -----------------  -----------------
         O           -0.000000000000     0.000000000000    -0.066249325521    15.994914619570
         H            0.758439120814     0.000000000000     0.525712435901     1.007825032230
         H           -0.758439120814    -0.000000000000     0.525712435901     1.007825032230

           O
              BASIS           6-31G(D_P)           ec2d227169b1af6c6a69bc8715bab79dbd7bb644
              DF_BASIS_SCF    (6-31G(D_P) AUX)     b57462463db1b385e39e4428a46364991bcd7673
           H
              BASIS           6-31G(D_P)           902186d0f3205710946c2c15d2c68458d6f6cc2a
              DF_BASIS_SCF    (6-31G(D_P) AUX)     1164366b470d7a66fddaf681ef9d1c28421b3e4a
           H
              BASIS           6-31G(D_P)           902186d0f3205710946c2c15d2c68458d6f6cc2a
              DF_BASIS_SCF    (6-31G(D_P) AUX)     1164366b470d7a66fddaf681ef9d1c28421b3e4a

  Nuclear repulsion =    9.149170679907046

  ==> Basis Set <==

  -AO BASIS SET INFORMATION:
    Name                   = 6-31G(D_P)
    Blend                  = 6-31G(D_P)
    Total number of shells = 12
    Number of primitives   = 25
    Number of AO           = 25
    Number of SO           = 25
    Maximum AM             = 2
    Spherical Harmonics    = FALSE

  -Contraction Scheme:
    Atom   Type   All Primitives // Shells:
   ------ ------ --------------------------
       1     O     10s 4p 1d // 3s 2p 1d 
       2     H     4s 1p // 2s 1p 
       3     H     4s 1p // 2s 1p 

  ==> AO Basis Functions <==

    [ 6-31G(D_P) ]
    cartesian
    ****
    O   1
    S   6 1.00
                      5484.67170000           0.00183110
                       825.23495000           0.01395010
                       188.04696000           0.06844510
                        52.96450000           0.23271430
                        16.89757000           0.47019300
                         5.79963530           0.35852090
    S   3 1.00
                        15.53961600          -0.11077750
                         3.59993360          -0.14802630
                         1.01376180           1.13076700
    P   3 1.00
                        15.53961600           0.07087430
                         3.59993360           0.33975280
                         1.01376180           0.72715860
    S   1 1.00
                         0.27000580           1.00000000
    P   1 1.00
                         0.27000580           1.00000000
    D   1 1.00
                         0.80000000           1.00000000
    ****
    H   2
    S   3 1.00
                        18.73113700           0.03349460
                         2.82539370           0.23472695
                         0.64012170           0.81375733
    S   1 1.00
                         0.16127780           1.00000000
    P   1 1.00
                         1.10000000           1.00000000
    ****

  ==> DirectJKGrad: Integral-Direct SCF Gradients <==

    Gradient:                    1
    J tasked:                  Yes
    K tasked:                  Yes
    wK tasked:                  No
    Integrals threads:           1
    Schwarz Cutoff:          0E+00

  ==> DFT Potential <==

   => Composite Functional: B3LYP <= 

    B3LYP Hyb-GGA Exchange-Correlation Functional

    P. J. Stephens, F. J. Devlin, C. F. Chabalowski, and M. J. Frisch, J. Phys. Chem. 98, 11623 (1994)

    Deriv               =              1
    GGA                 =           TRUE
    Meta                =          FALSE

    Exchange Hybrid     =           TRUE
    MP2 Hybrid          =          FALSE

   => Exchange Functionals <=

    0.0800   Slater exchange
    0.7200         Becke 88

   => Exact (HF) Exchange <=

    0.2000               HF 

   => Correlation Functionals <=

    0.1900   Vosko, Wilk & Nusair (VWN5_RPA)
    0.8100   Lee, Yang & Parr

   => XC_HYB_GGA_XC_B3LYP Functional <=

    B3LYP
    P. J. Stephens, F. J. Devlin, C. F. Chabalowski, and M. J. Frisch, J. Phys. Chem. 98, 11623 (1994)
    GGA   =           TRUE
    Meta  =          FALSE
    LRC   =          FALSE
    Alpha =   1.000000E+00
    Omega =   0.000000E+00

    > Parameters <


   => Molecular Quadrature <=

    Radial Scheme          =       TREUTLER
    Pruning Scheme         =           FLAT
    Nuclear Scheme         =       TREUTLER

    BS radius alpha        =              1
    Pruning alpha          =              1
    Radial Points          =             75
    Spherical Points       =            302
    Total Points           =          65565
    Total Blocks           =            562
    Max Points             =            256
    Max Functions          =             25


  -Nuclear Gradient:
     Atom            X                  Y                   Z
    ------   -----------------  -----------------  -----------------
       1        0.000000000000     0.000000000000     2.978150631309
       2       -2.029550719604    -0.000000000000    -1.489075315655
       3        2.029550719604     0.000000000000    -1.489075315655


  -Core Hamiltonian Gradient:
     Atom            X                  Y                   Z
    ------   -----------------  -----------------  -----------------
       1        0.000000000000    -0.000000000000    -6.950542351407
       2        4.675715536774     0.000000000000     3.475271175703
       3       -4.675715536774    -0.000000000000     3.475271175703


  -Overlap Gradient:
     Atom            X                  Y                   Z
    ------   -----------------  -----------------  -----------------
       1        0.000000000000     0.000000000000     0.319793619218
       2       -0.191173187294    -0.000000000000    -0.159896809609
       3        0.191173187294     0.000000000000    -0.159896809609


  -Coulomb Gradient:
     Atom            X                  Y                   Z
    ------   -----------------  -----------------  -----------------
       1       -0.000000000000     0.000000000000     4.100152652515
       2       -2.751868816939    -0.000000000000    -2.050076326257
       3        2.751868816939     0.000000000000    -2.050076326257


  -Exchange Gradient:
     Atom            X                  Y                   Z
    ------   -----------------  -----------------  -----------------
       1        0.000000000000     0.000000000000    -0.113917119302
       2        0.075531730761     0.000000000000     0.056958559651
       3       -0.075531730761    -0.000000000000     0.056958559651


  -XC Gradient:
     Atom            X                  Y                   Z
    ------   -----------------  -----------------  -----------------
       1       -0.000000000000    -0.000000000000    -0.329440608662
       2        0.219114505321     0.000000000000     0.164709395367
       3       -0.219114505321     0.000000000000     0.164709395367


  -Total Gradient:
     Atom            X                  Y                   Z
    ------   -----------------  -----------------  -----------------
       1       -0.000000000000     0.000000000000     0.004196823671
       2       -0.002230950982    -0.000000000000    -0.002109320800
       3        0.002230950982     0.000000000000    -0.002109320800


*** tstop() called on X1-ubuntu at Sun Sep  6 15:59:08 2020
Module time:
	user time   =       0.50 seconds =       0.01 minutes
	system time =       0.00 seconds =       0.00 minutes
	total time  =          1 seconds =       0.02 minutes
Total time:
	user time   =       8.68 seconds =       0.14 minutes
	system time =       0.15 seconds =       0.00 minutes
	total time  =          9 seconds =       0.15 minutes

			-----------------------------------------
			 OPTKING 2.0: for geometry optimizations 
			  - R.A. King,  Bethel University        
			-----------------------------------------
dynamic level          =                  0
conv_max_force         =           3.00e-04
conv_rms_force         =           0.00e+00
conv_max_DE            =           1.00e-06
conv_max_disp          =           1.20e-03
conv_rms_disp          =           0.00e+00
SD Hessian             =           1.00e+00
scale_connectivity     =           1.30e+00
interfragment_scale_connectivity =           1.80e+00
fragment_mode          =             single
interfragment_mode        =              fixed
intcos_generate_exit   =              false
print_params           =              false
print_lvl              = 3
ensure_bt_convergence =             false
rfo_follow_root        =              false
rfo_root               =                  0
rfo_normalization_max  =           1.00e+02
rsrfo_alpha_max        =          1.000e+08
step_type              =                RFO
opt. coordinates       = Redundant Internals
linesearch_static_N    =                  8
linesearch_static_min  =          1.000e-03
linesearch_static_max  =          1.000e-01
consecutive_backsteps  =                  0
intrafragment_H        =           Schlegel
interfragment_H        =            Default
H_update               =               BFGS
H_update_use_last      =                  2
freeze_intrafragment   =              false
intrafragment_step_limit=          5.00e-01
interfragment_step_limit=          5.00e-01
add_auxiliary_bonds   =               true
H_guess_every         =              false
auxiliary_bond_factor =          2.50e+00
H_update_limit         =               true
H_update_limit_scale   =           5.00e-01
H_update_limit_max     =           1.00e+00
H_update_den_tol       =           1.00e-07
interfragment_distance_inverse=       false
write_final_step_geometry=            false
maximum_H_bond_distance=           4.30e+00
read_cartesian_H       =              false
fb_fragments          =              false
fb_fragments_only     =              false
frozen_distance: 
frozen_bend: 
frozen_dihedral: 
frozen_cartesian: 
fixed_distance: 
fixed_bend: 
fixed_dihedral: 
print_trajectory_xyz_file =              false

	Previous internal coordinate definitions found.
	---Fragment 1 Geometry and Gradient---
	 O          -0.0000000000        0.0000000000       -0.1251930812
	 H           1.4332422212        0.0000000000        0.9934525246
	 H          -1.4332422212       -0.0000000000        0.9934525246
	            -0.0000000000        0.0000000000        0.0041968237
	            -0.0022309510       -0.0000000000       -0.0021093208
	             0.0022309510        0.0000000000       -0.0021093208

	---Fragment 1 Intrafragment Coordinates---
	 - Coordinate -           - BOHR/RAD -       - ANG/DEG -
	 R(1,2)           =         1.818118	       0.962106
	 R(1,3)           =         1.818118	       0.962106
	 B(2,1,3)         =         1.816118	     104.055921

	Current energy   :       -76.4197173594

	Energy change for the previous step:
		Projected    :        -0.0015885365
		Actual       :        -0.0007872208
	Energy ratio =    0.49556
B matrix
 -0.788311 -0.000000 -0.615277  0.788311  0.000000  0.615277  0.000000  0.000000
  0.000000
  0.788311  0.000000 -0.615277  0.000000  0.000000  0.000000 -0.788311 -0.000000
  0.615277
  0.000000  0.000000  0.867173  0.338414  0.000000 -0.433586 -0.338414 -0.000000
 -0.433586
Internal forces in au
   0.003052025000876   0.003052025000876  -0.000517100657239

	Performing BFGS update.
	Previous computed or guess Hessian on step 1.
	Steps to be used in Hessian update: 1

Updated Hessian (in au)
  0.551900 -0.002834  0.031822
 -0.002834  0.551900  0.031822
  0.031822  0.031822  0.158699
	Projection matrix for redundancies.
  1.000000  0.000000  0.000000
  0.000000  1.000000  0.000000
  0.000000  0.000000  1.000000
Constraint matrix
  0.000000  0.000000  0.000000
  0.000000  0.000000  0.000000
  0.000000  0.000000  0.000000
	Internal forces in au, after projection of redundancies and constraints.
  0.003052  0.003052 -0.000517
Projected (PHP) Hessian matrix
  0.551900 -0.002834  0.031822
 -0.002834  0.551900  0.031822
  0.031822  0.031822  0.158699
	Taking RFO optimization step.
Eigenvalues of scaled RFO matrix.
 -0.000039  0.153585  0.554220  0.554734
First eigenvector (unnormalized) of scaled RFO matrix.
 -0.005883 -0.005883  0.005616 -0.999950
	Going to follow RFO solution 1.
	Using RFO vector 1.
	rfo_root is 1

Scaled RFO eigenvalue 1:   -0.0000388185 (or 2*-0.0000194092  )
eigenvector:
  0.005884  0.005884 -0.005617  1.000000

Projection of redundancies out of step:
	Original dq     Projected dq     Difference
	    0.005884        0.005884       0.000000
	    0.005884        0.005884       0.000000
	   -0.005617       -0.005617       0.000000
dq:
  0.005884  0.005884 -0.005617
fq:
  0.003052  0.003052 -0.000517
	lambda calculated by (dq^t).(-f)     =        -0.0000388185
	Analytic derivative d(norm)/d(alpha) =        -0.0000000296
	Final scaled step dq:
  0.005884  0.005884 -0.005617
	Norm of target step-size    0.01004
	Projected energy change by RFO approximation:        -0.0000355461

	Back-transformation to cartesian coordinates...
	 In displace_util 
	       Original         Target           Dq
	   1.8181175034   1.8240011659   0.0058836625
	   1.8181175034   1.8240011659   0.0058836625
	   1.8161184355   1.8105019214  -0.0056165141
	---------------------------------------------------
	 Iter        RMS(dx)        Max(dx)        RMS(dq) 
	---------------------------------------------------
	    1        2.2e-03        5.1e-03        1.2e-05
	    2        7.8e-06        1.6e-05        7.4e-11
	    3        2.8e-11        6.5e-11        1.8e-16
	---------------------------------------------------

	Report of back-transformation:
	  int       q_target          Error
	-----------------------------------
	    1   1.8240011659  -0.0000000000
	    2   1.8240011659  -0.0000000000
	    3   1.8105019214  -0.0000000000

	Successfully converged to displaced geometry.

	--- Internal Coordinate Step in ANG or DEG, aJ/ANG or AJ/DEG ---
	 ---------------------------------------------------------------------------
	   Coordinate                Previous        Force       Change         New 
	   ----------                --------       ------       ------       ------
	    1 R(1,2)          =      0.962106     0.025145     0.003114     0.965220
	    2 R(1,3)          =      0.962106     0.025145     0.003114     0.965220
	    3 B(2,1,3)        =    104.055921    -0.000039    -0.321803   103.734119
	 ---------------------------------------------------------------------------
	Successfully symmetrized geometry.
Symmetrized geometry
  0.000000 -0.000000 -0.130295
  1.434723  0.000000  0.996004
 -1.434723 -0.000000  0.996004

  ==> Convergence Check <==

  Measures of convergence in internal coordinates in au.
  Criteria marked as inactive (o), active & met (*), and active & unmet ( ).
  ---------------------------------------------------------------------------------------------
   Step     Total Energy     Delta E     MAX Force     RMS Force      MAX Disp      RMS Disp   
  ---------------------------------------------------------------------------------------------
    Convergence Criteria    1.00e-06 *    3.00e-04 *             o    1.20e-03 *             o
  ---------------------------------------------------------------------------------------------
      2     -76.41971736   -7.87e-04      3.05e-03      2.51e-03 o    5.88e-03      5.80e-03 o  ~
  ---------------------------------------------------------------------------------------------

	Writing optimization data to binary file.
	Structure for next step:
	Cartesian Geometry (in Angstrom)
	    O     0.0000000000  -0.0000000000  -0.0689493950
	    H     0.7592227660   0.0000000000   0.5270624687
	    H    -0.7592227660  -0.0000000000   0.5270624687
			--------------------------
			 OPTKING Finished Execution 
			--------------------------

    Structure for next step:
    Molecular point group: c2v
    Full point group: C2v

    Geometry (in Angstrom), charge = 0, multiplicity = 1:

    O            0.000000000000     0.000000000000    -0.066702592465
    H            0.759222768939     0.000000000000     0.529309273565
    H           -0.759222768939    -0.000000000000     0.529309273565

gradient() will perform analytic gradient computation.

*** tstart() called on X1-ubuntu
*** at Sun Sep  6 15:59:08 2020

   => Loading Basis Set <=

    Name: 6-31G(D_P)
    Role: ORBITAL
    Keyword: BASIS
    atoms 1   entry O          line   149 file /home/dranasinghe/anaconda2/envs/rmgpy3_env/share/psi4/basis/6-31g_d_p_.gbs 
    atoms 2-3 entry H          line    44 file /home/dranasinghe/anaconda2/envs/rmgpy3_env/share/psi4/basis/6-31g_d_p_.gbs 


         ---------------------------------------------------------
                                   SCF
               by Justin Turney, Rob Parrish, Andy Simmonett
                          and Daniel G. A. Smith
                              UKS Reference
                        1 Threads,    976 MiB Core
         ---------------------------------------------------------

  ==> Geometry <==

    Molecular point group: c2v
    Full point group: C2v

    Geometry (in Angstrom), charge = 0, multiplicity = 1:

       Center              X                  Y                   Z               Mass       
    ------------   -----------------  -----------------  -----------------  -----------------
         O           -0.000000000000     0.000000000000    -0.066702592465    15.994914619570
         H            0.759222768939     0.000000000000     0.529309273565     1.007825032230
         H           -0.759222768939    -0.000000000000     0.529309273565     1.007825032230

           O
              BASIS           6-31G(D_P)           ec2d227169b1af6c6a69bc8715bab79dbd7bb644
              DF_BASIS_SCF    (6-31G(D_P) AUX)     b57462463db1b385e39e4428a46364991bcd7673
           H
              BASIS           6-31G(D_P)           902186d0f3205710946c2c15d2c68458d6f6cc2a
              DF_BASIS_SCF    (6-31G(D_P) AUX)     1164366b470d7a66fddaf681ef9d1c28421b3e4a
           H
              BASIS           6-31G(D_P)           902186d0f3205710946c2c15d2c68458d6f6cc2a
              DF_BASIS_SCF    (6-31G(D_P) AUX)     1164366b470d7a66fddaf681ef9d1c28421b3e4a

  Running in c2v symmetry.

  Rotational constants: A =     26.51044  B =     14.50918  C =      9.37709 [cm^-1]
  Rotational constants: A = 794763.02372  B = 434974.31667  C = 281118.16386 [MHz]
  Nuclear repulsion =    9.120423520051565

  Charge       = 0
  Multiplicity = 1
  Electrons    = 10
  Nalpha       = 5
  Nbeta        = 5

  ==> Algorithm <==

  SCF Algorithm Type is DIRECT.
  DIIS enabled.
  MOM disabled.
  Fractional occupation disabled.
  Guess Type is READ.
  Energy threshold   = 1.00e-08
  Density threshold  = 1.00e-08
  Integral threshold = 0.00e+00

  ==> Primary Basis <==

  -AO BASIS SET INFORMATION:
    Name                   = 6-31G(D_P)
    Blend                  = 6-31G(D_P)
    Total number of shells = 12
    Number of primitives   = 25
    Number of AO           = 25
    Number of SO           = 25
    Maximum AM             = 2
    Spherical Harmonics    = FALSE

  -Contraction Scheme:
    Atom   Type   All Primitives // Shells:
   ------ ------ --------------------------
       1     O     10s 4p 1d // 3s 2p 1d 
       2     H     4s 1p // 2s 1p 
       3     H     4s 1p // 2s 1p 

  ==> AO Basis Functions <==

    [ 6-31G(D_P) ]
    cartesian
    ****
    O   1
    S   6 1.00
                      5484.67170000           0.00183110
                       825.23495000           0.01395010
                       188.04696000           0.06844510
                        52.96450000           0.23271430
                        16.89757000           0.47019300
                         5.79963530           0.35852090
    S   3 1.00
                        15.53961600          -0.11077750
                         3.59993360          -0.14802630
                         1.01376180           1.13076700
    P   3 1.00
                        15.53961600           0.07087430
                         3.59993360           0.33975280
                         1.01376180           0.72715860
    S   1 1.00
                         0.27000580           1.00000000
    P   1 1.00
                         0.27000580           1.00000000
    D   1 1.00
                         0.80000000           1.00000000
    ****
    H   2
    S   3 1.00
                        18.73113700           0.03349460
                         2.82539370           0.23472695
                         0.64012170           0.81375733
    S   1 1.00
                         0.16127780           1.00000000
    P   1 1.00
                         1.10000000           1.00000000
    ****

  ==> DFT Potential <==

   => Composite Functional: B3LYP <= 

    B3LYP Hyb-GGA Exchange-Correlation Functional

    P. J. Stephens, F. J. Devlin, C. F. Chabalowski, and M. J. Frisch, J. Phys. Chem. 98, 11623 (1994)

    Deriv               =              1
    GGA                 =           TRUE
    Meta                =          FALSE

    Exchange Hybrid     =           TRUE
    MP2 Hybrid          =          FALSE

   => Exchange Functionals <=

    0.0800   Slater exchange
    0.7200         Becke 88

   => Exact (HF) Exchange <=

    0.2000               HF 

   => Correlation Functionals <=

    0.1900   Vosko, Wilk & Nusair (VWN5_RPA)
    0.8100   Lee, Yang & Parr

   => XC_HYB_GGA_XC_B3LYP Functional <=

    B3LYP
    P. J. Stephens, F. J. Devlin, C. F. Chabalowski, and M. J. Frisch, J. Phys. Chem. 98, 11623 (1994)
    GGA   =           TRUE
    Meta  =          FALSE
    LRC   =          FALSE
    Alpha =   1.000000E+00
    Omega =   0.000000E+00

    > Parameters <


   => Molecular Quadrature <=

    Radial Scheme          =       TREUTLER
    Pruning Scheme         =           FLAT
    Nuclear Scheme         =       TREUTLER

    BS radius alpha        =              1
    Pruning alpha          =              1
    Radial Points          =             75
    Spherical Points       =            302
    Total Points           =          65565
    Total Blocks           =            561
    Max Points             =            254
    Max Functions          =             25

   => Loading Basis Set <=

    Name: (6-31G(D_P) AUX)
    Role: JKFIT
    Keyword: DF_BASIS_SCF
    atoms 1   entry O          line   221 file /home/dranasinghe/anaconda2/envs/rmgpy3_env/share/psi4/basis/cc-pvdz-jkfit.gbs 
    atoms 2-3 entry H          line    51 file /home/dranasinghe/anaconda2/envs/rmgpy3_env/share/psi4/basis/cc-pvdz-jkfit.gbs 

   => Loading Basis Set <=

    Name: 6-31G(D_P)
    Role: ORBITAL
    Keyword: BASIS
    atoms 1   entry O          line   149 file /home/dranasinghe/anaconda2/envs/rmgpy3_env/share/psi4/basis/6-31g_d_p_.gbs 
    atoms 2-3 entry H          line    44 file /home/dranasinghe/anaconda2/envs/rmgpy3_env/share/psi4/basis/6-31g_d_p_.gbs 

  Reading orbitals from file 180, no projection.

  Starting with a DF guess...

  ==> Pre-Iterations <==

   -------------------------------------------------------
    Irrep   Nso     Nmo     Nalpha   Nbeta   Ndocc  Nsocc
   -------------------------------------------------------
     A1        12      12       0       0       0       0
     A2         2       2       0       0       0       0
     B1         7       7       0       0       0       0
     B2         4       4       0       0       0       0
   -------------------------------------------------------
    Total      25      25       5       5       5       0
   -------------------------------------------------------

  ==> Integral Setup <==

  DFHelper Memory: AOs need 0.001 GiB; user supplied 0.669 GiB. Using in-core AOs.

  ==> MemDFJK: Density-Fitted J/K Matrices <==

[...]
                         1.10000000           1.00000000
    ****

  ==> DirectJKGrad: Integral-Direct SCF Gradients <==

    Gradient:                    1
    J tasked:                  Yes
    K tasked:                  Yes
    wK tasked:                  No
    Integrals threads:           1
    Schwarz Cutoff:          0E+00

  ==> DFT Potential <==

   => Composite Functional: B3LYP <= 

    B3LYP Hyb-GGA Exchange-Correlation Functional

    P. J. Stephens, F. J. Devlin, C. F. Chabalowski, and M. J. Frisch, J. Phys. Chem. 98, 11623 (1994)

    Deriv               =              1
    GGA                 =           TRUE
    Meta                =          FALSE

    Exchange Hybrid     =           TRUE
    MP2 Hybrid          =          FALSE

   => Exchange Functionals <=

    0.0800   Slater exchange
    0.7200         Becke 88

   => Exact (HF) Exchange <=

    0.2000               HF 

   => Correlation Functionals <=

    0.1900   Vosko, Wilk & Nusair (VWN5_RPA)
    0.8100   Lee, Yang & Parr

   => XC_HYB_GGA_XC_B3LYP Functional <=

    B3LYP
    P. J. Stephens, F. J. Devlin, C. F. Chabalowski, and M. J. Frisch, J. Phys. Chem. 98, 11623 (1994)
    GGA   =           TRUE
    Meta  =          FALSE
    LRC   =          FALSE
    Alpha =   1.000000E+00
    Omega =   0.000000E+00

    > Parameters <


   => Molecular Quadrature <=

    Radial Scheme          =       TREUTLER
    Pruning Scheme         =           FLAT
    Nuclear Scheme         =       TREUTLER

    BS radius alpha        =              1
    Pruning alpha          =              1
    Radial Points          =             75
    Spherical Points       =            302
    Total Points           =          65565
    Total Blocks           =            558
    Max Points             =            256
    Max Functions          =             25


  -Nuclear Gradient:
     Atom            X                  Y                   Z
    ------   -----------------  -----------------  -----------------
       1       -0.014828517463     0.000000000000     2.969641525357
       2       -2.005456073765     0.000000000000    -1.478829686713
       3        2.020284591228     0.000000000000    -1.490811838643


  -Core Hamiltonian Gradient:
     Atom            X                  Y                   Z
    ------   -----------------  -----------------  -----------------
       1        0.021544122160     0.000000000000    -6.945617487988
       2        4.629078591144     0.000000000000     3.462658429815
       3       -4.650622713305     0.000000000000     3.482959058173


  -Overlap Gradient:
     Atom            X                  Y                   Z
    ------   -----------------  -----------------  -----------------
       1       -0.000845520905    -0.000000000000     0.319526624532
       2       -0.189215852258    -0.000000000000    -0.159347955020
       3        0.190061373163    -0.000000000000    -0.160178669512


  -Coulomb Gradient:
     Atom            X                  Y                   Z
    ------   -----------------  -----------------  -----------------
       1       -0.010398076138     0.000000000000     4.099685266839
       2       -2.724356031648     0.000000000000    -2.044177823482
       3        2.734754107785     0.000000000000    -2.055507443357


  -Exchange Gradient:
     Atom            X                  Y                   Z
    ------   -----------------  -----------------  -----------------
       1        0.000329817137    -0.000000000000    -0.113894758588
       2        0.074732227214    -0.000000000000     0.056783361662
       3       -0.075062044350    -0.000000000000     0.057111396926


  -XC Gradient:
     Atom            X                  Y                   Z
    ------   -----------------  -----------------  -----------------
       1        0.001077549696     0.000000000000    -0.329242234562
       2        0.216676347044    -0.000000000000     0.164077530395
       3       -0.217756490359     0.000000000000     0.165143595519


  -Total Gradient:
     Atom            X                  Y                   Z
    ------   -----------------  -----------------  -----------------
       1       -0.003120625512     0.000000000000     0.000098935589
       2        0.001459207731     0.000000000000     0.001163856656
       3        0.001658824162     0.000000000000    -0.001283900893


*** tstop() called on X1-ubuntu at Sun Sep  6 15:59:45 2020
Module time:
	user time   =       0.46 seconds =       0.01 minutes
	system time =       0.00 seconds =       0.00 minutes
	total time  =          1 seconds =       0.02 minutes
Total time:
	user time   =      44.88 seconds =       0.75 minutes
	system time =       0.69 seconds =       0.01 minutes
	total time  =         46 seconds =       0.77 minutes

         ----------------------------------------------------------
                                   FINDIF
                     R. A. King and Jonathon Misiewicz
         ---------------------------------------------------------

  Computing second-derivative from gradients using projected, 
  symmetry-adapted, cartesian coordinates.

  6 gradients passed in, including the reference geometry.
  Generating complete list of displacements from unique ones.

    The atom map:
     1 :    1   1   1   1
     2 :    2   3   2   3
     3 :    3   2   3   2

    Symmetric gradients

[[ 0.0000000000e+00  1.1832913578e-30 -1.6239724390e-03]
 [ 6.4957646195e-04  1.9887543373e-20  8.0156793782e-04]
 [-6.4957646195e-04 -1.9887543373e-20  8.0156793782e-04]]

[[-7.8886090522e-31  7.8886090522e-31  1.7931519355e-03]
 [-8.3700918403e-04 -2.5626015452e-20 -9.0737517454e-04]
 [ 8.3700918403e-04  2.5626015452e-20 -9.0737517454e-04]]

[[-7.8886090522e-31  0.0000000000e+00  1.4933966109e-03]
 [-1.5018784270e-03 -4.5981765209e-20 -7.5715330927e-04]
 [ 1.5018784270e-03  4.5981765209e-20 -7.5715330927e-04]]

[[ 0.0000000000e+00 -1.5777218104e-30 -1.3090870257e-03]
 [ 1.3106502409e-03  4.0127090556e-20  6.4377624878e-04]
 [-1.3106502409e-03 -4.0127090556e-20  6.4377624878e-04]]
Characters for irrep 2
   1.0  -1.0   1.0  -1.0
    Operation 2 takes plus displacements of irrep B1 to minus ones.
    All mass-weighted gradients

[[ 0.0000000000e+00  2.9586986228e-31 -4.0605764480e-04]
 [ 6.4704980234e-04  1.9810186733e-20  7.9845007649e-04]
 [-6.4704980234e-04 -1.9810186733e-20  7.9845007649e-04]]

[[-1.9724657485e-31  1.9724657485e-31  4.4835924195e-04]
 [-8.3375346677e-04 -2.5526337859e-20 -9.0384575446e-04]
 [ 8.3375346677e-04  2.5526337859e-20 -9.0384575446e-04]]

[[-1.9724657485e-31  0.0000000000e+00  3.7340849882e-04]
 [-1.4960365658e-03 -4.5802909792e-20 -7.5420820766e-04]
 [ 1.4960365658e-03  4.5802909791e-20 -7.5420820766e-04]]

[[ 0.0000000000e+00 -3.9449314971e-31 -3.2732377823e-04]
 [ 1.3055522005e-03  3.9971008086e-20  6.4127215027e-04]
 [-1.3055522005e-03 -3.9971008086e-20  6.4127215027e-04]]

[[-7.8028038862e-04  0.0000000000e+00  2.4737828904e-05]
 [ 1.4535318464e-03  0.0000000000e+00  1.1593295994e-03]
 [ 1.6523718284e-03  0.0000000000e+00 -1.2789068999e-03]]

[[ 7.8028038862e-04  9.5556788036e-20  2.4737828904e-05]
 [-1.6523718284e-03 -2.0235718707e-19 -1.2789068999e-03]
 [-1.4535318464e-03 -1.7800631232e-19  1.1593295994e-03]]
Gradients in B-matrix coordinates
 disp 0:   -0.0011999599   0.0009150666
 disp 1:    0.0013545754  -0.0011791055
 disp 2:    0.0011300751  -0.0021157152
 disp 3:   -0.0009641447   0.0018463296

    Force Constants for irrep A1 in mass-weighted, symmetry-adapted cartesian coordinates.

[[ 0.2554535256 -0.2094195932]
 [-0.2094195932  0.3962044829]]

    Normal coordinates (non-mass-weighted) for irrep A1:

[[ 0.            0.          ]
 [ 0.            0.          ]
 [-0.0488266216 -0.0679180718]
 [ 0.5719062449 -0.4111460918]
 [ 0.            0.          ]
 [ 0.3874569583  0.5389545431]
 [-0.5719062449  0.4111460918]
 [ 0.            0.          ]
 [ 0.3874569583  0.5389545431]]
Gradients in B-matrix coordinates
 disp 0:   -0.0028990782

    Force Constants for irrep B1 in mass-weighted, symmetry-adapted cartesian coordinates.

[[0.5798156441]]

    Normal coordinates (non-mass-weighted) for irrep B1:

[[ 0.0672458654]
 [ 0.          ]
 [ 0.          ]
 [-0.5336203416]
 [ 0.          ]
 [-0.4189074255]
 [-0.5336203416]
 [ 0.          ]
 [ 0.4189074255]]

    Force constant matrix for all computed irreps in mass-weighted SALCS.

[[ 0.2554535256 -0.2094195932  0.          ]
 [-0.2094195932  0.3962044829  0.          ]
 [ 0.            0.            0.5798156441]]

    Force constants in mass-weighted Cartesian coordinates.

[[ 0.0419375475  0.            0.           -0.0835355673  0.
  -0.0655778401 -0.0835355673  0.            0.0655778401]
 [ 0.            0.            0.            0.            0.
   0.            0.            0.            0.          ]
 [ 0.            0.            0.028589049  -0.0495388839  0.
  -0.0569466401  0.0495388839  0.           -0.0569466401]
 [-0.0835355673  0.           -0.0495388839  0.3644970694  0.
   0.2293014593 -0.0317074135  0.           -0.0319480605]
 [ 0.            0.            0.            0.            0.
   0.            0.            0.            0.          ]
 [-0.0655778401  0.           -0.0569466401  0.2293014593  0.
   0.2159764587  0.0319480605  0.            0.010888018 ]
 [-0.0835355673  0.            0.0495388839 -0.0317074135  0.
   0.0319480605  0.3644970694  0.           -0.2293014593]
 [ 0.            0.            0.            0.            0.
   0.            0.            0.            0.          ]
 [ 0.0655778401  0.           -0.0569466401 -0.0319480605  0.
   0.010888018  -0.2293014593  0.            0.2159764587]]

    Force constants in Cartesian coordinates.

[[ 0.6707874914  0.            0.           -0.3353937457  0.
  -0.2632938057 -0.3353937457  0.            0.2632938057]
 [ 0.            0.            0.            0.            0.
   0.            0.            0.            0.          ]
 [ 0.            0.            0.4572793971 -0.1988976954  0.
  -0.2286396985  0.1988976954  0.           -0.2286396985]
 [-0.3353937457  0.           -0.1988976954  0.3673492707  0.
   0.2310957506 -0.031955525   0.           -0.0321980552]
 [ 0.            0.            0.            0.            0.
   0.            0.            0.            0.          ]
 [-0.2632938057  0.           -0.2286396985  0.2310957506  0.
   0.2176664814  0.0321980552  0.            0.0109732171]
 [-0.3353937457  0.            0.1988976954 -0.031955525   0.
   0.0321980552  0.3673492707  0.           -0.2310957506]
 [ 0.            0.            0.            0.            0.
   0.            0.            0.            0.          ]
 [ 0.2632938057  0.           -0.2286396985 -0.0321980552  0.
   0.0109732171 -0.2310957506  0.            0.2176664814]]

-------------------------------------------------------------


  ==> Harmonic Vibrational Analysis <==

  non-mass-weighted Hessian:       Symmetric? True   Hermitian? True   Lin Dep Dim?  6 (0)
  projection of translations (True) and rotations (True) removed 6 degrees of freedom (6)
  total projector:                 Symmetric? True   Hermitian? True   Lin Dep Dim?  6 (6)
  mass-weighted Hessian:           Symmetric? True   Hermitian? True   Lin Dep Dim?  6 (0)
  pre-proj  low-frequency mode:    0.0000i [cm^-1]
  pre-proj  low-frequency mode:    0.0000i [cm^-1]
  pre-proj  low-frequency mode:    0.0000i [cm^-1]
  pre-proj  low-frequency mode:    0.0000  [cm^-1]
  pre-proj  low-frequency mode:    0.0000  [cm^-1]
  pre-proj  low-frequency mode:    0.0000  [cm^-1]
  pre-proj  all modes:['0.0000i' '0.0000i' '0.0000i' '0.0000' '0.0000' '0.0000' '1664.9211'
 '3801.0321' '3914.2561']
  projected mass-weighted Hessian: Symmetric? True   Hermitian? True   Lin Dep Dim?  6 (6)
  post-proj low-frequency mode:    0.0001i [cm^-1] (TR)
  post-proj low-frequency mode:    0.0000i [cm^-1] (TR)
  post-proj low-frequency mode:    0.0000i [cm^-1] (TR)
  post-proj low-frequency mode:    0.0000  [cm^-1] (TR)
  post-proj low-frequency mode:    0.0000  [cm^-1] (TR)
  post-proj low-frequency mode:    0.0000  [cm^-1] (TR)
  post-proj  all modes:['0.0001i' '0.0000i' '0.0000i' '0.0000' '0.0000' '0.0000' '1664.9211'
 '3801.0321' '3914.2561']

  Vibration                       7                   8                   9           
  Freq [cm^-1]                1664.9211           3801.0321           3914.2561       
  Irrep                           A1                  A1                  B1          
  Reduced mass [u]              1.0827              1.0452              1.0811        
  Force const [mDyne/A]         1.7682              8.8969              9.7591        
  Turning point v=0 [a0]        0.2584              0.1741              0.1687        
  RMS dev v=0 [a0 u^1/2]        0.1902              0.1258              0.1240        
  Char temp [K]               2395.4508           5468.8389           5631.7431       
  ----------------------------------------------------------------------------------
      1   O                0.00  0.00 -0.07    0.00  0.00 -0.05   -0.07  0.00  0.00   
      2   H               -0.43  0.00  0.56    0.58 -0.00  0.40    0.55  0.00  0.44   
      3   H                0.43  0.00  0.56   -0.58 -0.00  0.40    0.55  0.00 -0.44   

  ==> Thermochemistry Components <==

  Entropy, S
    Electronic S            0.000 [cal/(mol K)]        0.000 [J/(mol K)]       0.00000000 [mEh/K] (multiplicity = 1)
    Translational S        34.608 [cal/(mol K)]      144.801 [J/(mol K)]       0.05515177 [mEh/K] (mol. weight = 18.0106 [u], P = 101325.00 [Pa])
    Rotational S           10.502 [cal/(mol K)]       43.939 [J/(mol K)]       0.01673541 [mEh/K] (symmetry no. = 2)
    Vibrational S           0.006 [cal/(mol K)]        0.024 [J/(mol K)]       0.00000928 [mEh/K]
  Total S                  45.116 [cal/(mol K)]      188.764 [J/(mol K)]       0.07189646 [mEh/K]
  Correction S              0.000 [cal/(mol K)]        0.000 [J/(mol K)]       0.00000000 [mEh/K]

  Constant volume heat capacity, Cv
    Electronic Cv           0.000 [cal/(mol K)]        0.000 [J/(mol K)]       0.00000000 [mEh/K]
    Translational Cv        2.981 [cal/(mol K)]       12.472 [J/(mol K)]       0.00475022 [mEh/K]
    Rotational Cv           2.981 [cal/(mol K)]       12.472 [J/(mol K)]       0.00475022 [mEh/K]
    Vibrational Cv          0.042 [cal/(mol K)]        0.174 [J/(mol K)]       0.00006632 [mEh/K]
  Total Cv                  6.003 [cal/(mol K)]       25.118 [J/(mol K)]       0.00956675 [mEh/K]
  Correction Cv             0.000 [cal/(mol K)]        0.000 [J/(mol K)]       0.00000000 [mEh/K]

  Constant pressure heat capacity, Cp
    Electronic Cp           0.000 [cal/(mol K)]        0.000 [J/(mol K)]       0.00000000 [mEh/K]
    Translational Cp        4.968 [cal/(mol K)]       20.786 [J/(mol K)]       0.00791703 [mEh/K]
    Rotational Cp           2.981 [cal/(mol K)]       12.472 [J/(mol K)]       0.00475022 [mEh/K]
    Vibrational Cp          0.042 [cal/(mol K)]        0.174 [J/(mol K)]       0.00006632 [mEh/K]
  Total Cp                  7.990 [cal/(mol K)]       33.432 [J/(mol K)]       0.01273356 [mEh/K]
  Correction Cp             0.000 [cal/(mol K)]        0.000 [J/(mol K)]       0.00000000 [mEh/K]

  ==> Thermochemistry Energy Analysis <==

  Raw electronic energy, E0
  Total E0, Electronic energy at well bottom at 0 [K]                  -76.41973727 [Eh]

  Zero-point energy, ZPE_vib = Sum_i nu_i / 2
    Electronic ZPE          0.000 [kcal/mol]        0.000 [kJ/mol]       0.00000000 [Eh]
    Translational ZPE       0.000 [kcal/mol]        0.000 [kJ/mol]       0.00000000 [Eh]
    Rotational ZPE          0.000 [kcal/mol]        0.000 [kJ/mol]       0.00000000 [Eh]
    Vibrational ZPE        13.410 [kcal/mol]       56.106 [kJ/mol]       0.02136969 [Eh]        4690.105 [cm^-1]
  Correction ZPE           13.410 [kcal/mol]       56.106 [kJ/mol]       0.02136969 [Eh]        4690.105 [cm^-1]
  Total ZPE, Electronic energy at 0 [K]                                -76.39836758 [Eh]

  Thermal Energy, E (includes ZPE)
    Electronic E            0.000 [kcal/mol]        0.000 [kJ/mol]       0.00000000 [Eh]
    Translational E         0.889 [kcal/mol]        3.718 [kJ/mol]       0.00141628 [Eh]
    Rotational E            0.889 [kcal/mol]        3.718 [kJ/mol]       0.00141628 [Eh]
    Vibrational E          13.411 [kcal/mol]       56.113 [kJ/mol]       0.02137215 [Eh]
  Correction E             15.189 [kcal/mol]       63.549 [kJ/mol]       0.02420470 [Eh]
  Total E, Electronic energy at  298.15 [K]                            -76.39553256 [Eh]

  Enthalpy, H_trans = E_trans + k_B * T
    Electronic H            0.000 [kcal/mol]        0.000 [kJ/mol]       0.00000000 [Eh]
    Translational H         1.481 [kcal/mol]        6.197 [kJ/mol]       0.00236046 [Eh]
    Rotational H            0.889 [kcal/mol]        3.718 [kJ/mol]       0.00141628 [Eh]
    Vibrational H          13.411 [kcal/mol]       56.113 [kJ/mol]       0.02137215 [Eh]
  Correction H             15.781 [kcal/mol]       66.028 [kJ/mol]       0.02514889 [Eh]
  Total H, Enthalpy at  298.15 [K]                                     -76.39458838 [Eh]

  Gibbs free energy, G = H - T * S
    Electronic G            0.000 [kcal/mol]        0.000 [kJ/mol]       0.00000000 [Eh]
    Translational G        -8.837 [kcal/mol]      -36.975 [kJ/mol]      -0.01408304 [Eh]
    Rotational G           -2.242 [kcal/mol]       -9.382 [kJ/mol]      -0.00357339 [Eh]
    Vibrational G          13.409 [kcal/mol]       56.105 [kJ/mol]       0.02136938 [Eh]
  Correction G              2.330 [kcal/mol]        9.748 [kJ/mol]       0.00371296 [Eh]
  Total G, Free enthalpy at  298.15 [K]                                -76.41602431 [Eh]
  ## New Matrix (Symmetry 0) ##
  Irrep: 1 Size: 9 x 9

                 1                   2                   3                   4                   5

    1     0.67078749141985     0.00000000000000     0.00000000000000    -0.33539374570993     0.00000000000000
    2     0.00000000000000     0.00000000000000     0.00000000000000     0.00000000000000     0.00000000000000
    3     0.00000000000000     0.00000000000000     0.45727939706154    -0.19889769543358     0.00000000000000
    4    -0.33539374570993     0.00000000000000    -0.19889769543358     0.36734927074917     0.00000000000000
    5     0.00000000000000     0.00000000000000     0.00000000000000     0.00000000000000     0.00000000000000
    6    -0.26329380573625     0.00000000000000    -0.22863969853077     0.23109575058492     0.00000000000000
    7    -0.33539374570993     0.00000000000000     0.19889769543358    -0.03195552503925     0.00000000000000
    8     0.00000000000000     0.00000000000000     0.00000000000000     0.00000000000000     0.00000000000000
    9     0.26329380573625     0.00000000000000    -0.22863969853077    -0.03219805515134     0.00000000000000

                 6                   7                   8                   9

    1    -0.26329380573625    -0.33539374570993     0.00000000000000     0.26329380573625
    2     0.00000000000000     0.00000000000000     0.00000000000000     0.00000000000000
    3    -0.22863969853077     0.19889769543358     0.00000000000000    -0.22863969853077
    4     0.23109575058492    -0.03195552503925     0.00000000000000    -0.03219805515134
    5     0.00000000000000     0.00000000000000     0.00000000000000     0.00000000000000
    6     0.21766648143401     0.03219805515134     0.00000000000000     0.01097321709676
    7     0.03219805515134     0.36734927074917     0.00000000000000    -0.23109575058492
    8     0.00000000000000     0.00000000000000     0.00000000000000     0.00000000000000
    9     0.01097321709676    -0.23109575058492     0.00000000000000     0.21766648143401




    Psi4 stopped on: Sunday, 06 September 2020 03:59PM
    Psi4 wall time for execution: 0:00:45.81

*** Psi4 exiting successfully. Buy a developer a beer!
