
    -----------------------------------------------------------------------
          Psi4: An Open-Source Ab Initio Electronic Structure Package
                               Psi4 1.3.2 release

                         Git: Rev {HEAD} ecbda83 


    R. M. Parrish, L. A. Burns, D. G. A. Smith, A. C. Simmonett,
    A. E. DePrince III, E. G. Hohenstein, U. Bozkaya, A. Yu. Sokolov,
    R. Di Remigio, R. M. Richard, J. F. Gonthier, A. M. James,
    H. R. McAlexander, A. Kumar, M. Saitow, X. Wang, B. P. Pritchard,
    P. Verma, H. F. Schaefer III, K. Patkowski, R. A. King, E. F. Valeev,
    F. A. Evangelista, J. M. Turney, T. D. Crawford, and C. D. Sherrill,
    J. Chem. Theory Comput. 13(7) pp 3185--3197 (2017).
    (doi: 10.1021/acs.jctc.7b00174)


                         Additional Contributions by
    P. Kraus, H. Kruse, M. H. Lechner, M. C. Schieber, R. A. Shaw,
    A. Alenaizan, R. Galvelis, Z. L. Glick, S. Lehtola, and J. P. Misiewicz

    -----------------------------------------------------------------------


    Psi4 started on: Sunday, 06 September 2020 04:01PM

    Process ID: 10086
    Host:       X1-ubuntu
    PSIDATADIR: /home/dranasinghe/anaconda2/envs/rmgpy3_env/share/psi4
    Memory:     500.0 MiB
    Threads:    1
    
  ==> Input File <==

--------------------------------------------------------------------------
memory 1024 mb

molecule mol {
0 1
O 0.00000000 0.00000000 0.00000000
H 0.00000000 0.28053300 -0.90381100
O 0.00000000 -1.39778000 0.00000000
H 0.00000000 -1.67831300 -0.90381100

}
set {
  scf_type DIRECT
  basis 6-31G(d_p)
  reference uks
  opt_type ts
  full_hess_every 0
  geom_maxiter 50
  print 3
}

optimize('b3lyp')
scf_e, wfn=frequencies('b3lyp', return_wfn=True, dertype=1)
wfn.hessian().print_out()

--------------------------------------------------------------------------

  Memory set to 976.562 MiB by Python driver.
gradient() will perform analytic gradient computation.

*** tstart() called on X1-ubuntu
*** at Sun Sep  6 16:01:45 2020

   => Loading Basis Set <=

    Name: 6-31G(D_P)
    Role: ORBITAL
    Keyword: BASIS
    atoms 1, 3 entry O          line   149 file /home/dranasinghe/anaconda2/envs/rmgpy3_env/share/psi4/basis/6-31g_d_p_.gbs 
    atoms 2, 4 entry H          line    44 file /home/dranasinghe/anaconda2/envs/rmgpy3_env/share/psi4/basis/6-31g_d_p_.gbs 


         ---------------------------------------------------------
                                   SCF
               by Justin Turney, Rob Parrish, Andy Simmonett
                          and Daniel G. A. Smith
                              UKS Reference
                        1 Threads,    976 MiB Core
         ---------------------------------------------------------

  ==> Geometry <==

    Molecular point group: c2v
    Full point group: C2v

    Geometry (in Angstrom), charge = 0, multiplicity = 1:

       Center              X                  Y                   Z               Mass       
    ------------   -----------------  -----------------  -----------------  -----------------
         O           -0.000000000000     0.698890000000     0.053572739974    15.994914619570
         H           -0.000000000000     0.979423000000    -0.850238260026     1.007825032230
         O            0.000000000000    -0.698890000000     0.053572739974    15.994914619570
         H            0.000000000000    -0.979423000000    -0.850238260026     1.007825032230

           O
              BASIS           6-31G(D_P)           ec2d227169b1af6c6a69bc8715bab79dbd7bb644
           H
              BASIS           6-31G(D_P)           902186d0f3205710946c2c15d2c68458d6f6cc2a
           O
              BASIS           6-31G(D_P)           ec2d227169b1af6c6a69bc8715bab79dbd7bb644
           H
              BASIS           6-31G(D_P)           902186d0f3205710946c2c15d2c68458d6f6cc2a

  Running in c2v symmetry.

  Rotational constants: A =     10.88336  B =      0.96006  C =      0.88224 [cm^-1]
  Rotational constants: A = 326274.99817  B =  28781.93695  C =  26448.79031 [MHz]
  Nuclear repulsion =   37.888114307181077

  Charge       = 0
  Multiplicity = 1
  Electrons    = 18
  Nalpha       = 9
  Nbeta        = 9

  ==> Algorithm <==

  SCF Algorithm Type is DIRECT.
  DIIS enabled.
  MOM disabled.
  Fractional occupation disabled.
  Guess Type is SAD.
  Energy threshold   = 1.00e-08
  Density threshold  = 1.00e-08
  Integral threshold = 0.00e+00

  ==> Primary Basis <==

  -AO BASIS SET INFORMATION:
    Name                   = 6-31G(D_P)
    Blend                  = 6-31G(D_P)
    Total number of shells = 18
    Number of primitives   = 40
    Number of AO           = 40
    Number of SO           = 40
    Maximum AM             = 2
    Spherical Harmonics    = FALSE

  -Contraction Scheme:
    Atom   Type   All Primitives // Shells:
   ------ ------ --------------------------
       1     O     10s 4p 1d // 3s 2p 1d 
       2     H     4s 1p // 2s 1p 
       3     O     10s 4p 1d // 3s 2p 1d 
       4     H     4s 1p // 2s 1p 

  ==> AO Basis Functions <==

    [ 6-31G(D_P) ]
    cartesian
    ****
    O   1
    S   6 1.00
                      5484.67170000           0.00183110
                       825.23495000           0.01395010
                       188.04696000           0.06844510
                        52.96450000           0.23271430
                        16.89757000           0.47019300
                         5.79963530           0.35852090
    S   3 1.00
                        15.53961600          -0.11077750
                         3.59993360          -0.14802630
                         1.01376180           1.13076700
    P   3 1.00
                        15.53961600           0.07087430
                         3.59993360           0.33975280
                         1.01376180           0.72715860
    S   1 1.00
                         0.27000580           1.00000000
    P   1 1.00
                         0.27000580           1.00000000
    D   1 1.00
                         0.80000000           1.00000000
    ****
    H   2
    S   3 1.00
                        18.73113700           0.03349460
                         2.82539370           0.23472695
                         0.64012170           0.81375733
    S   1 1.00
                         0.16127780           1.00000000
    P   1 1.00
                         1.10000000           1.00000000
    ****

  ==> DFT Potential <==

   => Composite Functional: B3LYP <= 

    B3LYP Hyb-GGA Exchange-Correlation Functional

    P. J. Stephens, F. J. Devlin, C. F. Chabalowski, and M. J. Frisch, J. Phys. Chem. 98, 11623 (1994)

    Deriv               =              1
    GGA                 =           TRUE
    Meta                =          FALSE

    Exchange Hybrid     =           TRUE
    MP2 Hybrid          =          FALSE

   => Exchange Functionals <=

    0.0800   Slater exchange
    0.7200         Becke 88

   => Exact (HF) Exchange <=

    0.2000               HF 

   => Correlation Functionals <=

    0.1900   Vosko, Wilk & Nusair (VWN5_RPA)
    0.8100   Lee, Yang & Parr

   => XC_HYB_GGA_XC_B3LYP Functional <=

    B3LYP
    P. J. Stephens, F. J. Devlin, C. F. Chabalowski, and M. J. Frisch, J. Phys. Chem. 98, 11623 (1994)
    GGA   =           TRUE
    Meta  =          FALSE
    LRC   =          FALSE
    Alpha =   1.000000E+00
    Omega =   0.000000E+00

    > Parameters <


   => Molecular Quadrature <=

    Radial Scheme          =       TREUTLER
    Pruning Scheme         =           FLAT
    Nuclear Scheme         =       TREUTLER

    BS radius alpha        =              1
    Pruning alpha          =              1
    Radial Points          =             75
    Spherical Points       =            302
    Total Points           =          87096
    Total Blocks           =            708
    Max Points             =            256
    Max Functions          =             40

   => Loading Basis Set <=

    Name: (6-31G(D_P) AUX)
    Role: JKFIT
    Keyword: DF_BASIS_SCF
    atoms 1, 3 entry O          line   221 file /home/dranasinghe/anaconda2/envs/rmgpy3_env/share/psi4/basis/cc-pvdz-jkfit.gbs 
    atoms 2, 4 entry H          line    51 file /home/dranasinghe/anaconda2/envs/rmgpy3_env/share/psi4/basis/cc-pvdz-jkfit.gbs 

  Starting with a DF guess...

  ==> Pre-Iterations <==

   -------------------------------------------------------
    Irrep   Nso     Nmo     Nalpha   Nbeta   Ndocc  Nsocc
   -------------------------------------------------------
     A1        15      15       0       0       0       0
     A2         5       5       0       0       0       0
     B1         5       5       0       0       0       0
     B2        15      15       0       0       0       0
   -------------------------------------------------------
    Total      40      40       9       9       9       0
   -------------------------------------------------------

  ==> Integral Setup <==

  DFHelper Memory: AOs need 0.003 GiB; user supplied 0.621 GiB. Using in-core AOs.

  ==> MemDFJK: Density-Fitted J/K Matrices <==

    J tasked:                   Yes
    K tasked:                   Yes
    wK tasked:                   No
    OpenMP threads:               1
    Memory [MiB]:               636
    Algorithm:                 Core
    Schwarz Cutoff:           1E-12
    Mask sparsity (%):       0.0000
    Fitting Condition:        1E-10

   => Auxiliary Basis Set <=

  -AO BASIS SET INFORMATION:
    Name                   = (6-31G(D_P) AUX)
    Blend                  = CC-PVDZ-JKFIT
    Total number of shells = 66
    Number of primitives   = 66
    Number of AO           = 212
    Number of SO           = 212
    Maximum AM             = 3
    Spherical Harmonics    = FALSE

  -Contraction Scheme:
    Atom   Type   All Primitives // Shells:
   ------ ------ --------------------------
       1     O     10s 7p 5d 2f // 10s 7p 5d 2f 
       2     H     4s 3p 2d // 4s 3p 2d 
       3     O     10s 7p 5d 2f // 10s 7p 5d 2f 
       4     H     4s 3p 2d // 4s 3p 2d 

  ==> AO Basis Functions <==

    [ (6-31G(D_P) AUX) ]
    cartesian
    ****
    O   1
    S   1 1.00
                      1517.86675060           1.00000000
    S   1 1.00
                       489.67952008           1.00000000
    S   1 1.00
                       176.72118665           1.00000000
    S   1 1.00
                        63.79223314           1.00000000
    S   1 1.00
                        25.36649913           1.00000000
    S   1 1.00
                         9.91354912           1.00000000
    S   1 1.00
                         4.46453066           1.00000000
    S   1 1.00
                         1.80177437           1.00000000
    S   1 1.00
                         0.80789711           1.00000000
    S   1 1.00
                         0.33864327           1.00000000
    P   1 1.00
                       120.16030921           1.00000000
    P   1 1.00
                        34.40962247           1.00000000
    P   1 1.00
                        12.58114861           1.00000000
    P   1 1.00
                         5.06638242           1.00000000
    P   1 1.00
                         2.03469271           1.00000000
    P   1 1.00
                         0.86092967           1.00000000
    P   1 1.00
                         0.36681357           1.00000000
    D   1 1.00
                        19.04306281           1.00000000
    D   1 1.00
                         5.80603811           1.00000000
    D   1 1.00
                         2.18918416           1.00000000
    D   1 1.00
                         0.87794614           1.00000000
    D   1 1.00
                         0.35623647           1.00000000
    F   1 1.00
                         2.49391479           1.00000000
    F   1 1.00
                         0.82491479           1.00000000
    ****
    H   2
    S   1 1.00
                         9.53024933           1.00000000
    S   1 1.00
                         1.91745062           1.00000000
    S   1 1.00
                         0.68424049           1.00000000
    S   1 1.00
                         0.28413256           1.00000000
    P   1 1.00
                         2.91332320           1.00000000
    P   1 1.00
                         1.26212054           1.00000000
    P   1 1.00
                         0.50199776           1.00000000
    D   1 1.00
                         2.31353291           1.00000000
    D   1 1.00
                         0.71290724           1.00000000
    ****

  Cached 100.0% of DFT collocation blocks in 0.094 [GiB].

  Minimum eigenvalue in the overlap matrix is 9.2866465976E-03.
  Using Symmetric Orthogonalization.

  SCF Guess: Superposition of Atomic Densities via on-the-fly atomic UHF.

DIIS coefficients:  1.000 
DIIS coefficients:  0.329  0.671 
DIIS coefficients:  -0.027  -0.001  1.028 
DIIS coefficients:  -0.002  -0.000  -0.045  1.047 
DIIS coefficients:  0.000  0.000  0.005  -0.173  1.168 
DIIS coefficients:  0.000  -0.000  -0.001  0.017  -0.113  1.097 
DIIS coefficients:  1.000 
DIIS coefficients:  -0.068  1.068 
DIIS coefficients:  -0.000  -0.002  1.002 
DIIS coefficients:  -0.000  -0.000  -0.001  1.001 
  ==> Iterations <==

                           Total Energy        Delta E     RMS |[F,P]|

   @DF-UKS iter SAD:  -151.18001522233391   -1.51180e+02   0.00000e+00 
DIIS coefficients:  1.000 
    Occupation by irrep:
             A1    A2    B1    B2 
    DOCC [     4,    1,    1,    3 ]
    SOCC [     0,    0,    0,    0 ]

   @DF-UKS iter   1:  -151.42927047759076   -2.49255e-01   2.23799e-02 DIIS
DIIS coefficients:  0.541  0.459 
    Occupation by irrep:
             A1    A2    B1    B2 
    DOCC [     4,    1,    1,    3 ]
    SOCC [     0,    0,    0,    0 ]

   @DF-UKS iter   2:  -151.40031944423728    2.89510e-02   2.62839e-02 DIIS
DIIS coefficients:  0.161  0.148  0.691 
    Occupation by irrep:
             A1    A2    B1    B2 
    DOCC [     4,    1,    1,    3 ]
    SOCC [     0,    0,    0,    0 ]

   @DF-UKS iter   3:  -151.52587720331229   -1.25558e-01   1.66554e-03 DIIS
DIIS coefficients:  -0.000  -0.004  0.054  0.950 
    Occupation by irrep:
             A1    A2    B1    B2 
    DOCC [     4,    1,    1,    3 ]
    SOCC [     0,    0,    0,    0 ]

   @DF-UKS iter   4:  -151.52638810633061   -5.10903e-04   1.65290e-04 DIIS
DIIS coefficients:  -0.000  -0.001  0.002  0.087  0.913 
    Occupation by irrep:
             A1    A2    B1    B2 
    DOCC [     4,    1,    1,    3 ]
    SOCC [     0,    0,    0,    0 ]

   @DF-UKS iter   5:  -151.52639311916454   -5.01283e-06   1.73340e-05 DIIS
DIIS coefficients:  0.000  -0.000  -0.001  -0.006  0.202  0.805 
    Occupation by irrep:
             A1    A2    B1    B2 
    DOCC [     4,    1,    1,    3 ]
    SOCC [     0,    0,    0,    0 ]

   @DF-UKS iter   6:  -151.52639317212123   -5.29567e-08   3.13695e-06 DIIS
DIIS coefficients:  -0.000  0.000  -0.000  -0.000  -0.007  0.033  0.974 
    Occupation by irrep:
             A1    A2    B1    B2 
    DOCC [     4,    1,    1,    3 ]
    SOCC [     0,    0,    0,    0 ]

   @DF-UKS iter   7:  -151.52639317411524   -1.99401e-09   2.67103e-07 DIIS
DIIS coefficients:  0.000  0.000  0.000  0.000  -0.002  -0.008  -0.025  1.035 
    Occupation by irrep:
             A1    A2    B1    B2 
    DOCC [     4,    1,    1,    3 ]
    SOCC [     0,    0,    0,    0 ]

   @DF-UKS iter   8:  -151.52639317413571   -2.04636e-11   2.18253e-08 DIIS
DIIS coefficients:  0.000  -0.000  -0.000  -0.000  0.000  0.001  -0.007  -0.064  1.070 
    Occupation by irrep:
             A1    A2    B1    B2 
    DOCC [     4,    1,    1,    3 ]
    SOCC [     0,    0,    0,    0 ]

   @DF-UKS iter   9:  -151.52639317413605   -3.41061e-13   2.77176e-09 DIIS

  DF guess converged.

  ==> DirectJK: Integral-Direct J/K Matrices <==

    J tasked:                  Yes
    K tasked:                  Yes
    wK tasked:                  No
    Integrals threads:           1
    Schwarz Cutoff:          1E-12

DIIS coefficients:  1.000 
    Occupation by irrep:
             A1    A2    B1    B2 
    DOCC [     4,    1,    1,    3 ]
    SOCC [     0,    0,    0,    0 ]

   @UKS iter  10:  -151.52635784540669   -1.51526e+02   2.31724e-05 DIIS
DIIS coefficients:  -0.048  1.048 
    Occupation by irrep:
             A1    A2    B1    B2 
    DOCC [     4,    1,    1,    3 ]
    SOCC [     0,    0,    0,    0 ]

   @UKS iter  11:  -151.52635797506099   -1.29654e-07   1.46845e-06 DIIS
DIIS coefficients:  -0.017  0.355  0.662 
    Occupation by irrep:
             A1    A2    B1    B2 
    DOCC [     4,    1,    1,    3 ]
    SOCC [     0,    0,    0,    0 ]

   @UKS iter  12:  -151.52635797554001   -4.79019e-10   5.56367e-07 DIIS
DIIS coefficients:  -0.005  0.107  0.271  0.628 
    Occupation by irrep:
             A1    A2    B1    B2 
    DOCC [     4,    1,    1,    3 ]
    SOCC [     0,    0,    0,    0 ]

   @UKS iter  13:  -151.52635797559304   -5.30349e-11   1.64141e-07 DIIS
DIIS coefficients:  0.000  -0.008  0.005  0.227  0.775 
    Occupation by irrep:
             A1    A2    B1    B2 
    DOCC [     4,    1,    1,    3 ]
    SOCC [     0,    0,    0,    0 ]

   @UKS iter  14:  -151.52635797559745   -4.40536e-12   4.57393e-08 DIIS
DIIS coefficients:  0.000  -0.002  -0.001  0.034  0.135  0.833 
    Occupation by irrep:
             A1    A2    B1    B2 
    DOCC [     4,    1,    1,    3 ]
    SOCC [     0,    0,    0,    0 ]

   @UKS iter  15:  -151.52635797559770   -2.55795e-13   1.52774e-09 DIIS
  Energy and wave function converged.


  ==> Post-Iterations <==

   @Spin Contamination Metric:   2.131628207E-14
   @S^2 Expected:                0.000000000E+00
   @S^2 Observed:                2.131628207E-14
   @S   Expected:                0.000000000E+00
   @S   Observed:                0.000000000E+00

    Orbital Energies [Eh]
    ---------------------

    Alpha Occupied:                                                       

       1A1   -19.199091     1B2   -19.199005     2A1    -1.138352  
       2B2    -0.896515     3A1    -0.590728     4A1    -0.428373  
       1B1    -0.404260     3B2    -0.370388     1A2    -0.238916  

    Alpha Virtual:                                                        

       5A1     0.040656     4B2     0.048297     5B2     0.165897  
       6A1     0.736537     6B2     0.757560     7A1     0.821052  
       2B1     0.852520     7B2     0.926443     8A1     0.928183  
       2A2     0.956812     9A1     1.033978     8B2     1.090203  
       3B1     1.437654     9B2     1.447316    10A1     1.453370  
       4B1     1.556758     3A2     1.647773    10B2     1.927938  
      11A1     2.021774    12A1     2.274226     4A2     2.410803  
      11B2     2.517360     5B1     2.574047    13A1     2.592268  
       5A2     2.734503    12B2     2.908135    13B2     3.027796  
      14A1     3.343963    15A1     3.476763    14B2     3.502684  
      15B2     3.858526  

    Beta Occupied:                                                        

       1A1   -19.199091     1B2   -19.199005     2A1    -1.138352  
       2B2    -0.896515     3A1    -0.590728     4A1    -0.428373  
       1B1    -0.404260     3B2    -0.370388     1A2    -0.238916  

    Beta Virtual:                                                         

       5A1     0.040656     4B2     0.048297     5B2     0.165897  
       6A1     0.736537     6B2     0.757560     7A1     0.821052  
       2B1     0.852520     7B2     0.926443     8A1     0.928183  
       2A2     0.956812     9A1     1.033978     8B2     1.090203  
       3B1     1.437654     9B2     1.447316    10A1     1.453370  
       4B1     1.556758     3A2     1.647773    10B2     1.927938  
      11A1     2.021774    12A1     2.274226     4A2     2.410803  
      11B2     2.517360     5B1     2.574047    13A1     2.592268  
       5A2     2.734503    12B2     2.908135    13B2     3.027796  
      14A1     3.343963    15A1     3.476763    14B2     3.502684  
      15B2     3.858526  

    Final Occupation by Irrep:
             A1    A2    B1    B2 
    DOCC [     4,    1,    1,    3 ]
    SOCC [     0,    0,    0,    0 ]

  @UKS Final Energy:  -151.52635797559770

   => Energetics <=

    Nuclear Repulsion Energy =             37.8881143071810769
    One-Electron Energy =                -283.5036201267971592
    Two-Electron Energy =                 108.5672523736685520
    DFT Exchange-Correlation Energy =     -14.4781045296502047
    Empirical Dispersion Energy =           0.0000000000000000
    VV10 Nonlocal Energy =                  0.0000000000000000
    Total Energy =                       -151.5263579755977332

  UHF NO Occupations:
  HONO-2 :    3 B2 2.0000000
  HONO-1 :    3 A1 2.0000000
  HONO-0 :    4 A1 2.0000000
  LUNO+0 :    5 A1 0.0000000
  LUNO+1 :    6 A1 0.0000000
  LUNO+2 :    7 A1 0.0000000
  LUNO+3 :    4 B2 0.0000000


Computation Completed


Properties will be evaluated at   0.000000,   0.000000,   0.000000 [a0]

Properties computed using the SCF density matrix

  Nuclear Dipole Moment: [e a0]
     X:    -0.0000      Y:     0.0000      Z:    -1.5936

  Electronic Dipole Moment: [e a0]
     X:     0.0000      Y:     0.0000      Z:     0.3116

  Dipole Moment: [e a0]
     X:    -0.0000      Y:     0.0000      Z:    -1.2821     Total:     1.2821

  Dipole Moment: [D]
     X:    -0.0000      Y:     0.0000      Z:    -3.2587     Total:     3.2587


*** tstop() called on X1-ubuntu at Sun Sep  6 16:01:52 2020
Module time:
	user time   =       7.06 seconds =       0.12 minutes
	system time =       0.16 seconds =       0.00 minutes
	total time  =          7 seconds =       0.12 minutes
Total time:
	user time   =       7.06 seconds =       0.12 minutes
	system time =       0.16 seconds =       0.00 minutes
	total time  =          7 seconds =       0.12 minutes

*** tstart() called on X1-ubuntu
*** at Sun Sep  6 16:01:52 2020


         ------------------------------------------------------------
                                   SCF GRAD                          
                          Rob Parrish, Justin Turney,                
                       Andy Simmonett, and Alex Sokolov              
         ------------------------------------------------------------

  ==> Geometry <==

    Molecular point group: c2v
    Full point group: C2v

    Geometry (in Angstrom), charge = 0, multiplicity = 1:

       Center              X                  Y                   Z               Mass       
    ------------   -----------------  -----------------  -----------------  -----------------
         O           -0.000000000000     0.698890000000     0.053572739974    15.994914619570
         H           -0.000000000000     0.979423000000    -0.850238260026     1.007825032230
         O            0.000000000000    -0.698890000000     0.053572739974    15.994914619570
         H            0.000000000000    -0.979423000000    -0.850238260026     1.007825032230

           O
              BASIS           6-31G(D_P)           ec2d227169b1af6c6a69bc8715bab79dbd7bb644
              DF_BASIS_SCF    (6-31G(D_P) AUX)     b57462463db1b385e39e4428a46364991bcd7673
           H
              BASIS           6-31G(D_P)           902186d0f3205710946c2c15d2c68458d6f6cc2a
              DF_BASIS_SCF    (6-31G(D_P) AUX)     1164366b470d7a66fddaf681ef9d1c28421b3e4a
           O
              BASIS           6-31G(D_P)           ec2d227169b1af6c6a69bc8715bab79dbd7bb644
              DF_BASIS_SCF    (6-31G(D_P) AUX)     b57462463db1b385e39e4428a46364991bcd7673
           H
              BASIS           6-31G(D_P)           902186d0f3205710946c2c15d2c68458d6f6cc2a
              DF_BASIS_SCF    (6-31G(D_P) AUX)     1164366b470d7a66fddaf681ef9d1c28421b3e4a

  Nuclear repulsion =   37.888114307181077

  ==> Basis Set <==

  -AO BASIS SET INFORMATION:
    Name                   = 6-31G(D_P)
    Blend                  = 6-31G(D_P)
    Total number of shells = 18
    Number of primitives   = 40
    Number of AO           = 40
    Number of SO           = 40
    Maximum AM             = 2
    Spherical Harmonics    = FALSE

  -Contraction Scheme:
    Atom   Type   All Primitives // Shells:
   ------ ------ --------------------------
       1     O     10s 4p 1d // 3s 2p 1d 
       2     H     4s 1p // 2s 1p 
       3     O     10s 4p 1d // 3s 2p 1d 
       4     H     4s 1p // 2s 1p 

  ==> AO Basis Functions <==

    [ 6-31G(D_P) ]
    cartesian
    ****
    O   1
    S   6 1.00
                      5484.67170000           0.00183110
                       825.23495000           0.01395010
                       188.04696000           0.06844510
                        52.96450000           0.23271430
                        16.89757000           0.47019300
                         5.79963530           0.35852090
    S   3 1.00
                        15.53961600          -0.11077750
                         3.59993360          -0.14802630
                         1.01376180           1.13076700
    P   3 1.00
                        15.53961600           0.07087430
                         3.59993360           0.33975280
                         1.01376180           0.72715860
    S   1 1.00
                         0.27000580           1.00000000
    P   1 1.00
                         0.27000580           1.00000000
    D   1 1.00
                         0.80000000           1.00000000
    ****
    H   2
    S   3 1.00
                        18.73113700           0.03349460
                         2.82539370           0.23472695
                         0.64012170           0.81375733
    S   1 1.00
                         0.16127780           1.00000000
    P   1 1.00
                         1.10000000           1.00000000
    ****

  ==> DirectJKGrad: Integral-Direct SCF Gradients <==

    Gradient:                    1
    J tasked:                  Yes
    K tasked:                  Yes
    wK tasked:                  No
    Integrals threads:           1
    Schwarz Cutoff:          0E+00

  ==> DFT Potential <==

   => Composite Functional: B3LYP <= 

    B3LYP Hyb-GGA Exchange-Correlation Functional

    P. J. Stephens, F. J. Devlin, C. F. Chabalowski, and M. J. Frisch, J. Phys. Chem. 98, 11623 (1994)

    Deriv               =              1
    GGA                 =           TRUE
    Meta                =          FALSE

    Exchange Hybrid     =           TRUE
    MP2 Hybrid          =          FALSE

   => Exchange Functionals <=

    0.0800   Slater exchange
    0.7200         Becke 88

   => Exact (HF) Exchange <=

    0.2000               HF 

   => Correlation Functionals <=

    0.1900   Vosko, Wilk & Nusair (VWN5_RPA)
    0.8100   Lee, Yang & Parr

   => XC_HYB_GGA_XC_B3LYP Functional <=

    B3LYP
    P. J. Stephens, F. J. Devlin, C. F. Chabalowski, and M. J. Frisch, J. Phys. Chem. 98, 11623 (1994)
    GGA   =           TRUE
    Meta  =          FALSE
    LRC   =          FALSE
    Alpha =   1.000000E+00
    Omega =   0.000000E+00

    > Parameters <


   => Molecular Quadrature <=

    Radial Scheme          =       TREUTLER
    Pruning Scheme         =           FLAT
    Nuclear Scheme         =       TREUTLER

    BS radius alpha        =              1
    Pruning alpha          =              1
    Radial Points          =             75
    Spherical Points       =            302
    Total Points           =          87096
    Total Blocks           =            708
    Max Points             =            256
    Max Functions          =             40


  -Nuclear Gradient:
     Atom            X                  Y                   Z
    ------   -----------------  -----------------  -----------------
       1        0.000000000000    -8.974155994504    -2.681334706271
       2        0.000000000000    -1.357325321237     2.681334706271
       3       -0.000000000000     8.974155994504    -2.681334706271
       4       -0.000000000000     1.357325321237     2.681334706271


  -Core Hamiltonian Gradient:
     Atom            X                  Y                   Z
    ------   -----------------  -----------------  -----------------
       1       -0.000000000000    16.307513723985     6.569023333565
       2       -0.000000000000     3.106741176717    -6.569023333565
       3        0.000000000000   -16.307513723985     6.569023333565
       4        0.000000000000    -3.106741176717    -6.569023333565


  -Overlap Gradient:
     Atom            X                  Y                   Z
    ------   -----------------  -----------------  -----------------
       1        0.000000000000    -0.111098422817    -0.256234032254
       2        0.000000000000    -0.085263378423     0.256234032254
       3       -0.000000000000     0.111098422817    -0.256234032254
       4       -0.000000000000     0.085263378423     0.256234032254


  -Coulomb Gradient:
     Atom            X                  Y                   Z
    ------   -----------------  -----------------  -----------------
       1        0.000000000000    -7.282061733988    -4.009487597677
       2        0.000000000000    -1.800110572617     4.009487597677
       3       -0.000000000000     7.282061733988    -4.009487597677
       4       -0.000000000000     1.800110572617     4.009487597677


  -Exchange Gradient:
     Atom            X                  Y                   Z
    ------   -----------------  -----------------  -----------------
       1       -0.000000000000     0.008202859063     0.090411661642
       2       -0.000000000000     0.033854422797    -0.090411661642
       3        0.000000000000    -0.008202859063     0.090411661642
       4        0.000000000000    -0.033854422797    -0.090411661642


  -XC Gradient:
     Atom            X                  Y                   Z
    ------   -----------------  -----------------  -----------------
       1       -0.000000000000     0.018758896457     0.263466362210
       2       -0.000000000000     0.096269429084    -0.263463045793
       3       -0.000000000000    -0.018758896457     0.263466362210
       4       -0.000000000000    -0.096269429084    -0.263463045793


  -Total Gradient:
     Atom            X                  Y                   Z
    ------   -----------------  -----------------  -----------------
       1        0.000000000000    -0.032840671804    -0.024154978784
       2        0.000000000000    -0.005834243679     0.024158295202
       3       -0.000000000000     0.032840671804    -0.024154978784
       4       -0.000000000000     0.005834243679     0.024158295202


*** tstop() called on X1-ubuntu at Sun Sep  6 16:01:53 2020
Module time:
	user time   =       1.03 seconds =       0.02 minutes
	system time =       0.01 seconds =       0.00 minutes
	total time  =          1 seconds =       0.02 minutes
Total time:
	user time   =       8.09 seconds =       0.13 minutes
	system time =       0.17 seconds =       0.00 minutes
	total time  =          8 seconds =       0.13 minutes
gradient() will perform analytic gradient computation.

*** tstart() called on X1-ubuntu
*** at Sun Sep  6 16:01:53 2020

   => Loading Basis Set <=

    Name: 6-31G(D_P)
    Role: ORBITAL
    Keyword: BASIS
    atoms 1, 3 entry O          line   149 file /home/dranasinghe/anaconda2/envs/rmgpy3_env/share/psi4/basis/6-31g_d_p_.gbs 
    atoms 2, 4 entry H          line    44 file /home/dranasinghe/anaconda2/envs/rmgpy3_env/share/psi4/basis/6-31g_d_p_.gbs 


         ---------------------------------------------------------
                                   SCF
               by Justin Turney, Rob Parrish, Andy Simmonett
                          and Daniel G. A. Smith
                              UKS Reference
                        1 Threads,    976 MiB Core
         ---------------------------------------------------------

  ==> Geometry <==

    Molecular point group: c2v
    Full point group: C2v

    Geometry (in Angstrom), charge = 0, multiplicity = 1:

       Center              X                  Y                   Z               Mass       
    ------------   -----------------  -----------------  -----------------  -----------------
         O           -0.000000000000     0.698890000000     0.053572739974    15.994914619570
         H           -0.000000000000     0.979423000000    -0.850238260026     1.007825032230
         O            0.000000000000    -0.698890000000     0.053572739974    15.994914619570
         H            0.000000000000    -0.979423000000    -0.850238260026     1.007825032230

           O
              BASIS           6-31G(D_P)           ec2d227169b1af6c6a69bc8715bab79dbd7bb644
              DF_BASIS_SCF    (6-31G(D_P) AUX)     b57462463db1b385e39e4428a46364991bcd7673
           H
              BASIS           6-31G(D_P)           902186d0f3205710946c2c15d2c68458d6f6cc2a
              DF_BASIS_SCF    (6-31G(D_P) AUX)     1164366b470d7a66fddaf681ef9d1c28421b3e4a
           O
              BASIS           6-31G(D_P)           ec2d227169b1af6c6a69bc8715bab79dbd7bb644
              DF_BASIS_SCF    (6-31G(D_P) AUX)     b57462463db1b385e39e4428a46364991bcd7673
           H
              BASIS           6-31G(D_P)           902186d0f3205710946c2c15d2c68458d6f6cc2a
              DF_BASIS_SCF    (6-31G(D_P) AUX)     1164366b470d7a66fddaf681ef9d1c28421b3e4a

  Running in c2v symmetry.

  Rotational constants: A =     10.88336  B =      0.96006  C =      0.88224 [cm^-1]
  Rotational constants: A = 326274.99817  B =  28781.93695  C =  26448.79031 [MHz]
  Nuclear repulsion =   37.888114307181077

  Charge       = 0
  Multiplicity = 1
  Electrons    = 18
  Nalpha       = 9
  Nbeta        = 9

  ==> Algorithm <==

  SCF Algorithm Type is DIRECT.
  DIIS enabled.
  MOM disabled.
  Fractional occupation disabled.
  Guess Type is SAD.
  Energy threshold   = 1.00e-08
  Density threshold  = 1.00e-08
  Integral threshold = 0.00e+00

  ==> Primary Basis <==

  -AO BASIS SET INFORMATION:
    Name                   = 6-31G(D_P)
    Blend                  = 6-31G(D_P)
    Total number of shells = 18
    Number of primitives   = 40
    Number of AO           = 40
    Number of SO           = 40
    Maximum AM             = 2
    Spherical Harmonics    = FALSE

  -Contraction Scheme:
    Atom   Type   All Primitives // Shells:
   ------ ------ --------------------------
       1     O     10s 4p 1d // 3s 2p 1d 
       2     H     4s 1p // 2s 1p 
       3     O     10s 4p 1d // 3s 2p 1d 
       4     H     4s 1p // 2s 1p 

  ==> AO Basis Functions <==

    [ 6-31G(D_P) ]
    cartesian
    ****
    O   1
    S   6 1.00
                      5484.67170000           0.00183110
                       825.23495000           0.01395010
                       188.04696000           0.06844510
                        52.96450000           0.23271430
                        16.89757000           0.47019300
                         5.79963530           0.35852090
    S   3 1.00
                        15.53961600          -0.11077750
                         3.59993360          -0.14802630
                         1.01376180           1.13076700
    P   3 1.00
                        15.53961600           0.07087430
                         3.59993360           0.33975280
                         1.01376180           0.72715860
    S   1 1.00
                         0.27000580           1.00000000
    P   1 1.00
                         0.27000580           1.00000000
    D   1 1.00
                         0.80000000           1.00000000
    ****
    H   2
    S   3 1.00
                        18.73113700           0.03349460
                         2.82539370           0.23472695
                         0.64012170           0.81375733
    S   1 1.00
                         0.16127780           1.00000000
    P   1 1.00
                         1.10000000           1.00000000
    ****

  ==> DFT Potential <==

   => Composite Functional: B3LYP <= 

    B3LYP Hyb-GGA Exchange-Correlation Functional

    P. J. Stephens, F. J. Devlin, C. F. Chabalowski, and M. J. Frisch, J. Phys. Chem. 98, 11623 (1994)

    Deriv               =              1
    GGA                 =           TRUE
    Meta                =          FALSE

    Exchange Hybrid     =           TRUE
    MP2 Hybrid          =          FALSE

   => Exchange Functionals <=

    0.0800   Slater exchange
    0.7200         Becke 88

   => Exact (HF) Exchange <=

    0.2000               HF 

   => Correlation Functionals <=

    0.1900   Vosko, Wilk & Nusair (VWN5_RPA)
    0.8100   Lee, Yang & Parr

   => XC_HYB_GGA_XC_B3LYP Functional <=

    B3LYP
    P. J. Stephens, F. J. Devlin, C. F. Chabalowski, and M. J. Frisch, J. Phys. Chem. 98, 11623 (1994)
    GGA   =           TRUE
    Meta  =          FALSE
    LRC   =          FALSE
    Alpha =   1.000000E+00
    Omega =   0.000000E+00

    > Parameters <


   => Molecular Quadrature <=

    Radial Scheme          =       TREUTLER
    Pruning Scheme         =           FLAT
    Nuclear Scheme         =       TREUTLER

    BS radius alpha        =              1
    Pruning alpha          =              1
    Radial Points          =             75
    Spherical Points       =            302
    Total Points           =          87096
    Total Blocks           =            708
    Max Points             =            256
    Max Functions          =             40

   => Loading Basis Set <=

    Name: (6-31G(D_P) AUX)
    Role: JKFIT
    Keyword: DF_BASIS_SCF
    atoms 1, 3 entry O          line   221 file /home/dranasinghe/anaconda2/envs/rmgpy3_env/share/psi4/basis/cc-pvdz-jkfit.gbs 
    atoms 2, 4 entry H          line    51 file /home/dranasinghe/anaconda2/envs/rmgpy3_env/share/psi4/basis/cc-pvdz-jkfit.gbs 

  Starting with a DF guess...

  ==> Pre-Iterations <==

   -------------------------------------------------------
    Irrep   Nso     Nmo     Nalpha   Nbeta   Ndocc  Nsocc
   -------------------------------------------------------
     A1        15      15       0       0       0       0
     A2         5       5       0       0       0       0
     B1         5       5       0       0       0       0
     B2        15      15       0       0       0       0
   -------------------------------------------------------
    Total      40      40       9       9       9       0
   -------------------------------------------------------

  ==> Integral Setup <==

  DFHelper Memory: AOs need 0.003 GiB; user supplied 0.621 GiB. Using in-core AOs.

  ==> MemDFJK: Density-Fitted J/K Matrices <==

    J tasked:                   Yes
    K tasked:                   Yes
    wK tasked:                   No
    OpenMP threads:               1
    Memory [MiB]:               636
    Algorithm:                 Core
    Schwarz Cutoff:           1E-12
    Mask sparsity (%):       0.0000
    Fitting Condition:        1E-10

   => Auxiliary Basis Set <=

  -AO BASIS SET INFORMATION:
    Name                   = (6-31G(D_P) AUX)
    Blend                  = CC-PVDZ-JKFIT
    Total number of shells = 66
    Number of primitives   = 66
    Number of AO           = 212
    Number of SO           = 212
    Maximum AM             = 3
    Spherical Harmonics    = FALSE

  -Contraction Scheme:
    Atom   Type   All Primitives // Shells:
   ------ ------ --------------------------
       1     O     10s 7p 5d 2f // 10s 7p 5d 2f 
       2     H     4s 3p 2d // 4s 3p 2d 
       3     O     10s 7p 5d 2f // 10s 7p 5d 2f 
       4     H     4s 3p 2d // 4s 3p 2d 

  ==> AO Basis Functions <==

    [ (6-31G(D_P) AUX) ]
    cartesian
    ****
    O   1
    S   1 1.00
                      1517.86675060           1.00000000
    S   1 1.00
                       489.67952008           1.00000000
    S   1 1.00
                       176.72118665           1.00000000
    S   1 1.00
                        63.79223314           1.00000000
    S   1 1.00
                        25.36649913           1.00000000
    S   1 1.00
                         9.91354912           1.00000000
    S   1 1.00
                         4.46453066           1.00000000
    S   1 1.00
                         1.80177437           1.00000000
    S   1 1.00
                         0.80789711           1.00000000
    S   1 1.00
                         0.33864327           1.00000000
    P   1 1.00
                       120.16030921           1.00000000
    P   1 1.00
                        34.40962247           1.00000000
    P   1 1.00
                        12.58114861           1.00000000
    P   1 1.00
                         5.06638242           1.00000000
    P   1 1.00
                         2.03469271           1.00000000
    P   1 1.00
                         0.86092967           1.00000000
    P   1 1.00
                         0.36681357           1.00000000
    D   1 1.00
                        19.04306281           1.00000000
    D   1 1.00
                         5.80603811           1.00000000
    D   1 1.00
                         2.18918416           1.00000000
    D   1 1.00
                         0.87794614           1.00000000
    D   1 1.00
                         0.35623647           1.00000000
    F   1 1.00
                         2.49391479           1.00000000
    F   1 1.00
                         0.82491479           1.00000000
    ****
    H   2
    S   1 1.00
                         9.53024933           1.00000000
    S   1 1.00
                         1.91745062           1.00000000
    S   1 1.00
                         0.68424049           1.00000000
    S   1 1.00
                         0.28413256           1.00000000
    P   1 1.00
                         2.91332320           1.00000000
    P   1 1.00
                         1.26212054           1.00000000
    P   1 1.00
                         0.50199776           1.00000000
    D   1 1.00
                         2.31353291           1.00000000
    D   1 1.00
                         0.71290724           1.00000000
    ****

  Cached 100.0% of DFT collocation blocks in 0.094 [GiB].

  Minimum eigenvalue in the overlap matrix is 9.2866465976E-03.
  Using Symmetric Orthogonalization.

  SCF Guess: Superposition of Atomic Densities via on-the-fly atomic UHF.

DIIS coefficients:  1.000 
DIIS coefficients:  0.329  0.671 
DIIS coefficients:  -0.027  -0.001  1.028 
DIIS coefficients:  -0.002  -0.000  -0.045  1.047 
DIIS coefficients:  0.000  0.000  0.005  -0.173  1.168 
DIIS coefficients:  0.000  -0.000  -0.001  0.017  -0.113  1.097 
DIIS coefficients:  1.000 
DIIS coefficients:  -0.068  1.068 
DIIS coefficients:  -0.000  -0.002  1.002 
DIIS coefficients:  -0.000  -0.000  -0.001  1.001 
  ==> Iterations <==

                           Total Energy        Delta E     RMS |[F,P]|

   @DF-UKS iter SAD:  -151.18001522233391   -1.51180e+02   0.00000e+00 
DIIS coefficients:  1.000 
    Occupation by irrep:
             A1    A2    B1    B2 
    DOCC [     4,    1,    1,    3 ]
    SOCC [     0,    0,    0,    0 ]

   @DF-UKS iter   1:  -151.42927047759076   -2.49255e-01   2.23799e-02 DIIS
DIIS coefficients:  0.541  0.459 
    Occupation by irrep:
             A1    A2    B1    B2 
    DOCC [     4,    1,    1,    3 ]
    SOCC [     0,    0,    0,    0 ]

   @DF-UKS iter   2:  -151.40031944423728    2.89510e-02   2.62839e-02 DIIS
DIIS coefficients:  0.161  0.148  0.691 
    Occupation by irrep:
             A1    A2    B1    B2 
    DOCC [     4,    1,    1,    3 ]
    SOCC [     0,    0,    0,    0 ]

   @DF-UKS iter   3:  -151.52587720331229   -1.25558e-01   1.66554e-03 DIIS
DIIS coefficients:  -0.000  -0.004  0.054  0.950 
    Occupation by irrep:
             A1    A2    B1    B2 
    DOCC [     4,    1,    1,    3 ]
    SOCC [     0,    0,    0,    0 ]

   @DF-UKS iter   4:  -151.52638810633061   -5.10903e-04   1.65290e-04 DIIS
DIIS coefficients:  -0.000  -0.001  0.002  0.087  0.913 
    Occupation by irrep:
             A1    A2    B1    B2 
    DOCC [     4,    1,    1,    3 ]
    SOCC [     0,    0,    0,    0 ]

   @DF-UKS iter   5:  -151.52639311916454   -5.01283e-06   1.73340e-05 DIIS
DIIS coefficients:  0.000  -0.000  -0.001  -0.006  0.202  0.805 
    Occupation by irrep:
             A1    A2    B1    B2 
    DOCC [     4,    1,    1,    3 ]
    SOCC [     0,    0,    0,    0 ]

   @DF-UKS iter   6:  -151.52639317212123   -5.29567e-08   3.13695e-06 DIIS
DIIS coefficients:  -0.000  0.000  -0.000  -0.000  -0.007  0.033  0.974 
    Occupation by irrep:
             A1    A2    B1    B2 
    DOCC [     4,    1,    1,    3 ]
    SOCC [     0,    0,    0,    0 ]

   @DF-UKS iter   7:  -151.52639317411524   -1.99401e-09   2.67103e-07 DIIS
DIIS coefficients:  0.000  0.000  0.000  0.000  -0.002  -0.008  -0.025  1.035 
    Occupation by irrep:
             A1    A2    B1    B2 
    DOCC [     4,    1,    1,    3 ]
    SOCC [     0,    0,    0,    0 ]

   @DF-UKS iter   8:  -151.52639317413571   -2.04636e-11   2.18253e-08 DIIS
DIIS coefficients:  0.000  -0.000  -0.000  -0.000  0.000  0.001  -0.007  -0.064  1.070 
    Occupation by irrep:
             A1    A2    B1    B2 
    DOCC [     4,    1,    1,    3 ]
    SOCC [     0,    0,    0,    0 ]

   @DF-UKS iter   9:  -151.52639317413605   -3.41061e-13   2.77176e-09 DIIS

  DF guess converged.

  ==> DirectJK: Integral-Direct J/K Matrices <==

    J tasked:                  Yes
    K tasked:                  Yes
    wK tasked:                  No
    Integrals threads:           1
    Schwarz Cutoff:          1E-12

DIIS coefficients:  1.000 
    Occupation by irrep:
             A1    A2    B1    B2 
    DOCC [     4,    1,    1,    3 ]
    SOCC [     0,    0,    0,    0 ]

   @UKS iter  10:  -151.52635784540669   -1.51526e+02   2.31724e-05 DIIS
DIIS coefficients:  -0.048  1.048 
    Occupation by irrep:
             A1    A2    B1    B2 
    DOCC [     4,    1,    1,    3 ]
    SOCC [     0,    0,    0,    0 ]

   @UKS iter  11:  -151.52635797506099   -1.29654e-07   1.46845e-06 DIIS
DIIS coefficients:  -0.017  0.355  0.662 
    Occupation by irrep:
             A1    A2    B1    B2 
    DOCC [     4,    1,    1,    3 ]
    SOCC [     0,    0,    0,    0 ]

   @UKS iter  12:  -151.52635797554001   -4.79019e-10   5.56367e-07 DIIS
DIIS coefficients:  -0.005  0.107  0.271  0.628 
    Occupation by irrep:
             A1    A2    B1    B2 
    DOCC [     4,    1,    1,    3 ]
    SOCC [     0,    0,    0,    0 ]

   @UKS iter  13:  -151.52635797559304   -5.30349e-11   1.64141e-07 DIIS
DIIS coefficients:  0.000  -0.008  0.005  0.227  0.775 
    Occupation by irrep:
             A1    A2    B1    B2 
    DOCC [     4,    1,    1,    3 ]
    SOCC [     0,    0,    0,    0 ]

   @UKS iter  14:  -151.52635797559745   -4.40536e-12   4.57393e-08 DIIS
DIIS coefficients:  0.000  -0.002  -0.001  0.034  0.135  0.833 
    Occupation by irrep:
             A1    A2    B1    B2 
    DOCC [     4,    1,    1,    3 ]
    SOCC [     0,    0,    0,    0 ]

   @UKS iter  15:  -151.52635797559770   -2.55795e-13   1.52774e-09 DIIS
  Energy and wave function converged.


  ==> Post-Iterations <==

   @Spin Contamination Metric:   2.131628207E-14
   @S^2 Expected:                0.000000000E+00
   @S^2 Observed:                2.131628207E-14
   @S   Expected:                0.000000000E+00
   @S   Observed:                0.000000000E+00

    Orbital Energies [Eh]
    ---------------------

    Alpha Occupied:                                                       

       1A1   -19.199091     1B2   -19.199005     2A1    -1.138352  
       2B2    -0.896515     3A1    -0.590728     4A1    -0.428373  
       1B1    -0.404260     3B2    -0.370388     1A2    -0.238916  

    Alpha Virtual:                                                        

       5A1     0.040656     4B2     0.048297     5B2     0.165897  
       6A1     0.736537     6B2     0.757560     7A1     0.821052  
       2B1     0.852520     7B2     0.926443     8A1     0.928183  
       2A2     0.956812     9A1     1.033978     8B2     1.090203  
       3B1     1.437654     9B2     1.447316    10A1     1.453370  
       4B1     1.556758     3A2     1.647773    10B2     1.927938  
      11A1     2.021774    12A1     2.274226     4A2     2.410803  
      11B2     2.517360     5B1     2.574047    13A1     2.592268  
       5A2     2.734503    12B2     2.908135    13B2     3.027796  
      14A1     3.343963    15A1     3.476763    14B2     3.502684  
      15B2     3.858526  

    Beta Occupied:                                                        

       1A1   -19.199091     1B2   -19.199005     2A1    -1.138352  
       2B2    -0.896515     3A1    -0.590728     4A1    -0.428373  
       1B1    -0.404260     3B2    -0.370388     1A2    -0.238916  

    Beta Virtual:                                                         

       5A1     0.040656     4B2     0.048297     5B2     0.165897  
       6A1     0.736537     6B2     0.757560     7A1     0.821052  
       2B1     0.852520     7B2     0.926443     8A1     0.928183  
       2A2     0.956812     9A1     1.033978     8B2     1.090203  
       3B1     1.437654     9B2     1.447316    10A1     1.453370  
       4B1     1.556758     3A2     1.647773    10B2     1.927938  
      11A1     2.021774    12A1     2.274226     4A2     2.410803  
      11B2     2.517360     5B1     2.574047    13A1     2.592268  
       5A2     2.734503    12B2     2.908135    13B2     3.027796  
      14A1     3.343963    15A1     3.476763    14B2     3.502684  
      15B2     3.858526  

    Final Occupation by Irrep:
             A1    A2    B1    B2 
    DOCC [     4,    1,    1,    3 ]
    SOCC [     0,    0,    0,    0 ]

  @UKS Final Energy:  -151.52635797559770

   => Energetics <=

    Nuclear Repulsion Energy =             37.8881143071810769
    One-Electron Energy =                -283.5036201267971592
    Two-Electron Energy =                 108.5672523736685520
    DFT Exchange-Correlation Energy =     -14.4781045296502047
    Empirical Dispersion Energy =           0.0000000000000000
    VV10 Nonlocal Energy =                  0.0000000000000000
    Total Energy =                       -151.5263579755977332

  UHF NO Occupations:
  HONO-2 :    3 B2 2.0000000
  HONO-1 :    3 A1 2.0000000
  HONO-0 :    4 A1 2.0000000
  LUNO+0 :    5 A1 0.0000000
  LUNO+1 :    6 A1 0.0000000
  LUNO+2 :    7 A1 0.0000000
  LUNO+3 :    4 B2 0.0000000


Computation Completed


Properties will be evaluated at   0.000000,   0.000000,   0.000000 [a0]

Properties computed using the SCF density matrix

  Nuclear Dipole Moment: [e a0]
     X:    -0.0000      Y:     0.0000      Z:    -1.5936

  Electronic Dipole Moment: [e a0]
     X:     0.0000      Y:     0.0000      Z:     0.3116

  Dipole Moment: [e a0]
     X:    -0.0000      Y:     0.0000      Z:    -1.2821     Total:     1.2821

  Dipole Moment: [D]
     X:    -0.0000      Y:     0.0000      Z:    -3.2587     Total:     3.2587


*** tstop() called on X1-ubuntu at Sun Sep  6 16:02:01 2020
Module time:
	user time   =       7.55 seconds =       0.13 minutes
	system time =       0.12 seconds =       0.00 minutes
	total time  =          8 seconds =       0.13 minutes
Total time:
	user time   =      15.65 seconds =       0.26 minutes
	system time =       0.30 seconds =       0.01 minutes
	total time  =         16 seconds =       0.27 minutes

*** tstart() called on X1-ubuntu
*** at Sun Sep  6 16:02:01 2020


         ------------------------------------------------------------
                                   SCF GRAD                          
                          Rob Parrish, Justin Turney,                
                       Andy Simmonett, and Alex Sokolov              
         ------------------------------------------------------------

  ==> Geometry <==

    Molecular point group: c2v
    Full point group: C2v

    Geometry (in Angstrom), charge = 0, multiplicity = 1:

       Center              X                  Y                   Z               Mass       
    ------------   -----------------  -----------------  -----------------  -----------------
         O           -0.000000000000     0.698890000000     0.053572739974    15.994914619570
         H           -0.000000000000     0.979423000000    -0.850238260026     1.007825032230
         O            0.000000000000    -0.698890000000     0.053572739974    15.994914619570
         H            0.000000000000    -0.979423000000    -0.850238260026     1.007825032230

           O
              BASIS           6-31G(D_P)           ec2d227169b1af6c6a69bc8715bab79dbd7bb644
              DF_BASIS_SCF    (6-31G(D_P) AUX)     b57462463db1b385e39e4428a46364991bcd7673
           H
              BASIS           6-31G(D_P)           902186d0f3205710946c2c15d2c68458d6f6cc2a
              DF_BASIS_SCF    (6-31G(D_P) AUX)     1164366b470d7a66fddaf681ef9d1c28421b3e4a
           O
              BASIS           6-31G(D_P)           ec2d227169b1af6c6a69bc8715bab79dbd7bb644
              DF_BASIS_SCF    (6-31G(D_P) AUX)     b57462463db1b385e39e4428a46364991bcd7673
           H
              BASIS           6-31G(D_P)           902186d0f3205710946c2c15d2c68458d6f6cc2a
              DF_BASIS_SCF    (6-31G(D_P) AUX)     1164366b470d7a66fddaf681ef9d1c28421b3e4a

  Nuclear repulsion =   37.888114307181077

  ==> Basis Set <==

  -AO BASIS SET INFORMATION:
    Name                   = 6-31G(D_P)
    Blend                  = 6-31G(D_P)
    Total number of shells = 18
    Number of primitives   = 40
    Number of AO           = 40
    Number of SO           = 40
    Maximum AM             = 2
    Spherical Harmonics    = FALSE

  -Contraction Scheme:
    Atom   Type   All Primitives // Shells:
   ------ ------ --------------------------
       1     O     10s 4p 1d // 3s 2p 1d 
       2     H     4s 1p // 2s 1p 
       3     O     10s 4p 1d // 3s 2p 1d 
       4     H     4s 1p // 2s 1p 

  ==> AO Basis Functions <==

    [ 6-31G(D_P) ]
    cartesian
    ****
    O   1
    S   6 1.00
                      5484.67170000           0.00183110
                       825.23495000           0.01395010
                       188.04696000           0.06844510
                        52.96450000           0.23271430
                        16.89757000           0.47019300
                         5.79963530           0.35852090
    S   3 1.00
                        15.53961600          -0.11077750
                         3.59993360          -0.14802630
                         1.01376180           1.13076700
    P   3 1.00
                        15.53961600           0.07087430
                         3.59993360           0.33975280
                         1.01376180           0.72715860
    S   1 1.00
                         0.27000580           1.00000000
    P   1 1.00
                         0.27000580           1.00000000
    D   1 1.00
                         0.80000000           1.00000000
    ****
    H   2
    S   3 1.00
                        18.73113700           0.03349460
                         2.82539370           0.23472695
                         0.64012170           0.81375733
    S   1 1.00
                         0.16127780           1.00000000
    P   1 1.00
                         1.10000000           1.00000000
    ****

  ==> DirectJKGrad: Integral-Direct SCF Gradients <==

    Gradient:                    1
    J tasked:                  Yes
    K tasked:                  Yes
    wK tasked:                  No
    Integrals threads:           1
    Schwarz Cutoff:          0E+00

  ==> DFT Potential <==

   => Composite Functional: B3LYP <= 

    B3LYP Hyb-GGA Exchange-Correlation Functional

    P. J. Stephens, F. J. Devlin, C. F. Chabalowski, and M. J. Frisch, J. Phys. Chem. 98, 11623 (1994)

    Deriv               =              1
    GGA                 =           TRUE
    Meta                =          FALSE

    Exchange Hybrid     =           TRUE
    MP2 Hybrid          =          FALSE

   => Exchange Functionals <=

    0.0800   Slater exchange
    0.7200         Becke 88

   => Exact (HF) Exchange <=

    0.2000               HF 

   => Correlation Functionals <=

    0.1900   Vosko, Wilk & Nusair (VWN5_RPA)
    0.8100   Lee, Yang & Parr

   => XC_HYB_GGA_XC_B3LYP Functional <=

    B3LYP
    P. J. Stephens, F. J. Devlin, C. F. Chabalowski, and M. J. Frisch, J. Phys. Chem. 98, 11623 (1994)
    GGA   =           TRUE
    Meta  =          FALSE
    LRC   =          FALSE
    Alpha =   1.000000E+00
    Omega =   0.000000E+00

    > Parameters <


   => Molecular Quadrature <=

    Radial Scheme          =       TREUTLER
    Pruning Scheme         =           FLAT
    Nuclear Scheme         =       TREUTLER

    BS radius alpha        =              1
    Pruning alpha          =              1
    Radial Points          =             75
    Spherical Points       =            302
    Total Points           =          87096
    Total Blocks           =            708
    Max Points             =            256
    Max Functions          =             40


  -Nuclear Gradient:
     Atom            X                  Y                   Z
    ------   -----------------  -----------------  -----------------
       1        0.000000000000    -8.974155994504    -2.681334706271
       2        0.000000000000    -1.357325321237     2.681334706271
       3       -0.000000000000     8.974155994504    -2.681334706271
       4       -0.000000000000     1.357325321237     2.681334706271


  -Core Hamiltonian Gradient:
     Atom            X                  Y                   Z
    ------   -----------------  -----------------  -----------------
       1       -0.000000000000    16.307513723985     6.569023333565
       2       -0.000000000000     3.106741176717    -6.569023333565
       3        0.000000000000   -16.307513723985     6.569023333565
       4        0.000000000000    -3.106741176717    -6.569023333565


  -Overlap Gradient:
     Atom            X                  Y                   Z
    ------   -----------------  -----------------  -----------------
       1        0.000000000000    -0.111098422817    -0.256234032254
       2        0.000000000000    -0.085263378423     0.256234032254
       3       -0.000000000000     0.111098422817    -0.256234032254
       4       -0.000000000000     0.085263378423     0.256234032254


  -Coulomb Gradient:
     Atom            X                  Y                   Z
    ------   -----------------  -----------------  -----------------
       1        0.000000000000    -7.282061733988    -4.009487597677
       2        0.000000000000    -1.800110572617     4.009487597677
       3       -0.000000000000     7.282061733988    -4.009487597677
       4       -0.000000000000     1.800110572617     4.009487597677


  -Exchange Gradient:
     Atom            X                  Y                   Z
    ------   -----------------  -----------------  -----------------
       1       -0.000000000000     0.008202859063     0.090411661642
       2       -0.000000000000     0.033854422797    -0.090411661642
       3        0.000000000000    -0.008202859063     0.090411661642
       4        0.000000000000    -0.033854422797    -0.090411661642


  -XC Gradient:
     Atom            X                  Y                   Z
    ------   -----------------  -----------------  -----------------
       1       -0.000000000000     0.018758896457     0.263466362210
       2       -0.000000000000     0.096269429084    -0.263463045793
       3       -0.000000000000    -0.018758896457     0.263466362210
       4       -0.000000000000    -0.096269429084    -0.263463045793


  -Total Gradient:
     Atom            X                  Y                   Z
    ------   -----------------  -----------------  -----------------
       1        0.000000000000    -0.032840671804    -0.024154978784
       2        0.000000000000    -0.005834243679     0.024158295202
       3       -0.000000000000     0.032840671804    -0.024154978784
       4       -0.000000000000     0.005834243679     0.024158295202


*** tstop() called on X1-ubuntu at Sun Sep  6 16:02:02 2020
Module time:
	user time   =       1.15 seconds =       0.02 minutes
	system time =       0.00 seconds =       0.00 minutes
	total time  =          1 seconds =       0.02 minutes
Total time:
	user time   =      16.80 seconds =       0.28 minutes
	system time =       0.30 seconds =       0.01 minutes
	total time  =         17 seconds =       0.28 minutes

  Based on options and gradient (rms=1.95E-02), recommend projecting translations and not projecting rotations.
hessian() will perform frequency computation by finite difference of analytic gradients.

         ----------------------------------------------------------
                                   FINDIF
                     R. A. King and Jonathon Misiewicz
         ---------------------------------------------------------

  Using finite-differences of gradients to determine vibrational frequencies and 
  normal modes.  Resulting frequencies are only valid at stationary points.
    Generating geometries for use with 3-point formula.
    Displacement size will be 5.00e-03.
    Number of atoms is 4.
    Number of irreps is 4.
    Number of SALCs is 9.
    Translations projected? 1. Rotations projected? 0.
    Index of SALCs per irrep:
     1 :  0  1  2 
     2 :  3  4 
     3 :  5 
     4 :  6  7  8 
    Number of SALCs per irrep:
     Irrep 1: 3
     Irrep 2: 2
     Irrep 3: 1
     Irrep 4: 3
    Number of geometries (including reference) is 13.
    Number of displacements per irrep:
      Irrep 1: 6
      Irrep 2: 2
      Irrep 3: 1
      Irrep 4: 3
	irrep = 0, ncomponent = 2
		0: atom 0, direction y, coef 0.707107
		1: atom 2, direction y, coef -0.707107
	irrep = 0, ncomponent = 4
		0: atom 0, direction z, coef 0.172154
		1: atom 1, direction z, coef -0.685830
		2: atom 2, direction z, coef 0.172154
		3: atom 3, direction z, coef -0.685830
	irrep = 0, ncomponent = 2
		0: atom 1, direction y, coef 0.707107
		1: atom 3, direction y, coef -0.707107
	irrep = 1, ncomponent = 2
		0: atom 0, direction x, coef 0.707107
		1: atom 2, direction x, coef -0.707107
	irrep = 1, ncomponent = 2
		0: atom 1, direction x, coef 0.707107
		1: atom 3, direction x, coef -0.707107
	irrep = 2, ncomponent = 4
		0: atom 0, direction x, coef 0.172154
		1: atom 1, direction x, coef -0.685830
		2: atom 2, direction x, coef 0.172154
		3: atom 3, direction x, coef -0.685830
	irrep = 3, ncomponent = 4
		0: atom 0, direction y, coef 0.172154
		1: atom 1, direction y, coef -0.685830
		2: atom 2, direction y, coef 0.172154
		3: atom 3, direction y, coef -0.685830
	irrep = 3, ncomponent = 2
		0: atom 0, direction z, coef 0.707107
		1: atom 2, direction z, coef -0.707107
	irrep = 3, ncomponent = 2
		0: atom 1, direction z, coef 0.707107
		1: atom 3, direction z, coef -0.707107

Displacement '0: -1'
[[-4.0435103033e-17  1.3198266678e+00  1.0123780634e-01]
 [-5.6665669731e-17  1.8508412310e+00 -1.6067174528e+00]
 [ 4.0435103033e-17 -1.3198266678e+00  1.0123780634e-01]
 [ 5.6665669731e-17 -1.8508412310e+00 -1.6067174528e+00]]

Displacement '0: 1'
[[-4.0435103033e-17  1.3215947158e+00  1.0123780634e-01]
 [-5.6665669731e-17  1.8508412310e+00 -1.6067174528e+00]
 [ 4.0435103033e-17 -1.3215947158e+00  1.0123780634e-01]
 [ 5.6665669731e-17 -1.8508412310e+00 -1.6067174528e+00]]

Displacement '1: -1'
[[-4.0435103033e-17  1.3207106918e+00  1.0102257914e-01]
 [-5.6665669731e-17  1.8508412310e+00 -1.6033016409e+00]
 [ 4.0435103033e-17 -1.3207106918e+00  1.0102257914e-01]
 [ 5.6665669731e-17 -1.8508412310e+00 -1.6033016409e+00]]

Displacement '1: 1'
[[-4.0435103033e-17  1.3207106918e+00  1.0145303354e-01]
 [-5.6665669731e-17  1.8508412310e+00 -1.6101332647e+00]
 [ 4.0435103033e-17 -1.3207106918e+00  1.0145303354e-01]
 [ 5.6665669731e-17 -1.8508412310e+00 -1.6101332647e+00]]

Displacement '2: -1'
[[-4.0435103033e-17  1.3207106918e+00  1.0123780634e-01]
 [-5.6665669731e-17  1.8473194492e+00 -1.6067174528e+00]
 [ 4.0435103033e-17 -1.3207106918e+00  1.0123780634e-01]
 [ 5.6665669731e-17 -1.8473194492e+00 -1.6067174528e+00]]

Displacement '2: 1'
[[-4.0435103033e-17  1.3207106918e+00  1.0123780634e-01]
 [-5.6665669731e-17  1.8543630127e+00 -1.6067174528e+00]
 [ 4.0435103033e-17 -1.3207106918e+00  1.0123780634e-01]
 [ 5.6665669731e-17 -1.8543630127e+00 -1.6067174528e+00]]

Displacement '3: -1'
[[-8.8402397509e-04  1.3207106918e+00  1.0123780634e-01]
 [-5.6665669731e-17  1.8508412310e+00 -1.6067174528e+00]
 [ 8.8402397509e-04 -1.3207106918e+00  1.0123780634e-01]
 [ 5.6665669731e-17 -1.8508412310e+00 -1.6067174528e+00]]

Displacement '4: -1'
[[-4.0435103033e-17  1.3207106918e+00  1.0123780634e-01]
 [-3.5217817286e-03  1.8508412310e+00 -1.6067174528e+00]
 [ 4.0435103033e-17 -1.3207106918e+00  1.0123780634e-01]
 [ 3.5217817286e-03 -1.8508412310e+00 -1.6067174528e+00]]

Displacement '5: -1'
[[-2.1522720285e-04  1.3207106918e+00  1.0123780634e-01]
 [ 3.4158118953e-03  1.8508412310e+00 -1.6067174528e+00]
 [-2.1522720285e-04 -1.3207106918e+00  1.0123780634e-01]
 [ 3.4158118953e-03 -1.8508412310e+00 -1.6067174528e+00]]

Displacement '6: -1'
[[-4.0435103033e-17  1.3204954646e+00  1.0123780634e-01]
 [-5.6665669731e-17  1.8542570429e+00 -1.6067174528e+00]
 [ 4.0435103033e-17 -1.3209259190e+00  1.0123780634e-01]
 [ 5.6665669731e-17 -1.8474254191e+00 -1.6067174528e+00]]

Displacement '7: -1'
[[-4.0435103033e-17  1.3207106918e+00  1.0035378237e-01]
 [-5.6665669731e-17  1.8508412310e+00 -1.6067174528e+00]
 [ 4.0435103033e-17 -1.3207106918e+00  1.0212183032e-01]
 [ 5.6665669731e-17 -1.8508412310e+00 -1.6067174528e+00]]

Displacement '8: -1'
[[-4.0435103033e-17  1.3207106918e+00  1.0123780634e-01]
 [-5.6665669731e-17  1.8508412310e+00 -1.6102392346e+00]
 [ 4.0435103033e-17 -1.3207106918e+00  1.0123780634e-01]
 [ 5.6665669731e-17 -1.8508412310e+00 -1.6031956711e+00]]

Reference
[[-4.0435103033e-17  1.3207106918e+00  1.0123780634e-01]
 [-5.6665669731e-17  1.8508412310e+00 -1.6067174528e+00]
 [ 4.0435103033e-17 -1.3207106918e+00  1.0123780634e-01]
 [ 5.6665669731e-17 -1.8508412310e+00 -1.6067174528e+00]]

-------------------------------------------------------------

  //>>>>>>>>>>>>>>>>>>>>>>>>>>>>>>>>>>>//
  //    Loading displacement 1 of 13   //
  //<<<<<<<<<<<<<<<<<<<<<<<<<<<<<<<<<<<//
gradient() will perform analytic gradient computation.

*** tstart() called on X1-ubuntu
*** at Sun Sep  6 16:02:04 2020

   => Loading Basis Set <=

    Name: 6-31G(D_P)
    Role: ORBITAL
    Keyword: BASIS
    atoms 1, 3 entry O          line   149 file /home/dranasinghe/anaconda2/envs/rmgpy3_env/share/psi4/basis/6-31g_d_p_.gbs 
    atoms 2, 4 entry H          line    44 file /home/dranasinghe/anaconda2/envs/rmgpy3_env/share/psi4/basis/6-31g_d_p_.gbs 


         ---------------------------------------------------------
                                   SCF
               by Justin Turney, Rob Parrish, Andy Simmonett
                          and Daniel G. A. Smith
                              UKS Reference
                        1 Threads,    976 MiB Core
         ---------------------------------------------------------

  ==> Geometry <==

    Molecular point group: c2v
    Full point group: C2v

    Geometry (in Angstrom), charge = 0, multiplicity = 1:

       Center              X                  Y                   Z               Mass       
    ------------   -----------------  -----------------  -----------------  -----------------
         O           -0.000000000000     0.698890000000     0.053572739974    15.994914619570
         H           -0.000000000000     0.979423000000    -0.850238260026     1.007825032230
         O            0.000000000000    -0.698890000000     0.053572739974    15.994914619570
         H            0.000000000000    -0.979423000000    -0.850238260026     1.007825032230

           O
              BASIS           6-31G(D_P)           ec2d227169b1af6c6a69bc8715bab79dbd7bb644
              DF_BASIS_SCF    (6-31G(D_P) AUX)     b57462463db1b385e39e4428a46364991bcd7673
           H
              BASIS           6-31G(D_P)           902186d0f3205710946c2c15d2c68458d6f6cc2a
              DF_BASIS_SCF    (6-31G(D_P) AUX)     1164366b470d7a66fddaf681ef9d1c28421b3e4a
           O
              BASIS           6-31G(D_P)           ec2d227169b1af6c6a69bc8715bab79dbd7bb644
              DF_BASIS_SCF    (6-31G(D_P) AUX)     b57462463db1b385e39e4428a46364991bcd7673
           H
              BASIS           6-31G(D_P)           902186d0f3205710946c2c15d2c68458d6f6cc2a
              DF_BASIS_SCF    (6-31G(D_P) AUX)     1164366b470d7a66fddaf681ef9d1c28421b3e4a

  Running in c2v symmetry.

  Rotational constants: A =     10.88336  B =      0.96006  C =      0.88224 [cm^-1]
  Rotational constants: A = 326274.99817  B =  28781.93695  C =  26448.79031 [MHz]
  Nuclear repulsion =   37.888114307181077

  Charge       = 0
  Multiplicity = 1
  Electrons    = 18
  Nalpha       = 9
  Nbeta        = 9

  ==> Algorithm <==

  SCF Algorithm Type is DIRECT.
  DIIS enabled.
  MOM disabled.
  Fractional occupation disabled.
  Guess Type is SAD.
  Energy threshold   = 1.00e-08
  Density threshold  = 1.00e-08
  Integral threshold = 0.00e+00

  ==> Primary Basis <==

  -AO BASIS SET INFORMATION:
    Name                   = 6-31G(D_P)
    Blend                  = 6-31G(D_P)
    Total number of shells = 18
    Number of primitives   = 40
    Number of AO           = 40
    Number of SO           = 40
    Maximum AM             = 2
    Spherical Harmonics    = FALSE

  -Contraction Scheme:
    Atom   Type   All Primitives // Shells:
   ------ ------ --------------------------
       1     O     10s 4p 1d // 3s 2p 1d 
       2     H     4s 1p // 2s 1p 
       3     O     10s 4p 1d // 3s 2p 1d 
       4     H     4s 1p // 2s 1p 

  ==> AO Basis Functions <==

    [ 6-31G(D_P) ]
    cartesian
    ****
    O   1
    S   6 1.00
                      5484.67170000           0.00183110
                       825.23495000           0.01395010
                       188.04696000           0.06844510
                        52.96450000           0.23271430
                        16.89757000           0.47019300
                         5.79963530           0.35852090
    S   3 1.00
                        15.53961600          -0.11077750
                         3.59993360          -0.14802630
                         1.01376180           1.13076700
    P   3 1.00
                        15.53961600           0.07087430
                         3.59993360           0.33975280
                         1.01376180           0.72715860
    S   1 1.00
                         0.27000580           1.00000000
    P   1 1.00
                         0.27000580           1.00000000
    D   1 1.00
                         0.80000000           1.00000000
    ****
    H   2
    S   3 1.00
                        18.73113700           0.03349460
                         2.82539370           0.23472695
                         0.64012170           0.81375733
    S   1 1.00
                         0.16127780           1.00000000
    P   1 1.00
                         1.10000000           1.00000000
    ****

  ==> DFT Potential <==

   => Composite Functional: B3LYP <= 

    B3LYP Hyb-GGA Exchange-Correlation Functional

    P. J. Stephens, F. J. Devlin, C. F. Chabalowski, and M. J. Frisch, J. Phys. Chem. 98, 11623 (1994)

    Deriv               =              1
    GGA                 =           TRUE
    Meta                =          FALSE

    Exchange Hybrid     =           TRUE
    MP2 Hybrid          =          FALSE

   => Exchange Functionals <=

    0.0800   Slater exchange
    0.7200         Becke 88

   => Exact (HF) Exchange <=

    0.2000               HF 

   => Correlation Functionals <=

    0.1900   Vosko, Wilk & Nusair (VWN5_RPA)
    0.8100   Lee, Yang & Parr

   => XC_HYB_GGA_XC_B3LYP Functional <=

    B3LYP
    P. J. Stephens, F. J. Devlin, C. F. Chabalowski, and M. J. Frisch, J. Phys. Chem. 98, 11623 (1994)
    GGA   =           TRUE
    Meta  =          FALSE
    LRC   =          FALSE
    Alpha =   1.000000E+00
    Omega =   0.000000E+00

    > Parameters <


   => Molecular Quadrature <=

    Radial Scheme          =       TREUTLER
    Pruning Scheme         =           FLAT
    Nuclear Scheme         =       TREUTLER

    BS radius alpha        =              1
    Pruning alpha          =              1
    Radial Points          =             75
    Spherical Points       =            302
    Total Points           =          87096
    Total Blocks           =            708
    Max Points             =            256
    Max Functions          =             40

   => Loading Basis Set <=

    Name: (6-31G(D_P) AUX)
    Role: JKFIT
    Keyword: DF_BASIS_SCF
    atoms 1, 3 entry O          line   221 file /home/dranasinghe/anaconda2/envs/rmgpy3_env/share/psi4/basis/cc-pvdz-jkfit.gbs 
    atoms 2, 4 entry H          line    51 file /home/dranasinghe/anaconda2/envs/rmgpy3_env/share/psi4/basis/cc-pvdz-jkfit.gbs 

  Starting with a DF guess...

  ==> Pre-Iterations <==

   -------------------------------------------------------
    Irrep   Nso     Nmo     Nalpha   Nbeta   Ndocc  Nsocc
   -------------------------------------------------------
     A1        15      15       0       0       0       0
     A2         5       5       0       0       0       0
     B1         5       5       0       0       0       0
     B2        15      15       0       0       0       0
   -------------------------------------------------------
    Total      40      40       9       9       9       0
   -------------------------------------------------------

  ==> Integral Setup <==

  DFHelper Memory: AOs need 0.003 GiB; user supplied 0.621 GiB. Using in-core AOs.

  ==> MemDFJK: Density-Fitted J/K Matrices <==

    J tasked:                   Yes
    K tasked:                   Yes
    wK tasked:                   No
    OpenMP threads:               1
    Memory [MiB]:               636
    Algorithm:                 Core
    Schwarz Cutoff:           1E-12
    Mask sparsity (%):       0.0000
    Fitting Condition:        1E-10

   => Auxiliary Basis Set <=

  -AO BASIS SET INFORMATION:
    Name                   = (6-31G(D_P) AUX)
    Blend                  = CC-PVDZ-JKFIT
    Total number of shells = 66
    Number of primitives   = 66
    Number of AO           = 212
    Number of SO           = 212
    Maximum AM             = 3
    Spherical Harmonics    = FALSE

  -Contraction Scheme:
    Atom   Type   All Primitives // Shells:
   ------ ------ --------------------------
       1     O     10s 7p 5d 2f // 10s 7p 5d 2f 
       2     H     4s 3p 2d // 4s 3p 2d 
       3     O     10s 7p 5d 2f // 10s 7p 5d 2f 
       4     H     4s 3p 2d // 4s 3p 2d 

  ==> AO Basis Functions <==

    [ (6-31G(D_P) AUX) ]
    cartesian
    ****
    O   1
    S   1 1.00
                      1517.86675060           1.00000000
    S   1 1.00
                       489.67952008           1.00000000
    S   1 1.00
                       176.72118665           1.00000000
    S   1 1.00
                        63.79223314           1.00000000
    S   1 1.00
                        25.36649913           1.00000000
    S   1 1.00
                         9.91354912           1.00000000
    S   1 1.00
                         4.46453066           1.00000000
    S   1 1.00
                         1.80177437           1.00000000
    S   1 1.00
                         0.80789711           1.00000000
    S   1 1.00
                         0.33864327           1.00000000
    P   1 1.00
                       120.16030921           1.00000000
    P   1 1.00
                        34.40962247           1.00000000
    P   1 1.00
                        12.58114861           1.00000000
    P   1 1.00
                         5.06638242           1.00000000
    P   1 1.00
                         2.03469271           1.00000000
    P   1 1.00
                         0.86092967           1.00000000
    P   1 1.00
                         0.36681357           1.00000000
    D   1 1.00
                        19.04306281           1.00000000
    D   1 1.00
                         5.80603811           1.00000000
    D   1 1.00
                         2.18918416           1.00000000
    D   1 1.00
                         0.87794614           1.00000000
    D   1 1.00
                         0.35623647           1.00000000
    F   1 1.00
                         2.49391479           1.00000000
    F   1 1.00
                         0.82491479           1.00000000
    ****
    H   2
    S   1 1.00
                         9.53024933           1.00000000
    S   1 1.00
                         1.91745062           1.00000000
    S   1 1.00
                         0.68424049           1.00000000
    S   1 1.00
                         0.28413256           1.00000000
    P   1 1.00
                         2.91332320           1.00000000
    P   1 1.00
                         1.26212054           1.00000000
    P   1 1.00
                         0.50199776           1.00000000
    D   1 1.00
                         2.31353291           1.00000000
    D   1 1.00
                         0.71290724           1.00000000
    ****

  Cached 100.0% of DFT collocation blocks in 0.094 [GiB].

  Minimum eigenvalue in the overlap matrix is 9.2866465976E-03.
  Using Symmetric Orthogonalization.

  SCF Guess: Superposition of Atomic Densities via on-the-fly atomic UHF.

DIIS coefficients:  1.000 
DIIS coefficients:  0.329  0.671 
DIIS coefficients:  -0.027  -0.001  1.028 
DIIS coefficients:  -0.002  -0.000  -0.045  1.047 
DIIS coefficients:  0.000  0.000  0.005  -0.173  1.168 
DIIS coefficients:  0.000  -0.000  -0.001  0.017  -0.113  1.097 
DIIS coefficients:  1.000 
DIIS coefficients:  -0.068  1.068 
DIIS coefficients:  -0.000  -0.002  1.002 
DIIS coefficients:  -0.000  -0.000  -0.001  1.001 
  ==> Iterations <==

                           Total Energy        Delta E     RMS |[F,P]|

   @DF-UKS iter SAD:  -151.18001522233391   -1.51180e+02   0.00000e+00 
DIIS coefficients:  1.000 
    Occupation by irrep:
             A1    A2    B1    B2 
    DOCC [     4,    1,    1,    3 ]
    SOCC [     0,    0,    0,    0 ]

   @DF-UKS iter   1:  -151.42927047759076   -2.49255e-01   2.23799e-02 DIIS
DIIS coefficients:  0.541  0.459 
    Occupation by irrep:
             A1    A2    B1    B2 
    DOCC [     4,    1,    1,    3 ]
    SOCC [     0,    0,    0,    0 ]

   @DF-UKS iter   2:  -151.40031944423728    2.89510e-02   2.62839e-02 DIIS
DIIS coefficients:  0.161  0.148  0.691 
    Occupation by irrep:
             A1    A2    B1    B2 
    DOCC [     4,    1,    1,    3 ]
    SOCC [     0,    0,    0,    0 ]

   @DF-UKS iter   3:  -151.52587720331229   -1.25558e-01   1.66554e-03 DIIS
DIIS coefficients:  -0.000  -0.004  0.054  0.950 
    Occupation by irrep:
             A1    A2    B1    B2 
    DOCC [     4,    1,    1,    3 ]
    SOCC [     0,    0,    0,    0 ]

   @DF-UKS iter   4:  -151.52638810633061   -5.10903e-04   1.65290e-04 DIIS
DIIS coefficients:  -0.000  -0.001  0.002  0.087  0.913 
    Occupation by irrep:
             A1    A2    B1    B2 
    DOCC [     4,    1,    1,    3 ]
    SOCC [     0,    0,    0,    0 ]

   @DF-UKS iter   5:  -151.52639311916454   -5.01283e-06   1.73340e-05 DIIS
DIIS coefficients:  0.000  -0.000  -0.001  -0.006  0.202  0.805 
    Occupation by irrep:
             A1    A2    B1    B2 
    DOCC [     4,    1,    1,    3 ]
    SOCC [     0,    0,    0,    0 ]

   @DF-UKS iter   6:  -151.52639317212123   -5.29567e-08   3.13695e-06 DIIS
DIIS coefficients:  -0.000  0.000  -0.000  -0.000  -0.007  0.033  0.974 
    Occupation by irrep:
             A1    A2    B1    B2 
    DOCC [     4,    1,    1,    3 ]
    SOCC [     0,    0,    0,    0 ]

   @DF-UKS iter   7:  -151.52639317411524   -1.99401e-09   2.67103e-07 DIIS
[...]

[[ 0.0000000000e+00 -1.4269334333e-04  2.6254559366e-05]
 [ 0.0000000000e+00  3.5566358572e-04 -4.1751229674e-04]
 [ 0.0000000000e+00 -3.4963436919e-05 -1.0305241354e-05]
 [ 0.0000000000e+00  3.5165000754e-04  3.6980138701e-04]]

[[-4.2817861110e-21  3.4963436919e-05 -1.0305241354e-05]
 [ 4.3064705616e-20 -3.5165000754e-04  3.6980138701e-04]
 [-1.7474894616e-20  1.4269334333e-04  2.6254559366e-05]
 [ 4.3556227182e-20 -3.5566358572e-04 -4.1751229674e-04]]

[[ 0.0000000000e+00  3.5978581731e-05 -4.5652102875e-04]
 [ 0.0000000000e+00 -3.5452962957e-04  1.7013811541e-03]
 [ 0.0000000000e+00  1.4097779311e-04  4.6690491878e-04]
 [ 0.0000000000e+00 -3.5052119082e-04 -1.7269120463e-03]]

[[ 1.7264800308e-20 -1.4097779311e-04  4.6690491878e-04]
 [-4.2926465437e-20  3.5052119082e-04 -1.7269120463e-03]
 [ 4.4061054955e-21 -3.5978581731e-05 -4.5652102875e-04]
 [-4.3417357606e-20  3.5452962957e-04  1.7013811541e-03]]
Gradients in B-matrix coordinates
 disp 0:   -0.0002585911   0.0002168830   0.0000428426
 disp 1:    0.0001062907  -0.0001459001  -0.0000386376
 disp 2:    0.0001070810  -0.0025523746  -0.0005200392
 disp 3:   -0.0002556670   0.0025909111   0.0005138572
 disp 4:   -0.0000353304  -0.0004808686  -0.0004557810
 disp 5:   -0.0001169465   0.0005529530   0.0004609994

    Force Constants for irrep A1 in mass-weighted, symmetry-adapted cartesian coordinates.

[[ 0.0364881763 -0.0362765497 -0.0081548138]
 [-0.0362765497  0.5143285733  0.1033858996]
 [-0.0081548138  0.1033858996  0.0916780355]]

    Normal coordinates (non-mass-weighted) for irrep A1:

[[ 0.            0.            0.          ]
 [-0.0129946967 -0.0012256837  0.17632235  ]
 [ 0.0418232787  0.0096851994  0.0031496394]
 [ 0.            0.            0.          ]
 [ 0.1584046123 -0.6862785009  0.0069036029]
 [-0.6637657829 -0.1537111423 -0.0499870621]
 [ 0.            0.            0.          ]
 [ 0.0129946967  0.0012256837 -0.17632235  ]
 [ 0.0418232787  0.0096851994  0.0031496394]
 [ 0.            0.            0.          ]
 [-0.1584046123  0.6862785009 -0.0069036029]
 [-0.6637657829 -0.1537111423 -0.0499870621]]
Gradients in B-matrix coordinates
 disp 0:    0.0000720739

    Force Constants for irrep A2 in mass-weighted, symmetry-adapted cartesian coordinates.

[[-0.0144147768]]

    Normal coordinates (non-mass-weighted) for irrep A2:

[[ 0.0562505805]
 [ 0.          ]
 [ 0.          ]
 [-0.667758083 ]
 [ 0.          ]
 [ 0.          ]
 [-0.0562505805]
 [ 0.          ]
 [ 0.          ]
 [ 0.667758083 ]
 [ 0.          ]
 [ 0.          ]]
Gradients in B-matrix coordinates
 disp 0:   -0.0005377893   0.0005360127
 disp 1:    0.0005377893  -0.0005360127

    Force Constants for irrep B2 in mass-weighted, symmetry-adapted cartesian coordinates.

[[ 0.1075578502 -0.1072086931]
 [-0.1072086931  0.501189962 ]]

    Normal coordinates (non-mass-weighted) for irrep B2:

[[ 0.            0.          ]
 [-0.0101870116 -0.0399976109]
 [ 0.0427661147 -0.0599952186]
 [ 0.            0.          ]
 [ 0.161675266   0.6347911102]
 [-0.6628011529  0.1031623656]
 [ 0.            0.          ]
 [-0.0101870116 -0.0399976109]
 [-0.0427661147  0.0599952186]
 [ 0.            0.          ]
 [ 0.161675266   0.6347911102]
 [ 0.6628011529 -0.1031623656]]

    Force constant matrix for all computed irreps in mass-weighted SALCS.

[[ 0.0364881763 -0.0362765497 -0.0081548138  0.            0.
   0.          ]
 [-0.0362765497  0.5143285733  0.1033858996  0.            0.
   0.          ]
 [-0.0081548138  0.1033858996  0.0916780355  0.            0.
   0.          ]
 [ 0.            0.            0.           -0.0144147768  0.
   0.          ]
 [ 0.            0.            0.            0.            0.1075578502
  -0.1072086931]
 [ 0.            0.            0.            0.           -0.1072086931
   0.501189962 ]]

    Force constants in mass-weighted Cartesian coordinates.

[[-0.0007295312  0.            0.            0.0021738903  0.
   0.            0.0007295312  0.            0.           -0.0021738903
   0.            0.          ]
 [ 0.            0.0211748978 -0.0050184272  0.           -0.0157531896
   0.030589938   0.           -0.0153132785 -0.0038135735  0.
  -0.0075983758  0.0045950564]
 [ 0.           -0.0050184272  0.0353240421  0.            0.0149852779
  -0.1228664443  0.            0.0038135735 -0.0048375899  0.
  -0.010185372   0.0014142737]
 [ 0.0021738903  0.            0.           -0.0064778572  0.
   0.           -0.0021738903  0.            0.            0.0064778572
   0.            0.          ]
 [ 0.           -0.0157531896  0.0149852779  0.            0.0923530937
  -0.1019168252  0.           -0.0075983758  0.010185372   0.
   0.0006750582  0.0016417904]
 [ 0.            0.030589938  -0.1228664443  0.           -0.1019168252
   0.476769265   0.           -0.0045950564  0.0014142737  0.
  -0.0016417904  0.007072856 ]
 [ 0.0007295312  0.            0.           -0.0021738903  0.
   0.           -0.0007295312  0.            0.            0.0021738903
   0.            0.          ]
 [ 0.           -0.0153132785  0.0038135735  0.           -0.0075983758
  -0.0045950564  0.            0.0211748978  0.0050184272  0.
  -0.0157531896 -0.030589938 ]
 [ 0.           -0.0038135735 -0.0048375899  0.            0.010185372
   0.0014142737  0.            0.0050184272  0.0353240421  0.
  -0.0149852779 -0.1228664443]
 [-0.0021738903  0.            0.            0.0064778572  0.
   0.            0.0021738903  0.            0.           -0.0064778572
   0.            0.          ]
 [ 0.           -0.0075983758 -0.010185372   0.            0.0006750582
  -0.0016417904  0.           -0.0157531896 -0.0149852779  0.
   0.0923530937  0.1019168252]
 [ 0.            0.0045950564  0.0014142737  0.            0.0016417904
   0.007072856   0.           -0.030589938  -0.1228664443  0.
   0.1019168252  0.476769265 ]]

    Force constants in Cartesian coordinates.

[[-0.0116687892  0.            0.            0.0087281289  0.
   0.            0.0116687892  0.            0.           -0.0087281289
   0.            0.          ]
 [ 0.            0.3386906822 -0.0802693144  0.           -0.0632487628
   0.1228180308  0.           -0.2449345821 -0.060997782   0.
  -0.0305073374  0.0184490657]
 [ 0.           -0.0802693144  0.565005038   0.            0.0601656113
  -0.493306484   0.            0.060997782  -0.0773768368  0.
  -0.0408940789  0.0056782827]
 [ 0.0087281289  0.            0.           -0.0065285467  0.
   0.           -0.0087281289  0.            0.            0.0065285467
   0.            0.          ]
 [ 0.           -0.0632487628  0.0601656113  0.            0.0930757596
  -0.1027143277  0.           -0.0305073374  0.0408940789  0.
   0.0006803406  0.0016546374]
 [ 0.            0.1228180308 -0.493306484   0.           -0.1027143277
   0.4804999999  0.           -0.0184490657  0.0056782827  0.
  -0.0016546374  0.0071282013]
 [ 0.0116687892  0.            0.           -0.0087281289  0.
   0.           -0.0116687892  0.            0.            0.0087281289
   0.            0.          ]
 [ 0.           -0.2449345821  0.060997782   0.           -0.0305073374
  -0.0184490657  0.            0.3386906822  0.0802693144  0.
  -0.0632487628 -0.1228180308]
 [ 0.           -0.060997782  -0.0773768368  0.            0.0408940789
   0.0056782827  0.            0.0802693144  0.565005038   0.
  -0.0601656113 -0.493306484 ]
 [-0.0087281289  0.            0.            0.0065285467  0.
   0.            0.0087281289  0.            0.           -0.0065285467
   0.            0.          ]
 [ 0.           -0.0305073374 -0.0408940789  0.            0.0006803406
  -0.0016546374  0.           -0.0632487628 -0.0601656113  0.
   0.0930757596  0.1027143277]
 [ 0.            0.0184490657  0.0056782827  0.            0.0016546374
   0.0071282013  0.           -0.1228180308 -0.493306484   0.
   0.1027143277  0.4804999999]]

-------------------------------------------------------------


  ==> Harmonic Vibrational Analysis <==

  non-mass-weighted Hessian:       Symmetric? True   Hermitian? True   Lin Dep Dim?  6 (0)
  projection of translations (True) and rotations (True) removed 6 degrees of freedom (6)
  total projector:                 Symmetric? True   Hermitian? True   Lin Dep Dim?  6 (6)
  mass-weighted Hessian:           Symmetric? True   Hermitian? True   Lin Dep Dim?  6 (0)
  pre-proj  low-frequency mode:    0.0000i [cm^-1]
  pre-proj  low-frequency mode:    0.0000i [cm^-1]
  pre-proj  low-frequency mode:    0.0000i [cm^-1]
  pre-proj  low-frequency mode:    0.0000  [cm^-1]
  pre-proj  low-frequency mode:    0.0000  [cm^-1]
  pre-proj  low-frequency mode:    0.0000  [cm^-1]
  pre-proj  low-frequency mode:    0.0000  [cm^-1]
  pre-proj  all modes:['617.1749i' '0.0000i' '0.0000i' '0.0000' '0.0000' '0.0000' '0.0000'
 '944.3175' '1337.9641' '1456.2449' '3737.0139' '3780.9773']
  projected mass-weighted Hessian: Symmetric? True   Hermitian? True   Lin Dep Dim?  6 (6)
  post-proj low-frequency mode:  617.1749i [cm^-1] (V)
  post-proj low-frequency mode:    0.0000i [cm^-1] (TR)
  post-proj low-frequency mode:    0.0000i [cm^-1] (TR)
  post-proj low-frequency mode:    0.0000i [cm^-1] (TR)
  post-proj low-frequency mode:    0.0000i [cm^-1] (TR)
  post-proj low-frequency mode:    0.0000  [cm^-1] (TR)
  post-proj low-frequency mode:    0.0000  [cm^-1] (TR)
  post-proj  all modes:['617.1749i' '0.0000i' '0.0000i' '0.0000i' '0.0000i' '0.0000' '0.0000'
 '944.3175' '1337.9641' '1456.2449' '3737.0139' '3780.9773']

  Vibration                       1                   8                   9           
  Freq [cm^-1]                617.1749i            944.3175           1337.9641       
  Irrep                           A2                  A1                  A1          
  Reduced mass [u]              1.1134             14.8607              1.0107        
  Force const [mDyne/A]        -0.2499              7.8077              1.0660        
  Turning point v=0 [a0]        0.0000              0.0926              0.2984        
  RMS dev v=0 [a0 u^1/2]        0.0000              0.2525              0.2121        
  Char temp [K]                 0.0000            1358.6627           1925.0325       
  ----------------------------------------------------------------------------------
      1   O               -0.06 -0.00  0.00    0.00  0.68  0.01   -0.00  0.00 -0.01   
      2   H                0.70 -0.00  0.00    0.00  0.03 -0.19   -0.00  0.69  0.15   
      3   O                0.06 -0.00  0.00    0.00 -0.68  0.01    0.00 -0.00 -0.01   
      4   H               -0.70 -0.00  0.00    0.00 -0.03 -0.19   -0.00 -0.69  0.15   

  Vibration                       10                  11                  12          
  Freq [cm^-1]                1456.2449           3737.0139           3780.9773       
  Irrep                           B2                  B2                  A1          
  Reduced mass [u]              1.1939              1.0698              1.0693        
  Force const [mDyne/A]         1.4917              8.8024              9.0065        
  Turning point v=0 [a0]        0.2632              0.1735              0.1726        
  RMS dev v=0 [a0 u^1/2]        0.2033              0.1269              0.1262        
  Char temp [K]               2095.2122           5376.7310           5439.9845       
  ----------------------------------------------------------------------------------
      1   O                0.00 -0.04 -0.07   -0.00  0.01 -0.04   -0.00  0.01 -0.04   
      2   H                0.00  0.69  0.11    0.00 -0.17  0.69    0.00 -0.16  0.69   
      3   O               -0.00 -0.04  0.07    0.00  0.01  0.04   -0.00 -0.01 -0.04   
      4   H               -0.00  0.69 -0.11    0.00 -0.17 -0.69    0.00  0.16  0.69   

  ==> Thermochemistry Components <==

  Entropy, S
    Electronic S            0.000 [cal/(mol K)]        0.000 [J/(mol K)]       0.00000000 [mEh/K] (multiplicity = 1)
    Translational S        36.503 [cal/(mol K)]      152.728 [J/(mol K)]       0.05817083 [mEh/K] (mol. weight = 34.0055 [u], P = 101325.00 [Pa])
    Rotational S           16.672 [cal/(mol K)]       69.755 [J/(mol K)]       0.02656838 [mEh/K] (symmetry no. = 2)
    Vibrational S           0.154 [cal/(mol K)]        0.646 [J/(mol K)]       0.00024616 [mEh/K]
  Total S                  53.329 [cal/(mol K)]      223.129 [J/(mol K)]       0.08498537 [mEh/K]
  Correction S              0.000 [cal/(mol K)]        0.000 [J/(mol K)]       0.00000000 [mEh/K]

  Constant volume heat capacity, Cv
    Electronic Cv           0.000 [cal/(mol K)]        0.000 [J/(mol K)]       0.00000000 [mEh/K]
    Translational Cv        2.981 [cal/(mol K)]       12.472 [J/(mol K)]       0.00475022 [mEh/K]
    Rotational Cv           2.981 [cal/(mol K)]       12.472 [J/(mol K)]       0.00475022 [mEh/K]
    Vibrational Cv          0.660 [cal/(mol K)]        2.761 [J/(mol K)]       0.00105177 [mEh/K]
  Total Cv                  6.622 [cal/(mol K)]       27.705 [J/(mol K)]       0.01055221 [mEh/K]
  Correction Cv             0.000 [cal/(mol K)]        0.000 [J/(mol K)]       0.00000000 [mEh/K]

  Constant pressure heat capacity, Cp
    Electronic Cp           0.000 [cal/(mol K)]        0.000 [J/(mol K)]       0.00000000 [mEh/K]
    Translational Cp        4.968 [cal/(mol K)]       20.786 [J/(mol K)]       0.00791703 [mEh/K]
    Rotational Cp           2.981 [cal/(mol K)]       12.472 [J/(mol K)]       0.00475022 [mEh/K]
    Vibrational Cp          0.660 [cal/(mol K)]        2.761 [J/(mol K)]       0.00105177 [mEh/K]
  Total Cp                  8.609 [cal/(mol K)]       36.019 [J/(mol K)]       0.01371902 [mEh/K]
  Correction Cp             0.000 [cal/(mol K)]        0.000 [J/(mol K)]       0.00000000 [mEh/K]

  ==> Thermochemistry Energy Analysis <==

  Raw electronic energy, E0
  Total E0, Electronic energy at well bottom at 0 [K]                 -151.52987376 [Eh]

  Zero-point energy, ZPE_vib = Sum_i nu_i / 2
    Electronic ZPE          0.000 [kcal/mol]        0.000 [kJ/mol]       0.00000000 [Eh]
    Translational ZPE       0.000 [kcal/mol]        0.000 [kJ/mol]       0.00000000 [Eh]
    Rotational ZPE          0.000 [kcal/mol]        0.000 [kJ/mol]       0.00000000 [Eh]
    Vibrational ZPE        16.092 [kcal/mol]       67.329 [kJ/mol]       0.02564423 [Eh]        5628.259 [cm^-1]
  Correction ZPE           16.092 [kcal/mol]       67.329 [kJ/mol]       0.02564423 [Eh]        5628.259 [cm^-1]
  Total ZPE, Electronic energy at 0 [K]                               -151.50422952 [Eh]

  Thermal Energy, E (includes ZPE)
    Electronic E            0.000 [kcal/mol]        0.000 [kJ/mol]       0.00000000 [Eh]
    Translational E         0.889 [kcal/mol]        3.718 [kJ/mol]       0.00141628 [Eh]
    Rotational E            0.889 [kcal/mol]        3.718 [kJ/mol]       0.00141628 [Eh]
    Vibrational E          16.130 [kcal/mol]       67.489 [kJ/mol]       0.02570534 [Eh]
  Correction E             17.908 [kcal/mol]       74.926 [kJ/mol]       0.02853790 [Eh]
  Total E, Electronic energy at  298.15 [K]                           -151.50133586 [Eh]

  Enthalpy, H_trans = E_trans + k_B * T
    Electronic H            0.000 [kcal/mol]        0.000 [kJ/mol]       0.00000000 [Eh]
    Translational H         1.481 [kcal/mol]        6.197 [kJ/mol]       0.00236046 [Eh]
    Rotational H            0.889 [kcal/mol]        3.718 [kJ/mol]       0.00141628 [Eh]
    Vibrational H          16.130 [kcal/mol]       67.489 [kJ/mol]       0.02570534 [Eh]
  Correction H             18.500 [kcal/mol]       77.405 [kJ/mol]       0.02948208 [Eh]
  Total H, Enthalpy at  298.15 [K]                                    -151.50039168 [Eh]

  Gibbs free energy, G = H - T * S
    Electronic G            0.000 [kcal/mol]        0.000 [kJ/mol]       0.00000000 [Eh]
    Translational G        -9.402 [kcal/mol]      -39.338 [kJ/mol]      -0.01498317 [Eh]
    Rotational G           -4.082 [kcal/mol]      -17.079 [kJ/mol]      -0.00650508 [Eh]
    Vibrational G          16.084 [kcal/mol]       67.297 [kJ/mol]       0.02563195 [Eh]
  Correction G              2.600 [kcal/mol]       10.879 [kJ/mol]       0.00414369 [Eh]
  Total G, Free enthalpy at  298.15 [K]                               -151.52573006 [Eh]
  ## New Matrix (Symmetry 0) ##
  Irrep: 1 Size: 12 x 12

                 1                   2                   3                   4                   5

    1    -0.01166878915221     0.00000000000000     0.00000000000000     0.00872812892479     0.00000000000000
    2     0.00000000000000     0.33869068222897    -0.08026931441428     0.00000000000000    -0.06324876277744
    3     0.00000000000000    -0.08026931441428     0.56500503802232     0.00000000000000     0.06016561131457
    4     0.00872812892479     0.00000000000000     0.00000000000000    -0.00652854666701     0.00000000000000
    5     0.00000000000000    -0.06324876277744     0.06016561131457     0.00000000000000     0.09307575961173
    6     0.00000000000000     0.12281803077959    -0.49330648396365     0.00000000000000    -0.10271432767988
    7     0.01166878915221     0.00000000000000     0.00000000000000    -0.00872812892479     0.00000000000000
    8     0.00000000000000    -0.24493458205756     0.06099778203196     0.00000000000000    -0.03050733739397
    9     0.00000000000000    -0.06099778203196    -0.07737683678847     0.00000000000000     0.04089407893224
   10    -0.00872812892479     0.00000000000000     0.00000000000000     0.00652854666701     0.00000000000000
   11     0.00000000000000    -0.03050733739397    -0.04089407893224     0.00000000000000     0.00068034055969
   12     0.00000000000000     0.01844906566664     0.00567828272981     0.00000000000000     0.00165463743307

                 6                   7                   8                   9                  10

    1     0.00000000000000     0.01166878915221     0.00000000000000     0.00000000000000    -0.00872812892479
    2     0.12281803077959     0.00000000000000    -0.24493458205756    -0.06099778203196     0.00000000000000
    3    -0.49330648396365     0.00000000000000     0.06099778203196    -0.07737683678847     0.00000000000000
    4     0.00000000000000    -0.00872812892479     0.00000000000000     0.00000000000000     0.00652854666701
    5    -0.10271432767988     0.00000000000000    -0.03050733739397     0.04089407893224     0.00000000000000
    6     0.48049999989363     0.00000000000000    -0.01844906566664     0.00567828272981     0.00000000000000
    7     0.00000000000000    -0.01166878915221     0.00000000000000     0.00000000000000     0.00872812892479
    8    -0.01844906566664     0.00000000000000     0.33869068222897     0.08026931441428     0.00000000000000
    9     0.00567828272981     0.00000000000000     0.08026931441428     0.56500503802232     0.00000000000000
   10     0.00000000000000     0.00872812892479     0.00000000000000     0.00000000000000    -0.00652854666701
   11    -0.00165463743307     0.00000000000000    -0.06324876277744    -0.06016561131457     0.00000000000000
   12     0.00712820134022     0.00000000000000    -0.12281803077959    -0.49330648396365     0.00000000000000

                11                  12

    1     0.00000000000000     0.00000000000000
    2    -0.03050733739397     0.01844906566664
    3    -0.04089407893224     0.00567828272981
    4     0.00000000000000     0.00000000000000
    5     0.00068034055969     0.00165463743307
    6    -0.00165463743307     0.00712820134022
    7     0.00000000000000     0.00000000000000
    8    -0.06324876277744    -0.12281803077959
    9    -0.06016561131457    -0.49330648396365
   10     0.00000000000000     0.00000000000000
   11     0.09307575961173     0.10271432767988
   12     0.10271432767988     0.48049999989363




    Psi4 stopped on: Sunday, 06 September 2020 04:06PM
    Psi4 wall time for execution: 0:04:43.11

*** Psi4 exiting successfully. Buy a developer a beer!
