
    -----------------------------------------------------------------------
          Psi4: An Open-Source Ab Initio Electronic Structure Package
                               Psi4 1.3.2 release

                         Git: Rev {HEAD} ecbda83 


    R. M. Parrish, L. A. Burns, D. G. A. Smith, A. C. Simmonett,
    A. E. DePrince III, E. G. Hohenstein, U. Bozkaya, A. Yu. Sokolov,
    R. Di Remigio, R. M. Richard, J. F. Gonthier, A. M. James,
    H. R. McAlexander, A. Kumar, M. Saitow, X. Wang, B. P. Pritchard,
    P. Verma, H. F. Schaefer III, K. Patkowski, R. A. King, E. F. Valeev,
    F. A. Evangelista, J. M. Turney, T. D. Crawford, and C. D. Sherrill,
    J. Chem. Theory Comput. 13(7) pp 3185--3197 (2017).
    (doi: 10.1021/acs.jctc.7b00174)


                         Additional Contributions by
    P. Kraus, H. Kruse, M. H. Lechner, M. C. Schieber, R. A. Shaw,
    A. Alenaizan, R. Galvelis, Z. L. Glick, S. Lehtola, and J. P. Misiewicz

    -----------------------------------------------------------------------


    Psi4 started on: Sunday, 06 September 2020 04:00PM

    Process ID: 10075
    Host:       X1-ubuntu
    PSIDATADIR: /home/dranasinghe/anaconda2/envs/rmgpy3_env/share/psi4
    Memory:     500.0 MiB
    Threads:    1
    
  ==> Input File <==

--------------------------------------------------------------------------
memory 1024 mb

molecule mol {
0 1
O 0.00000000 0.00000000 0.00000000
H 0.00000000 0.28053300 -0.90381100
O 0.00000000 -1.39778000 0.00000000
H 0.00000000 -1.67831300 -0.90381100

}
set {
  basis 6-31G(d_p)
  opt_type ts
  full_hess_every 0
  geom_maxiter 50
  print 3

}

e, wfn = optimize('scf', return_wfn=True)
scf_e, wfn=frequencies('scf', return_wfn=True, dertype=1)
wfn.hessian().print_out()

--------------------------------------------------------------------------

  Memory set to 976.562 MiB by Python driver.
gradient() will perform analytic gradient computation.

*** tstart() called on X1-ubuntu
*** at Sun Sep  6 16:00:51 2020

   => Loading Basis Set <=

    Name: 6-31G(D_P)
    Role: ORBITAL
    Keyword: BASIS
    atoms 1, 3 entry O          line   149 file /home/dranasinghe/anaconda2/envs/rmgpy3_env/share/psi4/basis/6-31g_d_p_.gbs 
    atoms 2, 4 entry H          line    44 file /home/dranasinghe/anaconda2/envs/rmgpy3_env/share/psi4/basis/6-31g_d_p_.gbs 


         ---------------------------------------------------------
                                   SCF
               by Justin Turney, Rob Parrish, Andy Simmonett
                          and Daniel G. A. Smith
                              RHF Reference
                        1 Threads,    976 MiB Core
         ---------------------------------------------------------

  ==> Geometry <==

    Molecular point group: c2v
    Full point group: C2v

    Geometry (in Angstrom), charge = 0, multiplicity = 1:

       Center              X                  Y                   Z               Mass       
    ------------   -----------------  -----------------  -----------------  -----------------
         O           -0.000000000000     0.698890000000     0.053572739974    15.994914619570
         H           -0.000000000000     0.979423000000    -0.850238260026     1.007825032230
         O            0.000000000000    -0.698890000000     0.053572739974    15.994914619570
         H            0.000000000000    -0.979423000000    -0.850238260026     1.007825032230

           O
              BASIS           6-31G(D_P)           ec2d227169b1af6c6a69bc8715bab79dbd7bb644
           H
              BASIS           6-31G(D_P)           902186d0f3205710946c2c15d2c68458d6f6cc2a
           O
              BASIS           6-31G(D_P)           ec2d227169b1af6c6a69bc8715bab79dbd7bb644
           H
              BASIS           6-31G(D_P)           902186d0f3205710946c2c15d2c68458d6f6cc2a

  Running in c2v symmetry.

  Rotational constants: A =     10.88336  B =      0.96006  C =      0.88224 [cm^-1]
  Rotational constants: A = 326274.99817  B =  28781.93695  C =  26448.79031 [MHz]
  Nuclear repulsion =   37.888114307181077

  Charge       = 0
  Multiplicity = 1
  Electrons    = 18
  Nalpha       = 9
  Nbeta        = 9

  ==> Algorithm <==

  SCF Algorithm Type is DF.
  DIIS enabled.
  MOM disabled.
  Fractional occupation disabled.
  Guess Type is SAD.
  Energy threshold   = 1.00e-08
  Density threshold  = 1.00e-08
  Integral threshold = 0.00e+00

  ==> Primary Basis <==

  -AO BASIS SET INFORMATION:
    Name                   = 6-31G(D_P)
    Blend                  = 6-31G(D_P)
    Total number of shells = 18
    Number of primitives   = 40
    Number of AO           = 40
    Number of SO           = 40
    Maximum AM             = 2
    Spherical Harmonics    = FALSE

  -Contraction Scheme:
    Atom   Type   All Primitives // Shells:
   ------ ------ --------------------------
       1     O     10s 4p 1d // 3s 2p 1d 
       2     H     4s 1p // 2s 1p 
       3     O     10s 4p 1d // 3s 2p 1d 
       4     H     4s 1p // 2s 1p 

  ==> AO Basis Functions <==

    [ 6-31G(D_P) ]
    cartesian
    ****
    O   1
    S   6 1.00
                      5484.67170000           0.00183110
                       825.23495000           0.01395010
                       188.04696000           0.06844510
                        52.96450000           0.23271430
                        16.89757000           0.47019300
                         5.79963530           0.35852090
    S   3 1.00
                        15.53961600          -0.11077750
                         3.59993360          -0.14802630
                         1.01376180           1.13076700
    P   3 1.00
                        15.53961600           0.07087430
                         3.59993360           0.33975280
                         1.01376180           0.72715860
    S   1 1.00
                         0.27000580           1.00000000
    P   1 1.00
                         0.27000580           1.00000000
    D   1 1.00
                         0.80000000           1.00000000
    ****
    H   2
    S   3 1.00
                        18.73113700           0.03349460
                         2.82539370           0.23472695
                         0.64012170           0.81375733
    S   1 1.00
                         0.16127780           1.00000000
    P   1 1.00
                         1.10000000           1.00000000
    ****

   => Loading Basis Set <=

    Name: (6-31G(D_P) AUX)
    Role: JKFIT
    Keyword: DF_BASIS_SCF
    atoms 1, 3 entry O          line   221 file /home/dranasinghe/anaconda2/envs/rmgpy3_env/share/psi4/basis/cc-pvdz-jkfit.gbs 
    atoms 2, 4 entry H          line    51 file /home/dranasinghe/anaconda2/envs/rmgpy3_env/share/psi4/basis/cc-pvdz-jkfit.gbs 

  ==> Pre-Iterations <==

   -------------------------------------------------------
    Irrep   Nso     Nmo     Nalpha   Nbeta   Ndocc  Nsocc
   -------------------------------------------------------
     A1        15      15       0       0       0       0
     A2         5       5       0       0       0       0
     B1         5       5       0       0       0       0
     B2        15      15       0       0       0       0
   -------------------------------------------------------
    Total      40      40       9       9       9       0
   -------------------------------------------------------

  ==> Integral Setup <==

  DFHelper Memory: AOs need 0.003 GiB; user supplied 0.715 GiB. Using in-core AOs.

  ==> MemDFJK: Density-Fitted J/K Matrices <==

    J tasked:                   Yes
    K tasked:                   Yes
    wK tasked:                   No
    OpenMP threads:               1
    Memory [MiB]:               732
    Algorithm:                 Core
    Schwarz Cutoff:           1E-12
    Mask sparsity (%):       0.0000
    Fitting Condition:        1E-10

   => Auxiliary Basis Set <=

  -AO BASIS SET INFORMATION:
    Name                   = (6-31G(D_P) AUX)
    Blend                  = CC-PVDZ-JKFIT
    Total number of shells = 66
    Number of primitives   = 66
    Number of AO           = 212
    Number of SO           = 212
    Maximum AM             = 3
    Spherical Harmonics    = FALSE

  -Contraction Scheme:
    Atom   Type   All Primitives // Shells:
   ------ ------ --------------------------
       1     O     10s 7p 5d 2f // 10s 7p 5d 2f 
       2     H     4s 3p 2d // 4s 3p 2d 
       3     O     10s 7p 5d 2f // 10s 7p 5d 2f 
       4     H     4s 3p 2d // 4s 3p 2d 

  ==> AO Basis Functions <==

    [ (6-31G(D_P) AUX) ]
    cartesian
    ****
    O   1
    S   1 1.00
                      1517.86675060           1.00000000
    S   1 1.00
                       489.67952008           1.00000000
    S   1 1.00
                       176.72118665           1.00000000
    S   1 1.00
                        63.79223314           1.00000000
    S   1 1.00
                        25.36649913           1.00000000
    S   1 1.00
                         9.91354912           1.00000000
    S   1 1.00
                         4.46453066           1.00000000
    S   1 1.00
                         1.80177437           1.00000000
    S   1 1.00
                         0.80789711           1.00000000
    S   1 1.00
                         0.33864327           1.00000000
    P   1 1.00
                       120.16030921           1.00000000
    P   1 1.00
                        34.40962247           1.00000000
    P   1 1.00
                        12.58114861           1.00000000
    P   1 1.00
                         5.06638242           1.00000000
    P   1 1.00
                         2.03469271           1.00000000
    P   1 1.00
                         0.86092967           1.00000000
    P   1 1.00
                         0.36681357           1.00000000
    D   1 1.00
                        19.04306281           1.00000000
    D   1 1.00
                         5.80603811           1.00000000
    D   1 1.00
                         2.18918416           1.00000000
    D   1 1.00
                         0.87794614           1.00000000
    D   1 1.00
                         0.35623647           1.00000000
    F   1 1.00
                         2.49391479           1.00000000
    F   1 1.00
                         0.82491479           1.00000000
    ****
    H   2
    S   1 1.00
                         9.53024933           1.00000000
    S   1 1.00
                         1.91745062           1.00000000
    S   1 1.00
                         0.68424049           1.00000000
    S   1 1.00
                         0.28413256           1.00000000
    P   1 1.00
                         2.91332320           1.00000000
    P   1 1.00
                         1.26212054           1.00000000
    P   1 1.00
                         0.50199776           1.00000000
    D   1 1.00
                         2.31353291           1.00000000
    D   1 1.00
                         0.71290724           1.00000000
    ****

  Minimum eigenvalue in the overlap matrix is 9.2866465976E-03.
  Using Symmetric Orthogonalization.

  SCF Guess: Superposition of Atomic Densities via on-the-fly atomic UHF.

DIIS coefficients:  1.000 
DIIS coefficients:  0.329  0.671 
DIIS coefficients:  -0.027  -0.001  1.028 
DIIS coefficients:  -0.002  -0.000  -0.045  1.047 
DIIS coefficients:  0.000  0.000  0.005  -0.173  1.168 
DIIS coefficients:  0.000  -0.000  -0.001  0.017  -0.113  1.097 
DIIS coefficients:  1.000 
DIIS coefficients:  -0.068  1.068 
DIIS coefficients:  -0.000  -0.002  1.002 
DIIS coefficients:  -0.000  -0.000  -0.001  1.001 
  ==> Iterations <==

                           Total Energy        Delta E     RMS |[F,P]|

   @DF-RHF iter SAD:  -150.09039297963420   -1.50090e+02   0.00000e+00 
DIIS coefficients:  1.000 
    Occupation by irrep:
             A1    A2    B1    B2 
    DOCC [     4,    1,    1,    3 ]

   @DF-RHF iter   1:  -150.71183811940705   -6.21445e-01   1.47100e-02 DIIS
DIIS coefficients:  0.191  0.809 
    Occupation by irrep:
             A1    A2    B1    B2 
    DOCC [     4,    1,    1,    3 ]

   @DF-RHF iter   2:  -150.75821686579437   -4.63787e-02   4.93235e-03 DIIS
DIIS coefficients:  -0.032  0.045  0.987 
    Occupation by irrep:
             A1    A2    B1    B2 
    DOCC [     4,    1,    1,    3 ]

   @DF-RHF iter   3:  -150.76254677949953   -4.32991e-03   1.19811e-03 DIIS
DIIS coefficients:  -0.012  -0.072  0.009  1.076 
    Occupation by irrep:
             A1    A2    B1    B2 
    DOCC [     4,    1,    1,    3 ]

   @DF-RHF iter   4:  -150.76299255028857   -4.45771e-04   3.48215e-04 DIIS
DIIS coefficients:  0.005  0.020  -0.036  -0.344  1.354 
    Occupation by irrep:
             A1    A2    B1    B2 
    DOCC [     4,    1,    1,    3 ]

   @DF-RHF iter   5:  -150.76304042819226   -4.78779e-05   6.84744e-05 DIIS
DIIS coefficients:  -0.002  -0.007  0.018  0.124  -0.701  1.568 
    Occupation by irrep:
             A1    A2    B1    B2 
    DOCC [     4,    1,    1,    3 ]

   @DF-RHF iter   6:  -150.76304395588329   -3.52769e-06   1.84076e-05 DIIS
DIIS coefficients:  0.001  0.002  -0.005  -0.034  0.213  -0.645  1.468 
    Occupation by irrep:
             A1    A2    B1    B2 
    DOCC [     4,    1,    1,    3 ]

   @DF-RHF iter   7:  -150.76304427963669   -3.23753e-07   4.04155e-06 DIIS
DIIS coefficients:  -0.000  -0.000  0.001  0.007  -0.047  0.150  -0.429  1.318 
    Occupation by irrep:
             A1    A2    B1    B2 
    DOCC [     4,    1,    1,    3 ]

   @DF-RHF iter   8:  -150.76304429275791   -1.31212e-08   5.39521e-07 DIIS
DIIS coefficients:  -0.000  -0.000  0.000  0.001  -0.004  0.012  -0.022  -0.058  1.071 
    Occupation by irrep:
             A1    A2    B1    B2 
    DOCC [     4,    1,    1,    3 ]

   @DF-RHF iter   9:  -150.76304429291497   -1.57058e-10   7.58894e-08 DIIS
DIIS coefficients:  0.000  0.000  -0.000  -0.000  0.002  -0.007  0.018  -0.045  -0.134  1.166 
    Occupation by irrep:
             A1    A2    B1    B2 
    DOCC [     4,    1,    1,    3 ]

   @DF-RHF iter  10:  -150.76304429291758   -2.61480e-12   1.78780e-08 DIIS
DIIS coefficients:  1.229  0.000  -0.000  -0.000  0.000  -0.000  -0.000  0.005  0.000  -0.234 
    Occupation by irrep:
             A1    A2    B1    B2 
    DOCC [     4,    1,    1,    3 ]

   @DF-RHF iter  11:  -150.76304429291787   -2.84217e-13   3.56593e-09 DIIS
  Energy and wave function converged.


  ==> Post-Iterations <==

    Orbital Energies [Eh]
    ---------------------

    Doubly Occupied:                                                      

       1A1   -20.629923     1B2   -20.629587     2A1    -1.496508  
       2B2    -1.209932     3A1    -0.781973     1B1    -0.634186  
       4A1    -0.606244     3B2    -0.566354     1A2    -0.443660  

    Virtual:                                                              

       5A1     0.185607     4B2     0.233318     5B2     0.371368  
       6A1     0.986866     6B2     1.032237     7A1     1.047609  
       2B1     1.122685     7B2     1.180245     8A1     1.206814  
       2A2     1.224759     9A1     1.284896     8B2     1.349381  
       9B2     1.697568     3B1     1.706780    10A1     1.723772  
       4B1     1.830968     3A2     1.925552    10B2     2.228569  
      11A1     2.351425    12A1     2.610956     4A2     2.744915  
      11B2     2.855075     5B1     2.891604    13A1     2.910748  
       5A2     3.060017    12B2     3.251870    13B2     3.373590  
      14A1     3.737721    15A1     3.870911    14B2     3.894560  
      15B2     4.269294  

    Final Occupation by Irrep:
             A1    A2    B1    B2 
    DOCC [     4,    1,    1,    3 ]

  @DF-RHF Final Energy:  -150.76304429291787

   => Energetics <=

    Nuclear Repulsion Energy =             37.8881143071810769
    One-Electron Energy =                -283.3055832270781593
    Two-Electron Energy =                  94.6544246269792211
    Total Energy =                       -150.7630442929178685

Computation Completed


Properties will be evaluated at   0.000000,   0.000000,   0.000000 [a0]

Properties computed using the SCF density matrix

  Nuclear Dipole Moment: [e a0]
     X:    -0.0000      Y:     0.0000      Z:    -1.5936

  Electronic Dipole Moment: [e a0]
     X:     0.0000      Y:     0.0000      Z:     0.2158

  Dipole Moment: [e a0]
     X:    -0.0000      Y:     0.0000      Z:    -1.3778     Total:     1.3778

  Dipole Moment: [D]
     X:    -0.0000      Y:     0.0000      Z:    -3.5021     Total:     3.5021


*** tstop() called on X1-ubuntu at Sun Sep  6 16:00:52 2020
Module time:
	user time   =       1.00 seconds =       0.02 minutes
	system time =       0.01 seconds =       0.00 minutes
	total time  =          1 seconds =       0.02 minutes
Total time:
	user time   =       1.00 seconds =       0.02 minutes
	system time =       0.01 seconds =       0.00 minutes
	total time  =          1 seconds =       0.02 minutes

*** tstart() called on X1-ubuntu
*** at Sun Sep  6 16:00:52 2020


         ------------------------------------------------------------
                                   SCF GRAD                          
                          Rob Parrish, Justin Turney,                
                       Andy Simmonett, and Alex Sokolov              
         ------------------------------------------------------------

  ==> Geometry <==

    Molecular point group: c2v
    Full point group: C2v

    Geometry (in Angstrom), charge = 0, multiplicity = 1:

       Center              X                  Y                   Z               Mass       
    ------------   -----------------  -----------------  -----------------  -----------------
         O           -0.000000000000     0.698890000000     0.053572739974    15.994914619570
         H           -0.000000000000     0.979423000000    -0.850238260026     1.007825032230
         O            0.000000000000    -0.698890000000     0.053572739974    15.994914619570
         H            0.000000000000    -0.979423000000    -0.850238260026     1.007825032230

           O
              BASIS           6-31G(D_P)           ec2d227169b1af6c6a69bc8715bab79dbd7bb644
              DF_BASIS_SCF    (6-31G(D_P) AUX)     b57462463db1b385e39e4428a46364991bcd7673
           H
              BASIS           6-31G(D_P)           902186d0f3205710946c2c15d2c68458d6f6cc2a
              DF_BASIS_SCF    (6-31G(D_P) AUX)     1164366b470d7a66fddaf681ef9d1c28421b3e4a
           O
              BASIS           6-31G(D_P)           ec2d227169b1af6c6a69bc8715bab79dbd7bb644
              DF_BASIS_SCF    (6-31G(D_P) AUX)     b57462463db1b385e39e4428a46364991bcd7673
           H
              BASIS           6-31G(D_P)           902186d0f3205710946c2c15d2c68458d6f6cc2a
              DF_BASIS_SCF    (6-31G(D_P) AUX)     1164366b470d7a66fddaf681ef9d1c28421b3e4a

  Nuclear repulsion =   37.888114307181077

  ==> Basis Set <==

  -AO BASIS SET INFORMATION:
    Name                   = 6-31G(D_P)
    Blend                  = 6-31G(D_P)
    Total number of shells = 18
    Number of primitives   = 40
    Number of AO           = 40
    Number of SO           = 40
    Maximum AM             = 2
    Spherical Harmonics    = FALSE

  -Contraction Scheme:
    Atom   Type   All Primitives // Shells:
   ------ ------ --------------------------
       1     O     10s 4p 1d // 3s 2p 1d 
       2     H     4s 1p // 2s 1p 
       3     O     10s 4p 1d // 3s 2p 1d 
       4     H     4s 1p // 2s 1p 

  ==> AO Basis Functions <==

    [ 6-31G(D_P) ]
    cartesian
    ****
    O   1
    S   6 1.00
                      5484.67170000           0.00183110
                       825.23495000           0.01395010
                       188.04696000           0.06844510
                        52.96450000           0.23271430
                        16.89757000           0.47019300
                         5.79963530           0.35852090
    S   3 1.00
                        15.53961600          -0.11077750
                         3.59993360          -0.14802630
                         1.01376180           1.13076700
    P   3 1.00
                        15.53961600           0.07087430
                         3.59993360           0.33975280
                         1.01376180           0.72715860
    S   1 1.00
                         0.27000580           1.00000000
    P   1 1.00
                         0.27000580           1.00000000
    D   1 1.00
                         0.80000000           1.00000000
    ****
    H   2
    S   3 1.00
                        18.73113700           0.03349460
                         2.82539370           0.23472695
                         0.64012170           0.81375733
    S   1 1.00
                         0.16127780           1.00000000
    P   1 1.00
                         1.10000000           1.00000000
    ****

  ==> DFJKGrad: Density-Fitted SCF Gradients <==

    Gradient:                    1
    J tasked:                  Yes
    K tasked:                  Yes
    wK tasked:                  No
    OpenMP threads:              1
    Integrals threads:           1
    Memory [MiB]:              732
    Schwarz Cutoff:          0E+00
    Fitting Condition:       1E-10

   => Auxiliary Basis Set <=

  -AO BASIS SET INFORMATION:
    Name                   = (6-31G(D_P) AUX)
    Blend                  = CC-PVDZ-JKFIT
    Total number of shells = 66
    Number of primitives   = 66
    Number of AO           = 212
    Number of SO           = 212
    Maximum AM             = 3
    Spherical Harmonics    = FALSE

  -Contraction Scheme:
    Atom   Type   All Primitives // Shells:
   ------ ------ --------------------------
       1     O     10s 7p 5d 2f // 10s 7p 5d 2f 
       2     H     4s 3p 2d // 4s 3p 2d 
       3     O     10s 7p 5d 2f // 10s 7p 5d 2f 
       4     H     4s 3p 2d // 4s 3p 2d 

  ==> AO Basis Functions <==

    [ (6-31G(D_P) AUX) ]
    cartesian
    ****
    O   1
    S   1 1.00
                      1517.86675060           1.00000000
    S   1 1.00
                       489.67952008           1.00000000
    S   1 1.00
                       176.72118665           1.00000000
    S   1 1.00
                        63.79223314           1.00000000
    S   1 1.00
                        25.36649913           1.00000000
    S   1 1.00
                         9.91354912           1.00000000
    S   1 1.00
                         4.46453066           1.00000000
    S   1 1.00
                         1.80177437           1.00000000
    S   1 1.00
                         0.80789711           1.00000000
    S   1 1.00
                         0.33864327           1.00000000
    P   1 1.00
                       120.16030921           1.00000000
    P   1 1.00
                        34.40962247           1.00000000
    P   1 1.00
                        12.58114861           1.00000000
    P   1 1.00
                         5.06638242           1.00000000
    P   1 1.00
                         2.03469271           1.00000000
    P   1 1.00
                         0.86092967           1.00000000
    P   1 1.00
                         0.36681357           1.00000000
    D   1 1.00
                        19.04306281           1.00000000
    D   1 1.00
                         5.80603811           1.00000000
    D   1 1.00
                         2.18918416           1.00000000
    D   1 1.00
                         0.87794614           1.00000000
    D   1 1.00
                         0.35623647           1.00000000
    F   1 1.00
                         2.49391479           1.00000000
    F   1 1.00
                         0.82491479           1.00000000
    ****
    H   2
    S   1 1.00
                         9.53024933           1.00000000
    S   1 1.00
                         1.91745062           1.00000000
    S   1 1.00
                         0.68424049           1.00000000
    S   1 1.00
                         0.28413256           1.00000000
    P   1 1.00
                         2.91332320           1.00000000
    P   1 1.00
                         1.26212054           1.00000000
    P   1 1.00
                         0.50199776           1.00000000
    D   1 1.00
                         2.31353291           1.00000000
    D   1 1.00
                         0.71290724           1.00000000
    ****


  -Nuclear Gradient:
     Atom            X                  Y                   Z
    ------   -----------------  -----------------  -----------------
       1        0.000000000000    -8.974155994504    -2.681334706271
       2        0.000000000000    -1.357325321237     2.681334706271
       3       -0.000000000000     8.974155994504    -2.681334706271
       4       -0.000000000000     1.357325321237     2.681334706271


  -Core Hamiltonian Gradient:
     Atom            X                  Y                   Z
    ------   -----------------  -----------------  -----------------
       1       -0.000000000000    15.941900623223     6.679985316640
       2       -0.000000000000     3.099428640851    -6.679985316640
       3        0.000000000000   -15.941900623223     6.679985316640
       4        0.000000000000    -3.099428640851    -6.679985316640


  -Overlap Gradient:
     Atom            X                  Y                   Z
    ------   -----------------  -----------------  -----------------
       1        0.000000000000    -0.077738649988    -0.342850132404
       2        0.000000000000    -0.117348348935     0.342850132404
       3       -0.000000000000     0.077738649988    -0.342850132404
       4       -0.000000000000     0.117348348935     0.342850132404


  -Coulomb Gradient:
     Atom            X                  Y                   Z
    ------   -----------------  -----------------  -----------------
       1        0.000000000000    -6.902144035260    -4.116477858444
       2       -0.000000000000    -1.792863449967     4.116477858412
       3        0.000000000000     6.902144036179    -4.116477857787
       4       -0.000000000000     1.792863449047     4.116477857819


  -Exchange Gradient:
     Atom            X                  Y                   Z
    ------   -----------------  -----------------  -----------------
       1       -0.000000000000     0.008260280081     0.461827971912
       2        0.000000000000     0.169025287280    -0.461827971920
       3       -0.000000000000    -0.008260280182     0.461827971857
       4        0.000000000000    -0.169025287179    -0.461827971850


  -Total Gradient:
     Atom            X                  Y                   Z
    ------   -----------------  -----------------  -----------------
       1        0.000000000000    -0.003877776858     0.001150591735
       2       -0.000000000000     0.000916808402    -0.001150591735
       3       -0.000000000000     0.003877776858     0.001150591735
       4        0.000000000000    -0.000916808402    -0.001150591735


*** tstop() called on X1-ubuntu at Sun Sep  6 16:00:52 2020
Module time:
	user time   =       0.28 seconds =       0.00 minutes
	system time =       0.01 seconds =       0.00 minutes
	total time  =          0 seconds =       0.00 minutes
Total time:
	user time   =       1.28 seconds =       0.02 minutes
	system time =       0.02 seconds =       0.00 minutes
	total time  =          1 seconds =       0.02 minutes
gradient() will perform analytic gradient computation.

*** tstart() called on X1-ubuntu
*** at Sun Sep  6 16:00:52 2020

   => Loading Basis Set <=

    Name: 6-31G(D_P)
    Role: ORBITAL
    Keyword: BASIS
    atoms 1, 3 entry O          line   149 file /home/dranasinghe/anaconda2/envs/rmgpy3_env/share/psi4/basis/6-31g_d_p_.gbs 
    atoms 2, 4 entry H          line    44 file /home/dranasinghe/anaconda2/envs/rmgpy3_env/share/psi4/basis/6-31g_d_p_.gbs 


         ---------------------------------------------------------
                                   SCF
               by Justin Turney, Rob Parrish, Andy Simmonett
                          and Daniel G. A. Smith
                              RHF Reference
                        1 Threads,    976 MiB Core
         ---------------------------------------------------------

  ==> Geometry <==

    Molecular point group: c2v
    Full point group: C2v

    Geometry (in Angstrom), charge = 0, multiplicity = 1:

       Center              X                  Y                   Z               Mass       
    ------------   -----------------  -----------------  -----------------  -----------------
         O           -0.000000000000     0.698890000000     0.053572739974    15.994914619570
         H           -0.000000000000     0.979423000000    -0.850238260026     1.007825032230
         O            0.000000000000    -0.698890000000     0.053572739974    15.994914619570
         H            0.000000000000    -0.979423000000    -0.850238260026     1.007825032230

           O
              BASIS           6-31G(D_P)           ec2d227169b1af6c6a69bc8715bab79dbd7bb644
              DF_BASIS_SCF    (6-31G(D_P) AUX)     b57462463db1b385e39e4428a46364991bcd7673
           H
              BASIS           6-31G(D_P)           902186d0f3205710946c2c15d2c68458d6f6cc2a
              DF_BASIS_SCF    (6-31G(D_P) AUX)     1164366b470d7a66fddaf681ef9d1c28421b3e4a
           O
              BASIS           6-31G(D_P)           ec2d227169b1af6c6a69bc8715bab79dbd7bb644
              DF_BASIS_SCF    (6-31G(D_P) AUX)     b57462463db1b385e39e4428a46364991bcd7673
           H
              BASIS           6-31G(D_P)           902186d0f3205710946c2c15d2c68458d6f6cc2a
              DF_BASIS_SCF    (6-31G(D_P) AUX)     1164366b470d7a66fddaf681ef9d1c28421b3e4a

  Running in c2v symmetry.

  Rotational constants: A =     10.88336  B =      0.96006  C =      0.88224 [cm^-1]
  Rotational constants: A = 326274.99817  B =  28781.93695  C =  26448.79031 [MHz]
  Nuclear repulsion =   37.888114307181077

  Charge       = 0
  Multiplicity = 1
  Electrons    = 18
  Nalpha       = 9
  Nbeta        = 9

  ==> Algorithm <==

  SCF Algorithm Type is DF.
  DIIS enabled.
  MOM disabled.
  Fractional occupation disabled.
  Guess Type is SAD.
  Energy threshold   = 1.00e-08
  Density threshold  = 1.00e-08
  Integral threshold = 0.00e+00

  ==> Primary Basis <==

  -AO BASIS SET INFORMATION:
    Name                   = 6-31G(D_P)
    Blend                  = 6-31G(D_P)
    Total number of shells = 18
    Number of primitives   = 40
    Number of AO           = 40
    Number of SO           = 40
    Maximum AM             = 2
    Spherical Harmonics    = FALSE

  -Contraction Scheme:
    Atom   Type   All Primitives // Shells:
   ------ ------ --------------------------
       1     O     10s 4p 1d // 3s 2p 1d 
       2     H     4s 1p // 2s 1p 
       3     O     10s 4p 1d // 3s 2p 1d 
       4     H     4s 1p // 2s 1p 

  ==> AO Basis Functions <==

    [ 6-31G(D_P) ]
    cartesian
    ****
    O   1
    S   6 1.00
                      5484.67170000           0.00183110
                       825.23495000           0.01395010
                       188.04696000           0.06844510
                        52.96450000           0.23271430
                        16.89757000           0.47019300
                         5.79963530           0.35852090
    S   3 1.00
                        15.53961600          -0.11077750
                         3.59993360          -0.14802630
                         1.01376180           1.13076700
    P   3 1.00
                        15.53961600           0.07087430
                         3.59993360           0.33975280
                         1.01376180           0.72715860
    S   1 1.00
                         0.27000580           1.00000000
    P   1 1.00
                         0.27000580           1.00000000
    D   1 1.00
                         0.80000000           1.00000000
    ****
    H   2
    S   3 1.00
                        18.73113700           0.03349460
                         2.82539370           0.23472695
                         0.64012170           0.81375733
    S   1 1.00
                         0.16127780           1.00000000
    P   1 1.00
                         1.10000000           1.00000000
    ****

   => Loading Basis Set <=

    Name: (6-31G(D_P) AUX)
    Role: JKFIT
    Keyword: DF_BASIS_SCF
    atoms 1, 3 entry O          line   221 file /home/dranasinghe/anaconda2/envs/rmgpy3_env/share/psi4/basis/cc-pvdz-jkfit.gbs 
    atoms 2, 4 entry H          line    51 file /home/dranasinghe/anaconda2/envs/rmgpy3_env/share/psi4/basis/cc-pvdz-jkfit.gbs 

  ==> Pre-Iterations <==

   -------------------------------------------------------
    Irrep   Nso     Nmo     Nalpha   Nbeta   Ndocc  Nsocc
   -------------------------------------------------------
     A1        15      15       0       0       0       0
     A2         5       5       0       0       0       0
     B1         5       5       0       0       0       0
     B2        15      15       0       0       0       0
   -------------------------------------------------------
    Total      40      40       9       9       9       0
   -------------------------------------------------------

  ==> Integral Setup <==

  DFHelper Memory: AOs need 0.003 GiB; user supplied 0.715 GiB. Using in-core AOs.

  ==> MemDFJK: Density-Fitted J/K Matrices <==

    J tasked:                   Yes
    K tasked:                   Yes
    wK tasked:                   No
    OpenMP threads:               1
    Memory [MiB]:               732
    Algorithm:                 Core
    Schwarz Cutoff:           1E-12
    Mask sparsity (%):       0.0000
    Fitting Condition:        1E-10

   => Auxiliary Basis Set <=

  -AO BASIS SET INFORMATION:
    Name                   = (6-31G(D_P) AUX)
    Blend                  = CC-PVDZ-JKFIT
    Total number of shells = 66
    Number of primitives   = 66
    Number of AO           = 212
    Number of SO           = 212
    Maximum AM             = 3
    Spherical Harmonics    = FALSE

  -Contraction Scheme:
    Atom   Type   All Primitives // Shells:
   ------ ------ --------------------------
       1     O     10s 7p 5d 2f // 10s 7p 5d 2f 
       2     H     4s 3p 2d // 4s 3p 2d 
       3     O     10s 7p 5d 2f // 10s 7p 5d 2f 
       4     H     4s 3p 2d // 4s 3p 2d 

  ==> AO Basis Functions <==

    [ (6-31G(D_P) AUX) ]
    cartesian
    ****
    O   1
    S   1 1.00
                      1517.86675060           1.00000000
    S   1 1.00
                       489.67952008           1.00000000
    S   1 1.00
                       176.72118665           1.00000000
    S   1 1.00
                        63.79223314           1.00000000
    S   1 1.00
                        25.36649913           1.00000000
    S   1 1.00
                         9.91354912           1.00000000
    S   1 1.00
                         4.46453066           1.00000000
    S   1 1.00
                         1.80177437           1.00000000
    S   1 1.00
                         0.80789711           1.00000000
    S   1 1.00
                         0.33864327           1.00000000
    P   1 1.00
                       120.16030921           1.00000000
    P   1 1.00
                        34.40962247           1.00000000
    P   1 1.00
                        12.58114861           1.00000000
    P   1 1.00
                         5.06638242           1.00000000
    P   1 1.00
                         2.03469271           1.00000000
    P   1 1.00
                         0.86092967           1.00000000
    P   1 1.00
                         0.36681357           1.00000000
    D   1 1.00
                        19.04306281           1.00000000
    D   1 1.00
                         5.80603811           1.00000000
    D   1 1.00
                         2.18918416           1.00000000
    D   1 1.00
                         0.87794614           1.00000000
    D   1 1.00
                         0.35623647           1.00000000
    F   1 1.00
                         2.49391479           1.00000000
    F   1 1.00
                         0.82491479           1.00000000
    ****
    H   2
    S   1 1.00
                         9.53024933           1.00000000
    S   1 1.00
                         1.91745062           1.00000000
    S   1 1.00
                         0.68424049           1.00000000
    S   1 1.00
                         0.28413256           1.00000000
    P   1 1.00
                         2.91332320           1.00000000
    P   1 1.00
                         1.26212054           1.00000000
    P   1 1.00
                         0.50199776           1.00000000
    D   1 1.00
                         2.31353291           1.00000000
    D   1 1.00
                         0.71290724           1.00000000
    ****

  Minimum eigenvalue in the overlap matrix is 9.2866465976E-03.
  Using Symmetric Orthogonalization.

  SCF Guess: Superposition of Atomic Densities via on-the-fly atomic UHF.

DIIS coefficients:  1.000 
DIIS coefficients:  0.329  0.671 
DIIS coefficients:  -0.027  -0.001  1.028 
DIIS coefficients:  -0.002  -0.000  -0.045  1.047 
DIIS coefficients:  0.000  0.000  0.005  -0.173  1.168 
DIIS coefficients:  0.000  -0.000  -0.001  0.017  -0.113  1.097 
DIIS coefficients:  1.000 
DIIS coefficients:  -0.068  1.068 
DIIS coefficients:  -0.000  -0.002  1.002 
DIIS coefficients:  -0.000  -0.000  -0.001  1.001 
  ==> Iterations <==

                           Total Energy        Delta E     RMS |[F,P]|

   @DF-RHF iter SAD:  -150.09039297963420   -1.50090e+02   0.00000e+00 
DIIS coefficients:  1.000 
    Occupation by irrep:
             A1    A2    B1    B2 
    DOCC [     4,    1,    1,    3 ]

   @DF-RHF iter   1:  -150.71183811940705   -6.21445e-01   1.47100e-02 DIIS
DIIS coefficients:  0.191  0.809 
    Occupation by irrep:
             A1    A2    B1    B2 
    DOCC [     4,    1,    1,    3 ]

   @DF-RHF iter   2:  -150.75821686579437   -4.63787e-02   4.93235e-03 DIIS
DIIS coefficients:  -0.032  0.045  0.987 
    Occupation by irrep:
             A1    A2    B1    B2 
    DOCC [     4,    1,    1,    3 ]

   @DF-RHF iter   3:  -150.76254677949953   -4.32991e-03   1.19811e-03 DIIS
DIIS coefficients:  -0.012  -0.072  0.009  1.076 
    Occupation by irrep:
             A1    A2    B1    B2 
    DOCC [     4,    1,    1,    3 ]

   @DF-RHF iter   4:  -150.76299255028857   -4.45771e-04   3.48215e-04 DIIS
DIIS coefficients:  0.005  0.020  -0.036  -0.344  1.354 
    Occupation by irrep:
             A1    A2    B1    B2 
    DOCC [     4,    1,    1,    3 ]

   @DF-RHF iter   5:  -150.76304042819226   -4.78779e-05   6.84744e-05 DIIS
DIIS coefficients:  -0.002  -0.007  0.018  0.124  -0.701  1.568 
    Occupation by irrep:
             A1    A2    B1    B2 
    DOCC [     4,    1,    1,    3 ]

   @DF-RHF iter   6:  -150.76304395588329   -3.52769e-06   1.84076e-05 DIIS
DIIS coefficients:  0.001  0.002  -0.005  -0.034  0.213  -0.645  1.468 
    Occupation by irrep:
             A1    A2    B1    B2 
    DOCC [     4,    1,    1,    3 ]

   @DF-RHF iter   7:  -150.76304427963669   -3.23753e-07   4.04155e-06 DIIS
DIIS coefficients:  -0.000  -0.000  0.001  0.007  -0.047  0.150  -0.429  1.318 
    Occupation by irrep:
             A1    A2    B1    B2 
    DOCC [     4,    1,    1,    3 ]

   @DF-RHF iter   8:  -150.76304429275791   -1.31212e-08   5.39521e-07 DIIS
DIIS coefficients:  -0.000  -0.000  0.000  0.001  -0.004  0.012  -0.022  -0.058  1.071 
    Occupation by irrep:
             A1    A2    B1    B2 
    DOCC [     4,    1,    1,    3 ]

   @DF-RHF iter   9:  -150.76304429291497   -1.57058e-10   7.58894e-08 DIIS
DIIS coefficients:  0.000  0.000  -0.000  -0.000  0.002  -0.007  0.018  -0.045  -0.134  1.166 
    Occupation by irrep:
             A1    A2    B1    B2 
    DOCC [     4,    1,    1,    3 ]

   @DF-RHF iter  10:  -150.76304429291758   -2.61480e-12   1.78780e-08 DIIS
DIIS coefficients:  1.229  0.000  -0.000  -0.000  0.000  -0.000  -0.000  0.005  0.000  -0.234 
    Occupation by irrep:
             A1    A2    B1    B2 
    DOCC [     4,    1,    1,    3 ]

   @DF-RHF iter  11:  -150.76304429291787   -2.84217e-13   3.56593e-09 DIIS
  Energy and wave function converged.


  ==> Post-Iterations <==

    Orbital Energies [Eh]
    ---------------------

    Doubly Occupied:                                                      

       1A1   -20.629923     1B2   -20.629587     2A1    -1.496508  
       2B2    -1.209932     3A1    -0.781973     1B1    -0.634186  
       4A1    -0.606244     3B2    -0.566354     1A2    -0.443660  

    Virtual:                                                              

       5A1     0.185607     4B2     0.233318     5B2     0.371368  
       6A1     0.986866     6B2     1.032237     7A1     1.047609  
       2B1     1.122685     7B2     1.180245     8A1     1.206814  
       2A2     1.224759     9A1     1.284896     8B2     1.349381  
       9B2     1.697568     3B1     1.706780    10A1     1.723772  
       4B1     1.830968     3A2     1.925552    10B2     2.228569  
      11A1     2.351425    12A1     2.610956     4A2     2.744915  
      11B2     2.855075     5B1     2.891604    13A1     2.910748  
       5A2     3.060017    12B2     3.251870    13B2     3.373590  
      14A1     3.737721    15A1     3.870911    14B2     3.894560  
      15B2     4.269294  

    Final Occupation by Irrep:
             A1    A2    B1    B2 
    DOCC [     4,    1,    1,    3 ]

  @DF-RHF Final Energy:  -150.76304429291787

   => Energetics <=

    Nuclear Repulsion Energy =             37.8881143071810769
    One-Electron Energy =                -283.3055832270781593
    Two-Electron Energy =                  94.6544246269792211
    Total Energy =                       -150.7630442929178685

Computation Completed


Properties will be evaluated at   0.000000,   0.000000,   0.000000 [a0]

Properties computed using the SCF density matrix

  Nuclear Dipole Moment: [e a0]
     X:    -0.0000      Y:     0.0000      Z:    -1.5936

  Electronic Dipole Moment: [e a0]
     X:     0.0000      Y:     0.0000      Z:     0.2158

  Dipole Moment: [e a0]
     X:    -0.0000      Y:     0.0000      Z:    -1.3778     Total:     1.3778

  Dipole Moment: [D]
     X:    -0.0000      Y:     0.0000      Z:    -3.5021     Total:     3.5021


*** tstop() called on X1-ubuntu at Sun Sep  6 16:00:53 2020
Module time:
	user time   =       1.01 seconds =       0.02 minutes
	system time =       0.01 seconds =       0.00 minutes
	total time  =          1 seconds =       0.02 minutes
Total time:
	user time   =       2.32 seconds =       0.04 minutes
	system time =       0.03 seconds =       0.00 minutes
	total time  =          2 seconds =       0.03 minutes

*** tstart() called on X1-ubuntu
*** at Sun Sep  6 16:00:53 2020


         ------------------------------------------------------------
                                   SCF GRAD                          
                          Rob Parrish, Justin Turney,                
                       Andy Simmonett, and Alex Sokolov              
         ------------------------------------------------------------

  ==> Geometry <==

    Molecular point group: c2v
    Full point group: C2v

    Geometry (in Angstrom), charge = 0, multiplicity = 1:

       Center              X                  Y                   Z               Mass       
    ------------   -----------------  -----------------  -----------------  -----------------
         O           -0.000000000000     0.698890000000     0.053572739974    15.994914619570
         H           -0.000000000000     0.979423000000    -0.850238260026     1.007825032230
         O            0.000000000000    -0.698890000000     0.053572739974    15.994914619570
         H            0.000000000000    -0.979423000000    -0.850238260026     1.007825032230

           O
              BASIS           6-31G(D_P)           ec2d227169b1af6c6a69bc8715bab79dbd7bb644
              DF_BASIS_SCF    (6-31G(D_P) AUX)     b57462463db1b385e39e4428a46364991bcd7673
           H
              BASIS           6-31G(D_P)           902186d0f3205710946c2c15d2c68458d6f6cc2a
              DF_BASIS_SCF    (6-31G(D_P) AUX)     1164366b470d7a66fddaf681ef9d1c28421b3e4a
           O
              BASIS           6-31G(D_P)           ec2d227169b1af6c6a69bc8715bab79dbd7bb644
              DF_BASIS_SCF    (6-31G(D_P) AUX)     b57462463db1b385e39e4428a46364991bcd7673
           H
              BASIS           6-31G(D_P)           902186d0f3205710946c2c15d2c68458d6f6cc2a
              DF_BASIS_SCF    (6-31G(D_P) AUX)     1164366b470d7a66fddaf681ef9d1c28421b3e4a

  Nuclear repulsion =   37.888114307181077

  ==> Basis Set <==

  -AO BASIS SET INFORMATION:
    Name                   = 6-31G(D_P)
    Blend                  = 6-31G(D_P)
    Total number of shells = 18
    Number of primitives   = 40
    Number of AO           = 40
    Number of SO           = 40
    Maximum AM             = 2
    Spherical Harmonics    = FALSE

  -Contraction Scheme:
    Atom   Type   All Primitives // Shells:
   ------ ------ --------------------------
       1     O     10s 4p 1d // 3s 2p 1d 
       2     H     4s 1p // 2s 1p 
       3     O     10s 4p 1d // 3s 2p 1d 
       4     H     4s 1p // 2s 1p 

  ==> AO Basis Functions <==

    [ 6-31G(D_P) ]
    cartesian
    ****
    O   1
    S   6 1.00
                      5484.67170000           0.00183110
                       825.23495000           0.01395010
                       188.04696000           0.06844510
                        52.96450000           0.23271430
                        16.89757000           0.47019300
                         5.79963530           0.35852090
    S   3 1.00
                        15.53961600          -0.11077750
                         3.59993360          -0.14802630
                         1.01376180           1.13076700
    P   3 1.00
                        15.53961600           0.07087430
                         3.59993360           0.33975280
                         1.01376180           0.72715860
    S   1 1.00
                         0.27000580           1.00000000
    P   1 1.00
                         0.27000580           1.00000000
    D   1 1.00
                         0.80000000           1.00000000
    ****
    H   2
    S   3 1.00
                        18.73113700           0.03349460
                         2.82539370           0.23472695
                         0.64012170           0.81375733
    S   1 1.00
                         0.16127780           1.00000000
    P   1 1.00
                         1.10000000           1.00000000
    ****

  ==> DFJKGrad: Density-Fitted SCF Gradients <==

    Gradient:                    1
    J tasked:                  Yes
    K tasked:                  Yes
    wK tasked:                  No
    OpenMP threads:              1
    Integrals threads:           1
    Memory [MiB]:              732
    Schwarz Cutoff:          0E+00
    Fitting Condition:       1E-10

   => Auxiliary Basis Set <=

  -AO BASIS SET INFORMATION:
    Name                   = (6-31G(D_P) AUX)
    Blend                  = CC-PVDZ-JKFIT
    Total number of shells = 66
    Number of primitives   = 66
    Number of AO           = 212
    Number of SO           = 212
    Maximum AM             = 3
    Spherical Harmonics    = FALSE

  -Contraction Scheme:
    Atom   Type   All Primitives // Shells:
   ------ ------ --------------------------
       1     O     10s 7p 5d 2f // 10s 7p 5d 2f 
       2     H     4s 3p 2d // 4s 3p 2d 
       3     O     10s 7p 5d 2f // 10s 7p 5d 2f 
       4     H     4s 3p 2d // 4s 3p 2d 

  ==> AO Basis Functions <==

    [ (6-31G(D_P) AUX) ]
    cartesian
    ****
    O   1
    S   1 1.00
                      1517.86675060           1.00000000
    S   1 1.00
                       489.67952008           1.00000000
    S   1 1.00
                       176.72118665           1.00000000
    S   1 1.00
                        63.79223314           1.00000000
    S   1 1.00
                        25.36649913           1.00000000
    S   1 1.00
                         9.91354912           1.00000000
    S   1 1.00
                         4.46453066           1.00000000
    S   1 1.00
                         1.80177437           1.00000000
    S   1 1.00
                         0.80789711           1.00000000
    S   1 1.00
                         0.33864327           1.00000000
    P   1 1.00
                       120.16030921           1.00000000
    P   1 1.00
                        34.40962247           1.00000000
    P   1 1.00
                        12.58114861           1.00000000
    P   1 1.00
                         5.06638242           1.00000000
    P   1 1.00
                         2.03469271           1.00000000
    P   1 1.00
                         0.86092967           1.00000000
    P   1 1.00
                         0.36681357           1.00000000
    D   1 1.00
                        19.04306281           1.00000000
    D   1 1.00
                         5.80603811           1.00000000
    D   1 1.00
                         2.18918416           1.00000000
    D   1 1.00
                         0.87794614           1.00000000
    D   1 1.00
                         0.35623647           1.00000000
    F   1 1.00
                         2.49391479           1.00000000
    F   1 1.00
                         0.82491479           1.00000000
    ****
    H   2
    S   1 1.00
                         9.53024933           1.00000000
    S   1 1.00
                         1.91745062           1.00000000
    S   1 1.00
                         0.68424049           1.00000000
    S   1 1.00
                         0.28413256           1.00000000
    P   1 1.00
                         2.91332320           1.00000000
    P   1 1.00
                         1.26212054           1.00000000
    P   1 1.00
                         0.50199776           1.00000000
    D   1 1.00
                         2.31353291           1.00000000
    D   1 1.00
                         0.71290724           1.00000000
    ****


  -Nuclear Gradient:
     Atom            X                  Y                   Z
    ------   -----------------  -----------------  -----------------
       1        0.000000000000    -8.974155994504    -2.681334706271
       2        0.000000000000    -1.357325321237     2.681334706271
       3       -0.000000000000     8.974155994504    -2.681334706271
       4       -0.000000000000     1.357325321237     2.681334706271


  -Core Hamiltonian Gradient:
     Atom            X                  Y                   Z
    ------   -----------------  -----------------  -----------------
       1       -0.000000000000    15.941900623223     6.679985316640
       2       -0.000000000000     3.099428640851    -6.679985316640
       3        0.000000000000   -15.941900623223     6.679985316640
       4        0.000000000000    -3.099428640851    -6.679985316640


  -Overlap Gradient:
     Atom            X                  Y                   Z
    ------   -----------------  -----------------  -----------------
       1        0.000000000000    -0.077738649988    -0.342850132404
       2        0.000000000000    -0.117348348935     0.342850132404
       3       -0.000000000000     0.077738649988    -0.342850132404
       4       -0.000000000000     0.117348348935     0.342850132404


  -Coulomb Gradient:
     Atom            X                  Y                   Z
    ------   -----------------  -----------------  -----------------
       1        0.000000000000    -6.902144035260    -4.116477858444
       2       -0.000000000000    -1.792863449967     4.116477858412
       3        0.000000000000     6.902144036179    -4.116477857787
       4       -0.000000000000     1.792863449047     4.116477857819


  -Exchange Gradient:
     Atom            X                  Y                   Z
    ------   -----------------  -----------------  -----------------
       1       -0.000000000000     0.008260280081     0.461827971912
       2        0.000000000000     0.169025287280    -0.461827971920
       3       -0.000000000000    -0.008260280182     0.461827971857
       4        0.000000000000    -0.169025287179    -0.461827971850


  -Total Gradient:
     Atom            X                  Y                   Z
    ------   -----------------  -----------------  -----------------
       1        0.000000000000    -0.003877776858     0.001150591735
       2       -0.000000000000     0.000916808402    -0.001150591735
       3       -0.000000000000     0.003877776858     0.001150591735
       4        0.000000000000    -0.000916808402    -0.001150591735


*** tstop() called on X1-ubuntu at Sun Sep  6 16:00:53 2020
Module time:
	user time   =       0.25 seconds =       0.00 minutes
	system time =       0.01 seconds =       0.00 minutes
	total time  =          0 seconds =       0.00 minutes
Total time:
	user time   =       2.57 seconds =       0.04 minutes
	system time =       0.04 seconds =       0.00 minutes
	total time  =          2 seconds =       0.03 minutes

  Based on options and gradient (rms=1.76E-03), recommend projecting translations and projecting rotations.
hessian() will perform analytic frequency computation.

*** tstart() called on X1-ubuntu
*** at Sun Sep  6 16:00:53 2020

   => Loading Basis Set <=

    Name: 6-31G(D_P)
    Role: ORBITAL
    Keyword: BASIS
    atoms 1, 3 entry O          line   149 file /home/dranasinghe/anaconda2/envs/rmgpy3_env/share/psi4/basis/6-31g_d_p_.gbs 
    atoms 2, 4 entry H          line    44 file /home/dranasinghe/anaconda2/envs/rmgpy3_env/share/psi4/basis/6-31g_d_p_.gbs 


         ---------------------------------------------------------
                                   SCF
               by Justin Turney, Rob Parrish, Andy Simmonett
                          and Daniel G. A. Smith
                              RHF Reference
                        1 Threads,    976 MiB Core
         ---------------------------------------------------------

  ==> Geometry <==

    Molecular point group: c2v
    Full point group: C2v

    Geometry (in Angstrom), charge = 0, multiplicity = 1:

       Center              X                  Y                   Z               Mass       
    ------------   -----------------  -----------------  -----------------  -----------------
         O           -0.000000000000     0.698890000000     0.053572739974    15.994914619570
         H           -0.000000000000     0.979423000000    -0.850238260026     1.007825032230
         O            0.000000000000    -0.698890000000     0.053572739974    15.994914619570
         H            0.000000000000    -0.979423000000    -0.850238260026     1.007825032230

           O
              BASIS           6-31G(D_P)           ec2d227169b1af6c6a69bc8715bab79dbd7bb644
              DF_BASIS_SCF    (6-31G(D_P) AUX)     b57462463db1b385e39e4428a46364991bcd7673
           H
              BASIS           6-31G(D_P)           902186d0f3205710946c2c15d2c68458d6f6cc2a
              DF_BASIS_SCF    (6-31G(D_P) AUX)     1164366b470d7a66fddaf681ef9d1c28421b3e4a
           O
              BASIS           6-31G(D_P)           ec2d227169b1af6c6a69bc8715bab79dbd7bb644
              DF_BASIS_SCF    (6-31G(D_P) AUX)     b57462463db1b385e39e4428a46364991bcd7673
           H
              BASIS           6-31G(D_P)           902186d0f3205710946c2c15d2c68458d6f6cc2a
              DF_BASIS_SCF    (6-31G(D_P) AUX)     1164366b470d7a66fddaf681ef9d1c28421b3e4a

  Running in c2v symmetry.

  Rotational constants: A =     10.88336  B =      0.96006  C =      0.88224 [cm^-1]
  Rotational constants: A = 326274.99817  B =  28781.93695  C =  26448.79031 [MHz]
  Nuclear repulsion =   37.888114307181077

  Charge       = 0
  Multiplicity = 1
  Electrons    = 18
  Nalpha       = 9
  Nbeta        = 9

  ==> Algorithm <==

  SCF Algorithm Type is DF.
  DIIS enabled.
  MOM disabled.
  Fractional occupation disabled.
  Guess Type is SAD.
  Energy threshold   = 1.00e-08
  Density threshold  = 1.00e-08
  Integral threshold = 0.00e+00

  ==> Primary Basis <==

  -AO BASIS SET INFORMATION:
    Name                   = 6-31G(D_P)
    Blend                  = 6-31G(D_P)
    Total number of shells = 18
    Number of primitives   = 40
    Number of AO           = 40
    Number of SO           = 40
    Maximum AM             = 2
    Spherical Harmonics    = FALSE

  -Contraction Scheme:
    Atom   Type   All Primitives // Shells:
   ------ ------ --------------------------
       1     O     10s 4p 1d // 3s 2p 1d 
       2     H     4s 1p // 2s 1p 
       3     O     10s 4p 1d // 3s 2p 1d 
       4     H     4s 1p // 2s 1p 

  ==> AO Basis Functions <==

    [ 6-31G(D_P) ]
    cartesian
    ****
    O   1
    S   6 1.00
                      5484.67170000           0.00183110
                       825.23495000           0.01395010
                       188.04696000           0.06844510
                        52.96450000           0.23271430
                        16.89757000           0.47019300
                         5.79963530           0.35852090
    S   3 1.00
                        15.53961600          -0.11077750
                         3.59993360          -0.14802630
                         1.01376180           1.13076700
    P   3 1.00
                        15.53961600           0.07087430
                         3.59993360           0.33975280
                         1.01376180           0.72715860
    S   1 1.00
                         0.27000580           1.00000000
    P   1 1.00
                         0.27000580           1.00000000
    D   1 1.00
                         0.80000000           1.00000000
    ****
    H   2
    S   3 1.00
                        18.73113700           0.03349460
                         2.82539370           0.23472695
                         0.64012170           0.81375733
    S   1 1.00
                         0.16127780           1.00000000
    P   1 1.00
                         1.10000000           1.00000000
    ****

   => Loading Basis Set <=

    Name: (6-31G(D_P) AUX)
    Role: JKFIT
    Keyword: DF_BASIS_SCF
    atoms 1, 3 entry O          line   221 file /home/dranasinghe/anaconda2/envs/rmgpy3_env/share/psi4/basis/cc-pvdz-jkfit.gbs 
    atoms 2, 4 entry H          line    51 file /home/dranasinghe/anaconda2/envs/rmgpy3_env/share/psi4/basis/cc-pvdz-jkfit.gbs 

  ==> Pre-Iterations <==

   -------------------------------------------------------
    Irrep   Nso     Nmo     Nalpha   Nbeta   Ndocc  Nsocc
   -------------------------------------------------------
     A1        15      15       0       0       0       0
     A2         5       5       0       0       0       0
     B1         5       5       0       0       0       0
     B2        15      15       0       0       0       0
   -------------------------------------------------------
    Total      40      40       9       9       9       0
   -------------------------------------------------------

  ==> Integral Setup <==

  DFHelper Memory: AOs need 0.003 GiB; user supplied 0.715 GiB. Using in-core AOs.

  ==> MemDFJK: Density-Fitted J/K Matrices <==

    J tasked:                   Yes
    K tasked:                   Yes
    wK tasked:                   No
    OpenMP threads:               1
    Memory [MiB]:               732
    Algorithm:                 Core
    Schwarz Cutoff:           1E-12
    Mask sparsity (%):       0.0000
    Fitting Condition:        1E-10

   => Auxiliary Basis Set <=

  -AO BASIS SET INFORMATION:
    Name                   = (6-31G(D_P) AUX)
    Blend                  = CC-PVDZ-JKFIT
    Total number of shells = 66
    Number of primitives   = 66
    Number of AO           = 212
    Number of SO           = 212
    Maximum AM             = 3
    Spherical Harmonics    = FALSE

  -Contraction Scheme:
    Atom   Type   All Primitives // Shells:
   ------ ------ --------------------------
       1     O     10s 7p 5d 2f // 10s 7p 5d 2f 
       2     H     4s 3p 2d // 4s 3p 2d 
       3     O     10s 7p 5d 2f // 10s 7p 5d 2f 
       4     H     4s 3p 2d // 4s 3p 2d 

  ==> AO Basis Functions <==

    [ (6-31G(D_P) AUX) ]
    cartesian
    ****
    O   1
    S   1 1.00
                      1517.86675060           1.00000000
    S   1 1.00
                       489.67952008           1.00000000
    S   1 1.00
                       176.72118665           1.00000000
    S   1 1.00
                        63.79223314           1.00000000
    S   1 1.00
                        25.36649913           1.00000000
    S   1 1.00
                         9.91354912           1.00000000
    S   1 1.00
                         4.46453066           1.00000000
    S   1 1.00
                         1.80177437           1.00000000
    S   1 1.00
                         0.80789711           1.00000000
    S   1 1.00
                         0.33864327           1.00000000
    P   1 1.00
                       120.16030921           1.00000000
    P   1 1.00
                        34.40962247           1.00000000
    P   1 1.00
                        12.58114861           1.00000000
    P   1 1.00
                         5.06638242           1.00000000
    P   1 1.00
                         2.03469271           1.00000000
    P   1 1.00
                         0.86092967           1.00000000
    P   1 1.00
                         0.36681357           1.00000000
    D   1 1.00
                        19.04306281           1.00000000
    D   1 1.00
                         5.80603811           1.00000000
    D   1 1.00
                         2.18918416           1.00000000
    D   1 1.00
                         0.87794614           1.00000000
    D   1 1.00
                         0.35623647           1.00000000
    F   1 1.00
                         2.49391479           1.00000000
    F   1 1.00
                         0.82491479           1.00000000
    ****
    H   2
    S   1 1.00
                         9.53024933           1.00000000
    S   1 1.00
                         1.91745062           1.00000000
    S   1 1.00
                         0.68424049           1.00000000
    S   1 1.00
                         0.28413256           1.00000000
    P   1 1.00
                         2.91332320           1.00000000
    P   1 1.00
                         1.26212054           1.00000000
    P   1 1.00
                         0.50199776           1.00000000
    D   1 1.00
                         2.31353291           1.00000000
    D   1 1.00
                         0.71290724           1.00000000
    ****

  Minimum eigenvalue in the overlap matrix is 9.2866465976E-03.
  Using Symmetric Orthogonalization.

  SCF Guess: Superposition of Atomic Densities via on-the-fly atomic UHF.

DIIS coefficients:  1.000 
DIIS coefficients:  0.329  0.671 
DIIS coefficients:  -0.027  -0.001  1.028 
DIIS coefficients:  -0.002  -0.000  -0.045  1.047 
DIIS coefficients:  0.000  0.000  0.005  -0.173  1.168 
DIIS coefficients:  0.000  -0.000  -0.001  0.017  -0.113  1.097 
DIIS coefficients:  1.000 
DIIS coefficients:  -0.068  1.068 
DIIS coefficients:  -0.000  -0.002  1.002 
DIIS coefficients:  -0.000  -0.000  -0.001  1.001 
  ==> Iterations <==

                           Total Energy        Delta E     RMS |[F,P]|

   @DF-RHF iter SAD:  -150.09039297963420   -1.50090e+02   0.00000e+00 
DIIS coefficients:  1.000 
    Occupation by irrep:
             A1    A2    B1    B2 
    DOCC [     4,    1,    1,    3 ]

   @DF-RHF iter   1:  -150.71183811940705   -6.21445e-01   1.47100e-02 DIIS
DIIS coefficients:  0.191  0.809 
    Occupation by irrep:
             A1    A2    B1    B2 
    DOCC [     4,    1,    1,    3 ]

   @DF-RHF iter   2:  -150.75821686579437   -4.63787e-02   4.93235e-03 DIIS
DIIS coefficients:  -0.032  0.045  0.987 
    Occupation by irrep:
             A1    A2    B1    B2 
    DOCC [     4,    1,    1,    3 ]

   @DF-RHF iter   3:  -150.76254677949953   -4.32991e-03   1.19811e-03 DIIS
DIIS coefficients:  -0.012  -0.072  0.009  1.076 
    Occupation by irrep:
             A1    A2    B1    B2 
    DOCC [     4,    1,    1,    3 ]

   @DF-RHF iter   4:  -150.76299255028857   -4.45771e-04   3.48215e-04 DIIS
DIIS coefficients:  0.005  0.020  -0.036  -0.344  1.354 
    Occupation by irrep:
             A1    A2    B1    B2 
    DOCC [     4,    1,    1,    3 ]

   @DF-RHF iter   5:  -150.76304042819226   -4.78779e-05   6.84744e-05 DIIS
DIIS coefficients:  -0.002  -0.007  0.018  0.124  -0.701  1.568 
    Occupation by irrep:
             A1    A2    B1    B2 
    DOCC [     4,    1,    1,    3 ]

   @DF-RHF iter   6:  -150.76304395588329   -3.52769e-06   1.84076e-05 DIIS
DIIS coefficients:  0.001  0.002  -0.005  -0.034  0.213  -0.645  1.468 
    Occupation by irrep:
             A1    A2    B1    B2 
    DOCC [     4,    1,    1,    3 ]

   @DF-RHF iter   7:  -150.76304427963669   -3.23753e-07   4.04155e-06 DIIS
DIIS coefficients:  -0.000  -0.000  0.001  0.007  -0.047  0.150  -0.429  1.318 
    Occupation by irrep:
             A1    A2    B1    B2 
    DOCC [     4,    1,    1,    3 ]

   @DF-RHF iter   8:  -150.76304429275791   -1.31212e-08   5.39521e-07 DIIS
DIIS coefficients:  -0.000  -0.000  0.000  0.001  -0.004  0.012  -0.022  -0.058  1.071 
    Occupation by irrep:
             A1    A2    B1    B2 
    DOCC [     4,    1,    1,    3 ]

   @DF-RHF iter   9:  -150.76304429291497   -1.57058e-10   7.58894e-08 DIIS
DIIS coefficients:  0.000  0.000  -0.000  -0.000  0.002  -0.007  0.018  -0.045  -0.134  1.166 
    Occupation by irrep:
             A1    A2    B1    B2 
    DOCC [     4,    1,    1,    3 ]

   @DF-RHF iter  10:  -150.76304429291758   -2.61480e-12   1.78780e-08 DIIS
DIIS coefficients:  1.229  0.000  -0.000  -0.000  0.000  -0.000  -0.000  0.005  0.000  -0.234 
    Occupation by irrep:
             A1    A2    B1    B2 
    DOCC [     4,    1,    1,    3 ]

   @DF-RHF iter  11:  -150.76304429291787   -2.84217e-13   3.56593e-09 DIIS
  Energy and wave function converged.


  ==> Post-Iterations <==

    Orbital Energies [Eh]
    ---------------------

    Doubly Occupied:                                                      

       1A1   -20.629923     1B2   -20.629587     2A1    -1.496508  
       2B2    -1.209932     3A1    -0.781973     1B1    -0.634186  
       4A1    -0.606244     3B2    -0.566354     1A2    -0.443660  

    Virtual:                                                              

       5A1     0.185607     4B2     0.233318     5B2     0.371368  
       6A1     0.986866     6B2     1.032237     7A1     1.047609  
       2B1     1.122685     7B2     1.180245     8A1     1.206814  
       2A2     1.224759     9A1     1.284896     8B2     1.349381  
       9B2     1.697568     3B1     1.706780    10A1     1.723772  
       4B1     1.830968     3A2     1.925552    10B2     2.228569  
      11A1     2.351425    12A1     2.610956     4A2     2.744915  
      11B2     2.855075     5B1     2.891604    13A1     2.910748  
       5A2     3.060017    12B2     3.251870    13B2     3.373590  
      14A1     3.737721    15A1     3.870911    14B2     3.894560  
      15B2     4.269294  

    Final Occupation by Irrep:
             A1    A2    B1    B2 
    DOCC [     4,    1,    1,    3 ]

  @DF-RHF Final Energy:  -150.76304429291787

   => Energetics <=

    Nuclear Repulsion Energy =             37.8881143071810769
    One-Electron Energy =                -283.3055832270781593
    Two-Electron Energy =                  94.6544246269792211
    Total Energy =                       -150.7630442929178685

Computation Completed


Properties will be evaluated at   0.000000,   0.000000,   0.000000 [a0]

Properties computed using the SCF density matrix

  Nuclear Dipole Moment: [e a0]
     X:    -0.0000      Y:     0.0000      Z:    -1.5936

  Electronic Dipole Moment: [e a0]
     X:     0.0000      Y:     0.0000      Z:     0.2158

  Dipole Moment: [e a0]
     X:    -0.0000      Y:     0.0000      Z:    -1.3778     Total:     1.3778

  Dipole Moment: [D]
     X:    -0.0000      Y:     0.0000      Z:    -3.5021     Total:     3.5021


*** tstop() called on X1-ubuntu at Sun Sep  6 16:00:54 2020
Module time:
	user time   =       0.84 seconds =       0.01 minutes
	system time =       0.02 seconds =       0.00 minutes
	total time  =          1 seconds =       0.02 minutes
Total time:
	user time   =       3.42 seconds =       0.06 minutes
	system time =       0.06 seconds =       0.00 minutes
	total time  =          3 seconds =       0.05 minutes

*** tstart() called on X1-ubuntu
*** at Sun Sep  6 16:00:54 2020


         ------------------------------------------------------------
                                   SCF HESS                          
                          Rob Parrish, Justin Turney,                
                       Andy Simmonett, and Alex Sokolov              
         ------------------------------------------------------------

  ==> Geometry <==

    Molecular point group: c2v
    Full point group: C2v

    Geometry (in Angstrom), charge = 0, multiplicity = 1:

       Center              X                  Y                   Z               Mass       
    ------------   -----------------  -----------------  -----------------  -----------------
         O           -0.000000000000     0.698890000000     0.053572739974    15.994914619570
         H           -0.000000000000     0.979423000000    -0.850238260026     1.007825032230
         O            0.000000000000    -0.698890000000     0.053572739974    15.994914619570
         H            0.000000000000    -0.979423000000    -0.850238260026     1.007825032230

           O
              BASIS           6-31G(D_P)           ec2d227169b1af6c6a69bc8715bab79dbd7bb644
              DF_BASIS_SCF    (6-31G(D_P) AUX)     b57462463db1b385e39e4428a46364991bcd7673
           H
              BASIS           6-31G(D_P)           902186d0f3205710946c2c15d2c68458d6f6cc2a
              DF_BASIS_SCF    (6-31G(D_P) AUX)     1164366b470d7a66fddaf681ef9d1c28421b3e4a
           O
              BASIS           6-31G(D_P)           ec2d227169b1af6c6a69bc8715bab79dbd7bb644
              DF_BASIS_SCF    (6-31G(D_P) AUX)     b57462463db1b385e39e4428a46364991bcd7673
           H
              BASIS           6-31G(D_P)           902186d0f3205710946c2c15d2c68458d6f6cc2a
              DF_BASIS_SCF    (6-31G(D_P) AUX)     1164366b470d7a66fddaf681ef9d1c28421b3e4a

  Nuclear repulsion =   37.888114307181077

  ==> Basis Set <==

  -AO BASIS SET INFORMATION:
    Name                   = 6-31G(D_P)
    Blend                  = 6-31G(D_P)
    Total number of shells = 18
    Number of primitives   = 40
    Number of AO           = 40
    Number of SO           = 40
    Maximum AM             = 2
    Spherical Harmonics    = FALSE

  -Contraction Scheme:
    Atom   Type   All Primitives // Shells:
   ------ ------ --------------------------
       1     O     10s 4p 1d // 3s 2p 1d 
       2     H     4s 1p // 2s 1p 
       3     O     10s 4p 1d // 3s 2p 1d 
       4     H     4s 1p // 2s 1p 

  ==> AO Basis Functions <==

    [ 6-31G(D_P) ]
    cartesian
    ****
    O   1
    S   6 1.00
                      5484.67170000           0.00183110
                       825.23495000           0.01395010
                       188.04696000           0.06844510
                        52.96450000           0.23271430
                        16.89757000           0.47019300
                         5.79963530           0.35852090
    S   3 1.00
                        15.53961600          -0.11077750
                         3.59993360          -0.14802630
                         1.01376180           1.13076700
    P   3 1.00
                        15.53961600           0.07087430
                         3.59993360           0.33975280
                         1.01376180           0.72715860
    S   1 1.00
                         0.27000580           1.00000000
    P   1 1.00
                         0.27000580           1.00000000
    D   1 1.00
                         0.80000000           1.00000000
    ****
    H   2
    S   3 1.00
                        18.73113700           0.03349460
                         2.82539370           0.23472695
                         0.64012170           0.81375733
    S   1 1.00
                         0.16127780           1.00000000
    P   1 1.00
                         1.10000000           1.00000000
    ****

  ==> DFJKGrad: Density-Fitted SCF Gradients <==

    Gradient:                    2
    J tasked:                  Yes
    K tasked:                  Yes
    wK tasked:                  No
    OpenMP threads:              1
    Integrals threads:           1
    Memory [MiB]:              732
    Schwarz Cutoff:          0E+00
    Fitting Condition:       1E-10

   => Auxiliary Basis Set <=

  -AO BASIS SET INFORMATION:
    Name                   = (6-31G(D_P) AUX)
    Blend                  = CC-PVDZ-JKFIT
    Total number of shells = 66
    Number of primitives   = 66
    Number of AO           = 212
    Number of SO           = 212
    Maximum AM             = 3
    Spherical Harmonics    = FALSE

  -Contraction Scheme:
    Atom   Type   All Primitives // Shells:
   ------ ------ --------------------------
       1     O     10s 7p 5d 2f // 10s 7p 5d 2f 
       2     H     4s 3p 2d // 4s 3p 2d 
       3     O     10s 7p 5d 2f // 10s 7p 5d 2f 
       4     H     4s 3p 2d // 4s 3p 2d 

  ==> AO Basis Functions <==

    [ (6-31G(D_P) AUX) ]
    cartesian
    ****
    O   1
    S   1 1.00
                      1517.86675060           1.00000000
    S   1 1.00
                       489.67952008           1.00000000
    S   1 1.00
                       176.72118665           1.00000000
    S   1 1.00
                        63.79223314           1.00000000
    S   1 1.00
                        25.36649913           1.00000000
    S   1 1.00
                         9.91354912           1.00000000
    S   1 1.00
                         4.46453066           1.00000000
    S   1 1.00
                         1.80177437           1.00000000
    S   1 1.00
                         0.80789711           1.00000000
    S   1 1.00
                         0.33864327           1.00000000
    P   1 1.00
                       120.16030921           1.00000000
    P   1 1.00
                        34.40962247           1.00000000
    P   1 1.00
                        12.58114861           1.00000000
    P   1 1.00
                         5.06638242           1.00000000
    P   1 1.00
                         2.03469271           1.00000000
    P   1 1.00
                         0.86092967           1.00000000
    P   1 1.00
                         0.36681357           1.00000000
    D   1 1.00
                        19.04306281           1.00000000
    D   1 1.00
                         5.80603811           1.00000000
    D   1 1.00
                         2.18918416           1.00000000
    D   1 1.00
                         0.87794614           1.00000000
    D   1 1.00
                         0.35623647           1.00000000
    F   1 1.00
                         2.49391479           1.00000000
    F   1 1.00
                         0.82491479           1.00000000
    ****
    H   2
    S   1 1.00
                         9.53024933           1.00000000
    S   1 1.00
                         1.91745062           1.00000000
    S   1 1.00
                         0.68424049           1.00000000
    S   1 1.00
                         0.28413256           1.00000000
    P   1 1.00
                         2.91332320           1.00000000
    P   1 1.00
                         1.26212054           1.00000000
    P   1 1.00
                         0.50199776           1.00000000
    D   1 1.00
                         2.31353291           1.00000000
    D   1 1.00
                         0.71290724           1.00000000
    ****

  DFHelper Memory: AOs need 0.003 GiB; user supplied 0.858 GiB. Using in-core AOs.

  ==> MemDFJK: Density-Fitted J/K Matrices <==

    J tasked:                   Yes
    K tasked:                   Yes
    wK tasked:                   No
    OpenMP threads:               1
    Memory [MiB]:               878
    Algorithm:                 Core
    Schwarz Cutoff:           1E-12
    Mask sparsity (%):       0.0000
    Fitting Condition:        1E-10

   => Auxiliary Basis Set <=

  -AO BASIS SET INFORMATION:
    Name                   = (6-31G(D_P) AUX)
    Blend                  = CC-PVDZ-JKFIT
    Total number of shells = 66
    Number of primitives   = 66
    Number of AO           = 212
    Number of SO           = 212
    Maximum AM             = 3
    Spherical Harmonics    = FALSE

  -Contraction Scheme:
    Atom   Type   All Primitives // Shells:
   ------ ------ --------------------------
       1     O     10s 7p 5d 2f // 10s 7p 5d 2f 
       2     H     4s 3p 2d // 4s 3p 2d 
       3     O     10s 7p 5d 2f // 10s 7p 5d 2f 
       4     H     4s 3p 2d // 4s 3p 2d 

  ==> AO Basis Functions <==

    [ (6-31G(D_P) AUX) ]
    cartesian
    ****
    O   1
    S   1 1.00
                      1517.86675060           1.00000000
    S   1 1.00
                       489.67952008           1.00000000
    S   1 1.00
                       176.72118665           1.00000000
    S   1 1.00
                        63.79223314           1.00000000
    S   1 1.00
                        25.36649913           1.00000000
    S   1 1.00
                         9.91354912           1.00000000
    S   1 1.00
                         4.46453066           1.00000000
    S   1 1.00
                         1.80177437           1.00000000
    S   1 1.00
                         0.80789711           1.00000000
    S   1 1.00
                         0.33864327           1.00000000
    P   1 1.00
                       120.16030921           1.00000000
    P   1 1.00
                        34.40962247           1.00000000
    P   1 1.00
                        12.58114861           1.00000000
    P   1 1.00
                         5.06638242           1.00000000
    P   1 1.00
                         2.03469271           1.00000000
    P   1 1.00
                         0.86092967           1.00000000
    P   1 1.00
                         0.36681357           1.00000000
    D   1 1.00
                        19.04306281           1.00000000
    D   1 1.00
                         5.80603811           1.00000000
    D   1 1.00
                         2.18918416           1.00000000
    D   1 1.00
                         0.87794614           1.00000000
    D   1 1.00
                         0.35623647           1.00000000
    F   1 1.00
                         2.49391479           1.00000000
    F   1 1.00
                         0.82491479           1.00000000
    ****
    H   2
    S   1 1.00
                         9.53024933           1.00000000
    S   1 1.00
                         1.91745062           1.00000000
    S   1 1.00
                         0.68424049           1.00000000
    S   1 1.00
                         0.28413256           1.00000000
    P   1 1.00
                         2.91332320           1.00000000
    P   1 1.00
                         1.26212054           1.00000000
    P   1 1.00
                         0.50199776           1.00000000
    D   1 1.00
                         2.31353291           1.00000000
    D   1 1.00
                         0.71290724           1.00000000
    ****


         ------------------------------------------------------------
                                     CPHF                           
                                  Rob Parrish                       
[...]
 [-5.3923201478e-05  4.5136454679e-07  3.1674579620e-06]]

[[ 0.0000000000e+00 -1.3144682661e-04  3.7567365378e-05]
 [ 0.0000000000e+00  4.8003863031e-04 -5.5106918268e-04]
 [ 0.0000000000e+00 -1.0975477910e-04 -4.0448978619e-05]
 [ 0.0000000000e+00  4.8086224139e-04  5.6254897605e-04]]

[[-1.3441083892e-20  1.0975477910e-04 -4.0448978619e-05]
 [ 5.8888640475e-20 -4.8086224139e-04  5.6254897605e-04]
 [-1.6097593547e-20  1.3144682661e-04  3.7567365378e-05]
 [ 5.8787777208e-20 -4.8003863031e-04 -5.5106918268e-04]]

[[ 0.            0.0001166211 -0.0005610323]
 [ 0.           -0.0005065415  0.0020746802]
 [ 0.            0.0001347941  0.0005519238]
 [ 0.           -0.0004950485 -0.0020383936]]

[[ 1.6507514446e-20 -1.3479408477e-04  5.5192377516e-04]
 [-6.0625955591e-20  4.9504849589e-04 -2.0383935675e-03]
 [ 1.4281970479e-20 -1.1662113917e-04 -5.6103231043e-04]
 [-6.2033438857e-20  5.0654146894e-04  2.0746802223e-03]]
Gradients in B-matrix coordinates
 disp 0:   -0.0002828065   0.0002347684   0.0000700594
 disp 1:    0.0002519089  -0.0002505340  -0.0000728837
 disp 2:    0.0002297983  -0.0031004324  -0.0007419090
 disp 3:   -0.0002555266   0.0030473794   0.0007249572
 disp 4:    0.0000561587  -0.0007410014  -0.0006210638
 disp 5:   -0.0000867836   0.0007257766   0.0006196543

    Force Constants for irrep A1 in mass-weighted, symmetry-adapted cartesian coordinates.

[[ 0.0534715429 -0.0485313623 -0.0142942729]
 [-0.0485313623  0.6147811755  0.1466822115]
 [-0.0142942729  0.1466822115  0.1240718159]]

    Normal coordinates (non-mass-weighted) for irrep A1:

[[ 0.            0.            0.          ]
 [ 0.0147066722 -0.0044000567  0.1761371308]
 [-0.0413474472 -0.0115450488  0.0031639239]
 [ 0.            0.            0.          ]
 [-0.1869108522  0.6783233786  0.0325513307]
 [ 0.6562139915  0.1832283027 -0.0502137686]
 [ 0.            0.            0.          ]
 [-0.0147066722  0.0044000567 -0.1761371308]
 [-0.0413474472 -0.0115450488  0.0031639239]
 [ 0.            0.            0.          ]
 [ 0.1869108522 -0.6783233786 -0.0325513307]
 [ 0.6562139915  0.1832283027 -0.0502137686]]
Gradients in B-matrix coordinates
 disp 0:    0.0000807817

    Force Constants for irrep A2 in mass-weighted, symmetry-adapted cartesian coordinates.

[[-0.0161563449]]

    Normal coordinates (non-mass-weighted) for irrep A2:

[[ 0.0583230413]
 [ 0.          ]
 [ 0.          ]
 [-0.6649303452]
 [ 0.          ]
 [ 0.          ]
 [-0.0583230413]
 [ 0.          ]
 [ 0.          ]
 [ 0.6649303452]
 [ 0.          ]
 [ 0.          ]]
Gradients in B-matrix coordinates
 disp 0:   -0.0007306743   0.0007615677
 disp 1:    0.0007306743  -0.0007615677

    Force Constants for irrep B2 in mass-weighted, symmetry-adapted cartesian coordinates.

[[ 0.1461348635 -0.1523180564]
 [-0.1523180564  0.6010379527]]

    Normal coordinates (non-mass-weighted) for irrep B2:

[[ 0.            0.          ]
 [-0.0120004659 -0.0394868674]
 [ 0.0420085035 -0.0623488679]
 [ 0.            0.          ]
 [ 0.1904561024  0.6266852412]
 [-0.6554017662  0.1301617094]
 [ 0.            0.          ]
 [-0.0120004659 -0.0394868674]
 [-0.0420085035  0.0623488679]
 [ 0.            0.          ]
 [ 0.1904561024  0.6266852412]
 [ 0.6554017662 -0.1301617094]]

    Force constant matrix for all computed irreps in mass-weighted SALCS.

[[ 0.0534715429 -0.0485313623 -0.0142942729  0.            0.
   0.          ]
 [-0.0485313623  0.6147811755  0.1466822115  0.            0.
   0.          ]
 [-0.0142942729  0.1466822115  0.1240718159  0.            0.
   0.          ]
 [ 0.            0.            0.           -0.0161563449  0.
   0.          ]
 [ 0.            0.            0.            0.            0.1461348635
  -0.1523180564]
 [ 0.            0.            0.            0.           -0.1523180564
   0.6010379527]]

    Force constants in mass-weighted Cartesian coordinates.

[[-0.0008790334  0.            0.            0.002515608   0.
   0.            0.0008790334  0.            0.           -0.002515608
   0.            0.          ]
 [ 0.            0.0307169119 -0.0071957217  0.           -0.0230072355
   0.0419167545  0.           -0.0227546309 -0.0046198734  0.
  -0.0087129626  0.0051543071]
 [ 0.           -0.0071957217  0.0427002796  0.            0.0229866941
  -0.1473968436  0.            0.0046198734 -0.0062595724  0.
  -0.0127250094  0.0022240649]
 [ 0.002515608   0.            0.           -0.0071991391  0.
   0.           -0.002515608   0.            0.            0.0071991391
   0.            0.          ]
 [ 0.           -0.0230072355  0.0229866941  0.            0.1252194964
  -0.1443615488  0.           -0.0087129626  0.0127250094  0.
   0.0011476805  0.0020929809]
 [ 0.            0.0419167545 -0.1473968436  0.           -0.1443615488
   0.5711119873  0.           -0.0051543071  0.0022240649  0.
  -0.0020929809  0.007228481 ]
 [ 0.0008790334  0.            0.           -0.002515608   0.
   0.           -0.0008790334  0.            0.            0.002515608
   0.            0.          ]
 [ 0.           -0.0227546309  0.0046198734  0.           -0.0087129626
  -0.0051543071  0.            0.0307169119  0.0071957217  0.
  -0.0230072355 -0.0419167545]
 [ 0.           -0.0046198734 -0.0062595724  0.            0.0127250094
   0.0022240649  0.            0.0071957217  0.0427002796  0.
  -0.0229866941 -0.1473968436]
 [-0.002515608   0.            0.            0.0071991391  0.
   0.            0.002515608   0.            0.           -0.0071991391
   0.            0.          ]
 [ 0.           -0.0087129626 -0.0127250094  0.            0.0011476805
  -0.0020929809  0.           -0.0230072355 -0.0229866941  0.
   0.1252194964  0.1443615488]
 [ 0.            0.0051543071  0.0022240649  0.            0.0020929809
   0.007228481   0.           -0.0419167545 -0.1473968436  0.
   0.1443615488  0.5711119873]]

    Force constants in Cartesian coordinates.

[[-0.0140600639  0.            0.            0.0101001192  0.
   0.            0.0140600639  0.            0.           -0.0101001192
   0.            0.          ]
 [ 0.            0.4913143833 -0.115094954   0.           -0.0923736216
   0.1682949881  0.           -0.3639583792 -0.0738944811  0.
  -0.0349823825  0.020694447 ]
 [ 0.           -0.115094954   0.6829873267  0.            0.0922911485
  -0.59179558    0.            0.0738944811 -0.1001213256  0.
  -0.0510906756  0.008929579 ]
 [ 0.0101001192  0.            0.           -0.0072554726  0.
   0.           -0.0101001192  0.            0.            0.0072554726
   0.            0.          ]
 [ 0.           -0.0923736216  0.0922911485  0.            0.126199343
  -0.1454911825  0.           -0.0349823825  0.0510906756  0.
   0.0011566611  0.0021093585]
 [ 0.            0.1682949881 -0.59179558    0.           -0.1454911825
   0.575580957   0.           -0.020694447   0.008929579   0.
  -0.0021093585  0.0072850441]
 [ 0.0140600639  0.            0.           -0.0101001192  0.
   0.           -0.0140600639  0.            0.            0.0101001192
   0.            0.          ]
 [ 0.           -0.3639583792  0.0738944811  0.           -0.0349823825
  -0.020694447   0.            0.4913143833  0.115094954   0.
  -0.0923736216 -0.1682949881]
 [ 0.           -0.0738944811 -0.1001213256  0.            0.0510906756
   0.008929579   0.            0.115094954   0.6829873267  0.
  -0.0922911485 -0.59179558  ]
 [-0.0101001192  0.            0.            0.0072554726  0.
   0.            0.0101001192  0.            0.           -0.0072554726
   0.            0.          ]
 [ 0.           -0.0349823825 -0.0510906756  0.            0.0011566611
  -0.0021093585  0.           -0.0923736216 -0.0922911485  0.
   0.126199343   0.1454911825]
 [ 0.            0.020694447   0.008929579   0.            0.0021093585
   0.0072850441  0.           -0.1682949881 -0.59179558    0.
   0.1454911825  0.575580957 ]]

-------------------------------------------------------------


  ==> Harmonic Vibrational Analysis <==

  non-mass-weighted Hessian:       Symmetric? True   Hermitian? True   Lin Dep Dim?  6 (0)
  projection of translations (True) and rotations (True) removed 6 degrees of freedom (6)
  total projector:                 Symmetric? True   Hermitian? True   Lin Dep Dim?  6 (6)
  mass-weighted Hessian:           Symmetric? True   Hermitian? True   Lin Dep Dim?  6 (0)
  pre-proj  low-frequency mode:    0.0000i [cm^-1]
  pre-proj  low-frequency mode:    0.0000i [cm^-1]
  pre-proj  low-frequency mode:    0.0000i [cm^-1]
  pre-proj  low-frequency mode:    0.0000  [cm^-1]
  pre-proj  low-frequency mode:    0.0000  [cm^-1]
  pre-proj  low-frequency mode:    0.0000  [cm^-1]
  pre-proj  low-frequency mode:    0.0001  [cm^-1]
  pre-proj  all modes:['653.3950i' '0.0000i' '0.0000i' '0.0000' '0.0000' '0.0000' '0.0001'
 '1140.5369' '1486.2169' '1624.2950' '4135.8693' '4174.5898']
  projected mass-weighted Hessian: Symmetric? True   Hermitian? True   Lin Dep Dim?  6 (6)
  post-proj low-frequency mode:  653.3950i [cm^-1] (V)
  post-proj low-frequency mode:    0.0000i [cm^-1] (TR)
  post-proj low-frequency mode:    0.0000i [cm^-1] (TR)
  post-proj low-frequency mode:    0.0000i [cm^-1] (TR)
  post-proj low-frequency mode:    0.0000  [cm^-1] (TR)
  post-proj low-frequency mode:    0.0000  [cm^-1] (TR)
  post-proj low-frequency mode:    0.0000  [cm^-1] (TR)
  post-proj  all modes:['653.3950i' '0.0000i' '0.0000i' '0.0000i' '0.0000' '0.0000' '0.0000'
 '1140.5369' '1486.2169' '1624.2950' '4135.8693' '4174.5898']

  Vibration                       1                   8                   9           
  Freq [cm^-1]                653.3950i           1140.5369           1486.2169       
  Irrep                           A2                  A1                  A1          
  Reduced mass [u]              1.1222             14.4445              1.0125        
  Force const [mDyne/A]        -0.2823             11.0706              1.3176        
  Turning point v=0 [a0]        0.0000              0.0855              0.2829        
  RMS dev v=0 [a0 u^1/2]        0.0000              0.2297              0.2013        
  Char temp [K]                 0.0000            1640.9787           2138.3353       
  ----------------------------------------------------------------------------------
      1   O               -0.06 -0.00 -0.00   -0.00  0.67  0.01   -0.00 -0.00 -0.01   
      2   H                0.70 -0.00 -0.00   -0.00  0.12 -0.19    0.00  0.68  0.18   
      3   O                0.06 -0.00  0.00    0.00 -0.67  0.01   -0.00  0.00 -0.01   
      4   H               -0.70 -0.00  0.00   -0.00 -0.12 -0.19    0.00 -0.68  0.18   

  Vibration                       10                  11                  12          
  Freq [cm^-1]                1624.2950           4135.8693           4174.5898       
  Irrep                           B2                  B2                  A1          
  Reduced mass [u]              1.2045              1.0690              1.0696        
  Force const [mDyne/A]         1.8723             10.7735             10.9821        
  Turning point v=0 [a0]        0.2481              0.1650              0.1642        
  RMS dev v=0 [a0 u^1/2]        0.1925              0.1206              0.1201        
  Char temp [K]               2336.9989           5950.5950           6006.3053       
  ----------------------------------------------------------------------------------
      1   O                0.00 -0.04 -0.07   -0.00  0.01 -0.04    0.00  0.02 -0.04   
      2   H                0.00  0.69  0.14    0.00 -0.20  0.68   -0.00 -0.19  0.68   
      3   O                0.00 -0.04  0.07    0.00  0.01  0.04    0.00 -0.02 -0.04   
      4   H                0.00  0.69 -0.14    0.00 -0.20 -0.68   -0.00  0.19  0.68   

  ==> Thermochemistry Components <==

  Entropy, S
    Electronic S            0.000 [cal/(mol K)]        0.000 [J/(mol K)]       0.00000000 [mEh/K] (multiplicity = 1)
    Translational S        36.503 [cal/(mol K)]      152.728 [J/(mol K)]       0.05817083 [mEh/K] (mol. weight = 34.0055 [u], P = 101325.00 [Pa])
    Rotational S           16.443 [cal/(mol K)]       68.799 [J/(mol K)]       0.02620426 [mEh/K] (symmetry no. = 2)
    Vibrational S           0.072 [cal/(mol K)]        0.302 [J/(mol K)]       0.00011509 [mEh/K]
  Total S                  53.018 [cal/(mol K)]      221.829 [J/(mol K)]       0.08449019 [mEh/K]
  Correction S              0.000 [cal/(mol K)]        0.000 [J/(mol K)]       0.00000000 [mEh/K]

  Constant volume heat capacity, Cv
    Electronic Cv           0.000 [cal/(mol K)]        0.000 [J/(mol K)]       0.00000000 [mEh/K]
    Translational Cv        2.981 [cal/(mol K)]       12.472 [J/(mol K)]       0.00475022 [mEh/K]
    Rotational Cv           2.981 [cal/(mol K)]       12.472 [J/(mol K)]       0.00475022 [mEh/K]
    Vibrational Cv          0.374 [cal/(mol K)]        1.564 [J/(mol K)]       0.00059578 [mEh/K]
  Total Cv                  6.335 [cal/(mol K)]       26.508 [J/(mol K)]       0.01009621 [mEh/K]
  Correction Cv             0.000 [cal/(mol K)]        0.000 [J/(mol K)]       0.00000000 [mEh/K]

  Constant pressure heat capacity, Cp
    Electronic Cp           0.000 [cal/(mol K)]        0.000 [J/(mol K)]       0.00000000 [mEh/K]
    Translational Cp        4.968 [cal/(mol K)]       20.786 [J/(mol K)]       0.00791703 [mEh/K]
    Rotational Cp           2.981 [cal/(mol K)]       12.472 [J/(mol K)]       0.00475022 [mEh/K]
    Vibrational Cp          0.374 [cal/(mol K)]        1.564 [J/(mol K)]       0.00059578 [mEh/K]
  Total Cp                  8.323 [cal/(mol K)]       34.822 [J/(mol K)]       0.01326302 [mEh/K]
  Correction Cp             0.000 [cal/(mol K)]        0.000 [J/(mol K)]       0.00000000 [mEh/K]

  ==> Thermochemistry Energy Analysis <==

  Raw electronic energy, E0
  Total E0, Electronic energy at well bottom at 0 [K]                 -150.76306548 [Eh]

  Zero-point energy, ZPE_vib = Sum_i nu_i / 2
    Electronic ZPE          0.000 [kcal/mol]        0.000 [kJ/mol]       0.00000000 [Eh]
    Translational ZPE       0.000 [kcal/mol]        0.000 [kJ/mol]       0.00000000 [Eh]
    Rotational ZPE          0.000 [kcal/mol]        0.000 [kJ/mol]       0.00000000 [Eh]
    Vibrational ZPE        17.958 [kcal/mol]       75.135 [kJ/mol]       0.02861722 [Eh]        6280.754 [cm^-1]
  Correction ZPE           17.958 [kcal/mol]       75.135 [kJ/mol]       0.02861722 [Eh]        6280.754 [cm^-1]
  Total ZPE, Electronic energy at 0 [K]                               -150.73444826 [Eh]

  Thermal Energy, E (includes ZPE)
    Electronic E            0.000 [kcal/mol]        0.000 [kJ/mol]       0.00000000 [Eh]
    Translational E         0.889 [kcal/mol]        3.718 [kJ/mol]       0.00141628 [Eh]
    Rotational E            0.889 [kcal/mol]        3.718 [kJ/mol]       0.00141628 [Eh]
    Vibrational E          17.976 [kcal/mol]       75.212 [kJ/mol]       0.02864659 [Eh]
  Correction E             19.753 [kcal/mol]       82.648 [kJ/mol]       0.03147914 [Eh]
  Total E, Electronic energy at  298.15 [K]                           -150.73158634 [Eh]

  Enthalpy, H_trans = E_trans + k_B * T
    Electronic H            0.000 [kcal/mol]        0.000 [kJ/mol]       0.00000000 [Eh]
    Translational H         1.481 [kcal/mol]        6.197 [kJ/mol]       0.00236046 [Eh]
    Rotational H            0.889 [kcal/mol]        3.718 [kJ/mol]       0.00141628 [Eh]
    Vibrational H          17.976 [kcal/mol]       75.212 [kJ/mol]       0.02864659 [Eh]
  Correction H             20.346 [kcal/mol]       85.127 [kJ/mol]       0.03242332 [Eh]
  Total H, Enthalpy at  298.15 [K]                                    -150.73064216 [Eh]

  Gibbs free energy, G = H - T * S
    Electronic G            0.000 [kcal/mol]        0.000 [kJ/mol]       0.00000000 [Eh]
    Translational G        -9.402 [kcal/mol]      -39.338 [kJ/mol]      -0.01498317 [Eh]
    Rotational G           -4.014 [kcal/mol]      -16.794 [kJ/mol]      -0.00639652 [Eh]
    Vibrational G          17.954 [kcal/mol]       75.122 [kJ/mol]       0.02861227 [Eh]
  Correction G              4.539 [kcal/mol]       18.989 [kJ/mol]       0.00723257 [Eh]
  Total G, Free enthalpy at  298.15 [K]                               -150.75583291 [Eh]
  ## New Matrix (Symmetry 0) ##
  Irrep: 1 Size: 12 x 12

                 1                   2                   3                   4                   5

    1    -0.01406006386463     0.00000000000000     0.00000000000000     0.01010011919806     0.00000000000000
    2     0.00000000000000     0.49131438333261    -0.11509495398902     0.00000000000000    -0.09237362164091
    3     0.00000000000000    -0.11509495398902     0.68298732666744     0.00000000000000     0.09229114845468
    4     0.01010011919806     0.00000000000000     0.00000000000000    -0.00725547257802     0.00000000000000
    5     0.00000000000000    -0.09237362164091     0.09229114845468     0.00000000000000     0.12619934296545
    6     0.00000000000000     0.16829498806784    -0.59179558001418     0.00000000000000    -0.14549118253349
    7     0.01406006386463     0.00000000000000     0.00000000000000    -0.01010011919806     0.00000000000000
    8     0.00000000000000    -0.36395837922096     0.07389448108740     0.00000000000000    -0.03498238247074
    9     0.00000000000000    -0.07389448108740    -0.10012132562170     0.00000000000000     0.05109067555305
   10    -0.01010011919806     0.00000000000000     0.00000000000000     0.00725547257802     0.00000000000000
   11     0.00000000000000    -0.03498238247074    -0.05109067555305     0.00000000000000     0.00115666114620
   12     0.00000000000000     0.02069444700858     0.00892957896844     0.00000000000000     0.00210935852577

                 6                   7                   8                   9                  10

    1     0.00000000000000     0.01406006386463     0.00000000000000     0.00000000000000    -0.01010011919806
    2     0.16829498806784     0.00000000000000    -0.36395837922096    -0.07389448108740     0.00000000000000
    3    -0.59179558001418     0.00000000000000     0.07389448108740    -0.10012132562170     0.00000000000000
    4     0.00000000000000    -0.01010011919806     0.00000000000000     0.00000000000000     0.00725547257802
    5    -0.14549118253349     0.00000000000000    -0.03498238247074     0.05109067555305     0.00000000000000
    6     0.57558095697509     0.00000000000000    -0.02069444700858     0.00892957896844     0.00000000000000
    7     0.00000000000000    -0.01406006386463     0.00000000000000     0.00000000000000     0.01010011919806
    8    -0.02069444700858     0.00000000000000     0.49131438333261     0.11509495398902     0.00000000000000
    9     0.00892957896844     0.00000000000000     0.11509495398902     0.68298732666744     0.00000000000000
   10     0.00000000000000     0.01010011919806     0.00000000000000     0.00000000000000    -0.00725547257802
   11    -0.00210935852577     0.00000000000000    -0.09237362164091    -0.09229114845468     0.00000000000000
   12     0.00728504407065     0.00000000000000    -0.16829498806784    -0.59179558001418     0.00000000000000

                11                  12

    1     0.00000000000000     0.00000000000000
    2    -0.03498238247074     0.02069444700858
    3    -0.05109067555305     0.00892957896844
    4     0.00000000000000     0.00000000000000
    5     0.00115666114620     0.00210935852577
    6    -0.00210935852577     0.00728504407065
    7     0.00000000000000     0.00000000000000
    8    -0.09237362164091    -0.16829498806784
    9    -0.09229114845468    -0.59179558001418
   10     0.00000000000000     0.00000000000000
   11     0.12619934296545     0.14549118253349
   12     0.14549118253349     0.57558095697509




    Psi4 stopped on: Sunday, 06 September 2020 04:01PM
    Psi4 wall time for execution: 0:00:49.35

*** Psi4 exiting successfully. Buy a developer a beer!
