
 Working directory              : /var/lib/condor/execute/dir_184514/molpro.at4obHYMrW/
 Global scratch directory       : /var/lib/condor/execute/dir_184514/molpro.at4obHYMrW/
 Wavefunction directory         : /srv01/technion/alongd/wfu/
 Main file repository           : /var/lib/condor/execute/dir_184514/molpro.at4obHYMrW/

 id        : dana

 Nodes     nprocs
 tech-wn198    9
 Distribution of processes:   nprocs(total)=   10   nprocs(compute)=    9   nprocs(helper)=    1
 GA implementation: MPI file
 GA implementation (serial work in mppx): MPI file

 Using customized tuning parameters: mindgm=1; mindgv=20; mindgc=4; mindgr=1; noblas=0; minvec=7
 default implementation of scratch files=sf  


 Variables initialized (1009), CPU time= 0.02 sec
 ***,CH4
 memory,90,m;
 file,1,file1.int                                                                !allocate permanent integral file
 file,2,file2.wfu                                                                !allocate permanent wave-function (dump) file
 
 geometry={angstrom;
 C      -0.00000000    0.00000000    0.00000000
 H      -0.64783600   -0.77104800   -0.41079600
 H      -0.34781700    0.97749800   -0.32631500
 H      -0.02224500   -0.04866900    1.08632200
 H       1.01789800   -0.15778100   -0.34921100}
 
 basis=cc-pvtz-f12
 
 
 
 int;
 {hf;
 maxit,1000;
 wf,spin=0,charge=0;}
 
 ccsd(t)-f12;
 
 
 
 Commands initialized (810), CPU time= 0.01 sec, 661 directives.
 Default parameters read. Elapsed time= 0.27 sec

 Checking input...
 Passed
1


                                         ***  PROGRAM SYSTEM MOLPRO  ***
                                       Copyright, TTI GmbH Stuttgart, 2015
                                    Version 2021.2 linked Jul 16 2021 12:17:16


 **********************************************************************************************************************************
 LABEL *   CH4                                                                           
  64 bit mpp version                                                                     DATE: 12-Nov-22          TIME: 21:58:25  
 **********************************************************************************************************************************

 SHA1:             dade016a989826d9d859d6207854b99675d53db3
 **********************************************************************************************************************************

 Memory per process:        90 MW
 Total memory per node:    810 MW

 GA preallocation disabled
 GA check disabled

 Variable memory set to 90.0 MW



 Permanent file  1  file1.int        assigned.  Implementation=df  
 Permanent file  2  file2.wfu        assigned.  Implementation=df    Size= 25.70 MB


 PROGRAM * RESTART 


 Reading variables from file 2

 _FNUC           =      0.00000000
 _BASIS          =    CC-PVTZ-F12
 _NELEC          =      9.00000000
 _PROGRAM        =    UCCSD(T)-F12
 _DMX_SCF        =     -0.00042764
 _DMY_SCF        =     -0.74572204
 _DMZ_SCF        =      0.00000000
 _HOMO           =      4.10000000
 _EHOMO          =     -0.48617693
 _LUMO           =      5.10000000
 _ELUMO          =      0.07542337
 _EMP2           =    -55.78376922
 _EMP2_SING      =     -0.13183344
 _EMP2_TRIP      =     -0.06232198
 _EMP2_SINGLES   =     -0.00315594
 _EMP2_SCS       =    -55.78631766
 _ECSING(1:2)    =     -0.16516858    -0.16202785
 _ECTRIP(1:2)    =     -0.05859038    -0.05839026
 _ECTRIPAB(1:2)  =     -0.01785200    -0.01778515
 _ECTRIPAA(1:2)  =     -0.02879638    -0.02870496
 _ECTRIPBB(1:2)  =     -0.01194200    -0.01190015
 _ECSINGLES      =     -0.00351219
 _EF12           =     -0.01746974
 _EF12_SING      =     -0.01588327
 _EF12_TRIP      =     -0.00158647
 _ECSING_F12(1:2)=     -0.01572433    -0.01258360
 _ECTRIP_F12(1:2)=     -0.00154595    -0.00134583
 _ECTRIPAB_F12(1:2)   =     -0.00051632    -0.00044947
 _ECTRIPAA_F12(1:2)   =     -0.00073594    -0.00064451
 _ECTRIPBB_F12(1:2)   =     -0.00029369    -0.00025185
 _EF12_RHFRELAX  =     -0.00060421
 _EF12_CONVSUPPRS=     -0.00016228
 _EF12_CONVSUPPRT=     -0.00004124
 _EF12_SINGLES   =     -0.00061503
 _EF12_SCS       =     -0.02004611
 _EF12S          =     -0.01746513
 _EF12S_SING     =     -0.01590665
 _EF12S_TRIP     =     -0.00155848
 _EF12S_SCS      =     -0.02005757
 _EF12D          =     -0.01748924
 _EF12D_SING     =     -0.01592913
 _EF12D_TRIP     =     -0.00156011
 _EF12D_SCS      =     -0.02008560
 _EF12F          =     -0.01810096
 _EF12F_SING     =     -0.01649282
 _EF12F_TRIP     =     -0.00160815
 _EF12F_SCS      =     -0.02079237
 _ENERGC(1:2)    =    -55.81372901   -55.81038816
 _ENERG_CC(1:2)  =      0.00000000     0.00000000
 _ENERG_CV(1:2)  =      0.00000000     0.00000000
 _ENERG_VV(1:2)  =     -0.22727114    -0.22393030
 _ENERGR         =    -55.58645786
 _ENERGT(1:6)    =    -55.82008785   -55.82020870   -55.82002606   -55.81674700   -55.81686785   -55.81668521
 _ENERGY(1:2)    =    -55.82008785   -55.81674700
 _ENERGY_METHOD  =    UCCSD(T)-F12
 _ENERGY_BASIS   =    cc-pVTZ-F12
 _ENUC           =      7.55308706
 _IPROC_MPP      =      0.00000000
 _IPROC_MPPX     =      0.00000000
 _ORBITAL        =   2103.20000000
 _ECDIAG(1:2)    =     -0.06851588    -0.06728700
 _EPDIAG(1:2)    =     -0.06851588    -0.06728700
 _STATUS         =      1.00000000
 _T1DIAG         =      0.00761618
 _D1DIAG         =      0.01172791
 _D2DIAG         =      0.14055603
 !DFBASIS_MP2    =    CC-PVTZ-F12-MP2FIT
 !DFBASIS_F12K   =    VTZ-F12-JKFIT
 !RIBASIS_MP2    =    CC-PVTZ-F12_OPT
 !RIBASIS_EXCH   =     
 _METHODC        =    UCCSD-F12a
 _METHODC        =    UCCSD-F12b
 _METHODT        =    UCCSD(T)-F12a
 _METHODT        =    UCCSD[T]-F12a
 _METHODT        =    UCCSD-T-F12a
 _METHODT        =    UCCSD(T)-F12b
 _METHODT        =    UCCSD[T]-F12b
 _METHODT        =    UCCSD-T-F12b
 _OUTPUT         =    /storage/ce_dana/alongd/runs/ARC/arkane_examples/thermo3/calcs/Species/Ethynol/sp_a48600/input.out
 _PGROUP         =    Cs  
 _TIME           =    20:17:33
 _ANSATZ         =    F12/3C(FIX)
 _SVDDEL         =      0.00000000
 _SYM_CATION     =      2.00000000

 Geometry written to block  1 of record 702


 **********************************************************************************************************************************
 DATASETS  * FILE   NREC   LENGTH (MB)   RECORD NAMES
              1       2       11.47       500      702   
                                          VAR     GEOM   

              2      17       25.70       500      610      700     1000      520     2100     7360     7350      701     1001   
                                          VAR    BASINP    GEOM     BASIS   MCVARS     RHF    F12ABS    EF12     GEOM     BASIS   
                                         2101      701(1)  1002     2102      702     1003     2103   
                                          RHF     GEOM     BASIS     RHF     GEOM     BASIS     RHF  

 PROGRAMS   *        TOTAL   RESTART
 CPU TIMES  *         0.61      0.33
 REAL TIME  *         0.84 SEC
 DISK USED  *        37.18 MB (local),      334.58 MB (total)
 **********************************************************************************************************************************

 Geometry recognized as XYZ

 SETTING BASIS          =    CC-PVTZ-F12


 Using spherical harmonics

 Library entry C      S cc-pVTZ-F12          selected for orbital group  1
 Library entry C      P cc-pVTZ-F12          selected for orbital group  1
 Library entry C      D cc-pVTZ-F12          selected for orbital group  1
 Library entry C      F cc-pVTZ-F12          selected for orbital group  1
 Library entry H      S cc-pVTZ-F12          selected for orbital group  2
 Library entry H      P cc-pVTZ-F12          selected for orbital group  2
 Library entry H      D cc-pVTZ-F12          selected for orbital group  2


 PROGRAM * SEWARD (Integral evaluation for generally contracted gaussian basis sets)     Author: Roland Lindh, 1990

 Geometry written to block  1 of record 703


 Point group  C1  



 ATOMIC COORDINATES

 NR  ATOM    CHARGE       X              Y              Z

   1  C       6.00   -0.000000000    0.000000000    0.000000000
   2  H       1.00   -1.224232614   -1.457069549   -0.776291933
   3  H       1.00   -0.657278871    1.847203507   -0.616645980
   4  H       1.00   -0.042036958   -0.091971081    2.052851063
   5  H       1.00    1.923548443   -0.298162878   -0.659913150

 Bond lengths in Bohr (Angstrom)

 1-2  2.055340927  1-3  2.055341475  1-4  2.055340184  1-5  2.055340623
     ( 1.087639579)     ( 1.087639869)     ( 1.087639186)     ( 1.087639419)

 Bond angles

  2-1-3  109.47124892   2-1-4  109.47120401   2-1-5  109.47121390   3-1-4  109.47121603

  3-1-5  109.47122345   4-1-5  109.47121749

 NUCLEAR CHARGE:                   10
 NUMBER OF PRIMITIVE AOS:         156
 NUMBER OF SYMMETRY AOS:          143
 NUMBER OF CONTRACTIONS:          125   (  125A   )
 NUMBER OF INNER CORE ORBITALS:     0   (    0A   )
 NUMBER OF OUTER CORE ORBITALS:     1   (    1A   )
 NUMBER OF VALENCE ORBITALS:        8   (    8A   )

 MOLECULE CHANGED: INITIALIZING OCCUPATION AND DUMP RECORDS


 NUCLEAR REPULSION ENERGY   13.46454787

 Eigenvalues of metric

         1 0.831E-04 0.354E-03 0.354E-03 0.354E-03 0.578E-03 0.578E-03 0.578E-03 0.644E-03


 Contracted 2-electron integrals neglected if value below      1.0D-11
 AO integral compression algorithm  1   Integral accuracy      1.0D-11

     164.102 MB (compressed) written to integral file ( 54.9%)

     Node minimum: 14.156 MB, node maximum: 20.972 MB


 NUMBER OF SORTED TWO-ELECTRON INTEGRALS:    3449250.     BUFFER LENGTH:  32768
 NUMBER OF SEGMENTS:   1  SEGMENT LENGTH:    3449250      RECORD LENGTH: 524288

 Memory used in sort:       4.01 MW

 SORT1 READ    37327363. AND WROTE     3340616. INTEGRALS IN     10 RECORDS. CPU TIME:     0.84 SEC, REAL TIME:     0.94 SEC
 SORT2 READ    30041149. AND WROTE    31011750. INTEGRALS IN    711 RECORDS. CPU TIME:     0.10 SEC, REAL TIME:     0.20 SEC

 Node minimum:     3442250.  Node maximum:     3449250. integrals

 OPERATOR DM      FOR CENTER  0  COORDINATES:    0.000000    0.000000    0.000000


 **********************************************************************************************************************************
 DATASETS  * FILE   NREC   LENGTH (MB)   RECORD NAMES
              1      19       29.40       500      702      610      703      900      950      970     1004      129      960   
                                          VAR     GEOM    BASINP    GEOM    SYMINP    ZMAT    AOBASIS   BASIS     P2S    ABASIS    
                                         1100     1400     1410     1200     1210     1080     1600     1650     1700   
                                           S        T        V       H0       H01     AOSYM     SMH    MOLCAS    OPER   

              2      19       26.00       500      610      700     1000      520     2100     7360     7350      701     1001   
                                          VAR    BASINP    GEOM     BASIS   MCVARS     RHF    F12ABS    EF12     GEOM     BASIS   
                                         2101      701(1)  1002     2102      702     1003     2103      703     1004   
                                          RHF     GEOM     BASIS     RHF     GEOM     BASIS     RHF     GEOM     BASIS   

 PROGRAMS   *        TOTAL       INT   RESTART
 CPU TIMES  *         1.98      1.36      0.33
 REAL TIME  *         2.84 SEC
 DISK USED  *        55.45 MB (local),      996.00 MB (total)
 GA USED    *         0.00 MB       (max)       0.00 MB       (current)
 **********************************************************************************************************************************


 Program * Restricted Hartree-Fock

 Orbital guess generated from atomic densities. Full valence occupancy:    9

 Initial occupancy:   5

 NELEC=   10   SYM=1   MS2= 0   THRE=1.0D-08   THRD=3.2D-06   THRG=3.2D-06  HFMA2=F  DIIS_START=2   DIIS_MAX=10   DIIS_INCORE=F

 Level shifts:    0.00 (CLOSED)    0.00 (OPEN)    0.30 (GAP_MIN)

 ITER           ETOT              DE          GRAD        DDIFF     DIIS  NEXP   TIME(IT)  TIME(TOT)  DIAG
   1      -40.19696467     -40.19696467     0.00D+00     0.53D-01     0     0       0.08      0.12    start
   2      -40.21332854      -0.01636387     0.46D-02     0.52D-02     1     0       0.05      0.17    diag
   3      -40.21549037      -0.00216182     0.18D-02     0.14D-02     2     0       0.04      0.21    diag
   4      -40.21580539      -0.00031502     0.47D-03     0.56D-03     3     0       0.05      0.26    diag
   5      -40.21581089      -0.00000550     0.61D-04     0.99D-04     4     0       0.04      0.30    diag
   6      -40.21581093      -0.00000004     0.49D-05     0.15D-04     5     0       0.05      0.35    diag
   7      -40.21581093      -0.00000000     0.40D-06     0.17D-05     6     0       0.04      0.39    diag
   8      -40.21581093      -0.00000000     0.27D-07     0.10D-06     0     0       0.04      0.43    diag

 Final occupancy:   5

 !RHF STATE 1.1 Energy                -40.215810932999
  RHF One-electron energy             -79.791585875316
  RHF Two-electron energy              26.111227077206
  RHF Kinetic energy                   40.179266945352
  RHF Nuclear energy                   13.464547865110
  RHF Virial quotient                  -1.000909523504

 !RHF STATE 1.1 Dipole moment           0.00000010    -0.00000013     0.00000019
 Dipole moment /Debye                   0.00000026    -0.00000034     0.00000047

 Orbital energies:

           1.1          2.1          3.1          4.1          5.1          6.1          7.1
    -11.205227    -0.943299    -0.545347    -0.545347    -0.545347     0.061033     0.077433


 HOMO      5.1    -0.545347 =     -14.8396eV
 LUMO      6.1     0.061033 =       1.6608eV
 LUMO-HOMO         0.606380 =      16.5004eV

 Orbitals saved in record  2104.2


 **********************************************************************************************************************************
 DATASETS  * FILE   NREC   LENGTH (MB)   RECORD NAMES
              1      19       29.40       500      702      610      703      900      950      970     1004      129      960   
                                          VAR     GEOM    BASINP    GEOM    SYMINP    ZMAT    AOBASIS   BASIS     P2S    ABASIS    
                                         1100     1400     1410     1200     1210     1080     1600     1650     1700   
                                           S        T        V       H0       H01     AOSYM     SMH    MOLCAS    OPER   

              2      20       28.61       500      610      700     1000      520     2100     7360     7350      701     1001   
                                          VAR    BASINP    GEOM     BASIS   MCVARS     RHF    F12ABS    EF12     GEOM     BASIS   
                                         2101      701(1)  1002     2102      702     1003     2103      703     1004     2104   
                                          RHF     GEOM     BASIS     RHF     GEOM     BASIS     RHF     GEOM     BASIS     RHF  

 PROGRAMS   *        TOTAL    HF-SCF       INT   RESTART
 CPU TIMES  *         2.47      0.48      1.36      0.33
 REAL TIME  *         3.60 SEC
 DISK USED  *        58.96 MB (local),        1.00 GB (total)
 GA USED    *         0.00 MB       (max)       0.00 MB       (current)
 **********************************************************************************************************************************


 PROGRAM * CCSD (Closed-shell coupled cluster)     Authors: C. Hampel, H.-J. Werner, 1991, M. Deegan, P.J. Knowles, 1992

                                  CCSD-F12 implementation by  H.-J. Werner, 2007

                   Density fitting integral evaluation by F.R. Manby, 2003,2007, G. Knizia, 2010


 Basis set VTZ-F12/JKFIT generated.      Number of basis functions:   288 
 Basis set CC-PVTZ-F12/OPTRI generated.  Number of basis functions:   239 
 Basis set CC-PVTZ-F12/MP2FIT generated. Number of basis functions:   290 

 Convergence thresholds:  THRVAR = 1.00D-08  THRDEN = 1.00D-06

 CCSD(T)     terms to be evaluated (factor= 1.000)


 Number of core orbitals:           1 (   1 )
 Number of closed-shell orbitals:   4 (   4 )
 Number of external orbitals:     120 ( 120 )

 Molecular orbitals read from record     2104.2  Type=RHF/CANONICAL  

 MP2-F12 correlation treatment (H.-J. Werner, 2006)
 ==================================================

 Using MP2-F12 with ansatz 3C(FIX)

 Using projected zeroth-order Hamiltonian (+Z)

 FOCKRIB=T FOCKRIC=T FOCKRIP=T CABSP=T CABSA=T CABSK=T CABSF=T GBC=F EBC=F DMAT=T NOFIK=T NOPAO=1 SOLVE=-1  USEPAO=0
 EXCH_A= T EXCH_B= F EXCH_C= F EXCH_P= F

 Geminal basis:    OPTFULL  GEM_TYPE=SLATER  BETA=1.0  NGEM=6

 Optimizing Gaussian exponents for each gem_beta

 Geminal optimization for beta= 1.0000
 Weight function:   m=0, omega= 1.4646

 Augmented Hessian optimization of geminal fit. Trust ratio= 0.40000
 Convergence reached after   2 iterations. Final gradient= 8.66D-16, Step= 4.23D-06, Delta= 1.28D-09

 Alpha:                 0.19532     0.81920     2.85917     9.50073    35.69989   197.79328
 Coeff:                 0.27070     0.30552     0.18297     0.10986     0.06810     0.04224


 All pairs explicitly correlated. Number of r12-pairs:           10

 Excluding core orbitals from MO domains

 AO(A)-basis ORBITAL           loaded. Number of functions:     125
 RI(R)-basis CC-PVTZ-F12/OPTRI loaded. Number of functions:     239
 DF-basis VTZ-F12/JKFIT        loaded. Number of functions:     288

 Screening thresholds:   THRAO=  1.00D-10  THRMO=  1.00D-09  THRPROD=  1.00D-09
                         THRSW=  1.00D-05  THROV=  1.00D-12  THRAOF12= 1.00D-08

 CPU time for Fock operators                      0.17 sec

 Construction of ABS:
 Smallest eigenvalue of S          4.81E-04  (threshold= 1.00E-08)
 Ratio eigmin/eigmax               6.27E-05  (threshold= 1.00E-09)
 Smallest eigenvalue of S kept     4.81E-04  (threshold= 4.81E-04, 0 functions deleted, 239 kept)

 Construction of CABS:
 Smallest eigenvalue of S          9.92E-07  (threshold= 1.00E-08)
 Ratio eigmin/eigmax               9.92E-07  (threshold= 1.00E-09)
 Smallest eigenvalue of S kept     9.92E-07  (threshold= 9.92E-07, 0 functions deleted, 239 kept)

 CPU time for CABS singles                        0.03 sec

 CABS-singles contribution of  -0.00061051 patched into reference energy.
 New reference energy         -40.21642144

 AO(A)-basis ORBITAL           loaded. Number of functions:     125
 RI(R)-basis CC-PVTZ-F12/OPTRI loaded. Number of functions:     239
 DF-basis CC-PVTZ-F12/MP2FIT   loaded. Number of functions:     290

 Screening thresholds:   THRAO=  1.00D-10  THRMO=  1.00D-09  THRPROD=  1.00D-09
                         THRSW=  1.00D-05  THROV=  1.00D-12  THRAOF12= 1.00D-08

 CPU time for 3-index integral evaluation         0.40 sec
 CPU time for first  half transformation          0.01 sec ( 5455.5 MFLOP/sec)
 CPU time for second half transformation          0.01 sec (  106.5 MFLOP/sec)
 CPU time for sorting                             0.01 sec
 CPU time for fitting                             0.01 sec ( 4104.1 MFLOP/sec)
 CPU time for tilde quantities                    0.02 sec ( 4112.5 MFLOP/sec)
 CPU time for assembly                            0.02 sec ( 9122.2 MFLOP/sec)
 CPU time for tranop_f12                          0.01 sec (33751.6 MFLOP/sec)
 CPU time for f12 integrals (total)               0.58 sec, Elapsed time:      0.68 sec
 F12-matrices built in  5 passes.
 F12-matrices built in  5 passes.
 F12-matrices built in  5 passes.
 F12-matrices built in  5 passes.
 FC-matrix built in  5 passes.
 CPU time for f12 matrices (total)                0.01 sec, Elapsed time:      0.01 sec

 Diagonal F12 approximation with fixed coefficients:  TSING= 0.500,  TTRIP= 0.250 (scaled by -1/beta)

 DF-MP2-F12 energy corrections:
 ==============================
 Approx.                                    Singlet             Triplet             Total
 DF-MP2-F12/3*C(DX,FIX)                -0.016169477748     -0.001121879576     -0.017291357324
 DF-MP2-F12/3*C(FIX)                   -0.015841057599     -0.001135987218     -0.016977044817
 DF-MP2-F12/3C(FIX)                    -0.015769737281     -0.001142826685     -0.016912563965

 DF-MP2-F12 correlation energies:
 ================================
 Approx.                                    Singlet             Triplet             Ecorr            Total Energy
 DF-MP2                                -0.146074405283     -0.055670836925     -0.201745242209    -40.418166685553
 DF-MP2-F12/3*C(DX,FIX)                -0.162243883031     -0.056792716501     -0.219036599533    -40.435458042877
 DF-MP2-F12/3*C(FIX)                   -0.161915462882     -0.056806824143     -0.218722287025    -40.435143730370
 DF-MP2-F12/3C(FIX)                    -0.161844142564     -0.056813663610     -0.218657806174    -40.435079249518

 SCS-DF-MP2 energies (F_SING= 1.20000  F_TRIP= 0.62222  F_PARALLEL= 0.33333):
 ============================================================================
 SCS-DF-MP2                            -0.209928918205    -40.426350361549
 SCS-DF-MP2-F12/3*C(DX,FIX)            -0.230030349905    -40.446451793250
 SCS-DF-MP2-F12/3*C(FIX)               -0.229645023814    -40.446066467159
 SCS-DF-MP2-F12/3C(FIX)                -0.229563695101    -40.445985138445
 Symmetry transformation completed.

 Number of N-1 electron functions:               4
 Number of N-2 electron functions:              10
 Number of singly external CSFs:               480
 Number of doubly external CSFs:            115440
 Total number of CSFs:                      115921

 Pair and operator lists are different

 Length of J-op  integral file:              19.10 MB
 Length of K-op  integral file:              30.77 MB
 Length of 3-ext integral record:             0.00 MB

 Memory could be reduced to 11.72 Mwords without degradation in triples

 Integral transformation finished. Total CPU:   0.58 sec, npass=  1  Memory used:   5.50 MW

 Reference energy:                    -40.21642144

 Adding F12 terms to K(Cij), methodcc=6,  factor= 1.0

 ITER.      SQ.NORM     CORR.ENERGY   TOTAL ENERGY   ENERGY CHANGE        DEN1      VAR(S)    VAR(P)  DIIS     TIME  TIME/IT
   1      1.07095542    -0.21700309   -40.43342453    -0.01522141    -0.00952652  0.65D-03  0.98D-03  1  1     1.63     0.12
   2      1.07605667    -0.21786182   -40.43428326    -0.00085873    -0.00531404  0.15D-04  0.98D-04  2  2     1.73     0.12
   3      1.07769409    -0.21798343   -40.43440488    -0.00012162    -0.00114442  0.20D-05  0.64D-05  3  3     1.84     0.12
   4      1.07809763    -0.21799880   -40.43442024    -0.00001537    -0.00021701  0.12D-06  0.35D-06  4  4     1.94     0.12
   5      1.07815335    -0.21799884   -40.43442028    -0.00000004    -0.00000989  0.78D-08  0.18D-07  5  5     2.03     0.12
   6      1.07816047    -0.21799746   -40.43441890     0.00000138    -0.00000352  0.25D-09  0.90D-09  6  6     2.13     0.12
   7      1.07816124    -0.21799743   -40.43441888     0.00000003    -0.00000043  0.13D-10  0.42D-10  6  1     2.24     0.12
   8      1.07816126    -0.21799746   -40.43441891    -0.00000003     0.00000007  0.12D-11  0.25D-11  6  2     2.35     0.12

 Norm of t1 vector:      0.03332593      S-energy:    -0.00000002      T1 diagnostic:  0.00833148
                                                                       D1 diagnostic:  0.01326351
                                                                       D2 diagnostic:  0.13337425 (internal)

 Adding energy correction from Wij-K(Fij), methodcc=6  factor= 1.0

  CCSD correlation energy              -0.217997464770
  MP2-F12 correction (uncoupled)       -0.016614637101
  C*T doubles correction               -0.000290587854
  f12b correction                       0.003528793710


 Total CPU time for triples:      0.49 sec


 RESULTS
 =======

  Reference energy                    -40.215810932999
  F12 singles correction               -0.000610510345

 F12 singles corrections added to reference energy

  New reference energy                -40.216421443344

  F12a singlet correction              -0.015774824465
  F12a triplet correction              -0.001130400490
  F12a total correction                -0.016905224955

 F12a corrections for ansatz F12/3C(FIX) added to CCSD energy

  CCSD-F12a singlet pair energy        -0.179987193149
  CCSD-F12a triplet pair energy        -0.054915477884
  CCSD-F12a correlation energy         -0.234902689726

  Triples (T) contribution             -0.006565069663
  Total correlation energy             -0.241467759389

  CCSD-F12a total energy              -40.451324133070
  CCSD[T]-F12a energy                 -40.458126506493
  CCSD-T-F12a energy                  -40.457815405156
 !CCSD(T)-F12a total energy           -40.457889202733

 F12b corrections for ansatz F12/3C(FIX) added to CCSD(T)-F12a energy

  CCSD-F12b singlet pair energy        -0.176611493605
  CCSD-F12b triplet pair energy        -0.054762383718
  CCSD-F12b correlation energy         -0.231373896016

  Triples (T) contribution             -0.006565069663
  Total correlation energy             -0.237938965679

  CCSD-F12b total energy              -40.447795339360
  CCSD[T]-F12b energy                 -40.454597712784
  CCSD-T-F12b energy                  -40.454286611447
 !CCSD(T)-F12b total energy           -40.454360409024

 Timing summary (sec):

 STEP                 CPU(USER)    SYS     CPU(TOT)    WALL
 Transformation          0.58      0.11      0.69      0.77
 CCSD iterations         0.89      0.14      1.03      1.24
 Triples                 0.49      0.02      0.51      0.51
 MP2-F12                 0.89      0.13      1.02      1.06
 F12b energy             0.07      0.00      0.07      0.07

 Program statistics:

 Available memory in ccsd:                89999081
 Min. memory needed in ccsd:                540192
 Max. memory used in ccsd:                  622172
 Max. memory used in cckext:                430422 ( 9 integral passes)



 **********************************************************************************************************************************
 DATASETS  * FILE   NREC   LENGTH (MB)   RECORD NAMES
              1      20       58.02       500      702      610      703      900      950      970     1004      129      960   
                                          VAR     GEOM    BASINP    GEOM    SYMINP    ZMAT    AOBASIS   BASIS     P2S    ABASIS    
                                         1100     1400     1410     1200     1210     1080     1600     1650     1700     1380   
                                           S        T        V       H0       H01     AOSYM     SMH    MOLCAS    OPER     JKOP   

              2      20       28.61       500      610      700     1000      520     2100     7360     7350      701     1001   
                                          VAR    BASINP    GEOM     BASIS   MCVARS     RHF    F12ABS    EF12     GEOM     BASIS   
                                         2101      701(1)  1002     2102      702     1003     2103      703     1004     2104   
                                          RHF     GEOM     BASIS     RHF     GEOM     BASIS     RHF     GEOM     BASIS     RHF  

 PROGRAMS   *        TOTAL   CCSD(T)    HF-SCF       INT   RESTART
 CPU TIMES  *         5.47      2.99      0.48      1.36      0.33
 REAL TIME  *         7.38 SEC
 DISK USED  *        99.91 MB (local),        1.26 GB (total)
 SF USED    *       101.39 MB
 GA USED    *         3.05 MB       (max)       0.00 MB       (current)
 **********************************************************************************************************************************

 CCSD(T)-F12/cc-pVTZ-F12 energy=    -40.454360409024

     CCSD(T)-F12          HF-SCF
    -40.45436041    -40.21581093
 **********************************************************************************************************************************
 Molpro calculation terminated
