
 Working directory              : /var/lib/condor/execute/dir_184731/molpro.VEfDTfDkaC/
 Global scratch directory       : /var/lib/condor/execute/dir_184731/molpro.VEfDTfDkaC/
 Wavefunction directory         : /srv01/technion/alongd/wfu/
 Main file repository           : /var/lib/condor/execute/dir_184731/molpro.VEfDTfDkaC/

 id        : dana

 Nodes     nprocs
 tech-wn198    9
 Distribution of processes:   nprocs(total)=   10   nprocs(compute)=    9   nprocs(helper)=    1
 GA implementation: MPI file
 GA implementation (serial work in mppx): MPI file

 Using customized tuning parameters: mindgm=1; mindgv=20; mindgc=4; mindgr=1; noblas=0; minvec=7
 default implementation of scratch files=sf  


 Variables initialized (1009), CPU time= 0.01 sec
 ***,CH3
 memory,90,m;
 file,1,file1.int                                                                !allocate permanent integral file
 file,2,file2.wfu                                                                !allocate permanent wave-function (dump) file
 
 geometry={angstrom;
 C      -0.00000000   -0.00000000    0.00000000
 H       1.06145900   -0.17430200    0.05388800
 H      -0.68181900   -0.83326000   -0.02794200
 H      -0.37964000    1.00756200   -0.02594600}
 
 basis=cc-pvtz-f12
 
 
 
 int;
 {hf;
 maxit,1000;
 wf,spin=1,charge=0;}
 
 uccsd(t)-f12;
 
 
 
 Commands initialized (810), CPU time= 0.02 sec, 661 directives.
 Default parameters read. Elapsed time= 0.42 sec

 Checking input...
 Passed
1


                                         ***  PROGRAM SYSTEM MOLPRO  ***
                                       Copyright, TTI GmbH Stuttgart, 2015
                                    Version 2021.2 linked Jul 16 2021 12:17:16


 **********************************************************************************************************************************
 LABEL *   CH3                                                                           
  64 bit mpp version                                                                     DATE: 12-Nov-22          TIME: 21:58:34  
 **********************************************************************************************************************************

 SHA1:             dade016a989826d9d859d6207854b99675d53db3
 **********************************************************************************************************************************

 Memory per process:        90 MW
 Total memory per node:    810 MW

 GA preallocation disabled
 GA check disabled

 Variable memory set to 90.0 MW



 Permanent file  1  file1.int        assigned.  Implementation=df  
 Permanent file  2  file2.wfu        assigned.  Implementation=df    Size= 28.61 MB


 PROGRAM * RESTART 


 Reading variables from file 2

 _FNUC           =      0.00000000
 _BASIS          =    CC-PVTZ-F12
 _NELEC          =     10.00000000
 _PROGRAM        =    CCSD(T)-F12
 _DMX_SCF        =      0.00000010
 _DMY_SCF        =     -0.00000013
 _DMZ_SCF        =      0.00000019
 _HOMO           =      5.10000000
 _EHOMO          =     -0.54534661
 _LUMO           =      6.10000000
 _ELUMO          =      0.06103290
 _EMP2           =    -40.41820313
 _EMP2_SING      =     -0.14616942
 _EMP2_TRIP      =     -0.05561226
 _EMP2_SINGLES   =      0.00000000
 _EMP2_SCS       =    -40.42642794
 _ECSING(1:2)    =     -0.17998719    -0.17661149
 _ECTRIP(1:2)    =     -0.05491548    -0.05476238
 _ECTRIPAB(1:2)  =     -0.01785200    -0.01778515
 _ECTRIPAA(1:2)  =     -0.02879638    -0.02870496
 _ECTRIPBB(1:2)  =     -0.01194200    -0.01190015
 _ECSINGLES      =     -0.00351219
 _EF12           =     -0.01691256
 _EF12_SING      =     -0.01576974
 _EF12_TRIP      =     -0.00114283
 _ECSING_F12(1:2)=     -0.01572433    -0.01258360
 _ECTRIP_F12(1:2)=     -0.00154595    -0.00134583
 _ECTRIPAB_F12(1:2)   =     -0.00051632    -0.00044947
 _ECTRIPAA_F12(1:2)   =     -0.00073594    -0.00064451
 _ECTRIPBB_F12(1:2)   =     -0.00029369    -0.00025185
 _EF12_RHFRELAX  =     -0.00061051
 _EF12_CONVSUPPRS=     -0.00016228
 _EF12_CONVSUPPRT=     -0.00004124
 _EF12_SINGLES   =     -0.00061051
 _EF12_SCS       =     -0.01963478
 _EF12_STRONG    =     -0.01691256
 _EF12_CLOSE     =      0.00000000
 _EF12_WEAK      =      0.00000000
 _EF12_DIST      =      0.00000000
 _EF12S          =     -0.01697704
 _EF12S_SING     =     -0.01584106
 _EF12S_TRIP     =     -0.00113599
 _EF12S_SCS      =     -0.01971611
 _EF12S_STRONG   =     -0.01697704
 _EF12S_CLOSE    =      0.00000000
 _EF12S_WEAK     =      0.00000000
 _EF12S_DIST     =      0.00000000
 _EF12D          =     -0.01729136
 _EF12D_SING     =     -0.01616948
 _EF12D_TRIP     =     -0.00112188
 _EF12D_SCS      =     -0.02010143
 _EF12D_STRONG   =     -0.01729136
 _EF12D_CLOSE    =      0.00000000
 _EF12D_WEAK     =      0.00000000
 _EF12D_DIST     =      0.00000000
 _EF12F          =     -0.01810096
 _EF12F_SING     =     -0.01649282
 _EF12F_TRIP     =     -0.00160815
 _EF12F_SCS      =     -0.02079237
 _ENERGC(1:2)    =    -40.45132413   -40.44779534
 _ENERG_CC(1:2)  =      0.00000000     0.00000000
 _ENERG_CV(1:2)  =      0.00000000     0.00000000
 _ENERG_VV(1:2)  =     -0.23490269    -0.23137390
 _ENERGR         =    -40.21642144
 _ENERGT(1:3)    =    -40.45436041   -40.45459771   -40.45428661
 _ENERGY(1:2)    =    -40.45788920   -40.45436041
 _ENERGY_METHOD  =    CCSD(T)-F12
 _ENERGY_BASIS   =    cc-pVTZ-F12
 _ENUC           =     13.46454787
 _IPROC_MPP      =      0.00000000
 _IPROC_MPPX     =      0.00000000
 _ORBITAL        =   2104.20000000
 _ECDIAG(1:2)    =     -0.08204190    -0.08060662
 _EPDIAG(1:2)    =     -0.08204190    -0.08060662
 _STATUS         =      1.00000000
 _T1DIAG         =      0.00833148
 _D1DIAG         =      0.01326351
 _D2DIAG         =      0.13337425
 !DFBASIS_MP2    =    CC-PVTZ-F12-MP2FIT
 !DFBASIS_F12K   =    VTZ-F12-JKFIT
 !RIBASIS_MP2    =    CC-PVTZ-F12_OPT
 !RIBASIS_EXCH   =     
 _METHODC        =    CCSD-F12a
 _METHODC        =    CCSD-F12b
 _METHODT        =    CCSD(T)-F12b
 _METHODT        =    CCSD[T]-F12b
 _METHODT        =    CCSD-T-F12b
 _OUTPUT         =    /storage/ce_dana/alongd/runs/ARC/arkane_examples/thermo3/calcs/Species/Ethynol/sp_a48600/input.out
 _PGROUP         =    C1  
 _TIME           =    20:17:33
 _ANSATZ         =    F12/3C(FIX)
 _SVDDEL         =      0.00000000
 _SYM_CATION     =      1.00000000

 Geometry written to block  1 of record 703


 **********************************************************************************************************************************
 DATASETS  * FILE   NREC   LENGTH (MB)   RECORD NAMES
              1       2       11.48       500      703   
                                          VAR     GEOM   

              2      20       28.61       500      610      700     1000      520     2100     7360     7350      701     1001   
                                          VAR    BASINP    GEOM     BASIS   MCVARS     RHF    F12ABS    EF12     GEOM     BASIS   
                                         2101      701(1)  1002     2102      702     1003     2103      703     1004     2104   
                                          RHF     GEOM     BASIS     RHF     GEOM     BASIS     RHF     GEOM     BASIS     RHF  

 PROGRAMS   *        TOTAL   RESTART
 CPU TIMES  *         0.68      0.41
 REAL TIME  *         1.03 SEC
 DISK USED  *        40.09 MB (local),      360.77 MB (total)
 **********************************************************************************************************************************

 Geometry recognized as XYZ

 SETTING BASIS          =    CC-PVTZ-F12


 Using spherical harmonics

 Library entry C      S cc-pVTZ-F12          selected for orbital group  1
 Library entry C      P cc-pVTZ-F12          selected for orbital group  1
 Library entry C      D cc-pVTZ-F12          selected for orbital group  1
 Library entry C      F cc-pVTZ-F12          selected for orbital group  1
 Library entry H      S cc-pVTZ-F12          selected for orbital group  2
 Library entry H      P cc-pVTZ-F12          selected for orbital group  2
 Library entry H      D cc-pVTZ-F12          selected for orbital group  2


 PROGRAM * SEWARD (Integral evaluation for generally contracted gaussian basis sets)     Author: Roland Lindh, 1990

 Geometry written to block  1 of record 704


 Point group  C1  



 ATOMIC COORDINATES

 NR  ATOM    CHARGE       X              Y              Z

   1  C       6.00   -0.000000000   -0.000000000    0.000000000
   2  H       1.00    2.005866803   -0.329383043    0.101833561
   3  H       1.00   -1.288451177   -1.574633191   -0.052802727
   4  H       1.00   -0.717415626    1.904016234   -0.049030834

 Bond lengths in Bohr (Angstrom)

 1-2  2.035280053  1-3  2.035279894  1-4  2.035280575
     ( 1.077023822)     ( 1.077023738)     ( 1.077024098)

 Bond angles

  2-1-3  119.99998043   2-1-4  120.00001365   3-1-4  120.00000592

 NUCLEAR CHARGE:                    9
 NUMBER OF PRIMITIVE AOS:         135
 NUMBER OF SYMMETRY AOS:          123
 NUMBER OF CONTRACTIONS:          107   (  107A   )
 NUMBER OF INNER CORE ORBITALS:     0   (    0A   )
 NUMBER OF OUTER CORE ORBITALS:     1   (    1A   )
 NUMBER OF VALENCE ORBITALS:        7   (    7A   )

 MOLECULE CHANGED: INITIALIZING OCCUPATION AND DUMP RECORDS


 NUCLEAR REPULSION ENERGY    9.69500468


 Eigenvalues of metric

         1 0.190E-03 0.324E-03 0.324E-03 0.544E-03 0.572E-03 0.572E-03 0.700E-03 0.156E-02


 Contracted 2-electron integrals neglected if value below      1.0D-11
 AO integral compression algorithm  1   Integral accuracy      1.0D-11

     89.129 MB (compressed) written to integral file ( 54.1%)

     Node minimum: 6.554 MB, node maximum: 16.515 MB


 NUMBER OF SORTED TWO-ELECTRON INTEGRALS:    1857627.     BUFFER LENGTH:  32768
 NUMBER OF SEGMENTS:   1  SEGMENT LENGTH:    1857627      RECORD LENGTH: 524288

 Memory used in sort:       2.41 MW

 SORT1 READ    20623543. AND WROTE     1751066. INTEGRALS IN      6 RECORDS. CPU TIME:     0.42 SEC, REAL TIME:     0.50 SEC
 SORT2 READ    15742303. AND WROTE    16695531. INTEGRALS IN    252 RECORDS. CPU TIME:     0.04 SEC, REAL TIME:     0.14 SEC

 Node minimum:     1852491.  Node maximum:     1857627. integrals

 OPERATOR DM      FOR CENTER  0  COORDINATES:    0.000000    0.000000    0.000000


 **********************************************************************************************************************************
 DATASETS  * FILE   NREC   LENGTH (MB)   RECORD NAMES
              1      19       29.27       500      703      610      704      900      950      970     1005      129      960   
                                          VAR     GEOM    BASINP    GEOM    SYMINP    ZMAT    AOBASIS   BASIS     P2S    ABASIS    
                                         1100     1400     1410     1200     1210     1080     1600     1650     1700   
                                           S        T        V       H0       H01     AOSYM     SMH    MOLCAS    OPER   

              2      22       29.03       500      610      700     1000      520     2100     7360     7350      701     1001   
                                          VAR    BASINP    GEOM     BASIS   MCVARS     RHF    F12ABS    EF12     GEOM     BASIS   
                                         2101      701(1)  1002     2102      702     1003     2103      703     1004     2104   
                                          RHF     GEOM     BASIS     RHF     GEOM     BASIS     RHF     GEOM     BASIS     RHF  
                                          704     1005   
                                         GEOM     BASIS   

 PROGRAMS   *        TOTAL       INT   RESTART
 CPU TIMES  *         1.50      0.81      0.41
 REAL TIME  *         2.52 SEC
 DISK USED  *        58.35 MB (local),      810.96 MB (total)
 GA USED    *         0.00 MB       (max)       0.00 MB       (current)
 **********************************************************************************************************************************


 Program * Restricted Hartree-Fock

 Orbital guess generated from atomic densities. Full valence occupancy:    8

 Initial alpha occupancy:   5
 Initial beta  occupancy:   4

 NELEC=    9   SYM=1   MS2= 1   THRE=1.0D-08   THRD=3.2D-06   THRG=3.2D-06  HFMA2=F  DIIS_START=2   DIIS_MAX=10   DIIS_INCORE=F

 Level shifts:    0.00 (CLOSED)    0.00 (OPEN)    0.30 (GAP_MIN)

 ITER           ETOT              DE          GRAD        DDIFF     DIIS  NEXP   TIME(IT)  TIME(TOT)  DIAG
   1      -39.56819284     -39.56819284     0.00D+00     0.57D-01     0     0       0.06      0.08    start
   2      -39.57490730      -0.00671445     0.29D-02     0.33D-02     1     0       0.03      0.11    diag2
   3      -39.57554578      -0.00063848     0.75D-03     0.75D-03     2     0       0.03      0.14    diag2
   4      -39.57557425      -0.00002847     0.16D-03     0.21D-03     3     0       0.03      0.17    diag2
   5      -39.57557660      -0.00000235     0.42D-04     0.66D-04     4     0       0.02      0.19    diag2
   6      -39.57557677      -0.00000017     0.80D-05     0.19D-04     5     0       0.03      0.22    diag2
   7      -39.57557679      -0.00000002     0.25D-05     0.72D-05     6     0       0.03      0.25    diag2
   8      -39.57557679      -0.00000000     0.39D-06     0.12D-05     7     0       0.03      0.28    diag2
   9      -39.57557679      -0.00000000     0.19D-07     0.82D-07     0     0       0.03      0.31    diag

 Final alpha occupancy:   5
 Final beta  occupancy:   4

 !RHF STATE 1.1 Energy                -39.575576788352
  RHF One-electron energy             -71.612648135370
  RHF Two-electron energy              22.342066669526
  RHF Kinetic energy                   39.538870650857
  RHF Nuclear energy                    9.695004677492
  RHF Virial quotient                  -1.000928355739

 !RHF STATE 1.1 Dipole moment           0.00000001    -0.00000006    -0.00000000
 Dipole moment /Debye                   0.00000002    -0.00000016    -0.00000000

 Orbital energies:

           1.1          2.1          3.1          4.1          5.1          6.1          7.1
    -11.224204    -0.902266    -0.575353    -0.575353    -0.374163     0.069002     0.075522


 HOMO      5.1    -0.374163 =     -10.1815eV
 LUMO      6.1     0.069002 =       1.8776eV
 LUMO-HOMO         0.443165 =      12.0591eV

 Orbitals saved in record  2105.2


 **********************************************************************************************************************************
 DATASETS  * FILE   NREC   LENGTH (MB)   RECORD NAMES
              1      19       29.27       500      703      610      704      900      950      970     1005      129      960   
                                          VAR     GEOM    BASINP    GEOM    SYMINP    ZMAT    AOBASIS   BASIS     P2S    ABASIS    
                                         1100     1400     1410     1200     1210     1080     1600     1650     1700   
                                           S        T        V       H0       H01     AOSYM     SMH    MOLCAS    OPER   

              2      23       31.76       500      610      700     1000      520     2100     7360     7350      701     1001   
                                          VAR    BASINP    GEOM     BASIS   MCVARS     RHF    F12ABS    EF12     GEOM     BASIS   
                                         2101      701(1)  1002     2102      702     1003     2103      703     1004     2104   
                                          RHF     GEOM     BASIS     RHF     GEOM     BASIS     RHF     GEOM     BASIS     RHF  
                                          704     1005     2105   
                                         GEOM     BASIS     RHF  

 PROGRAMS   *        TOTAL    HF-SCF       INT   RESTART
 CPU TIMES  *         1.87      0.34      0.81      0.41
 REAL TIME  *         2.96 SEC
 DISK USED  *        62.48 MB (local),      848.20 MB (total)
 GA USED    *         0.00 MB       (max)       0.00 MB       (current)
 **********************************************************************************************************************************


 PROGRAM * CCSD (Unrestricted open-shell coupled cluster)     Authors: C. Hampel, H.-J. Werner, 1991, M. Deegan, P.J. Knowles, 1992

                           UCCSD-F12 implementation by G. Knizia and H.-J. Werner, 2008

                   Density fitting integral evaluation by F.R. Manby, 2003,2007, G. Knizia, 2010


 Basis set VTZ-F12/JKFIT generated.      Number of basis functions:   242 
 Basis set CC-PVTZ-F12/OPTRI generated.  Number of basis functions:   198 
 Basis set CC-PVTZ-F12/MP2FIT generated. Number of basis functions:   244 

 Convergence thresholds:  THRVAR = 1.00D-08  THRDEN = 1.00D-06

 CCSD(T)     terms to be evaluated (factor= 1.000)


 Number of core orbitals:           1 (   1 )
 Number of closed-shell orbitals:   3 (   3 )
 Number of active  orbitals:        1 (   1 )
 Number of external orbitals:     102 ( 102 )

 Memory could be reduced to 11.73 Mwords without degradation in triples

 Number of N-1 electron functions:               7
 Number of N-2 electron functions:              21
 Number of singly external CSFs:               721
 Number of doubly external CSFs:            174585
 Total number of CSFs:                      175306

 Molecular orbitals read from record     2105.2  Type=RHF/CANONICAL  

 Integral transformation finished. Total CPU:   0.29 sec, npass=  1  Memory used:   3.52 MW

 Geminal basis:    OPTFULL  GEM_TYPE=SLATER  BETA=1.0  NGEM=6

 Optimizing Gaussian exponents for each gem_beta

 Geminal optimization for beta= 1.0000
 Weight function:   m=0, omega= 1.4646

 Augmented Hessian optimization of geminal fit. Trust ratio= 0.40000
 Convergence reached after   2 iterations. Final gradient= 8.66D-16, Step= 4.23D-06, Delta= 1.28D-09

 Alpha:                 0.19532     0.81920     2.85917     9.50073    35.69989   197.79328
 Coeff:                 0.27070     0.30552     0.18297     0.10986     0.06810     0.04224


 WFN_F12=FIX,EG    DECOUPLE_EXPL=F   HYBRID=0    NOX=F   SEMIINT_F12=T   CORE_SINGLES=F


 AO(A)-basis ORBITAL           loaded. Number of functions:     107
 RI(R)-basis CC-PVTZ-F12/OPTRI loaded. Number of functions:     198
 DF-basis VTZ-F12/JKFIT        loaded. Number of functions:     242

 Screening thresholds:   THRAO=  1.00D-10  THRMO=  1.00D-09  THRPROD=  1.00D-09
                         THRSW=  1.00D-05  THROV=  1.00D-12  THRAOF12= 1.00D-08

 CPU time for one-electron matrices               0.16 sec

 Construction of ABS:
 Pseudo-inverse stability          3.11E-12
 Smallest eigenvalue of S          3.39E-04  (threshold= 1.00E-08)
 Ratio eigmin/eigmax               5.18E-05  (threshold= 1.00E-09)
 Smallest eigenvalue of S kept     3.39E-04  (threshold= 3.39E-04, 0 functions deleted, 198 kept)

 Construction of CABS:
 Pseudo-inverse stability          1.39E-10
 Smallest eigenvalue of S          1.28E-06  (threshold= 1.00E-08)
 Ratio eigmin/eigmax               1.28E-06  (threshold= 1.00E-09)
 Smallest eigenvalue of S kept     1.28E-06  (threshold= 1.28E-06, 0 functions deleted, 198 kept)

 CPU time for basis constructions                 0.03 sec
 Fock operators(MO) rebuilt from dump record.
 CPU time for Fock operator transformation        0.03 sec

                                      TOTAL          ALPHA          BETA    
  Singles Contributions MO        -0.002629705   -0.001327870   -0.001301835
  Singles Contributions CABS      -0.000470366   -0.000274233   -0.000196133
  Pure DF-RHF relaxation          -0.000464064

 CPU time for RHF CABS relaxation                 0.03 sec
 CPU time for singles (tot)                       0.07 sec

 AO(A)-basis ORBITAL           loaded. Number of functions:     107
 RI(R)-basis CC-PVTZ-F12/OPTRI loaded. Number of functions:     198
 DF-basis CC-PVTZ-F12/MP2FIT   loaded. Number of functions:     244

 Screening thresholds:   THRAO=  1.00D-10  THRMO=  1.00D-09  THRPROD=  1.00D-09
                         THRSW=  1.00D-05  THROV=  1.00D-12  THRAOF12= 1.00D-08

 CPU time for transformed integrals               0.41 sec
 CPU time for F12 matrices                        0.09 sec

 Diagonal F12 ansatz with fixed amplitudes:   TS= 0.5000  TT= 0.2500  TN= 0.3750

 ITER.     SQ.NORM      CORR.ENERGY   TOTAL ENERGY  ENERGY CHANGE      VAR         CPU   MICRO    DIIS
   1      1.05256584    -0.18188140   -39.75792225    -1.8235E-01   5.10E-02      0.01  1  1  1   0  0
   2      1.05196161    -0.18105312   -39.75709397     8.2828E-04   1.98E-05      0.02  0  0  0   1  1
   3      1.05200441    -0.18110353   -39.75714438    -5.0410E-05   5.60E-08      0.05  0  0  0   2  2
   4      1.05200430    -0.18110364   -39.75714449    -1.1247E-07   1.26E-10      0.07  0  0  0   3  3

 - - Continuing with F12/conv. amplitude coupling turned on.

   5      1.05194261    -0.18103701   -39.75707786     6.6519E-05   1.61E-05      0.08  1  1  1   1  1
   6      1.05194223    -0.18103702   -39.75707787    -1.0865E-08   3.77E-10      0.11  1  1  1   2  2

 CPU time for iterative RMP2-F12                  0.11 sec


 DF-RMP2-F12 doubles corrections:
 - - - - - - - - - - - - - - - - 
  Approx.                             TOTAL           A-B            A-A            B-B    
  RMP2-F12/3C(FIX)                -0.014181454   -0.013509847   -0.000500661   -0.000170947
  RMP2-F12/3*C(FIX)               -0.014248075   -0.013579845   -0.000499020   -0.000169210
  RMP2-F12/3*C(DX)                -0.014256575   -0.013588186   -0.000499160   -0.000169229
  RMP2-F12/3*C(FIX,DX)            -0.014466575   -0.013806479   -0.000491995   -0.000168102

 DF-RMP2-F12 doubles energies:
 - - - - - - - - - - - - - - -
  Approx.                             TOTAL           A-B            A-A            B-B    
  RMP2                            -0.164225861   -0.133434004   -0.022590399   -0.008201458
  RMP2-F12/3C(FIX)                -0.178407315   -0.146943850   -0.023091059   -0.008372405
  RMP2-F12/3*C(FIX)               -0.178473936   -0.147013848   -0.023089419   -0.008370669
  RMP2-F12/3*C(DX)                -0.178482435   -0.147022190   -0.023089559   -0.008370687
  RMP2-F12/3*C(FIX,DX)            -0.178692436   -0.147240483   -0.023082393   -0.008369560


  Reference energy                    -39.575576788352
  CABS relaxation correction to RHF    -0.000464064251
  New reference energy                -39.576040852603

  RMP2-F12 singles (MO) energy         -0.002629705143
  RMP2-F12 pair energy                 -0.178407314803
  RMP2-F12 correlation energy          -0.181037019946

 !RMP2-F12/3C(FIX) energy             -39.757077872549

 Starting RMP2 calculation, locsing= 0

 ITER.      SQ.NORM     CORR.ENERGY   TOTAL ENERGY   ENERGY CHANGE        DEN1      VAR(S)    VAR(P)  DIIS     TIME
   1      1.05148508    -0.16626672   -39.74184351    -0.16626672    -0.00055567  0.82D-05  0.21D-03  1  1     1.33
   2      1.05199501    -0.16686359   -39.74244037    -0.00059687    -0.00000057  0.17D-07  0.24D-06  2  2     1.34
   3      1.05200562    -0.16687035   -39.74244714    -0.00000677    -0.00000000  0.52D-10  0.61D-09  3  3     1.36
   4      1.05200569    -0.16687035   -39.74244714     0.00000000    -0.00000000  0.20D-12  0.17D-11  4  4     1.38

 Norm of t1 vector:      0.03984022      S-energy:    -0.00262971      T1 diagnostic:  0.00011308
 Norm of t2 vector:      0.22454053      P-energy:    -0.16424065
                                         Alpha-Beta:  -0.13348986
                                         Alpha-Alpha: -0.02255433
                                         Beta-Beta:   -0.00819646

 Spin contamination <S**2-Sz**2-Sz>     0.00019442
  Reference energy                    -39.575576788352
  CABS singles correction              -0.000464064251
  New reference energy                -39.576040852603
  RHF-RMP2 correlation energy          -0.166870351204
 !RHF-RMP2 energy                     -39.742911203807

  F12/3C(FIX) correction               -0.014181454084
  RHF-RMP2-F12 correlation energy      -0.181051805288
 !RHF-RMP2-F12 total energy           -39.757092657891

 Starting UCCSD calculation

 ITER.      SQ.NORM     CORR.ENERGY   TOTAL ENERGY   ENERGY CHANGE        DEN1      VAR(S)    VAR(P)  DIIS     TIME
   1      1.06045831    -0.17624517   -39.75182196    -0.17624517    -0.00533413  0.40D-03  0.14D-02  1  1     1.52
   2      1.06655639    -0.18219908   -39.75777587    -0.00595391    -0.00025333  0.22D-04  0.80D-04  2  2     1.65
   3      1.06809597    -0.18313934   -39.75871613    -0.00094026    -0.00002483  0.22D-05  0.94D-05  3  3     1.78
   4      1.06854891    -0.18332284   -39.75889963    -0.00018350    -0.00000321  0.17D-06  0.15D-05  4  4     1.92
   5      1.06868375    -0.18334972   -39.75892650    -0.00002687    -0.00000037  0.86D-08  0.18D-06  5  5     2.05
   6      1.06871291    -0.18335685   -39.75893364    -0.00000713    -0.00000003  0.54D-08  0.11D-07  6  6     2.18
   7      1.06871466    -0.18335661   -39.75893340     0.00000024    -0.00000000  0.13D-08  0.77D-09  6  1     2.32

 Norm of t1 vector:      0.05413869      S-energy:    -0.00302824      T1 diagnostic:  0.00630281
                                                                       D1 diagnostic:  0.01053114
                                                                       D2 diagnostic:  0.13776539 (internal)
 Norm of t2 vector:      0.25648325      P-energy:    -0.18032837
                                         Alpha-Beta:  -0.14970219
                                         Alpha-Alpha: -0.02286275
                                         Beta-Beta:   -0.00776343

 Spin contamination <S**2-Sz**2-Sz>     0.00007922

 Memory could be reduced to 12.24 Mwords without degradation in triples


 RESULTS
 =======

  Reference energy                    -39.575576788352
  CABS relaxation correction to RHF    -0.000464064251
  New reference energy                -39.576040852603

  F12 corrections for ansatz 3C(FIX) added to UCCSD energy. Coupling mode: 15

  UCCSD-F12a singles energy            -0.003028239986
  UCCSD-F12a pair energy               -0.194491092336
  UCCSD-F12a correlation energy        -0.197519332322
  Triples (T) contribution             -0.005094580810
  Total correlation energy             -0.202613913133

  RHF-UCCSD-F12a energy               -39.773560184926
  RHF-UCCSD[T]-F12a energy            -39.778741007085
  RHF-UCCSD-T-F12a energy             -39.778617844309
 !RHF-UCCSD(T)-F12a energy            -39.778654765736

  F12 corrections for ansatz 3C(FIX) added to UCCSD energy. Coupling mode: 15

  UCCSD-F12b singles energy            -0.003028239986
  UCCSD-F12b pair energy               -0.191469123819
  UCCSD-F12b correlation energy        -0.194497363806
  Triples (T) contribution             -0.005094580810
  Total correlation energy             -0.199591944616

  RHF-UCCSD-F12b energy               -39.770538216409
  RHF-UCCSD[T]-F12b energy            -39.775719038568
  RHF-UCCSD-T-F12b energy             -39.775595875792
 !RHF-UCCSD(T)-F12b energy            -39.775632797219

 Program statistics:

 Available memory in ccsd:                89999027
 Min. memory needed in ccsd:                775665
 Max. memory used in ccsd:                  953482
 Max. memory used in cckext:                681731 ( 8 integral passes)
 Max. memory used in cckint:               3517976 ( 1 integral passes)



 **********************************************************************************************************************************
 DATASETS  * FILE   NREC   LENGTH (MB)   RECORD NAMES
              1      19       29.27       500      703      610      704      900      950      970     1005      129      960   
                                          VAR     GEOM    BASINP    GEOM    SYMINP    ZMAT    AOBASIS   BASIS     P2S    ABASIS    
                                         1100     1400     1410     1200     1210     1080     1600     1650     1700   
                                           S        T        V       H0       H01     AOSYM     SMH    MOLCAS    OPER   

              2      23       31.76       500      610      700     1000      520     2100     7360     7350      701     1001   
                                          VAR    BASINP    GEOM     BASIS   MCVARS     RHF    F12ABS    EF12     GEOM     BASIS   
                                         2101      701(1)  1002     2102      702     1003     2103      703     1004     2104   
                                          RHF     GEOM     BASIS     RHF     GEOM     BASIS     RHF     GEOM     BASIS     RHF  
                                          704     1005     2105   
                                         GEOM     BASIS     RHF  

 PROGRAMS   *        TOTAL  UCCSD(T)    HF-SCF       INT   RESTART
 CPU TIMES  *         5.32      3.43      0.34      0.81      0.41
 REAL TIME  *         7.58 SEC
 DISK USED  *        81.55 MB (local),     1019.76 MB (total)
 SF USED    *       243.51 MB
 GA USED    *         3.05 MB       (max)       0.00 MB       (current)
 **********************************************************************************************************************************

 UCCSD(T)-F12/cc-pVTZ-F12 energy=    -39.775632797219

    UCCSD(T)-F12          HF-SCF
    -39.77563280    -39.57557679
 **********************************************************************************************************************************
 Molpro calculation terminated
