
 Working directory              : /var/lib/condor/execute/dir_7505/molpro.eQQa58sPYm/
 Global scratch directory       : /var/lib/condor/execute/dir_7505/molpro.eQQa58sPYm/
 Wavefunction directory         : /srv01/technion/alongd/wfu/
 Main file repository           : /var/lib/condor/execute/dir_7505/molpro.eQQa58sPYm/

 id        : dana

 Nodes     nprocs
 tech-wn083    9
 Distribution of processes:   nprocs(total)=   10   nprocs(compute)=    9   nprocs(helper)=    1
 GA implementation: MPI file
 GA implementation (serial work in mppx): MPI file

 Using customized tuning parameters: mindgm=1; mindgv=20; mindgc=4; mindgr=1; noblas=0; minvec=7
 default implementation of scratch files=sf  


 Variables initialized (1009), CPU time= 0.01 sec
 ***,Aziridine
 memory,90,m;
 file,1,file1.int                                                                !allocate permanent integral file
 file,2,file2.wfu                                                                !allocate permanent wave-function (dump) file
 
 geometry={angstrom;
 C      -0.67962600   -0.39174100    0.03988900
 N      -0.18463800    0.86200800   -0.54883200
 C       0.77347400   -0.13091200   -0.03929800
 H      -1.14266500   -1.06822400   -0.66520400
 H      -1.14865200   -0.35569200    1.01484000
 H      -0.28404700    1.61862000    0.11912700
 H       1.30075900    0.08397300    0.88135900
 H       1.36539600   -0.61803200   -0.80188100}
 
 basis=cc-pvtz-f12
 
 
 
 int;
 {hf;
 maxit,1000;
 wf,spin=0,charge=0;}
 
 ccsd(t)-f12;
 
 
 
 Commands initialized (810), CPU time= 0.01 sec, 661 directives.
 Default parameters read. Elapsed time= 0.20 sec

 Checking input...
 Passed
1


                                         ***  PROGRAM SYSTEM MOLPRO  ***
                                       Copyright, TTI GmbH Stuttgart, 2015
                                    Version 2021.2 linked Jul 16 2021 12:17:16


 **********************************************************************************************************************************
 LABEL *   Aziridine                                                                     
  64 bit mpp version                                                                     DATE: 12-Nov-22          TIME: 21:53:13  
 **********************************************************************************************************************************

 SHA1:             dade016a989826d9d859d6207854b99675d53db3
 **********************************************************************************************************************************

 Memory per process:        90 MW
 Total memory per node:    810 MW

 GA preallocation disabled
 GA check disabled

 Variable memory set to 90.0 MW



 Permanent file  1  file1.int        assigned.  Implementation=df  
 Permanent file  2  file2.wfu        assigned.  Implementation=df    Size= 18.65 MB


 PROGRAM * RESTART 


 Reading variables from file 2

 _FNUC           =      0.00000000
 _BASIS          =    CC-PVTZ-F12
 _NELEC          =     22.00000000
 _PROGRAM        =    CCSD(T)-F12
 _DMX_SCF        =     -0.28013998
 _DMY_SCF        =     -0.49241384
 _DMZ_SCF        =     -0.33628956
 _HOMO           =     11.10000000
 _EHOMO          =     -0.37872173
 _LUMO           =     12.10000000
 _ELUMO          =      0.04278138
 _EMP2           =   -152.30276257
 _EMP2_SING      =     -0.35304273
 _EMP2_TRIP      =     -0.21002686
 _EMP2_SINGLES   =      0.00000000
 _EMP2_SCS       =   -152.29402764
 _ECSING(1:2)    =     -0.41941747    -0.41162650
 _ECTRIP(1:2)    =     -0.18816296    -0.18757905
 _ECTRIPAB(1:2)  =     -0.04604182    -0.04589467
 _ECTRIPAA(1:2)  =     -0.05241435    -0.05224119
 _ECTRIPBB(1:2)  =     -0.04194683    -0.04182579
 _ECSINGLES      =     -0.00459279
 _EF12           =     -0.04735888
 _EF12_SING      =     -0.04242384
 _EF12_TRIP      =     -0.00493505
 _ECSING_F12(1:2)=     -0.03162856    -0.02563115
 _ECTRIP_F12(1:2)=     -0.00354597    -0.00310462
 _ECTRIPAB_F12(1:2)   =     -0.00118323    -0.00103609
 _ECTRIPAA_F12(1:2)   =     -0.00142865    -0.00125550
 _ECTRIPBB_F12(1:2)   =     -0.00093408    -0.00081304
 _EF12_RHFRELAX  =     -0.00126054
 _EF12_CONVSUPPRS=     -0.00043897
 _EF12_CONVSUPPRT=     -0.00013803
 _EF12_SINGLES   =     -0.00126054
 _EF12_SCS       =     -0.05397930
 _EF12_STRONG    =     -0.04735888
 _EF12_CLOSE     =      0.00000000
 _EF12_WEAK      =      0.00000000
 _EF12_DIST      =      0.00000000
 _EF12S          =     -0.04728462
 _EF12S_SING     =     -0.04249796
 _EF12S_TRIP     =     -0.00478665
 _EF12S_SCS      =     -0.05397592
 _EF12S_STRONG   =     -0.04728462
 _EF12S_CLOSE    =      0.00000000
 _EF12S_WEAK     =      0.00000000
 _EF12S_DIST     =      0.00000000
 _EF12D          =     -0.04969314
 _EF12D_SING     =     -0.04459596
 _EF12D_TRIP     =     -0.00509718
 _EF12D_SCS      =     -0.05668673
 _EF12D_STRONG   =     -0.04969314
 _EF12D_CLOSE    =      0.00000000
 _EF12D_WEAK     =      0.00000000
 _EF12D_DIST     =      0.00000000
 _EF12F          =     -0.03703261
 _EF12F_SING     =     -0.03336182
 _EF12F_TRIP     =     -0.00367078
 _EF12F_SCS      =     -0.04231889
 _ENERGC(1:2)    =   -152.34727259  -152.33889772
 _ENERG_CC(1:2)  =      0.00000000     0.00000000
 _ENERG_CV(1:2)  =      0.00000000     0.00000000
 _ENERG_VV(1:2)  =     -0.60757962    -0.59920474
 _ENERGR         =   -151.73969298
 _ENERGT(1:3)    =   -152.36580392  -152.36682586  -152.36537395
 _ENERGY(1:2)    =   -152.37417880  -152.36580392
 _ENERGY_METHOD  =    CCSD(T)-F12
 _ENERGY_BASIS   =    cc-pVTZ-F12
 _ENUC           =     58.20114233
 _IPROC_MPP      =      0.00000000
 _IPROC_MPPX     =      0.00000000
 _ORBITAL        =   2100.20000000
 _ECDIAG(1:2)    =     -0.15718011    -0.15438166
 _EPDIAG(1:2)    =     -0.15718011    -0.15438166
 _STATUS         =      1.00000000
 _T1DIAG         =      0.01346573
 _D1DIAG         =      0.03078742
 _D2DIAG         =      0.17516384
 !DFBASIS_MP2    =    CC-PVTZ-F12-MP2FIT
 !DFBASIS_F12K   =    VTZ-F12-JKFIT
 !RIBASIS_MP2    =    CC-PVTZ-F12_OPT
 !RIBASIS_EXCH   =     
 _METHODC        =    CCSD-F12a
 _METHODC        =    CCSD-F12b
 _METHODT        =    CCSD(T)-F12b
 _METHODT        =    CCSD[T]-F12b
 _METHODT        =    CCSD-T-F12b
 _OUTPUT         =    /storage/ce_dana/alongd/runs/ARC/arkane_examples/thermo3/calcs/Species/Ethynol/sp_a48600/input.out
 _PGROUP         =    C1  
 _TIME           =    20:17:33
 _ANSATZ         =    F12/3C(FIX)
 _SVDDEL         =      0.00000000
 _SYM_CATION     =      1.00000000

 Geometry written to block  1 of record 700


 **********************************************************************************************************************************
 DATASETS  * FILE   NREC   LENGTH (MB)   RECORD NAMES
              1       2       11.48       500      700   
                                          VAR     GEOM   

              2      11       18.65       500      610      700     1000      520     2100     7360     7350      701     1001   
                                          VAR    BASINP    GEOM     BASIS   MCVARS     RHF    F12ABS    EF12     GEOM     BASIS   
                                         2101   
                                          RHF  

 PROGRAMS   *        TOTAL   RESTART
 CPU TIMES  *         0.64      0.46
 REAL TIME  *         0.78 SEC
 DISK USED  *        30.13 MB (local),      271.16 MB (total)
 **********************************************************************************************************************************

 Geometry recognized as XYZ

 SETTING BASIS          =    CC-PVTZ-F12


 Using spherical harmonics

 Library entry C      S cc-pVTZ-F12          selected for orbital group  1
 Library entry C      P cc-pVTZ-F12          selected for orbital group  1
 Library entry C      D cc-pVTZ-F12          selected for orbital group  1
 Library entry C      F cc-pVTZ-F12          selected for orbital group  1
 Library entry N      S cc-pVTZ-F12          selected for orbital group  2
 Library entry N      P cc-pVTZ-F12          selected for orbital group  2
 Library entry N      D cc-pVTZ-F12          selected for orbital group  2
 Library entry N      F cc-pVTZ-F12          selected for orbital group  2
 Library entry H      S cc-pVTZ-F12          selected for orbital group  4
 Library entry H      P cc-pVTZ-F12          selected for orbital group  4
 Library entry H      D cc-pVTZ-F12          selected for orbital group  4


 PROGRAM * SEWARD (Integral evaluation for generally contracted gaussian basis sets)     Author: Roland Lindh, 1990

 Geometry written to block  1 of record 701


 Point group  C1  



 ATOMIC COORDINATES

 NR  ATOM    CHARGE       X              Y              Z

   1  C       6.00   -1.284307007   -0.740283202    0.075379285
   2  N       7.00   -0.348915252    1.628959037   -1.037142168
   3  C       6.00    1.461654025   -0.247387826   -0.074262457
   4  H       1.00   -2.159323902   -2.018650800   -1.257053377
   5  H       1.00   -2.170637693   -0.672160465    1.917769660
   6  H       1.00   -0.536771037    3.058748500    0.225117404
   7  H       1.00    2.458078264    0.158685972    1.665527127
   8  H       1.00    2.580224492   -1.167911216   -1.515335475

 Bond lengths in Bohr (Angstrom)

 1-2  2.779563007  1-3  2.793857636  1-4  2.043344093  1-5  2.045635619  2-3  2.779563994
     ( 1.470881399)     ( 1.478445791)     ( 1.081291128)     ( 1.082503751)     ( 1.470881922)

 2-6  1.916477741  3-7  2.045635597  3-8  2.043343985
     ( 1.014156346)     ( 1.082503740)     ( 1.081291071)

 Bond angles

  1-2-3   60.34052316   1-2-6  109.83499636   1-3-2   59.82972092   1-3-7  117.91848679

  1-3-8  119.75771130   2-1-3   59.82975593   2-1-4  114.60639388   2-1-5  118.54878959

  2-3-7  118.54880113   2-3-8  114.60643420   3-1-4  119.75773683   3-1-5  117.91850645

  3-2-6  109.83492923   4-1-5  114.99810622   7-3-8  114.99812063

 NUCLEAR CHARGE:                   24
 NUMBER OF PRIMITIVE AOS:         321
 NUMBER OF SYMMETRY AOS:          289
 NUMBER OF CONTRACTIONS:          249   (  249A   )
 NUMBER OF INNER CORE ORBITALS:     0   (    0A   )
 NUMBER OF OUTER CORE ORBITALS:     3   (    3A   )
 NUMBER OF VALENCE ORBITALS:       17   (   17A   )

 MOLECULE CHANGED: INITIALIZING OCCUPATION AND DUMP RECORDS


 NUCLEAR REPULSION ENERGY   76.28151009


 Eigenvalues of metric

         1 0.559E-04 0.829E-04 0.150E-03 0.155E-03 0.164E-03 0.182E-03 0.212E-03 0.263E-03


 Contracted 2-electron integrals neglected if value below      1.0D-11
 AO integral compression algorithm  1   Integral accuracy      1.0D-11

     2297.692 MB (compressed) written to integral file ( 52.3%)

     Node minimum: 247.726 MB, node maximum: 261.620 MB


 NUMBER OF SORTED TWO-ELECTRON INTEGRALS:   53825499.     BUFFER LENGTH:  32768
 NUMBER OF SEGMENTS:   4  SEGMENT LENGTH:   15998004      RECORD LENGTH: 524288

 Memory used in sort:      16.56 MW

 SORT1 READ   549012051. AND WROTE    53366394. INTEGRALS IN    154 RECORDS. CPU TIME:    28.12 SEC, REAL TIME:    36.04 SEC
 SORT2 READ   480343771. AND WROTE   484398375. INTEGRALS IN   8658 RECORDS. CPU TIME:     1.38 SEC, REAL TIME:    13.52 SEC

 Node minimum:    53808209.  Node maximum:    53835876. integrals

 OPERATOR DM      FOR CENTER  0  COORDINATES:    0.000000    0.000000    0.000000


 **********************************************************************************************************************************
 DATASETS  * FILE   NREC   LENGTH (MB)   RECORD NAMES
              1      19       31.13       500      700      610      701      900      950      970     1002      129      960   
                                          VAR     GEOM    BASINP    GEOM    SYMINP    ZMAT    AOBASIS   BASIS     P2S    ABASIS    
                                         1100     1400     1410     1200     1210     1080     1600     1650     1700   
                                           S        T        V       H0       H01     AOSYM     SMH    MOLCAS    OPER   

              2      13       18.93       500      610      700     1000      520     2100     7360     7350      701     1001   
                                          VAR    BASINP    GEOM     BASIS   MCVARS     RHF    F12ABS    EF12     GEOM     BASIS   
                                         2101      701(1)  1002   
                                          RHF     GEOM     BASIS   

 PROGRAMS   *        TOTAL       INT   RESTART
 CPU TIMES  *        33.82     33.16      0.46
 REAL TIME  *        66.40 SEC
 DISK USED  *        50.13 MB (local),        7.86 GB (total)
 GA USED    *         0.00 MB       (max)       0.00 MB       (current)
 **********************************************************************************************************************************


 Program * Restricted Hartree-Fock

 Orbital guess generated from atomic densities. Full valence occupancy:   20

 Initial occupancy:  12

 NELEC=   24   SYM=1   MS2= 0   THRE=1.0D-08   THRD=3.2D-06   THRG=3.2D-06  HFMA2=F  DIIS_START=2   DIIS_MAX=10   DIIS_INCORE=F

 Level shifts:    0.00 (CLOSED)    0.00 (OPEN)    0.30 (GAP_MIN)

 ITER           ETOT              DE          GRAD        DDIFF     DIIS  NEXP   TIME(IT)  TIME(TOT)  DIAG
   1     -133.06995871    -133.06995871     0.00D+00     0.39D-01     0     0       0.60      1.12    start
   2     -133.09628562      -0.02632691     0.28D-02     0.28D-02     1     0       0.55      1.67    diag
   3     -133.09853511      -0.00224949     0.85D-03     0.72D-03     2     0       0.61      2.28    diag
   4     -133.09899777      -0.00046265     0.40D-03     0.35D-03     3     0       0.55      2.83    diag
   5     -133.09903245      -0.00003469     0.87D-04     0.88D-04     4     0       0.56      3.39    diag
   6     -133.09903534      -0.00000288     0.22D-04     0.26D-04     5     0       0.62      4.01    diag
   7     -133.09903564      -0.00000030     0.65D-05     0.83D-05     6     0       0.55      4.56    diag
   8     -133.09903568      -0.00000003     0.21D-05     0.29D-05     7     0       0.51      5.07    diag
   9     -133.09903568      -0.00000000     0.60D-06     0.90D-06     8     0       0.49      5.56    diag
  10     -133.09903568      -0.00000000     0.12D-06     0.21D-06     0     0       0.50      6.06    diag/orth

 Final occupancy:  12

 !RHF STATE 1.1 Energy               -133.099035677995
  RHF One-electron energy            -330.207307949172
  RHF Two-electron energy             120.826762177430
  RHF Kinetic energy                  132.930054289049
  RHF Nuclear energy                   76.281510093748
  RHF Virial quotient                  -1.001271205296

 !RHF STATE 1.1 Dipole moment           0.07479082    -0.20642464     0.69249554
 Dipole moment /Debye                   0.19009930    -0.52467910     1.76014809

 Orbital energies:

           1.1          2.1          3.1          4.1          5.1          6.1          7.1          8.1          9.1         10.1
    -15.556427   -11.254022   -11.253260    -1.256506    -0.896100    -0.839812    -0.699195    -0.638823    -0.529269    -0.479488

          11.1         12.1         13.1         14.1
     -0.479072    -0.394924     0.050692     0.057814


 HOMO     12.1    -0.394924 =     -10.7464eV
 LUMO     13.1     0.050692 =       1.3794eV
 LUMO-HOMO         0.445616 =      12.1258eV

 Orbitals saved in record  2102.2


 **********************************************************************************************************************************
 DATASETS  * FILE   NREC   LENGTH (MB)   RECORD NAMES
              1      19       31.13       500      700      610      701      900      950      970     1002      129      960   
                                          VAR     GEOM    BASINP    GEOM    SYMINP    ZMAT    AOBASIS   BASIS     P2S    ABASIS    
                                         1100     1400     1410     1200     1210     1080     1600     1650     1700   
                                           S        T        V       H0       H01     AOSYM     SMH    MOLCAS    OPER   

              2      14       22.26       500      610      700     1000      520     2100     7360     7350      701     1001   
                                          VAR    BASINP    GEOM     BASIS   MCVARS     RHF    F12ABS    EF12     GEOM     BASIS   
                                         2101      701(1)  1002     2102   
                                          RHF     GEOM     BASIS     RHF  

 PROGRAMS   *        TOTAL    HF-SCF       INT   RESTART
 CPU TIMES  *        39.98      6.12     33.16      0.46
 REAL TIME  *        73.41 SEC
 DISK USED  *        57.49 MB (local),        7.92 GB (total)
 GA USED    *         0.00 MB       (max)       0.00 MB       (current)
 **********************************************************************************************************************************


 PROGRAM * CCSD (Closed-shell coupled cluster)     Authors: C. Hampel, H.-J. Werner, 1991, M. Deegan, P.J. Knowles, 1992

                                  CCSD-F12 implementation by  H.-J. Werner, 2007

                   Density fitting integral evaluation by F.R. Manby, 2003,2007, G. Knizia, 2010


 Basis set VTZ-F12/JKFIT generated.      Number of basis functions:   542 
 Basis set CC-PVTZ-F12/OPTRI generated.  Number of basis functions:   430 
 Basis set CC-PVTZ-F12/MP2FIT generated. Number of basis functions:   548 

 Convergence thresholds:  THRVAR = 1.00D-08  THRDEN = 1.00D-06

 CCSD(T)     terms to be evaluated (factor= 1.000)


 Number of core orbitals:           3 (   3 )
 Number of closed-shell orbitals:   9 (   9 )
 Number of external orbitals:     237 ( 237 )

 Molecular orbitals read from record     2102.2  Type=RHF/CANONICAL  

 MP2-F12 correlation treatment (H.-J. Werner, 2006)
 ==================================================

 Using MP2-F12 with ansatz 3C(FIX)

 Using projected zeroth-order Hamiltonian (+Z)

 FOCKRIB=T FOCKRIC=T FOCKRIP=T CABSP=T CABSA=T CABSK=T CABSF=T GBC=F EBC=F DMAT=T NOFIK=T NOPAO=1 SOLVE=-1  USEPAO=0
 EXCH_A= T EXCH_B= F EXCH_C= F EXCH_P= F

 Geminal basis:    OPTFULL  GEM_TYPE=SLATER  BETA=1.0  NGEM=6

 Optimizing Gaussian exponents for each gem_beta

 Geminal optimization for beta= 1.0000
 Weight function:   m=0, omega= 1.4646

 Augmented Hessian optimization of geminal fit. Trust ratio= 0.40000
 Convergence reached after   2 iterations. Final gradient= 9.01D-16, Step= 4.09D-06, Delta= 1.28D-09

 Alpha:                 0.19532     0.81920     2.85917     9.50073    35.69989   197.79328
 Coeff:                 0.27070     0.30552     0.18297     0.10986     0.06810     0.04224


 All pairs explicitly correlated. Number of r12-pairs:           45

 Excluding core orbitals from MO domains

 AO(A)-basis ORBITAL           loaded. Number of functions:     249
 RI(R)-basis CC-PVTZ-F12/OPTRI loaded. Number of functions:     430
 DF-basis VTZ-F12/JKFIT        loaded. Number of functions:     542

 Screening thresholds:   THRAO=  1.00D-10  THRMO=  1.00D-09  THRPROD=  1.00D-09
                         THRSW=  1.00D-05  THROV=  1.00D-12  THRAOF12= 1.00D-08

 CPU time for Fock operators                      0.73 sec

 Construction of ABS:
 Smallest eigenvalue of S          6.61E-05  (threshold= 1.00E-08)
 Ratio eigmin/eigmax               7.15E-06  (threshold= 1.00E-09)
 Smallest eigenvalue of S kept     6.61E-05  (threshold= 6.61E-05, 0 functions deleted, 430 kept)

 Construction of CABS:
 Smallest eigenvalue of S          4.46E-07  (threshold= 1.00E-08)
 Ratio eigmin/eigmax               4.46E-07  (threshold= 1.00E-09)
 Smallest eigenvalue of S kept     4.46E-07  (threshold= 4.46E-07, 0 functions deleted, 430 kept)

 CPU time for CABS singles                        0.12 sec

 CABS-singles contribution of  -0.00136291 patched into reference energy.
 New reference energy        -133.10039859

 AO(A)-basis ORBITAL           loaded. Number of functions:     249
 RI(R)-basis CC-PVTZ-F12/OPTRI loaded. Number of functions:     430
 DF-basis CC-PVTZ-F12/MP2FIT   loaded. Number of functions:     548

 Screening thresholds:   THRAO=  1.00D-10  THRMO=  1.00D-09  THRPROD=  1.00D-09
                         THRSW=  1.00D-05  THROV=  1.00D-12  THRAOF12= 1.00D-08

 CPU time for 3-index integral evaluation         1.73 sec
 CPU time for first  half transformation          0.12 sec ( 7779.2 MFLOP/sec)
 CPU time for second half transformation          0.03 sec (  778.1 MFLOP/sec)
 CPU time for sorting                             0.07 sec
 CPU time for fitting                             0.02 sec (21471.7 MFLOP/sec)
 CPU time for tilde quantities                    0.04 sec (14294.5 MFLOP/sec)
 CPU time for assembly                            0.43 sec (14339.8 MFLOP/sec)
 CPU time for tranop_f12                          0.62 sec (11289.3 MFLOP/sec)
 CPU time for f12 integrals (total)               4.11 sec, Elapsed time:     11.22 sec
 F12-matrices built in  9 passes.
 F12-matrices built in  9 passes.
 F12-matrices built in  9 passes.
 F12-matrices built in  9 passes.
 FC-matrix built in  9 passes.
 CPU time for f12 matrices (total)                0.28 sec, Elapsed time:      0.30 sec

 Diagonal F12 approximation with fixed coefficients:  TSING= 0.500,  TTRIP= 0.250 (scaled by -1/beta)

 DF-MP2-F12 energy corrections:
 ==============================
 Approx.                                    Singlet             Triplet             Total
 DF-MP2-F12/3*C(DX,FIX)                -0.042715520647     -0.004277867022     -0.046993387668
 DF-MP2-F12/3*C(FIX)                   -0.041368438584     -0.004253215333     -0.045621653916
 DF-MP2-F12/3C(FIX)                    -0.041492186013     -0.004395467919     -0.045887653931

 DF-MP2-F12 correlation energies:
 ================================
 Approx.                                    Singlet             Triplet             Ecorr            Total Energy
 DF-MP2                                -0.370754346066     -0.198156920239     -0.568911266305   -133.669309854550
 DF-MP2-F12/3*C(DX,FIX)                -0.413469866713     -0.202434787260     -0.615904653973   -133.716303242218
 DF-MP2-F12/3*C(FIX)                   -0.412122784649     -0.202410135571     -0.614532920221   -133.714931508466
 DF-MP2-F12/3C(FIX)                    -0.412246532078     -0.202552388158     -0.614798920236   -133.715197508481

 SCS-DF-MP2 energies (F_SING= 1.20000  F_TRIP= 0.62222  F_PARALLEL= 0.33333):
 ============================================================================
 SCS-DF-MP2                            -0.568202854539   -133.668601442784
 SCS-DF-MP2-F12/3*C(DX,FIX)            -0.622123263239   -133.722521851485
 SCS-DF-MP2-F12/3*C(FIX)               -0.620491425935   -133.720890014180
 SCS-DF-MP2-F12/3C(FIX)                -0.620728435570   -133.721127023815
 Symmetry transformation completed.

 Number of N-1 electron functions:               9
 Number of N-2 electron functions:              45
 Number of singly external CSFs:              2133
 Number of doubly external CSFs:           2275911
 Total number of CSFs:                     2278045

 Pair and operator lists are different

 Length of J-op  integral file:             328.44 MB
 Length of K-op  integral file:             412.72 MB
 Length of 3-ext integral record:             0.00 MB

 For full I/O caching in triples, increase memory by 69.44 Mwords to 159.49 Mwords.

 Integral transformation finished. Total CPU:  16.25 sec, npass=  1  Memory used:  83.53 MW

 Reference energy:                   -133.10039859

 Adding F12 terms to K(Cij), methodcc=6,  factor= 1.0

 ITER.      SQ.NORM     CORR.ENERGY   TOTAL ENERGY   ENERGY CHANGE        DEN1      VAR(S)    VAR(P)  DIIS     TIME  TIME/IT
   1      1.17334033    -0.58054034  -133.68093893    -0.01156379     0.00288632  0.19D-02  0.28D-02  1  1    25.97     4.04
   2      1.18409919    -0.58158969  -133.68198828    -0.00104935    -0.01226390  0.30D-04  0.33D-03  2  2    30.03     4.29
   3      1.18808416    -0.58174630  -133.68214489    -0.00015661    -0.00265727  0.10D-04  0.20D-04  3  3    34.05     4.34
   4      1.18933019    -0.58178513  -133.68218371    -0.00003883    -0.00071393  0.84D-06  0.17D-05  4  4    38.14     4.36
   5      1.18955247    -0.58179259  -133.68219118    -0.00000747    -0.00005780  0.18D-06  0.12D-06  5  5    42.36     4.43
   6      1.18959214    -0.58179020  -133.68218879     0.00000239    -0.00000330  0.33D-07  0.13D-07  6  6    46.37     4.43
   7      1.18960236    -0.58178939  -133.68218797     0.00000082    -0.00000309  0.67D-08  0.17D-08  6  1    50.60     4.46
   8      1.18960514    -0.58178967  -133.68218825    -0.00000028     0.00000006  0.12D-08  0.32D-09  6  3    54.99     4.50

 Norm of t1 vector:      0.05494290      S-energy:    -0.00000024      T1 diagnostic:  0.00915715
                                                                       D1 diagnostic:  0.02076602
                                                                       D2 diagnostic:  0.15297523 (internal)

 Adding energy correction from Wij-K(Fij), methodcc=6  factor= 1.0

  CCSD correlation energy              -0.581789666489
  MP2-F12 correction (uncoupled)       -0.044044327829
  C*T doubles correction               -0.001324550784
  f12b correction                       0.008750561544


 Total CPU time for triples:     57.36 sec


 RESULTS
 =======

  Reference energy                   -133.099035677995
  F12 singles correction               -0.001362910250

 F12 singles corrections added to reference energy

  New reference energy               -133.100398588245

  F12a singlet correction              -0.041120474278
  F12a triplet correction              -0.004248404335
  F12a total correction                -0.045368878613

 F12a corrections for ansatz F12/3C(FIX) added to CCSD energy

  CCSD-F12a singlet pair energy        -0.443901685914
  CCSD-F12a triplet pair energy        -0.183256616147
  CCSD-F12a correlation energy         -0.627158545102

  Triples (T) contribution             -0.025246690654
  Total correlation energy             -0.652405235756

  CCSD-F12a total energy             -133.727557133348
  CCSD[T]-F12a energy                -133.753426305622
  CCSD-T-F12a energy                 -133.752533400603
 !CCSD(T)-F12a total energy          -133.752803824002

 F12b corrections for ansatz F12/3C(FIX) added to CCSD(T)-F12a energy

  CCSD-F12b singlet pair energy        -0.435691695857
  CCSD-F12b triplet pair energy        -0.182716044660
  CCSD-F12b correlation energy         -0.618407983559

  Triples (T) contribution             -0.025246690654
  Total correlation energy             -0.643654674213

  CCSD-F12b total energy             -133.718806571804
  CCSD[T]-F12b energy                -133.744675744078
  CCSD-T-F12b energy                 -133.743782839059
 !CCSD(T)-F12b total energy          -133.744053262458

 Timing summary (sec):

 STEP                 CPU(USER)    SYS     CPU(TOT)    WALL
 Transformation         16.31      2.09     18.40     38.15
 CCSD iterations        33.14      2.75     35.89     36.32
 Triples                57.36      0.85     58.21     58.21
 MP2-F12                 5.73      0.94      6.67     13.07
 F12b energy             2.86      0.11      2.97      2.96

 Program statistics:

 Available memory in ccsd:                89998639
 Min. memory needed in ccsd:               6441010
 Max. memory used in ccsd:                 8412739
 Max. memory used in cckext:               6083789 ( 9 integral passes)



 **********************************************************************************************************************************
 DATASETS  * FILE   NREC   LENGTH (MB)   RECORD NAMES
              1      20      523.01       500      700      610      701      900      950      970     1002      129      960   
                                          VAR     GEOM    BASINP    GEOM    SYMINP    ZMAT    AOBASIS   BASIS     P2S    ABASIS    
                                         1100     1400     1410     1200     1210     1080     1600     1650     1700     1380   
                                           S        T        V       H0       H01     AOSYM     SMH    MOLCAS    OPER     JKOP   

              2      14       22.26       500      610      700     1000      520     2100     7360     7350      701     1001   
                                          VAR    BASINP    GEOM     BASIS   MCVARS     RHF    F12ABS    EF12     GEOM     BASIS   
                                         2101      701(1)  1002     2102   
                                          RHF     GEOM     BASIS     RHF  

 PROGRAMS   *        TOTAL   CCSD(T)    HF-SCF       INT   RESTART
 CPU TIMES  *       155.47    115.46      6.12     33.16      0.46
 REAL TIME  *       222.63 SEC
 DISK USED  *       776.94 MB (local),       12.44 GB (total)
 SF USED    *         1.41 GB
 GA USED    *         3.05 MB       (max)       0.00 MB       (current)
 **********************************************************************************************************************************

 CCSD(T)-F12/cc-pVTZ-F12 energy=   -133.744053262458

     CCSD(T)-F12          HF-SCF
   -133.74405326   -133.09903568
 **********************************************************************************************************************************
 Molpro calculation terminated
