 Entering Gaussian System, Link 0=g16
 Initial command:
 /gpfs/apps/medsci/stacks/noOS/software/gaussian/g16.a03.avx2/g16/l1.exe "/gpfs/scratch/jobs/wuh104/g16/imipramine.gjf-342964/Gau-286420.inp" -scrdir="/gpfs/scratch/jobs/wuh104/g16/imipramine.gjf-342964/"
 Entering Link 1 = /gpfs/apps/medsci/stacks/noOS/software/gaussian/g16.a03.avx2/g16/l1.exe PID=    286421.
  
 Copyright (c) 1988,1990,1992,1993,1995,1998,2003,2009,2016,
            Gaussian, Inc.  All Rights Reserved.
  
 This is part of the Gaussian(R) 16 program.  It is based on
 the Gaussian(R) 09 system (copyright 2009, Gaussian, Inc.),
 the Gaussian(R) 03 system (copyright 2003, Gaussian, Inc.),
 the Gaussian(R) 98 system (copyright 1998, Gaussian, Inc.),
 the Gaussian(R) 94 system (copyright 1995, Gaussian, Inc.),
 the Gaussian 92(TM) system (copyright 1992, Gaussian, Inc.),
 the Gaussian 90(TM) system (copyright 1990, Gaussian, Inc.),
 the Gaussian 88(TM) system (copyright 1988, Gaussian, Inc.),
 the Gaussian 86(TM) system (copyright 1986, Carnegie Mellon
 University), and the Gaussian 82(TM) system (copyright 1983,
 Carnegie Mellon University). Gaussian is a federally registered
 trademark of Gaussian, Inc.
  
 This software contains proprietary and confidential information,
 including trade secrets, belonging to Gaussian, Inc.
  
 This software is provided under written license and may be
 used, copied, transmitted, or stored only in accord with that
 written license.
  
 The following legend is applicable only to US Government
 contracts under FAR:
  
                    RESTRICTED RIGHTS LEGEND
  
 Use, reproduction and disclosure by the US Government is
 subject to restrictions as set forth in subparagraphs (a)
 and (c) of the Commercial Computer Software - Restricted
 Rights clause in FAR 52.227-19.
  
 Gaussian, Inc.
 340 Quinnipiac St., Bldg. 40, Wallingford CT 06492
  
  
 ---------------------------------------------------------------
 Warning -- This program may not be used in any manner that
 competes with the business of Gaussian, Inc. or will provide
 assistance to any competitor of Gaussian, Inc.  The licensee
 of this program is prohibited from giving any competitor of
 Gaussian, Inc. access to this program.  By using this program,
 the user acknowledges that Gaussian, Inc. is engaged in the
 business of creating and licensing software in the field of
 computational chemistry and represents and warrants to the
 licensee that it is not a competitor of Gaussian, Inc. and that
 it will not use this program in any manner prohibited above.
 ---------------------------------------------------------------
  

 Cite this work as:
 Gaussian 16, Revision A.03,
 M. J. Frisch, G. W. Trucks, H. B. Schlegel, G. E. Scuseria, 
 M. A. Robb, J. R. Cheeseman, G. Scalmani, V. Barone, 
 G. A. Petersson, H. Nakatsuji, X. Li, M. Caricato, A. V. Marenich, 
 J. Bloino, B. G. Janesko, R. Gomperts, B. Mennucci, H. P. Hratchian, 
 J. V. Ortiz, A. F. Izmaylov, J. L. Sonnenberg, D. Williams-Young, 
 F. Ding, F. Lipparini, F. Egidi, J. Goings, B. Peng, A. Petrone, 
 T. Henderson, D. Ranasinghe, V. G. Zakrzewski, J. Gao, N. Rega, 
 G. Zheng, W. Liang, M. Hada, M. Ehara, K. Toyota, R. Fukuda, 
 J. Hasegawa, M. Ishida, T. Nakajima, Y. Honda, O. Kitao, H. Nakai, 
 T. Vreven, K. Throssell, J. A. Montgomery, Jr., J. E. Peralta, 
 F. Ogliaro, M. J. Bearpark, J. J. Heyd, E. N. Brothers, K. N. Kudin, 
 V. N. Staroverov, T. A. Keith, R. Kobayashi, J. Normand, 
 K. Raghavachari, A. P. Rendell, J. C. Burant, S. S. Iyengar, 
 J. Tomasi, M. Cossi, J. M. Millam, M. Klene, C. Adamo, R. Cammi, 
 J. W. Ochterski, R. L. Martin, K. Morokuma, O. Farkas, 
 J. B. Foresman, and D. J. Fox, Gaussian, Inc., Wallingford CT, 2016.
 
 ******************************************
 Gaussian 16:  ES64L-G16RevA.03 25-Dec-2016
                19-Nov-2019 
 ******************************************
 %chk=check.chk
 %mem=140000mb
 %NProcShared=40
 Will use up to   40 processors via shared memory.
 ----------------------------------------------------------------------
 #P freq guess=mix opt=tight apfd/def2svp scf=tight scf=xqc iop(2/9=200
 0)
 ----------------------------------------------------------------------
 1/7=10,18=20,19=15,26=3,38=1/1,3;
 2/9=2000,12=2,17=6,18=5,40=1/2;
 3/5=43,7=101,11=2,25=1,30=1,71=1,74=-44/1,2,3;
 4/13=-1/1;
 5/5=2,8=3,13=1,32=2,38=5/2,8;
 6/7=2,8=2,9=2,10=2,28=1/1;
 7//1,2,3,16;
 1/7=10,18=20,19=15,26=3/3(2);
 2/9=2000/2;
 99//99;
 2/9=2000/2;
 3/5=43,7=101,11=2,25=1,30=1,71=1,74=-44/1,2,3;
 4/5=5,16=3,69=1/1;
 5/5=2,8=3,13=1,32=2,38=5/2,8;
 7//1,2,3,16;
 1/7=10,18=20,19=15,26=3/3(-5);
 2/9=2000/2;
 6/7=2,8=2,9=2,10=2,19=2,28=1/1;
 99/9=1/99;
 Leave Link    1 at Tue Nov 19 13:50:34 2019, MaxMem= 18350080000 cpu:               6.8 elap:               0.2
 (Enter /gpfs/apps/medsci/stacks/noOS/software/gaussian/g16.a03.avx2/g16/l101.exe)
 -----
 title
 -----
 Symbolic Z-matrix:
 Charge =  0 Multiplicity = 1
 N                     3.73915  -0.99025  -0.0514 
 N                    -0.41618  -0.35138   0.1702 
 C                     1.69228  -0.92587   1.3325 
 C                     3.04674  -1.57271   1.08672 
 C                     0.70165  -1.27792   0.22572 
 C                    -2.63516   0.60879   1.57637 
 C                    -2.33531   1.9407    0.89809 
 C                     4.7401   -1.88436  -0.58551 
 C                     4.32011   0.29578   0.266 
 C                    -2.8038   -0.47534   0.5657 
 C                    -1.02543   2.05259   0.15128 
 C                    -1.67785  -0.91024  -0.13688 
 C                    -0.15231   0.99409  -0.1669 
 C                    -4.04007  -1.04149   0.28055 
 C                    -0.66355   3.34345  -0.23112 
 C                    -1.806    -1.9153   -1.09374 
 C                     1.04738   1.29588  -0.82868 
 C                    -3.04412  -2.48329  -1.35563 
 C                    -4.16833  -2.04416  -0.67079 
 C                     1.38502   2.59068  -1.17873 
 C                     0.51998   3.63314  -0.88695 
 H                     1.80215   0.15875   1.40105 
 H                     1.29385  -1.25178   2.29795 
 H                    -1.81716   0.35187   2.25774 
 H                    -3.54445   0.70694   2.17518 
 H                    -2.35524   2.73908   1.64809 
 H                    -3.15501   2.1622    0.20354 
 H                     1.23685  -1.35618  -0.72982 
 H                     0.27958  -2.2641    0.42631 
 H                     3.66896  -1.52061   1.99876 
 H                     2.89864  -2.63777   0.87765 
 H                     5.20776  -1.43402  -1.46377 
 H                     4.27761  -2.82433  -0.89353 
 H                     5.53993  -2.11653   0.14103 
 H                     4.756     0.73565  -0.63343 
 H                     3.55795   0.98323   0.63243 
 H                     5.11437   0.22009   1.03075 
 H                    -3.13024  -3.26266  -2.10519 
 H                    -0.93214  -2.24492  -1.64446 
 H                    -4.91305  -0.70071   0.82935 
 H                    -5.13922  -2.48284  -0.87293 
 H                     1.73788   0.4984   -1.07222 
 H                     2.32502   2.77671  -1.68763 
 H                     0.76436   4.65467  -1.15538 
 H                    -1.34319   4.15376   0.01881 
 
 ITRead=  0  0  0  0  0  0  0  0  0  0  0  0  0  0  0  0  0  0  0  0
 ITRead=  0  0  0  0  0  0  0  0  0  0  0  0  0  0  0  0  0  0  0  0
 ITRead=  0  0  0  0  0
 MicOpt= -1 -1 -1 -1 -1 -1 -1 -1 -1 -1 -1 -1 -1 -1 -1 -1 -1 -1 -1 -1
 MicOpt= -1 -1 -1 -1 -1 -1 -1 -1 -1 -1 -1 -1 -1 -1 -1 -1 -1 -1 -1 -1
 MicOpt= -1 -1 -1 -1 -1
 NAtoms=     45 NQM=       45 NQMF=       0 NMMI=      0 NMMIF=      0
                NMic=       0 NMicF=      0.
                    Isotopes and Nuclear Properties:
 (Nuclear quadrupole moments (NQMom) in fm**2, nuclear magnetic moments (NMagM)
  in nuclear magnetons)

  Atom         1           2           3           4           5           6           7           8           9          10
 IAtWgt=          14          14          12          12          12          12          12          12          12          12
 AtmWgt=  14.0030740  14.0030740  12.0000000  12.0000000  12.0000000  12.0000000  12.0000000  12.0000000  12.0000000  12.0000000
 NucSpn=           2           2           0           0           0           0           0           0           0           0
 AtZEff=  -0.0000000  -0.0000000  -0.0000000  -0.0000000  -0.0000000  -0.0000000  -0.0000000  -0.0000000  -0.0000000  -0.0000000
 NQMom=    2.0440000   2.0440000   0.0000000   0.0000000   0.0000000   0.0000000   0.0000000   0.0000000   0.0000000   0.0000000
 NMagM=    0.4037610   0.4037610   0.0000000   0.0000000   0.0000000   0.0000000   0.0000000   0.0000000   0.0000000   0.0000000
 AtZNuc=   7.0000000   7.0000000   6.0000000   6.0000000   6.0000000   6.0000000   6.0000000   6.0000000   6.0000000   6.0000000

  Atom        11          12          13          14          15          16          17          18          19          20
 IAtWgt=          12          12          12          12          12          12          12          12          12          12
 AtmWgt=  12.0000000  12.0000000  12.0000000  12.0000000  12.0000000  12.0000000  12.0000000  12.0000000  12.0000000  12.0000000
 NucSpn=           0           0           0           0           0           0           0           0           0           0
 AtZEff=  -0.0000000  -0.0000000  -0.0000000  -0.0000000  -0.0000000  -0.0000000  -0.0000000  -0.0000000  -0.0000000  -0.0000000
 NQMom=    0.0000000   0.0000000   0.0000000   0.0000000   0.0000000   0.0000000   0.0000000   0.0000000   0.0000000   0.0000000
 NMagM=    0.0000000   0.0000000   0.0000000   0.0000000   0.0000000   0.0000000   0.0000000   0.0000000   0.0000000   0.0000000
 AtZNuc=   6.0000000   6.0000000   6.0000000   6.0000000   6.0000000   6.0000000   6.0000000   6.0000000   6.0000000   6.0000000

  Atom        21          22          23          24          25          26          27          28          29          30
 IAtWgt=          12           1           1           1           1           1           1           1           1           1
 AtmWgt=  12.0000000   1.0078250   1.0078250   1.0078250   1.0078250   1.0078250   1.0078250   1.0078250   1.0078250   1.0078250
 NucSpn=           0           1           1           1           1           1           1           1           1           1
 AtZEff=  -0.0000000  -0.0000000  -0.0000000  -0.0000000  -0.0000000  -0.0000000  -0.0000000  -0.0000000  -0.0000000  -0.0000000
 NQMom=    0.0000000   0.0000000   0.0000000   0.0000000   0.0000000   0.0000000   0.0000000   0.0000000   0.0000000   0.0000000
 NMagM=    0.0000000   2.7928460   2.7928460   2.7928460   2.7928460   2.7928460   2.7928460   2.7928460   2.7928460   2.7928460
 AtZNuc=   6.0000000   1.0000000   1.0000000   1.0000000   1.0000000   1.0000000   1.0000000   1.0000000   1.0000000   1.0000000

  Atom        31          32          33          34          35          36          37          38          39          40
 IAtWgt=           1           1           1           1           1           1           1           1           1           1
 AtmWgt=   1.0078250   1.0078250   1.0078250   1.0078250   1.0078250   1.0078250   1.0078250   1.0078250   1.0078250   1.0078250
 NucSpn=           1           1           1           1           1           1           1           1           1           1
 AtZEff=  -0.0000000  -0.0000000  -0.0000000  -0.0000000  -0.0000000  -0.0000000  -0.0000000  -0.0000000  -0.0000000  -0.0000000
 NQMom=    0.0000000   0.0000000   0.0000000   0.0000000   0.0000000   0.0000000   0.0000000   0.0000000   0.0000000   0.0000000
 NMagM=    2.7928460   2.7928460   2.7928460   2.7928460   2.7928460   2.7928460   2.7928460   2.7928460   2.7928460   2.7928460
 AtZNuc=   1.0000000   1.0000000   1.0000000   1.0000000   1.0000000   1.0000000   1.0000000   1.0000000   1.0000000   1.0000000

  Atom        41          42          43          44          45
 IAtWgt=           1           1           1           1           1
 AtmWgt=   1.0078250   1.0078250   1.0078250   1.0078250   1.0078250
 NucSpn=           1           1           1           1           1
 AtZEff=  -0.0000000  -0.0000000  -0.0000000  -0.0000000  -0.0000000
 NQMom=    0.0000000   0.0000000   0.0000000   0.0000000   0.0000000
 NMagM=    2.7928460   2.7928460   2.7928460   2.7928460   2.7928460
 AtZNuc=   1.0000000   1.0000000   1.0000000   1.0000000   1.0000000
 Leave Link  101 at Tue Nov 19 13:50:35 2019, MaxMem= 18350080000 cpu:              16.0 elap:               0.5
 (Enter /gpfs/apps/medsci/stacks/noOS/software/gaussian/g16.a03.avx2/g16/l103.exe)

 GradGradGradGradGradGradGradGradGradGradGradGradGradGradGradGradGradGrad
 Berny optimization.
 Initialization pass.
                           ----------------------------
                           !    Initial Parameters    !
                           ! (Angstroms and Degrees)  !
 --------------------------                            --------------------------
 ! Name  Definition              Value          Derivative Info.                !
 --------------------------------------------------------------------------------
 ! R1    R(1,4)                  1.454          estimate D2E/DX2                !
 ! R2    R(1,8)                  1.4445         estimate D2E/DX2                !
 ! R3    R(1,9)                  1.4464         estimate D2E/DX2                !
 ! R4    R(2,5)                  1.453          estimate D2E/DX2                !
 ! R5    R(2,12)                 1.4137         estimate D2E/DX2                !
 ! R6    R(2,13)                 1.4119         estimate D2E/DX2                !
 ! R7    R(3,4)                  1.521          estimate D2E/DX2                !
 ! R8    R(3,5)                  1.5265         estimate D2E/DX2                !
 ! R9    R(3,22)                 1.0923         estimate D2E/DX2                !
 ! R10   R(3,23)                 1.0941         estimate D2E/DX2                !
 ! R11   R(4,30)                 1.1053         estimate D2E/DX2                !
 ! R12   R(4,31)                 1.0954         estimate D2E/DX2                !
 ! R13   R(5,28)                 1.098          estimate D2E/DX2                !
 ! R14   R(5,29)                 1.0913         estimate D2E/DX2                !
 ! R15   R(6,7)                  1.5245         estimate D2E/DX2                !
 ! R16   R(6,10)                 1.4917         estimate D2E/DX2                !
 ! R17   R(6,24)                 1.0952         estimate D2E/DX2                !
 ! R18   R(6,25)                 1.0932         estimate D2E/DX2                !
 ! R19   R(7,11)                 1.512          estimate D2E/DX2                !
 ! R20   R(7,26)                 1.0956         estimate D2E/DX2                !
 ! R21   R(7,27)                 1.097          estimate D2E/DX2                !
 ! R22   R(8,32)                 1.0922         estimate D2E/DX2                !
 ! R23   R(8,33)                 1.0919         estimate D2E/DX2                !
 ! R24   R(8,34)                 1.1052         estimate D2E/DX2                !
 ! R25   R(9,35)                 1.092          estimate D2E/DX2                !
 ! R26   R(9,36)                 1.0898         estimate D2E/DX2                !
 ! R27   R(9,37)                 1.1052         estimate D2E/DX2                !
 ! R28   R(10,12)                1.3966         estimate D2E/DX2                !
 ! R29   R(10,14)                1.3893         estimate D2E/DX2                !
 ! R30   R(11,13)                1.4085         estimate D2E/DX2                !
 ! R31   R(11,15)                1.3941         estimate D2E/DX2                !
 ! R32   R(12,16)                1.3936         estimate D2E/DX2                !
 ! R33   R(13,17)                1.4029         estimate D2E/DX2                !
 ! R34   R(14,19)                1.3881         estimate D2E/DX2                !
 ! R35   R(14,40)                1.086          estimate D2E/DX2                !
 ! R36   R(15,21)                1.3838         estimate D2E/DX2                !
 ! R37   R(15,45)                1.0867         estimate D2E/DX2                !
 ! R38   R(16,18)                1.3871         estimate D2E/DX2                !
 ! R39   R(16,39)                1.0842         estimate D2E/DX2                !
 ! R40   R(17,20)                1.3831         estimate D2E/DX2                !
 ! R41   R(17,42)                1.0826         estimate D2E/DX2                !
 ! R42   R(18,19)                1.3877         estimate D2E/DX2                !
 ! R43   R(18,38)                1.0848         estimate D2E/DX2                !
 ! R44   R(19,41)                1.0844         estimate D2E/DX2                !
 ! R45   R(20,21)                1.3857         estimate D2E/DX2                !
 ! R46   R(20,43)                1.085          estimate D2E/DX2                !
 ! R47   R(21,44)                1.0841         estimate D2E/DX2                !
 ! A1    A(4,1,8)              111.8056         estimate D2E/DX2                !
 ! A2    A(4,1,9)              112.0672         estimate D2E/DX2                !
 ! A3    A(8,1,9)              110.6803         estimate D2E/DX2                !
 ! A4    A(5,2,12)             116.2845         estimate D2E/DX2                !
 ! A5    A(5,2,13)             118.2303         estimate D2E/DX2                !
 ! A6    A(12,2,13)            119.4493         estimate D2E/DX2                !
 ! A7    A(4,3,5)              111.2636         estimate D2E/DX2                !
 ! A8    A(4,3,22)             110.0502         estimate D2E/DX2                !
 ! A9    A(4,3,23)             109.8895         estimate D2E/DX2                !
 ! A10   A(5,3,22)             109.8631         estimate D2E/DX2                !
 ! A11   A(5,3,23)             109.5583         estimate D2E/DX2                !
 ! A12   A(22,3,23)            106.0829         estimate D2E/DX2                !
 ! A13   A(1,4,3)              112.3468         estimate D2E/DX2                !
 ! A14   A(1,4,30)             111.0347         estimate D2E/DX2                !
 ! A15   A(1,4,31)             107.7275         estimate D2E/DX2                !
 ! A16   A(3,4,30)             110.3601         estimate D2E/DX2                !
 ! A17   A(3,4,31)             108.9006         estimate D2E/DX2                !
 ! A18   A(30,4,31)            106.2255         estimate D2E/DX2                !
 ! A19   A(2,5,3)              112.3278         estimate D2E/DX2                !
 ! A20   A(2,5,28)             112.7802         estimate D2E/DX2                !
 ! A21   A(2,5,29)             106.6032         estimate D2E/DX2                !
 ! A22   A(3,5,28)             109.3344         estimate D2E/DX2                !
 ! A23   A(3,5,29)             109.0339         estimate D2E/DX2                !
 ! A24   A(28,5,29)            106.5032         estimate D2E/DX2                !
 ! A25   A(7,6,10)             110.8402         estimate D2E/DX2                !
 ! A26   A(7,6,24)             109.5644         estimate D2E/DX2                !
 ! A27   A(7,6,25)             109.2012         estimate D2E/DX2                !
 ! A28   A(10,6,24)            109.601          estimate D2E/DX2                !
 ! A29   A(10,6,25)            110.0201         estimate D2E/DX2                !
 ! A30   A(24,6,25)            107.5499         estimate D2E/DX2                !
 ! A31   A(6,7,11)             117.0538         estimate D2E/DX2                !
 ! A32   A(6,7,26)             109.1791         estimate D2E/DX2                !
 ! A33   A(6,7,27)             108.1282         estimate D2E/DX2                !
 ! A34   A(11,7,26)            107.4557         estimate D2E/DX2                !
 ! A35   A(11,7,27)            108.6437         estimate D2E/DX2                !
 ! A36   A(26,7,27)            105.8246         estimate D2E/DX2                !
 ! A37   A(1,8,32)             109.8049         estimate D2E/DX2                !
 ! A38   A(1,8,33)             110.0988         estimate D2E/DX2                !
 ! A39   A(1,8,34)             112.8569         estimate D2E/DX2                !
 ! A40   A(32,8,33)            108.0274         estimate D2E/DX2                !
 ! A41   A(32,8,34)            107.7798         estimate D2E/DX2                !
 ! A42   A(33,8,34)            108.1269         estimate D2E/DX2                !
 ! A43   A(1,9,35)             109.739          estimate D2E/DX2                !
 ! A44   A(1,9,36)             110.7156         estimate D2E/DX2                !
 ! A45   A(1,9,37)             112.3095         estimate D2E/DX2                !
 ! A46   A(35,9,36)            107.5777         estimate D2E/DX2                !
 ! A47   A(35,9,37)            108.0987         estimate D2E/DX2                !
 ! A48   A(36,9,37)            108.248          estimate D2E/DX2                !
 ! A49   A(6,10,12)            118.4247         estimate D2E/DX2                !
 ! A50   A(6,10,14)            122.3991         estimate D2E/DX2                !
 ! A51   A(12,10,14)           119.1597         estimate D2E/DX2                !
 ! A52   A(7,11,13)            126.3697         estimate D2E/DX2                !
 ! A53   A(7,11,15)            115.3973         estimate D2E/DX2                !
 ! A54   A(13,11,15)           118.2267         estimate D2E/DX2                !
 ! A55   A(2,12,10)            119.153          estimate D2E/DX2                !
 ! A56   A(2,12,16)            121.0858         estimate D2E/DX2                !
 ! A57   A(10,12,16)           119.7256         estimate D2E/DX2                !
 ! A58   A(2,13,11)            123.1153         estimate D2E/DX2                !
 ! A59   A(2,13,17)            118.5168         estimate D2E/DX2                !
 ! A60   A(11,13,17)           118.3574         estimate D2E/DX2                !
 ! A61   A(10,14,19)           121.1473         estimate D2E/DX2                !
 ! A62   A(10,14,40)           118.9277         estimate D2E/DX2                !
 ! A63   A(19,14,40)           119.915          estimate D2E/DX2                !
 ! A64   A(11,15,21)           123.0843         estimate D2E/DX2                !
 ! A65   A(11,15,45)           117.7103         estimate D2E/DX2                !
 ! A66   A(21,15,45)           119.1963         estimate D2E/DX2                !
 ! A67   A(12,16,18)           120.4651         estimate D2E/DX2                !
 ! A68   A(12,16,39)           119.5966         estimate D2E/DX2                !
 ! A69   A(18,16,39)           119.934          estimate D2E/DX2                !
 ! A70   A(13,17,20)           121.9718         estimate D2E/DX2                !
 ! A71   A(13,17,42)           119.5416         estimate D2E/DX2                !
 ! A72   A(20,17,42)           118.4859         estimate D2E/DX2                !
 ! A73   A(16,18,19)           120.0236         estimate D2E/DX2                !
 ! A74   A(16,18,38)           119.7041         estimate D2E/DX2                !
 ! A75   A(19,18,38)           120.2684         estimate D2E/DX2                !
 ! A76   A(14,19,18)           119.4681         estimate D2E/DX2                !
 ! A77   A(14,19,41)           120.1785         estimate D2E/DX2                !
 ! A78   A(18,19,41)           120.3528         estimate D2E/DX2                !
 ! A79   A(17,20,21)           119.9057         estimate D2E/DX2                !
 ! A80   A(17,20,43)           119.3874         estimate D2E/DX2                !
 ! A81   A(21,20,43)           120.7052         estimate D2E/DX2                !
 ! A82   A(15,21,20)           118.4399         estimate D2E/DX2                !
 ! A83   A(15,21,44)           120.4922         estimate D2E/DX2                !
 ! A84   A(20,21,44)           121.0654         estimate D2E/DX2                !
 ! D1    D(8,1,4,3)           -158.4734         estimate D2E/DX2                !
 ! D2    D(8,1,4,30)            77.3939         estimate D2E/DX2                !
 ! D3    D(8,1,4,31)           -38.5329         estimate D2E/DX2                !
 ! D4    D(9,1,4,3)             76.593          estimate D2E/DX2                !
 ! D5    D(9,1,4,30)           -47.5397         estimate D2E/DX2                !
 ! D6    D(9,1,4,31)          -163.4665         estimate D2E/DX2                !
 ! D7    D(4,1,8,32)           177.4855         estimate D2E/DX2                !
 ! D8    D(4,1,8,33)            58.6672         estimate D2E/DX2                !
 ! D9    D(4,1,8,34)           -62.2486         estimate D2E/DX2                !
 ! D10   D(9,1,8,32)           -56.8148         estimate D2E/DX2                !
 ! D11   D(9,1,8,33)          -175.6331         estimate D2E/DX2                !
 ! D12   D(9,1,8,34)            63.4512         estimate D2E/DX2                !
 ! D13   D(4,1,9,35)          -175.2615         estimate D2E/DX2                !
 ! D14   D(4,1,9,36)           -56.6592         estimate D2E/DX2                !
 ! D15   D(4,1,9,37)            64.4745         estimate D2E/DX2                !
 ! D16   D(8,1,9,35)            59.1858         estimate D2E/DX2                !
 ! D17   D(8,1,9,36)           177.7881         estimate D2E/DX2                !
 ! D18   D(8,1,9,37)           -61.0782         estimate D2E/DX2                !
 ! D19   D(12,2,5,3)          -142.6836         estimate D2E/DX2                !
 ! D20   D(12,2,5,28)           93.2143         estimate D2E/DX2                !
 ! D21   D(12,2,5,29)          -23.3195         estimate D2E/DX2                !
 ! D22   D(13,2,5,3)            64.7508         estimate D2E/DX2                !
 ! D23   D(13,2,5,28)          -59.3513         estimate D2E/DX2                !
 ! D24   D(13,2,5,29)         -175.8851         estimate D2E/DX2                !
 ! D25   D(5,2,12,10)          138.2164         estimate D2E/DX2                !
 ! D26   D(5,2,12,16)          -39.6095         estimate D2E/DX2                !
 ! D27   D(13,2,12,10)         -69.5691         estimate D2E/DX2                !
 ! D28   D(13,2,12,16)         112.605          estimate D2E/DX2                !
 ! D29   D(5,2,13,11)         -159.0275         estimate D2E/DX2                !
 ! D30   D(5,2,13,17)           19.7761         estimate D2E/DX2                !
 ! D31   D(12,2,13,11)          49.2922         estimate D2E/DX2                !
 ! D32   D(12,2,13,17)        -131.9042         estimate D2E/DX2                !
 ! D33   D(5,3,4,1)             69.3484         estimate D2E/DX2                !
 ! D34   D(5,3,4,30)          -166.1455         estimate D2E/DX2                !
 ! D35   D(5,3,4,31)           -49.9085         estimate D2E/DX2                !
 ! D36   D(22,3,4,1)           -52.6667         estimate D2E/DX2                !
 ! D37   D(22,3,4,30)           71.8393         estimate D2E/DX2                !
 ! D38   D(22,3,4,31)         -171.9237         estimate D2E/DX2                !
 ! D39   D(23,3,4,1)          -169.1314         estimate D2E/DX2                !
 ! D40   D(23,3,4,30)          -44.6254         estimate D2E/DX2                !
 ! D41   D(23,3,4,31)           71.6116         estimate D2E/DX2                !
 ! D42   D(4,3,5,2)           -160.4512         estimate D2E/DX2                !
 ! D43   D(4,3,5,28)           -34.4574         estimate D2E/DX2                !
 ! D44   D(4,3,5,29)            81.6148         estimate D2E/DX2                !
 ! D45   D(22,3,5,2)           -38.3276         estimate D2E/DX2                !
 ! D46   D(22,3,5,28)           87.6662         estimate D2E/DX2                !
 ! D47   D(22,3,5,29)         -156.2616         estimate D2E/DX2                !
 ! D48   D(23,3,5,2)            77.8357         estimate D2E/DX2                !
 ! D49   D(23,3,5,28)         -156.1704         estimate D2E/DX2                !
 ! D50   D(23,3,5,29)          -40.0982         estimate D2E/DX2                !
 ! D51   D(10,6,7,11)          -65.5315         estimate D2E/DX2                !
 ! D52   D(10,6,7,26)          172.1751         estimate D2E/DX2                !
 ! D53   D(10,6,7,27)           57.4872         estimate D2E/DX2                !
 ! D54   D(24,6,7,11)           55.5481         estimate D2E/DX2                !
 ! D55   D(24,6,7,26)          -66.7454         estimate D2E/DX2                !
 ! D56   D(24,6,7,27)          178.5668         estimate D2E/DX2                !
 ! D57   D(25,6,7,11)          173.105          estimate D2E/DX2                !
 ! D58   D(25,6,7,26)           50.8115         estimate D2E/DX2                !
 ! D59   D(25,6,7,27)          -63.8763         estimate D2E/DX2                !
 ! D60   D(7,6,10,12)           70.1058         estimate D2E/DX2                !
 ! D61   D(7,6,10,14)         -108.403          estimate D2E/DX2                !
 ! D62   D(24,6,10,12)         -50.9521         estimate D2E/DX2                !
 ! D63   D(24,6,10,14)         130.5391         estimate D2E/DX2                !
 ! D64   D(25,6,10,12)        -169.0139         estimate D2E/DX2                !
 ! D65   D(25,6,10,14)          12.4773         estimate D2E/DX2                !
 ! D66   D(6,7,11,13)           11.0346         estimate D2E/DX2                !
 ! D67   D(6,7,11,15)         -168.0337         estimate D2E/DX2                !
 ! D68   D(26,7,11,13)         134.2156         estimate D2E/DX2                !
 ! D69   D(26,7,11,15)         -44.8527         estimate D2E/DX2                !
 ! D70   D(27,7,11,13)        -111.7191         estimate D2E/DX2                !
 ! D71   D(27,7,11,15)          69.2127         estimate D2E/DX2                !
 ! D72   D(6,10,12,2)            2.5752         estimate D2E/DX2                !
 ! D73   D(6,10,12,16)        -179.5687         estimate D2E/DX2                !
 ! D74   D(14,10,12,2)        -178.8665         estimate D2E/DX2                !
 ! D75   D(14,10,12,16)         -1.0105         estimate D2E/DX2                !
 ! D76   D(6,10,14,19)         179.6305         estimate D2E/DX2                !
 ! D77   D(6,10,14,40)          -1.5197         estimate D2E/DX2                !
 ! D78   D(12,10,14,19)          1.1322         estimate D2E/DX2                !
 ! D79   D(12,10,14,40)        179.982          estimate D2E/DX2                !
 ! D80   D(7,11,13,2)            0.9671         estimate D2E/DX2                !
 ! D81   D(7,11,13,17)        -177.8383         estimate D2E/DX2                !
 ! D82   D(15,11,13,2)        -179.9882         estimate D2E/DX2                !
 ! D83   D(15,11,13,17)          1.2064         estimate D2E/DX2                !
 ! D84   D(7,11,15,21)         178.0592         estimate D2E/DX2                !
 ! D85   D(7,11,15,45)          -0.8365         estimate D2E/DX2                !
 ! D86   D(13,11,15,21)         -1.0893         estimate D2E/DX2                !
 ! D87   D(13,11,15,45)       -179.985          estimate D2E/DX2                !
 ! D88   D(2,12,16,18)         178.0099         estimate D2E/DX2                !
 ! D89   D(2,12,16,39)          -2.7506         estimate D2E/DX2                !
 ! D90   D(10,12,16,18)          0.1963         estimate D2E/DX2                !
 ! D91   D(10,12,16,39)        179.4358         estimate D2E/DX2                !
 ! D92   D(2,13,17,20)        -179.2518         estimate D2E/DX2                !
 ! D93   D(2,13,17,42)           0.4333         estimate D2E/DX2                !
 ! D94   D(11,13,17,20)         -0.3905         estimate D2E/DX2                !
 ! D95   D(11,13,17,42)        179.2946         estimate D2E/DX2                !
 ! D96   D(10,14,19,18)         -0.4219         estimate D2E/DX2                !
 ! D97   D(10,14,19,41)        179.3082         estimate D2E/DX2                !
 ! D98   D(40,14,19,18)       -179.2604         estimate D2E/DX2                !
 ! D99   D(40,14,19,41)          0.4696         estimate D2E/DX2                !
 ! D100  D(11,15,21,20)          0.0892         estimate D2E/DX2                !
 ! D101  D(11,15,21,44)       -179.3266         estimate D2E/DX2                !
 ! D102  D(45,15,21,20)        178.9692         estimate D2E/DX2                !
 ! D103  D(45,15,21,44)         -0.4465         estimate D2E/DX2                !
 ! D104  D(12,16,18,19)          0.5224         estimate D2E/DX2                !
 ! D105  D(12,16,18,38)        179.812          estimate D2E/DX2                !
 ! D106  D(39,16,18,19)       -178.7145         estimate D2E/DX2                !
 ! D107  D(39,16,18,38)          0.5751         estimate D2E/DX2                !
 ! D108  D(13,17,20,21)         -0.6227         estimate D2E/DX2                !
 ! D109  D(13,17,20,43)        179.8503         estimate D2E/DX2                !
 ! D110  D(42,17,20,21)        179.689          estimate D2E/DX2                !
 ! D111  D(42,17,20,43)          0.162          estimate D2E/DX2                !
 ! D112  D(16,18,19,14)         -0.4122         estimate D2E/DX2                !
 ! D113  D(16,18,19,41)        179.8583         estimate D2E/DX2                !
 ! D114  D(38,18,19,14)       -179.6977         estimate D2E/DX2                !
 ! D115  D(38,18,19,41)          0.5728         estimate D2E/DX2                !
 ! D116  D(17,20,21,15)          0.7711         estimate D2E/DX2                !
 ! D117  D(17,20,21,44)       -179.8166         estimate D2E/DX2                !
 ! D118  D(43,20,21,15)       -179.7082         estimate D2E/DX2                !
 ! D119  D(43,20,21,44)         -0.296          estimate D2E/DX2                !
 --------------------------------------------------------------------------------
 Trust Radius=3.00D-01 FncErr=1.00D-07 GrdErr=1.00D-06 EigMax=2.50D+02 EigMin=1.00D-04
 Number of steps in this run=    260 maximum allowed number of steps=    270.
 GradGradGradGradGradGradGradGradGradGradGradGradGradGradGradGradGradGrad

 Leave Link  103 at Tue Nov 19 13:50:36 2019, MaxMem= 18350080000 cpu:               1.6 elap:               0.1
 (Enter /gpfs/apps/medsci/stacks/noOS/software/gaussian/g16.a03.avx2/g16/l202.exe)
                          Input orientation:                          
 ---------------------------------------------------------------------
 Center     Atomic      Atomic             Coordinates (Angstroms)
 Number     Number       Type             X           Y           Z
 ---------------------------------------------------------------------
      1          7           0        3.739150   -0.990247   -0.051396
      2          7           0       -0.416177   -0.351376    0.170201
      3          6           0        1.692279   -0.925871    1.332502
      4          6           0        3.046742   -1.572710    1.086715
      5          6           0        0.701649   -1.277918    0.225722
      6          6           0       -2.635158    0.608788    1.576368
      7          6           0       -2.335307    1.940699    0.898091
      8          6           0        4.740099   -1.884356   -0.585506
      9          6           0        4.320106    0.295778    0.265998
     10          6           0       -2.803797   -0.475344    0.565703
     11          6           0       -1.025433    2.052585    0.151280
     12          6           0       -1.677852   -0.910241   -0.136875
     13          6           0       -0.152305    0.994088   -0.166901
     14          6           0       -4.040066   -1.041492    0.280550
     15          6           0       -0.663553    3.343447   -0.231118
     16          6           0       -1.806001   -1.915296   -1.093738
     17          6           0        1.047376    1.295877   -0.828679
     18          6           0       -3.044116   -2.483286   -1.355625
     19          6           0       -4.168333   -2.044159   -0.670794
     20          6           0        1.385019    2.590681   -1.178731
     21          6           0        0.519978    3.633141   -0.886951
     22          1           0        1.802154    0.158746    1.401054
     23          1           0        1.293851   -1.251778    2.297953
     24          1           0       -1.817156    0.351870    2.257737
     25          1           0       -3.544445    0.706940    2.175184
     26          1           0       -2.355241    2.739081    1.648091
     27          1           0       -3.155013    2.162199    0.203535
     28          1           0        1.236854   -1.356175   -0.729819
     29          1           0        0.279580   -2.264103    0.426310
     30          1           0        3.668964   -1.520605    1.998762
     31          1           0        2.898642   -2.637771    0.877654
     32          1           0        5.207758   -1.434018   -1.463768
     33          1           0        4.277608   -2.824332   -0.893525
     34          1           0        5.539934   -2.116526    0.141034
     35          1           0        4.755998    0.735649   -0.633429
     36          1           0        3.557950    0.983227    0.632430
     37          1           0        5.114374    0.220090    1.030751
     38          1           0       -3.130238   -3.262656   -2.105192
     39          1           0       -0.932140   -2.244920   -1.644461
     40          1           0       -4.913050   -0.700710    0.829349
     41          1           0       -5.139219   -2.482843   -0.872933
     42          1           0        1.737876    0.498401   -1.072224
     43          1           0        2.325018    2.776711   -1.687631
     44          1           0        0.764358    4.654669   -1.155376
     45          1           0       -1.343192    4.153761    0.018814
 ---------------------------------------------------------------------
                    Distance matrix (angstroms):
                    1          2          3          4          5
     1  N    0.000000
     2  N    4.209989   0.000000
     3  C    2.471639   2.475192   0.000000
     4  C    1.453956   3.784635   1.520981   0.000000
     5  C    3.063652   1.452962   1.526515   2.515487   0.000000
     6  C    6.770401   2.796980   4.597973   6.105955   4.064257
     7  C    6.811094   3.076766   4.962599   6.430091   4.476011
     8  C    1.444508   5.432155   3.726480   2.400188   4.163525
     9  C    1.446413   4.781251   3.087933   2.405469   3.946058
    10  C    6.592123   2.423328   4.583193   5.975322   3.612183
    11  C    5.656956   2.480036   4.201481   5.531764   3.752413
    12  C    5.418267   1.413665   3.676560   4.925223   2.434890
    13  C    4.369708   1.411928   3.055641   4.288812   2.458740
    14  C    7.786464   3.690665   5.829215   7.152268   4.747922
    15  C    6.180372   3.724778   5.120735   6.298537   4.840402
    16  C    5.717595   2.444381   4.370763   5.331121   2.904399
    17  C    3.616100   2.419337   3.165875   3.986852   2.802804
    18  C    7.067027   3.712041   5.664363   6.625158   4.240793
    19  C    8.001417   4.201364   6.293690   7.440995   5.010748
    20  C    4.431237   3.704001   4.332071   5.022688   4.171995
    21  C    5.695343   4.227332   5.204311   6.113982   5.038804
    22  H    2.679879   2.587705   1.092321   2.155400   2.157897
    23  H    3.401077   2.874413   1.094100   2.154698   2.155349
    24  H    6.164893   2.610575   3.847703   5.360299   3.623489
    25  H    7.803131   3.863425   5.549726   7.058705   5.076355
    26  H    7.344232   3.936376   5.469359   6.934559   5.244425
    27  H    7.585011   3.717579   5.857216   7.293238   5.168050
    28  H    2.618329   2.133581   2.155398   2.573398   1.098011
    29  H    3.717464   2.051388   2.146571   2.927686   1.091301
    30  H    2.118809   4.625917   2.169077   1.105308   3.465188
    31  H    2.069764   4.088535   2.143082   1.095443   2.664769
    32  H    2.085315   5.955721   4.520612   3.345772   4.814952
    33  H    2.088776   5.410974   3.904264   2.646307   4.053590
    34  H    2.132688   6.212235   4.200203   2.721407   4.911154
    35  H    2.086015   5.345918   4.001488   3.347980   4.607639
    36  H    2.096438   4.217642   2.759617   2.645850   3.665603
    37  H    2.127722   5.626199   3.621466   2.737219   4.729085
    38  H    7.521330   4.584658   6.366708   7.155366   4.904661
    39  H    5.092446   2.672962   4.182078   4.872647   2.664947
    40  H    8.701730   4.558331   6.628290   8.011549   5.676476
    41  H    9.040365   5.285679   7.345575   8.466317   6.064209
    42  H    2.695044   2.627867   2.795235   3.265524   2.431818
    43  H    4.343617   4.555285   4.819821   5.209160   4.768256
    44  H    6.475588   5.311431   6.180049   7.001178   6.091548
    45  H    7.231594   4.602014   6.061561   7.294135   5.807523
                    6          7          8          9         10
     6  C    0.000000
     7  C    1.524453   0.000000
     8  C    8.079844   8.178843   0.000000
     9  C    7.084542   6.884753   2.377906   0.000000
    10  C    1.491719   2.483391   7.760217   7.171781   0.000000
    11  C    2.589718   1.511957   7.020236   5.627994   3.118453
    12  C    2.481750   3.103427   6.506940   6.131255   1.396604
    13  C    3.058104   2.606871   5.691774   4.547252   3.118709
    14  C    2.525141   3.490132   8.862944   8.466462   1.389315
    15  C    3.825257   2.457148   7.526950   5.862787   4.449577
    16  C    3.766692   4.372213   6.565873   6.653339   2.413048
    17  C    4.451674   3.852282   4.879469   3.592948   4.462405
    18  C    4.280742   5.015306   7.845113   8.036456   2.789460
    19  C    3.799801   4.658377   8.910273   8.854743   2.419104
    20  C    5.261206   4.310045   5.624450   3.996068   5.476289
    21  C    5.016925   3.768738   6.952918   5.187317   5.480633
    22  H    4.463520   4.532870   4.092946   2.765359   4.723840
    23  H    4.406756   5.032128   4.537743   3.960049   4.516000
    24  H    1.095170   2.154413   7.488814   6.452608   2.126199
    25  H    1.093168   2.148288   9.108781   8.103407   2.129973
    26  H    2.149801   1.095587   8.758366   7.241558   3.421300
    27  H    2.137289   1.096991   8.906738   7.704858   2.685359
    28  H    4.916508   5.126383   3.545776   3.636900   4.333717
    29  H    4.251098   4.973989   4.589576   4.785869   3.567394
    30  H    6.667435   7.017362   2.821008   2.593396   6.711398
    31  H    6.453781   6.953922   2.469703   3.316684   6.106653
    32  H    8.656028   8.594470   1.092178   2.602347   8.320025
    33  H    8.103889   8.345421   1.091938   3.328872   7.602196
    34  H    8.736112   8.891211   1.105215   2.706069   8.514204
    35  H    7.715470   7.354203   2.620491   1.091997   7.749511
    36  H    6.275812   5.976438   3.332248   1.089835   6.527152
    37  H    7.778434   7.646950   2.679750   1.105187   7.962244
    38  H    5.365358   6.060242   8.133349   8.590263   3.874190
    39  H    4.627922   5.094394   5.781495   6.139307   3.394013
    40  H    2.731596   3.691412   9.827824   9.303844   2.137580
    41  H    4.671999   5.528668   9.901602   9.924552   3.399106
    42  H    5.113771   4.749019   3.863647   2.915443   4.925219
    43  H    6.321149   5.394766   5.364032   3.735247   6.477509
    44  H    5.948806   4.603290   7.673990   5.802032   6.481580
    45  H    4.081909   2.579741   8.592467   6.856973   4.884779
                   11         12         13         14         15
    11  C    0.000000
    12  C    3.047462   0.000000
    13  C    1.408548   2.440218   0.000000
    14  C    4.321809   2.402400   4.411177   0.000000
    15  C    1.394098   4.373962   2.405200   5.557907   0.000000
    16  C    4.231245   1.393608   3.472499   2.764642   5.450108
    17  C    2.414428   3.573852   1.402947   5.707517   2.734392
    18  C    5.188446   2.413814   4.676298   2.397448   6.393936
    19  C    5.228474   2.788070   5.060962   1.388110   6.442290
    20  C    2.805130   4.766875   2.436447   6.689823   2.379343
    21  C    2.442207   5.102489   2.816920   6.633947   1.383758
    22  H    3.625439   3.952012   2.641248   6.068578   4.345805
    23  H    4.572319   3.856949   3.634665   5.706558   5.598547
    24  H    2.820712   2.710442   3.010489   3.285126   4.058908
    25  H    3.500338   3.383055   4.132122   2.625318   4.587047
    26  H    2.116627   4.118557   3.345463   4.359075   2.599710
    27  H    2.133039   3.426043   3.243141   3.324588   2.791351
    28  H    4.184964   3.007649   2.787539   5.381984   5.093790
    29  H    4.518019   2.445743   3.339795   4.491700   5.724188
    30  H    6.182090   5.789813   5.061213   7.912708   6.884916
    31  H    6.158362   4.995791   4.856930   7.144950   7.049367
    32  H    7.322394   7.031829   6.025599   9.419075   7.669152
    33  H    7.279985   6.301093   5.893424   8.587239   7.930659
    34  H    7.777251   7.323168   6.494023   9.641139   8.272427
    35  H    5.981223   6.659575   4.937193   9.020218   6.027769
    36  H    4.731007   5.620558   3.795397   7.871033   4.912987
    37  H    6.467514   6.983934   5.456313   9.271362   6.688207
    38  H    6.146028   3.393752   5.544811   3.384246   7.296388
    39  H    4.658534   2.147154   3.644516   3.848780   5.770574
    40  H    4.811858   3.382898   5.150684   1.086008   5.961377
    41  H    6.208249   3.872457   6.120199   2.148523   7.374901
    42  H    3.398283   3.811345   2.153625   6.130733   3.816885
    43  H    3.889920   5.658748   3.409911   7.678978   3.372562
    44  H    3.417827   6.161977   3.900924   7.588849   2.147670
    45  H    2.129192   5.077436   3.381750   5.859376   1.086731
                   16         17         18         19         20
    16  C    0.000000
    17  C    4.303911   0.000000
    18  C    1.387129   5.594645   0.000000
    19  C    2.403352   6.195514   1.387692   0.000000
    20  C    5.522107   1.383133   6.737482   7.251170   0.000000
    21  C    6.019808   2.396737   7.094582   7.366052   1.385696
    22  H    4.852259   2.614281   6.169761   6.692687   3.569818
    23  H    4.642511   4.040684   5.803723   6.267119   5.182676
    24  H    4.046301   4.315398   4.753938   4.454804   5.203413
    25  H    4.536977   5.518592   4.784818   4.007165   6.252747
    26  H    5.429780   4.449161   6.063825   5.616397   4.690681
    27  H    4.486504   4.413168   4.901409   4.414150   4.765097
    28  H    3.115128   2.660649   4.470874   5.449115   3.975066
    29  H    2.604201   3.852008   3.777604   4.586496   5.231355
    30  H    6.300363   4.774905   7.565984   8.296015   5.675873
    31  H    5.151895   4.670369   6.350415   7.258939   5.818633
    32  H    7.039983   5.016417   8.319019   9.429325   5.558128
    33  H    6.154407   5.235907   7.344215   8.484822   6.145794
    34  H    7.451706   5.724327   8.721262   9.742420   6.415832
    35  H    7.092195   3.755776   8.469055   9.347321   3.886129
    36  H    6.336644   2.921570   7.717276   8.399935   3.253589
    37  H    7.547511   4.599486   8.919865   9.705191   4.940607
    38  H    2.142900   6.313649   1.084751   2.149389   7.450331
    39  H    1.084242   4.137780   2.144921   3.385451   5.382301
    40  H    3.850615   6.500930   3.382987   2.147065   7.384532
    41  H    3.388393   7.249458   2.149988   1.084400   8.270420
    42  H    4.287827   1.082623   5.642537   6.442753   2.124497
    43  H    6.279567   2.136127   7.523656   8.150972   1.084981
    44  H    7.055139   3.386490   8.092897   8.333100   2.155415
    45  H    6.187521   3.821068   6.988034   6.846254   3.364590
                   21         22         23         24         25
    21  C    0.000000
    22  H    4.353201   0.000000
    23  H    5.882595   1.747106   0.000000
    24  H    5.110577   3.724326   3.500238   0.000000
    25  H    5.870167   5.430093   5.221183   1.765338   0.000000
    26  H    3.936072   4.899295   5.446572   2.521900   2.412805
    27  H    4.105897   5.479177   5.986169   3.047441   2.481297
    28  H    5.043003   2.674915   3.030107   4.601074   5.962911
    29  H    6.046481   3.023004   2.357243   3.820176   5.148672
    30  H    6.693620   2.581173   2.408930   5.802650   7.551579
    31  H    6.935143   3.049056   2.552172   5.751637   7.374554
    32  H    6.927056   4.726758   5.431613   8.147908   9.717342
    33  H    7.471197   4.504633   4.643411   7.560745   9.114350
    34  H    7.701648   4.553626   4.840383   8.043642   9.728087
    35  H    5.138443   3.632786   4.952709   7.191139   8.762790
    36  H    4.308113   2.086473   3.591011   5.650841   7.273269
    37  H    6.036139   3.333420   4.285860   7.040523   8.747679
    38  H    7.896848   6.951852   6.557734   5.815852   5.852425
    39  H    6.101973   4.746487   4.635083   4.770086   5.488834
    40  H    7.158613   6.794077   6.402038   3.568302   2.380300
    41  H    8.332585   7.767346   7.276979   5.373341   4.691379
    42  H    3.368115   2.497319   3.823399   4.873229   6.204197
    43  H    2.152378   4.082536   5.759940   6.213162   7.325018
    44  H    1.084109   5.275005   6.862358   6.068578   6.726290
    45  H    2.136085   5.269149   6.431821   4.437544   4.623421
                   26         27         28         29         30
    26  H    0.000000
    27  H    1.749048   0.000000
    28  H    5.943797   5.704262   0.000000
    29  H    5.785057   5.606978   1.754235   0.000000
    30  H    7.386402   7.959431   3.658873   3.809635   0.000000
    31  H    7.556944   7.755056   2.643482   2.683808   1.760210
    32  H    9.181360   9.254654   4.038913   5.343068   3.790053
    33  H    9.022531   9.017366   3.380602   4.247358   3.230399
    34  H    9.390523   9.690898   4.455672   5.270150   2.703110
    35  H    7.732321   8.082057   4.095045   5.491801   3.633284
    36  H    6.251433   6.829187   3.565952   4.619020   2.854534
    37  H    7.907058   8.534567   4.540857   5.469168   2.460950
    38  H    7.120997   5.895752   4.959618   4.362622   8.130580
    39  H    6.140552   5.270574   2.516142   2.399318   5.913363
    40  H    4.364045   3.417395   6.378241   5.437835   8.700041
    41  H    6.432308   5.164520   6.476432   5.576671   9.314323
    42  H    5.401330   5.323171   1.951337   3.464630   4.151679
    43  H    5.747459   5.829655   4.379755   5.836298   5.819159
    44  H    4.610944   4.839475   6.044386   7.113800   7.517934
    45  H    2.383297   2.698729   6.129966   6.632377   7.825620
                   31         32         33         34         35
    31  H    0.000000
    32  H    3.501899   0.000000
    33  H    2.252427   1.767294   0.000000
    34  H    2.791188   1.775260   1.778980   0.000000
    35  H    4.136799   2.366644   3.601385   3.057654   0.000000
    36  H    3.688692   3.599859   4.164607   3.711900   1.760401
    37  H    3.619430   2.994565   3.697502   2.536232   1.778688
    38  H    6.755386   8.560229   7.519072   9.029453   8.963551
    39  H    4.603291   6.195850   5.295385   6.715074   6.500838
    40  H    8.048420  10.403215   9.588861  10.570865   9.883994
    41  H    8.227744  10.416768   9.423039  10.733435  10.408236
    42  H    3.871043   3.990944   4.186016   4.771319   3.059067
    43  H    6.018833   5.107890   5.984555   6.133797   3.344688
    44  H    7.865625   7.543939   8.267221   8.386649   5.618215
    45  H    8.053302   8.737063   9.006638   9.311759   7.022039
                   36         37         38         39         40
    36  H    0.000000
    37  H    1.778621   0.000000
    38  H    8.381763   9.483527   0.000000
    39  H    5.980474   7.056441   2.465704   0.000000
    40  H    8.638997  10.071627   4.284100   4.934771   0.000000
    41  H    9.482642  10.773394   2.482453   4.283851   2.474856
    42  H    2.540388   3.987568   6.237877   3.870691   7.020589
    43  H    3.181099   4.659015   8.149118   5.985626   8.415300
    44  H    4.947716   6.585384   8.874349   7.121913   8.053085
    45  H    5.869413   7.628758   7.918849   6.624090   6.080028
                   41         42         43         44         45
    41  H    0.000000
    42  H    7.498131   0.000000
    43  H    9.167414   2.431904   0.000000
    44  H    9.266934   4.269569   2.499136   0.000000
    45  H    7.697373   4.903570   4.273638   2.464021   0.000000
 Stoichiometry    C19H24N2
 Framework group  C1[X(C19H24N2)]
 Deg. of freedom   129
 Full point group                 C1      NOp   1
 Largest Abelian subgroup         C1      NOp   1
 Largest concise Abelian subgroup C1      NOp   1
                         Standard orientation:                         
 ---------------------------------------------------------------------
 Center     Atomic      Atomic             Coordinates (Angstroms)
 Number     Number       Type             X           Y           Z
 ---------------------------------------------------------------------
      1          7           0        3.739150   -0.990247   -0.051396
      2          7           0       -0.416177   -0.351376    0.170201
      3          6           0        1.692279   -0.925871    1.332502
      4          6           0        3.046742   -1.572710    1.086715
      5          6           0        0.701649   -1.277918    0.225722
      6          6           0       -2.635158    0.608788    1.576368
      7          6           0       -2.335307    1.940699    0.898091
      8          6           0        4.740099   -1.884356   -0.585506
      9          6           0        4.320106    0.295778    0.265998
     10          6           0       -2.803797   -0.475344    0.565703
     11          6           0       -1.025433    2.052585    0.151280
     12          6           0       -1.677852   -0.910241   -0.136875
     13          6           0       -0.152305    0.994088   -0.166901
     14          6           0       -4.040066   -1.041492    0.280550
     15          6           0       -0.663553    3.343447   -0.231118
     16          6           0       -1.806001   -1.915296   -1.093738
     17          6           0        1.047376    1.295877   -0.828679
     18          6           0       -3.044116   -2.483286   -1.355625
     19          6           0       -4.168333   -2.044159   -0.670794
     20          6           0        1.385019    2.590681   -1.178731
     21          6           0        0.519978    3.633141   -0.886951
     22          1           0        1.802154    0.158746    1.401054
     23          1           0        1.293851   -1.251778    2.297953
     24          1           0       -1.817156    0.351870    2.257737
     25          1           0       -3.544445    0.706940    2.175184
     26          1           0       -2.355241    2.739081    1.648091
     27          1           0       -3.155013    2.162199    0.203535
     28          1           0        1.236854   -1.356175   -0.729819
     29          1           0        0.279580   -2.264103    0.426310
     30          1           0        3.668964   -1.520605    1.998762
     31          1           0        2.898642   -2.637771    0.877654
     32          1           0        5.207758   -1.434018   -1.463768
     33          1           0        4.277608   -2.824332   -0.893525
     34          1           0        5.539934   -2.116526    0.141034
     35          1           0        4.755998    0.735649   -0.633429
     36          1           0        3.557950    0.983227    0.632430
     37          1           0        5.114374    0.220090    1.030751
     38          1           0       -3.130238   -3.262656   -2.105192
     39          1           0       -0.932140   -2.244920   -1.644461
     40          1           0       -4.913050   -0.700710    0.829349
     41          1           0       -5.139219   -2.482843   -0.872933
     42          1           0        1.737876    0.498401   -1.072224
     43          1           0        2.325018    2.776711   -1.687631
     44          1           0        0.764358    4.654669   -1.155376
     45          1           0       -1.343192    4.153761    0.018814
 ---------------------------------------------------------------------
 Rotational constants (GHZ):           0.4426000           0.2285596           0.1720389
 Leave Link  202 at Tue Nov 19 13:50:36 2019, MaxMem= 18350080000 cpu:               3.1 elap:               0.2
 (Enter /gpfs/apps/medsci/stacks/noOS/software/gaussian/g16.a03.avx2/g16/l301.exe)
 Standard basis: def2SVP (5D, 7F)
 Ernie: Thresh=  0.10000D-02 Tol=  0.10000D-05 Strict=F.
 There are   435 symmetry adapted cartesian basis functions of A   symmetry.
 There are   414 symmetry adapted basis functions of A   symmetry.
   414 basis functions,   693 primitive gaussians,   435 cartesian basis functions
    76 alpha electrons       76 beta electrons
       nuclear repulsion energy      1685.3519388490 Hartrees.
 IExCor= 3731 DFT=T Ex+Corr=APFD ExCW=0 ScaHFX=  0.229450
 ScaDFX=  1.000000  1.000000  1.000000  1.000000 ScalE2=  1.000000  1.000000
 IRadAn=      5 IRanWt=     -1 IRanGd=            0 ICorTp=0 IEmpDi=211
 NAtoms=   45 NActive=   45 NUniq=   45 SFac= 1.00D+00 NAtFMM=   60 NAOKFM=F Big=F
 Integral buffers will be    131072 words long.
 Raffenetti 2 integral format.
 Two-electron integral symmetry is turned on.
 R6APFD:  NTU= -4 IXU= 1 FactS= 1.050
 R6Disp:  Petersson-Frisch Dispersion energy=       -0.0424343766 Hartrees.
 Nuclear repulsion after empirical dispersion term =     1685.3095044724 Hartrees.
 Leave Link  301 at Tue Nov 19 13:50:37 2019, MaxMem= 18350080000 cpu:               4.1 elap:               0.2
 (Enter /gpfs/apps/medsci/stacks/noOS/software/gaussian/g16.a03.avx2/g16/l302.exe)
 NPDir=0 NMtPBC=     1 NCelOv=     1 NCel=       1 NClECP=     1 NCelD=      1
         NCelK=      1 NCelE2=     1 NClLst=     1 CellRange=     0.0.
 One-electron integrals computed using PRISM.
 One-electron integral symmetry used in STVInt
   1 Symmetry operations used in ECPInt.
 ECPInt:  NShTT=   19701 NPrTT=   69723 LenC2=   18012 LenP2D=   44979.
 LDataN:  DoStor=T MaxTD1= 4 Len=   56
 NBasis=   414 RedAO= T EigKep=  2.14D-04  NBF=   414
 NBsUse=   414 1.00D-06 EigRej= -1.00D+00 NBFU=   414
 Precomputing XC quadrature grid using
 IXCGrd= 4 IRadAn=           5 IRanWt=          -1 IRanGd=           0 AccXCQ= 0.00D+00.
 Generated NRdTot=       0 NPtTot=           0 NUsed=           0 NTot=          32
 NSgBfM=   433   433   433   433   433 MxSgAt=    45 MxSgA2=    45.
 Leave Link  302 at Tue Nov 19 13:50:38 2019, MaxMem= 18350080000 cpu:              25.4 elap:               0.8
 (Enter /gpfs/apps/medsci/stacks/noOS/software/gaussian/g16.a03.avx2/g16/l303.exe)
 DipDrv:  MaxL=1.
 Leave Link  303 at Tue Nov 19 13:50:39 2019, MaxMem= 18350080000 cpu:               3.7 elap:               0.2
 (Enter /gpfs/apps/medsci/stacks/noOS/software/gaussian/g16.a03.avx2/g16/l401.exe)
 ExpMin= 1.22D-01 ExpMax= 1.71D+03 ExpMxC= 2.58D+02 IAcc=3 IRadAn=         5 AccDes= 0.00D+00
 Harris functional with IExCor= 3731 and IRadAn=       5 diagonalized for initial guess.
 HarFok:  IExCor= 3731 AccDes= 0.00D+00 IRadAn=         5 IDoV= 1 UseB2=F ITyADJ=14
 ICtDFT=  3500011 ScaDFX=  1.000000  1.000000  1.000000  1.000000
 FoFCou: FMM=F IPFlag=           0 FMFlag=      100000 FMFlg1=           0
         NFxFlg=           0 DoJE=T BraDBF=F KetDBF=T FulRan=T
         wScrn=  0.000000 ICntrl=       500 IOpCl=  0 I1Cent=   200000004 NGrid=           0
         NMat0=    1 NMatS0=      1 NMatT0=    0 NMatD0=    1 NMtDS0=    0 NMtDT0=    0
 Petite list used in FoFCou.
 Harris En= -819.489423183409    
 JPrj=0 DoOrth=F DoCkMO=T.
 Mixing orbitals, IMix= 1 IMixAn=  0 NRI=1 NE=   76 Coef=  7.07106781D-01  7.07106781D-01
 Leave Link  401 at Tue Nov 19 13:50:40 2019, MaxMem= 18350080000 cpu:              45.2 elap:               1.3
 (Enter /gpfs/apps/medsci/stacks/noOS/software/gaussian/g16.a03.avx2/g16/l502.exe)
 Integral symmetry usage will be decided dynamically.
 Closed shell SCF:
 Using DIIS extrapolation, IDIIS=  1040.
 NGot= 18350080000 LenX= 18349679361 LenY= 18349489695
 Requested convergence on RMS density matrix=1.00D-08 within  32 cycles.
 Requested convergence on MAX density matrix=1.00D-06.
 Requested convergence on             energy=1.00D-06.
 No special actions if energy rises.
 Fock matrices will be formed incrementally for  20 cycles.
 Integral accuracy reduced to 1.0D-05 until final iterations.

 Cycle   1  Pass 0  IDiag  1:
 FoFJK:  IHMeth= 1 ICntrl=       0 DoSepK=F KAlg= 0 I1Cent=           0 FoldK=F
 IRaf= 850000000 NMat=       1 IRICut=       1 DoRegI=T DoRafI=F ISym2E= 0 IDoP0=0 IntGTp=1.
 FoFCou: FMM=F IPFlag=           0 FMFlag=      100000 FMFlg1=           0
         NFxFlg=           0 DoJE=F BraDBF=F KetDBF=F FulRan=T
         wScrn=  0.000000 ICntrl=         0 IOpCl=  0 I1Cent=           0 NGrid=           0
         NMat0=    1 NMatS0=      1 NMatT0=    0 NMatD0=    1 NMtDS0=    0 NMtDT0=    0
 Symmetry not used in FoFCou.
 E= -846.241732588065    
 DIIS: error= 2.73D-02 at cycle   1 NSaved=   1.
 NSaved= 1 IEnMin= 1 EnMin= -846.241732588065     IErMin= 1 ErrMin= 2.73D-02
 ErrMax= 2.73D-02  0.00D+00 EMaxC= 1.00D-01 BMatC= 5.54D-01 BMatP= 5.54D-01
 IDIUse=3 WtCom= 7.27D-01 WtEn= 2.73D-01
 Coeff-Com:  0.100D+01
 Coeff-En:   0.100D+01
 Coeff:      0.100D+01
 Gap=     0.045 Goal=   None    Shift=    0.000
 GapD=    0.045 DampG=0.250 DampE=0.500 DampFc=0.2500 IDamp=-1.
 Damping current iteration by 2.50D-01
 RMSDP=4.56D-03 MaxDP=2.88D-01              OVMax= 3.84D-01

 Cycle   2  Pass 0  IDiag  1:
 RMSU=  1.12D-03    CP:  9.86D-01
 E= -846.383953019110     Delta-E=       -0.142220431045 Rises=F Damp=T
 DIIS: error= 2.07D-02 at cycle   2 NSaved=   2.
 NSaved= 2 IEnMin= 2 EnMin= -846.383953019110     IErMin= 2 ErrMin= 2.07D-02
 ErrMax= 2.07D-02  0.00D+00 EMaxC= 1.00D-01 BMatC= 2.04D-01 BMatP= 5.54D-01
 IDIUse=3 WtCom= 7.93D-01 WtEn= 2.07D-01
 Coeff-Com: -0.674D+00 0.167D+01
 Coeff-En:   0.000D+00 0.100D+01
 Coeff:     -0.535D+00 0.153D+01
 Gap=     0.262 Goal=   None    Shift=    0.000
 RMSDP=2.50D-03 MaxDP=7.45D-02 DE=-1.42D-01 OVMax= 3.46D-01

 Cycle   3  Pass 0  IDiag  1:
 RMSU=  2.27D-03    CP:  9.51D-01  1.78D+00
 E= -846.652222146480     Delta-E=       -0.268269127370 Rises=F Damp=F
 DIIS: error= 5.69D-03 at cycle   3 NSaved=   3.
 NSaved= 3 IEnMin= 3 EnMin= -846.652222146480     IErMin= 3 ErrMin= 5.69D-03
 ErrMax= 5.69D-03  0.00D+00 EMaxC= 1.00D-01 BMatC= 3.01D-02 BMatP= 2.04D-01
 IDIUse=3 WtCom= 9.43D-01 WtEn= 5.69D-02
 Coeff-Com: -0.330D+00 0.546D+00 0.784D+00
 Coeff-En:   0.000D+00 0.000D+00 0.100D+01
 Coeff:     -0.311D+00 0.515D+00 0.796D+00
 Gap=     0.195 Goal=   None    Shift=    0.000
 RMSDP=1.09D-03 MaxDP=4.03D-02 DE=-2.68D-01 OVMax= 9.52D-02

 Cycle   4  Pass 0  IDiag  1:
 RMSU=  8.76D-04    CP:  9.51D-01  2.21D+00  8.01D-01
 E= -846.657312208921     Delta-E=       -0.005090062441 Rises=F Damp=F
 DIIS: error= 5.42D-03 at cycle   4 NSaved=   4.
 NSaved= 4 IEnMin= 4 EnMin= -846.657312208921     IErMin= 4 ErrMin= 5.42D-03
 ErrMax= 5.42D-03  0.00D+00 EMaxC= 1.00D-01 BMatC= 2.72D-02 BMatP= 3.01D-02
 IDIUse=3 WtCom= 9.46D-01 WtEn= 5.42D-02
 Coeff-Com: -0.123D+00 0.171D+00 0.517D+00 0.435D+00
 Coeff-En:   0.000D+00 0.000D+00 0.468D+00 0.532D+00
 Coeff:     -0.116D+00 0.161D+00 0.514D+00 0.440D+00
 Gap=     0.198 Goal=   None    Shift=    0.000
 RMSDP=5.49D-04 MaxDP=1.98D-02 DE=-5.09D-03 OVMax= 5.51D-02

 Cycle   5  Pass 0  IDiag  1:
 RMSU=  2.04D-04    CP:  9.48D-01  2.09D+00  9.25D-01  5.43D-01
 E= -846.687368886008     Delta-E=       -0.030056677086 Rises=F Damp=F
 DIIS: error= 6.28D-04 at cycle   5 NSaved=   5.
 NSaved= 5 IEnMin= 5 EnMin= -846.687368886008     IErMin= 5 ErrMin= 6.28D-04
 ErrMax= 6.28D-04  0.00D+00 EMaxC= 1.00D-01 BMatC= 5.36D-04 BMatP= 2.72D-02
 IDIUse=3 WtCom= 9.94D-01 WtEn= 6.28D-03
 Coeff-Com: -0.394D-01 0.528D-01 0.214D+00 0.217D+00 0.555D+00
 Coeff-En:   0.000D+00 0.000D+00 0.000D+00 0.000D+00 0.100D+01
 Coeff:     -0.391D-01 0.525D-01 0.213D+00 0.216D+00 0.558D+00
 Gap=     0.194 Goal=   None    Shift=    0.000
 RMSDP=8.71D-05 MaxDP=3.88D-03 DE=-3.01D-02 OVMax= 9.15D-03

 Cycle   6  Pass 0  IDiag  1:
 RMSU=  7.17D-05    CP:  9.48D-01  2.09D+00  9.27D-01  5.80D-01  8.23D-01
 E= -846.687868938403     Delta-E=       -0.000500052395 Rises=F Damp=F
 DIIS: error= 3.15D-04 at cycle   6 NSaved=   6.
 NSaved= 6 IEnMin= 6 EnMin= -846.687868938403     IErMin= 6 ErrMin= 3.15D-04
 ErrMax= 3.15D-04  0.00D+00 EMaxC= 1.00D-01 BMatC= 7.42D-05 BMatP= 5.36D-04
 IDIUse=3 WtCom= 9.97D-01 WtEn= 3.15D-03
 Coeff-Com: -0.138D-02 0.140D-02 0.322D-01 0.478D-01 0.296D+00 0.624D+00
 Coeff-En:   0.000D+00 0.000D+00 0.000D+00 0.000D+00 0.755D-01 0.925D+00
 Coeff:     -0.137D-02 0.139D-02 0.321D-01 0.477D-01 0.295D+00 0.625D+00
 Gap=     0.194 Goal=   None    Shift=    0.000
 RMSDP=4.01D-05 MaxDP=1.92D-03 DE=-5.00D-04 OVMax= 7.13D-03

 Cycle   7  Pass 0  IDiag  1:
 RMSU=  3.05D-05    CP:  9.48D-01  2.10D+00  9.30D-01  5.80D-01  8.81D-01
                    CP:  7.19D-01
 E= -846.687945699553     Delta-E=       -0.000076761150 Rises=F Damp=F
 DIIS: error= 1.91D-04 at cycle   7 NSaved=   7.
 NSaved= 7 IEnMin= 7 EnMin= -846.687945699553     IErMin= 7 ErrMin= 1.91D-04
 ErrMax= 1.91D-04  0.00D+00 EMaxC= 1.00D-01 BMatC= 1.79D-05 BMatP= 7.42D-05
 IDIUse=3 WtCom= 9.98D-01 WtEn= 1.91D-03
 Coeff-Com:  0.331D-02-0.484D-02-0.506D-02 0.343D-02 0.110D+00 0.399D+00
 Coeff-Com:  0.494D+00
 Coeff-En:   0.000D+00 0.000D+00 0.000D+00 0.000D+00 0.000D+00 0.133D+00
 Coeff-En:   0.867D+00
 Coeff:      0.331D-02-0.483D-02-0.505D-02 0.343D-02 0.109D+00 0.399D+00
 Coeff:      0.495D+00
 Gap=     0.194 Goal=   None    Shift=    0.000
 RMSDP=1.68D-05 MaxDP=5.22D-04 DE=-7.68D-05 OVMax= 1.61D-03

 Cycle   8  Pass 0  IDiag  1:
 RMSU=  1.03D-05    CP:  9.48D-01  2.10D+00  9.30D-01  5.86D-01  8.96D-01
                    CP:  8.27D-01  7.05D-01
 E= -846.687966091052     Delta-E=       -0.000020391498 Rises=F Damp=F
 DIIS: error= 2.20D-05 at cycle   8 NSaved=   8.
 NSaved= 8 IEnMin= 8 EnMin= -846.687966091052     IErMin= 8 ErrMin= 2.20D-05
 ErrMax= 2.20D-05  0.00D+00 EMaxC= 1.00D-01 BMatC= 7.17D-07 BMatP= 1.79D-05
 IDIUse=1 WtCom= 1.00D+00 WtEn= 0.00D+00
 Coeff-Com:  0.140D-02-0.199D-02-0.713D-02-0.655D-02-0.409D-02 0.819D-01
 Coeff-Com:  0.190D+00 0.746D+00
 Coeff:      0.140D-02-0.199D-02-0.713D-02-0.655D-02-0.409D-02 0.819D-01
 Coeff:      0.190D+00 0.746D+00
 Gap=     0.194 Goal=   None    Shift=    0.000
 RMSDP=4.51D-06 MaxDP=1.29D-04 DE=-2.04D-05 OVMax= 7.75D-04

 Initial convergence to 1.0D-05 achieved.  Increase integral accuracy.
 Cycle   9  Pass 1  IDiag  1:
 E= -846.687984734170     Delta-E=       -0.000018643118 Rises=F Damp=F
 DIIS: error= 1.31D-04 at cycle   1 NSaved=   1.
 NSaved= 1 IEnMin= 1 EnMin= -846.687984734170     IErMin= 1 ErrMin= 1.31D-04
 ErrMax= 1.31D-04  0.00D+00 EMaxC= 1.00D-01 BMatC= 3.59D-06 BMatP= 3.59D-06
 IDIUse=3 WtCom= 9.99D-01 WtEn= 1.31D-03
 Coeff-Com:  0.100D+01
 Coeff-En:   0.100D+01
 Coeff:      0.100D+01
 Gap=     0.194 Goal=   None    Shift=    0.000
 RMSDP=4.51D-06 MaxDP=1.29D-04 DE=-1.86D-05 OVMax= 5.46D-04

 Cycle  10  Pass 1  IDiag  1:
 RMSU=  1.37D-04    CP:  1.00D+00
 E= -846.687988355885     Delta-E=       -0.000003621715 Rises=F Damp=F
 DIIS: error= 1.23D-05 at cycle   2 NSaved=   2.
 NSaved= 2 IEnMin= 2 EnMin= -846.687988355885     IErMin= 2 ErrMin= 1.23D-05
 ErrMax= 1.23D-05  0.00D+00 EMaxC= 1.00D-01 BMatC= 2.09D-07 BMatP= 3.59D-06
 IDIUse=1 WtCom= 1.00D+00 WtEn= 0.00D+00
 Coeff-Com:  0.765D-01 0.923D+00
 Coeff:      0.765D-01 0.923D+00
 Gap=     0.194 Goal=   None    Shift=    0.000
 RMSDP=3.83D-06 MaxDP=1.25D-04 DE=-3.62D-06 OVMax= 3.12D-04

 Cycle  11  Pass 1  IDiag  1:
 RMSU=  3.24D-06    CP:  1.00D+00  1.01D+00
 E= -846.687988113490     Delta-E=        0.000000242395 Rises=F Damp=F
 DIIS: error= 1.74D-05 at cycle   3 NSaved=   3.
 NSaved= 3 IEnMin= 2 EnMin= -846.687988355885     IErMin= 2 ErrMin= 1.23D-05
 ErrMax= 1.74D-05  0.00D+00 EMaxC= 1.00D-01 BMatC= 4.38D-07 BMatP= 2.09D-07
 IDIUse=1 WtCom= 1.00D+00 WtEn= 0.00D+00
 Coeff-Com: -0.451D-02 0.594D+00 0.410D+00
 Coeff:     -0.451D-02 0.594D+00 0.410D+00
 Gap=     0.194 Goal=   None    Shift=    0.000
 RMSDP=2.09D-06 MaxDP=7.13D-05 DE= 2.42D-07 OVMax= 2.13D-04

 Cycle  12  Pass 1  IDiag  1:
 RMSU=  6.62D-07    CP:  1.00D+00  1.02D+00  3.94D-01
 E= -846.687988564650     Delta-E=       -0.000000451160 Rises=F Damp=F
 DIIS: error= 4.05D-06 at cycle   4 NSaved=   4.
 NSaved= 4 IEnMin= 4 EnMin= -846.687988564650     IErMin= 4 ErrMin= 4.05D-06
 ErrMax= 4.05D-06  0.00D+00 EMaxC= 1.00D-01 BMatC= 9.37D-09 BMatP= 2.09D-07
 IDIUse=1 WtCom= 1.00D+00 WtEn= 0.00D+00
 Coeff-Com: -0.434D-02 0.352D+00 0.255D+00 0.397D+00
 Coeff:     -0.434D-02 0.352D+00 0.255D+00 0.397D+00
 Gap=     0.194 Goal=   None    Shift=    0.000
 RMSDP=3.47D-07 MaxDP=1.24D-05 DE=-4.51D-07 OVMax= 3.23D-05

 Cycle  13  Pass 1  IDiag  1:
 RMSU=  2.07D-07    CP:  1.00D+00  1.02D+00  4.27D-01  6.12D-01
 E= -846.687988574596     Delta-E=       -0.000000009947 Rises=F Damp=F
 DIIS: error= 4.40D-07 at cycle   5 NSaved=   5.
 NSaved= 5 IEnMin= 5 EnMin= -846.687988574596     IErMin= 5 ErrMin= 4.40D-07
 ErrMax= 4.40D-07  0.00D+00 EMaxC= 1.00D-01 BMatC= 2.71D-10 BMatP= 9.37D-09
 IDIUse=1 WtCom= 1.00D+00 WtEn= 0.00D+00
 Coeff-Com: -0.208D-02 0.157D+00 0.114D+00 0.217D+00 0.514D+00
 Coeff:     -0.208D-02 0.157D+00 0.114D+00 0.217D+00 0.514D+00
 Gap=     0.194 Goal=   None    Shift=    0.000
 RMSDP=6.38D-08 MaxDP=2.26D-06 DE=-9.95D-09 OVMax= 6.53D-06

 Cycle  14  Pass 1  IDiag  1:
 RMSU=  5.44D-08    CP:  1.00D+00  1.02D+00  4.26D-01  6.43D-01  8.79D-01
 E= -846.687988574856     Delta-E=       -0.000000000260 Rises=F Damp=F
 DIIS: error= 2.08D-07 at cycle   6 NSaved=   6.
 NSaved= 6 IEnMin= 6 EnMin= -846.687988574856     IErMin= 6 ErrMin= 2.08D-07
 ErrMax= 2.08D-07  0.00D+00 EMaxC= 1.00D-01 BMatC= 3.11D-11 BMatP= 2.71D-10
 IDIUse=1 WtCom= 1.00D+00 WtEn= 0.00D+00
 Coeff-Com: -0.335D-03 0.206D-01 0.151D-01 0.482D-01 0.263D+00 0.654D+00
 Coeff:     -0.335D-03 0.206D-01 0.151D-01 0.482D-01 0.263D+00 0.654D+00
 Gap=     0.194 Goal=   None    Shift=    0.000
 RMSDP=2.68D-08 MaxDP=1.06D-06 DE=-2.60D-10 OVMax= 3.72D-06

 Cycle  15  Pass 1  IDiag  1:
 RMSU=  2.28D-08    CP:  1.00D+00  1.02D+00  4.25D-01  6.48D-01  9.30D-01
                    CP:  8.54D-01
 E= -846.687988574894     Delta-E=       -0.000000000037 Rises=F Damp=F
 DIIS: error= 7.99D-08 at cycle   7 NSaved=   7.
 NSaved= 7 IEnMin= 7 EnMin= -846.687988574894     IErMin= 7 ErrMin= 7.99D-08
 ErrMax= 7.99D-08  0.00D+00 EMaxC= 1.00D-01 BMatC= 8.26D-12 BMatP= 3.11D-11
 IDIUse=1 WtCom= 1.00D+00 WtEn= 0.00D+00
 Coeff-Com:  0.192D-03-0.171D-01-0.126D-01-0.102D-01 0.587D-01 0.394D+00
 Coeff-Com:  0.588D+00
 Coeff:      0.192D-03-0.171D-01-0.126D-01-0.102D-01 0.587D-01 0.394D+00
 Coeff:      0.588D+00
 Gap=     0.194 Goal=   None    Shift=    0.000
 RMSDP=1.36D-08 MaxDP=4.33D-07 DE=-3.73D-11 OVMax= 1.85D-06

 Cycle  16  Pass 1  IDiag  1:
 RMSU=  1.00D-08    CP:  1.00D+00  1.02D+00  4.26D-01  6.54D-01  9.34D-01
                    CP:  9.45D-01  7.31D-01
 E= -846.687988574907     Delta-E=       -0.000000000014 Rises=F Damp=F
 DIIS: error= 3.49D-08 at cycle   8 NSaved=   8.
 NSaved= 8 IEnMin= 8 EnMin= -846.687988574907     IErMin= 8 ErrMin= 3.49D-08
 ErrMax= 3.49D-08  0.00D+00 EMaxC= 1.00D-01 BMatC= 9.26D-13 BMatP= 8.26D-12
 IDIUse=1 WtCom= 1.00D+00 WtEn= 0.00D+00
 Coeff-Com:  0.145D-03-0.120D-01-0.889D-02-0.109D-01 0.329D-02 0.150D+00
 Coeff-Com:  0.336D+00 0.542D+00
 Coeff:      0.145D-03-0.120D-01-0.889D-02-0.109D-01 0.329D-02 0.150D+00
 Coeff:      0.336D+00 0.542D+00
 Gap=     0.194 Goal=   None    Shift=    0.000
 RMSDP=3.94D-09 MaxDP=2.05D-07 DE=-1.36D-11 OVMax= 3.95D-07

 SCF Done:  E(RAPFD) =  -846.687988575     A.U. after   16 cycles
            NFock= 16  Conv=0.39D-08     -V/T= 2.0107
 KE= 8.377015832309D+02 PE=-5.330738440454D+03 EE= 1.961039364176D+03
 Leave Link  502 at Tue Nov 19 13:51:08 2019, MaxMem= 18350080000 cpu:            1091.3 elap:              27.5
 (Enter /gpfs/apps/medsci/stacks/noOS/software/gaussian/g16.a03.avx2/g16/l508.exe)
 QCSCF skips out because SCF is already converged.
 Leave Link  508 at Tue Nov 19 13:51:09 2019, MaxMem= 18350080000 cpu:               0.5 elap:               0.1
 (Enter /gpfs/apps/medsci/stacks/noOS/software/gaussian/g16.a03.avx2/g16/l601.exe)
 Copying SCF densities to generalized density rwf, IOpCl= 0 IROHF=0.

 **********************************************************************

            Population analysis using the SCF density.

 **********************************************************************

 Orbital symmetries:
       Occupied  (A) (A) (A) (A) (A) (A) (A) (A) (A) (A) (A) (A)
                 (A) (A) (A) (A) (A) (A) (A) (A) (A) (A) (A) (A)
                 (A) (A) (A) (A) (A) (A) (A) (A) (A) (A) (A) (A)
                 (A) (A) (A) (A) (A) (A) (A) (A) (A) (A) (A) (A)
                 (A) (A) (A) (A) (A) (A) (A) (A) (A) (A) (A) (A)
                 (A) (A) (A) (A) (A) (A) (A) (A) (A) (A) (A) (A)
                 (A) (A) (A) (A)
       Virtual   (A) (A) (A) (A) (A) (A) (A) (A) (A) (A) (A) (A)
                 (A) (A) (A) (A) (A) (A) (A) (A) (A) (A) (A) (A)
                 (A) (A) (A) (A) (A) (A) (A) (A) (A) (A) (A) (A)
                 (A) (A) (A) (A) (A) (A) (A) (A) (A) (A) (A) (A)
                 (A) (A) (A) (A) (A) (A) (A) (A) (A) (A) (A) (A)
                 (A) (A) (A) (A) (A) (A) (A) (A) (A) (A) (A) (A)
                 (A) (A) (A) (A) (A) (A) (A) (A) (A) (A) (A) (A)
                 (A) (A) (A) (A) (A) (A) (A) (A) (A) (A) (A) (A)
                 (A) (A) (A) (A) (A) (A) (A) (A) (A) (A) (A) (A)
                 (A) (A) (A) (A) (A) (A) (A) (A) (A) (A) (A) (A)
                 (A) (A) (A) (A) (A) (A) (A) (A) (A) (A) (A) (A)
                 (A) (A) (A) (A) (A) (A) (A) (A) (A) (A) (A) (A)
                 (A) (A) (A) (A) (A) (A) (A) (A) (A) (A) (A) (A)
                 (A) (A) (A) (A) (A) (A) (A) (A) (A) (A) (A) (A)
                 (A) (A) (A) (A) (A) (A) (A) (A) (A) (A) (A) (A)
                 (A) (A) (A) (A) (A) (A) (A) (A) (A) (A) (A) (A)
                 (A) (A) (A) (A) (A) (A) (A) (A) (A) (A) (A) (A)
                 (A) (A) (A) (A) (A) (A) (A) (A) (A) (A) (A) (A)
                 (A) (A) (A) (A) (A) (A) (A) (A) (A) (A) (A) (A)
                 (A) (A) (A) (A) (A) (A) (A) (A) (A) (A) (A) (A)
                 (A) (A) (A) (A) (A) (A) (A) (A) (A) (A) (A) (A)
                 (A) (A) (A) (A) (A) (A) (A) (A) (A) (A) (A) (A)
                 (A) (A) (A) (A) (A) (A) (A) (A) (A) (A) (A) (A)
                 (A) (A) (A) (A) (A) (A) (A) (A) (A) (A) (A) (A)
                 (A) (A) (A) (A) (A) (A) (A) (A) (A) (A) (A) (A)
                 (A) (A) (A) (A) (A) (A) (A) (A) (A) (A) (A) (A)
                 (A) (A) (A) (A) (A) (A) (A) (A) (A) (A) (A) (A)
                 (A) (A) (A) (A) (A) (A) (A) (A) (A) (A) (A) (A)
                 (A) (A)
 The electronic state is 1-A.
 Alpha  occ. eigenvalues --  -14.37427 -14.35634 -10.24337 -10.23912 -10.23180
 Alpha  occ. eigenvalues --  -10.23059 -10.22613 -10.22299 -10.20895 -10.20838
 Alpha  occ. eigenvalues --  -10.20804 -10.20638 -10.20543 -10.20507 -10.20494
 Alpha  occ. eigenvalues --  -10.20379 -10.20160 -10.20048 -10.19941 -10.19622
 Alpha  occ. eigenvalues --  -10.19561  -0.96574  -0.94039  -0.86672  -0.85592
 Alpha  occ. eigenvalues --   -0.80967  -0.78880  -0.76214  -0.75891  -0.73144
 Alpha  occ. eigenvalues --   -0.71783  -0.71557  -0.68454  -0.65489  -0.63816
 Alpha  occ. eigenvalues --   -0.61219  -0.59877  -0.59081  -0.57749  -0.56770
 Alpha  occ. eigenvalues --   -0.52453  -0.52257  -0.49944  -0.48954  -0.48828
 Alpha  occ. eigenvalues --   -0.47946  -0.47327  -0.46797  -0.46002  -0.44695
 Alpha  occ. eigenvalues --   -0.44503  -0.43725  -0.42612  -0.41884  -0.41737
 Alpha  occ. eigenvalues --   -0.40468  -0.39707  -0.39410  -0.38625  -0.38246
 Alpha  occ. eigenvalues --   -0.37664  -0.37344  -0.36929  -0.36035  -0.35218
 Alpha  occ. eigenvalues --   -0.34978  -0.34576  -0.34121  -0.33839  -0.33250
 Alpha  occ. eigenvalues --   -0.29591  -0.25616  -0.24958  -0.24439  -0.22711
 Alpha  occ. eigenvalues --   -0.20004
 Alpha virt. eigenvalues --   -0.00602   0.00236   0.00571   0.01249   0.06041
 Alpha virt. eigenvalues --    0.07812   0.07949   0.08475   0.09052   0.09982
 Alpha virt. eigenvalues --    0.10785   0.11124   0.12126   0.12559   0.12964
 Alpha virt. eigenvalues --    0.13138   0.13636   0.14142   0.14521   0.15293
 Alpha virt. eigenvalues --    0.15715   0.15848   0.16454   0.16636   0.17608
 Alpha virt. eigenvalues --    0.18004   0.18121   0.19229   0.19883   0.20342
 Alpha virt. eigenvalues --    0.21458   0.22567   0.23139   0.23499   0.24963
 Alpha virt. eigenvalues --    0.25475   0.26101   0.26321   0.27106   0.28322
 Alpha virt. eigenvalues --    0.29358   0.30578   0.31948   0.32494   0.33239
 Alpha virt. eigenvalues --    0.33789   0.35259   0.36062   0.37227   0.38128
 Alpha virt. eigenvalues --    0.39104   0.41531   0.41906   0.42372   0.42794
 Alpha virt. eigenvalues --    0.43324   0.44173   0.44780   0.46116   0.46366
 Alpha virt. eigenvalues --    0.46966   0.47540   0.48087   0.48279   0.49439
 Alpha virt. eigenvalues --    0.49872   0.50193   0.50342   0.51505   0.51860
 Alpha virt. eigenvalues --    0.53173   0.53828   0.54412   0.54569   0.56104
 Alpha virt. eigenvalues --    0.56496   0.57163   0.58440   0.59257   0.59784
 Alpha virt. eigenvalues --    0.60989   0.61632   0.62497   0.63286   0.64077
 Alpha virt. eigenvalues --    0.64257   0.64684   0.65232   0.65305   0.65757
 Alpha virt. eigenvalues --    0.66085   0.66471   0.66541   0.67116   0.67439
 Alpha virt. eigenvalues --    0.68007   0.68330   0.68895   0.69039   0.69759
 Alpha virt. eigenvalues --    0.69914   0.69991   0.70445   0.70696   0.71094
 Alpha virt. eigenvalues --    0.71591   0.72189   0.72596   0.73218   0.73519
 Alpha virt. eigenvalues --    0.73960   0.74498   0.74969   0.75466   0.76203
 Alpha virt. eigenvalues --    0.76487   0.77466   0.77632   0.77883   0.78905
 Alpha virt. eigenvalues --    0.80012   0.80422   0.81573   0.81891   0.82924
 Alpha virt. eigenvalues --    0.83989   0.84368   0.85399   0.86857   0.87263
 Alpha virt. eigenvalues --    0.89314   0.90740   0.91769   0.94035   0.95155
 Alpha virt. eigenvalues --    0.97226   0.98561   0.99254   1.00736   1.03334
 Alpha virt. eigenvalues --    1.04074   1.05199   1.07059   1.07915   1.10550
 Alpha virt. eigenvalues --    1.12441   1.13950   1.15108   1.16906   1.17779
 Alpha virt. eigenvalues --    1.19606   1.20574   1.21050   1.22165   1.23163
 Alpha virt. eigenvalues --    1.23603   1.24798   1.26266   1.27515   1.28328
 Alpha virt. eigenvalues --    1.29049   1.29350   1.30579   1.31675   1.32200
 Alpha virt. eigenvalues --    1.32750   1.33586   1.34497   1.38281   1.39948
 Alpha virt. eigenvalues --    1.43316   1.44779   1.46249   1.47851   1.48719
 Alpha virt. eigenvalues --    1.51004   1.52352   1.53309   1.53633   1.54441
 Alpha virt. eigenvalues --    1.55303   1.56422   1.58248   1.60071   1.62169
 Alpha virt. eigenvalues --    1.63068   1.66847   1.68164   1.68899   1.69513
 Alpha virt. eigenvalues --    1.70069   1.71808   1.72393   1.73006   1.74238
 Alpha virt. eigenvalues --    1.74925   1.75017   1.75436   1.75786   1.76363
 Alpha virt. eigenvalues --    1.77185   1.77551   1.78611   1.79221   1.79676
 Alpha virt. eigenvalues --    1.79978   1.80086   1.80786   1.81245   1.81884
 Alpha virt. eigenvalues --    1.82332   1.83048   1.83367   1.84265   1.84598
 Alpha virt. eigenvalues --    1.84912   1.85310   1.86824   1.87385   1.87658
 Alpha virt. eigenvalues --    1.88837   1.89830   1.90737   1.90930   1.92118
 Alpha virt. eigenvalues --    1.92848   1.93159   1.93797   1.95127   1.95851
 Alpha virt. eigenvalues --    1.96203   1.96849   1.97068   1.97677   1.99185
[...]
 7,-0.00034045,-0.00024165,-0.01025337,0.02040675,0.00430359,0.00003298
 ,-0.00003018,-0.00001556,-0.00041041,-0.00121844,-0.00001481,-0.000045
 09,0.00016966,0.00013574,-0.17142923,0.13684847,0.05049653,-0.00006964
 ,-0.00007091,-0.00008070,0.00007708,0.00000949,-0.00002086,0.00896997,
 -0.00839987,-0.00160209,0.00194312,-0.00189536,0.00264015,0.00014446,0
 .00004304,-0.00005837,-0.00021261,0.00000873,-0.00011208,-0.00000415,0
 .00000352,0.00000374,0.00000312,-0.00005243,0.00000235,-0.00027493,-0.
 00003822,0.00011140,-0.00015616,0.00006775,0.00008371,0.00093462,-0.00
 139635,-0.00013778,0.00032161,0.00001839,-0.00054475,-0.00018251,-0.00
 009265,0.00035084,-0.00001477,-0.00009713,0.00007267,0.00002026,0.0000
 1012,-0.00004954,0.00002197,-0.00012873,-0.00003567,0.00032861,-0.0001
 8391,-0.00000636,-0.00023080,-0.00000605,0.00005390,-0.00025588,-0.000
 01241,-0.00037273,0.00020880,0.00005400,0.00019660,0.00000234,-0.00000
 099,0.00001292,0.00000408,-0.00008548,-0.00006007,0.00002545,0.0000038
 0,-0.00000393,0.00001295,-0.00000466,-0.00000533,0.17431487,-0.0003464
 9,-0.00005655,-0.00022876,0.00125323,-0.00143618,0.00010176,0.00039526
 ,0.00015875,0.00031534,-0.00019527,-0.00038199,0.00052783,-0.00281155,
 -0.00195469,0.00287610,0.00002765,0.00004821,-0.00000342,-0.00034642,0
 .00039095,-0.00003970,0.00023018,-0.00037556,-0.00033816,0.00048935,0.
 00081719,0.00031274,0.00016834,0.00004604,0.00007966,-0.00142819,0.000
 38319,0.00165408,-0.00018348,-0.00031100,-0.00051037,-0.00427058,0.009
 66606,0.00136615,0.00001306,-0.00004426,-0.00001655,-0.00100019,0.0001
 5304,0.00040143,-0.00008088,0.00009296,0.00007850,0.13633395,-0.213249
 65,-0.04487390,-0.00000645,-0.00005807,-0.00003372,0.00003334,0.000016
 23,0.00000606,0.01908932,-0.01602717,-0.00727798,-0.00216567,-0.003796
 67,0.00263592,-0.00011637,-0.00009776,-0.00003945,-0.00013132,-0.00013
 849,-0.00027043,-0.00000268,-0.00000151,0.00000456,-0.00000141,-0.0000
 2565,-0.00000003,-0.00006817,-0.00001440,0.00004217,-0.00009508,0.0000
 1308,0.00003514,-0.00079493,-0.00381869,0.00070053,-0.00014864,-0.0000
 1394,-0.00014596,-0.00000511,0.00006615,-0.00015257,0.00000998,-0.0000
 3423,-0.00000861,-0.00004535,0.00002217,0.00006075,0.00001819,-0.00002
 488,0.00001508,-0.00021245,0.00009856,-0.00001100,-0.00030594,-0.00006
 870,0.00009277,-0.00021578,-0.00012488,-0.00055161,-0.00017490,-0.0003
 8156,-0.00015140,-0.00000323,0.00000129,0.00000329,-0.00000692,-0.0000
 0557,-0.00004869,0.00001607,0.00000739,-0.00000346,0.00000354,0.000001
 47,-0.00000552,-0.14344026,0.23046879,0.00047736,-0.00053361,-0.000580
 61,-0.00135767,-0.00023751,-0.00280305,-0.00021831,0.00065275,-0.00087
 925,-0.00008045,0.00037374,-0.00068943,0.00180347,0.00011206,-0.000934
 35,0.00001637,-0.00005156,0.00005627,0.00001684,-0.00047660,0.00007116
 ,-0.00014507,0.00019963,0.00065204,-0.00098272,-0.00033141,-0.00014093
 ,0.00001080,-0.00007590,-0.00003362,0.00416073,0.00147482,0.00319668,-
 0.00021629,-0.00034215,-0.00008748,0.00889824,-0.00930331,0.00070983,-
 0.00002614,-0.00000918,0.00000641,-0.00014905,0.00030644,-0.00096298,-
 0.00013919,-0.00000639,0.00003593,0.04713736,-0.04433514,-0.05421977,0
 .00001022,0.00001644,-0.00005934,0.00000748,0.00001238,0.00001290,-0.0
 0489513,0.00666933,0.00515786,0.00291476,0.00227968,0.00526626,0.00016
 757,-0.00003134,-0.00107219,-0.00003487,-0.00021952,0.00009435,-0.0000
 2629,0.00003954,-0.00001124,0.00000425,0.00002639,-0.00001138,0.000083
 68,-0.00007632,-0.00004998,0.00010532,0.00005276,-0.00003530,0.0000391
 8,0.00027265,0.00114376,-0.00025282,-0.00006511,0.00019164,0.00003850,
 0.00003680,0.00009980,0.00005333,-0.00010801,0.00003770,0.00014633,0.0
 0001576,-0.00007552,0.00001709,-0.00009748,-0.00000144,0.00028084,-0.0
 0017160,-0.00005934,0.00006591,0.00010847,-0.00004382,-0.00043526,-0.0
 0023724,-0.00051245,0.00020190,-0.00005025,0.00000004,-0.00001154,-0.0
 0000792,0.00000189,0.00002071,-0.00002650,0.00005747,-0.00000490,-0.00
 000395,-0.00000096,0.00000153,-0.00000248,0.00000647,-0.05531495,0.044
 30813,0.04996874,0.00003872,0.00004313,0.00000501,-0.00033715,-0.00036
 405,0.00009014,0.00002121,-0.00001883,-0.00001347,-0.00005003,-0.00001
 129,0.00003209,-0.00012215,0.00005197,-0.00009250,-0.00001867,-0.00000
 606,-0.00003167,-0.00015750,-0.00005130,-0.00021868,-0.00001505,0.0000
 2311,0.00001556,0.00003589,-0.00004581,-0.00001544,-0.00004386,0.00000
 492,-0.00000518,0.00031582,0.00031082,-0.00075245,0.00024727,0.0000712
 8,0.00015765,0.00308366,-0.00038321,0.00213515,0.00001282,0.00001020,-
 0.00000640,0.00056960,0.00431302,0.00263628,-0.00004163,-0.00003098,0.
 00000883,-0.00283459,0.00137013,0.00311192,0.00000761,-0.00000663,-0.0
 0000775,-0.00001695,-0.00000840,-0.00000702,-0.26843201,-0.03934997,0.
 12269902,-0.01129947,-0.00684326,0.00868203,-0.00001766,0.00000327,-0.
 00001779,0.00000352,-0.00000024,0.00000910,0.00000473,-0.00000827,-0.0
 0000882,-0.00001065,-0.00001052,0.00001205,0.00002800,-0.00007464,-0.0
 0004115,-0.00005919,0.00004443,0.00001305,0.00001401,-0.00002106,0.000
 03586,0.00001305,-0.00002547,0.00001468,0.00001326,-0.00000064,-0.0000
 0479,0.00000266,0.00000017,-0.00000259,0.00001211,0.00000263,-0.000007
 44,-0.00000302,-0.00000182,0.00000516,0.00000669,-0.00000414,-0.000005
 11,0.00001664,0.00001654,-0.00001509,-0.00001770,-0.00001094,0.0000313
 0,-0.00000397,0.00000568,0.00000250,-0.00000631,-0.00000782,-0.0000053
 9,0.00000849,-0.00000178,0.00000440,-0.00000456,0.00000151,0.00000374,
 -0.00000505,-0.00000387,-0.00000160,-0.00029440,-0.00037593,-0.0020441
 7,0.28022214,0.00004301,0.00011108,-0.00014306,-0.00150882,-0.00049522
 ,0.00030903,0.00001990,-0.00001362,-0.00003458,-0.00012186,-0.00001587
 ,0.00013875,-0.00018457,0.00016395,-0.00016795,0.00002812,-0.00001617,
 -0.00001956,-0.00002905,0.00014625,-0.00014617,0.00005262,-0.00003452,
 0.00001583,-0.00016736,-0.00017313,0.00012123,-0.00011897,0.00000044,-
 0.00005946,0.00015268,-0.00111455,-0.00013939,0.00035734,-0.00009292,0
 .00040871,0.00004870,-0.00423338,0.00150972,0.00002589,0.00004476,0.00
 000144,0.00322209,-0.00314258,-0.00020303,-0.00004790,-0.00005131,0.00
 000439,-0.02541433,-0.00085828,0.01402449,-0.00000225,0.00002139,-0.00
 000856,-0.00003304,-0.00003234,-0.00001775,-0.03910517,-0.06521177,0.0
 2389209,0.02072872,0.00880703,-0.01111682,-0.00003847,0.00002820,-0.00
 002093,0.00001712,0.00000905,0.00000252,0.00000689,0.00000886,-0.00000
 892,-0.00000244,0.00001214,-0.00000003,-0.00002510,0.00000708,0.000054
 44,-0.00006819,0.00000181,0.00001241,0.00003486,-0.00004619,-0.0000166
 6,0.00002720,-0.00003449,-0.00000054,0.00001761,-0.00000014,-0.0000362
 5,0.00001861,0.00002276,-0.00001649,0.00003174,-0.00000991,-0.00001959
 ,-0.00000071,0.00002392,0.00000483,-0.00001727,0.00000819,-0.00002336,
 0.00024197,0.00000872,-0.00008913,-0.00003215,-0.00000965,0.00011726,0
 .00000178,0.00012370,-0.00009973,-0.00000744,-0.00000392,-0.00000601,0
 .00000501,-0.00000793,0.00000814,-0.00001071,-0.00000265,0.00000389,-0
 .00000126,-0.00000258,0.00000145,-0.00029338,0.00071528,-0.00043772,0.
 04183459,0.06441655,-0.00011306,-0.00014550,-0.00001819,0.00060346,0.0
 0030473,-0.00049729,0.00001029,0.00002643,0.00000893,0.00010381,-0.000
 03731,-0.00009308,0.00019786,-0.00015658,0.00014084,0.00001718,-0.0000
 1292,-0.00001165,-0.00042125,0.00007790,-0.00052091,-0.00007926,-0.000
 03349,0.00001887,0.00012731,0.00022931,0.00011692,0.00010336,-0.000010
 32,-0.00000113,-0.00074978,0.00020587,-0.00065832,-0.00022759,0.000062
 83,-0.00002436,0.00236249,0.00167906,0.00610599,-0.00003432,-0.0000265
 4,-0.00001741,0.00285884,-0.00075194,0.00539183,0.00001158,0.00001225,
 -0.00002109,0.00655646,-0.00035366,0.00018786,0.00004538,-0.00000608,-
 0.00001122,0.00000800,0.00004147,0.00003943,0.12280761,0.02392182,-0.1
 0289159,0.00439350,0.00305640,0.00106670,0.00005844,-0.00002411,0.0000
 0756,-0.00001437,0.00000211,0.00000686,-0.00002309,0.00000630,0.000003
 80,0.00002278,0.00000730,-0.00000013,0.00003792,-0.00016548,-0.0000078
 8,-0.00014045,0.00003052,0.00004314,-0.00002762,0.00002333,0.00004235,
 -0.00000771,0.00001911,-0.00001355,-0.00002709,0.00001051,0.00000363,-
 0.00001612,-0.00002920,0.00002067,0.00000287,0.00001737,0.00002081,0.0
 0000706,-0.00004347,-0.00000792,0.00000428,0.00000993,-0.00000154,-0.0
 0023015,0.00008858,0.00015462,0.00016769,0.00009612,-0.00024711,0.0000
 2265,-0.00014696,0.00002957,0.00000503,0.00000346,0.00000545,-0.000002
 25,-0.00000828,-0.00000244,0.00000397,0.00000287,-0.00000402,0.0000028
 7,0.00000143,0.00000033,-0.00197427,-0.00064797,-0.00340431,-0.1349481
 3,-0.02688099,0.09794908,-0.00006729,0.00000841,-0.00003955,0.00006064
 ,-0.00008027,-0.00047575,0.00000845,0.00000693,0.00002771,-0.00000308,
 -0.00002175,0.00001797,0.00002782,-0.00001143,-0.00005288,-0.00040880,
 0.00004105,0.00014680,0.00024363,-0.00116909,0.00021765,0.00000959,-0.
 00001653,-0.00001553,0.00002688,0.00004574,0.00000826,0.00003296,0.000
 08368,0.00008320,-0.00232558,0.00077520,0.00469902,-0.00007630,-0.0000
 5695,-0.00003624,-0.00105508,0.00064076,0.00028272,0.00000624,-0.00001
 749,-0.00002278,-0.00153885,-0.02612565,0.00570328,-0.00000644,0.00000
 574,0.00001874,-0.00090351,0.00288470,0.00344849,-0.00000893,-0.000016
 60,-0.00001713,0.00000546,0.00000434,-0.00000540,0.00847449,0.01904441
 ,-0.00555403,-0.06863603,-0.06107663,0.02549367,0.00000005,-0.00000581
 ,0.00001691,-0.00000352,0.00000832,-0.00000881,0.00002452,0.00001538,-
 0.00002568,-0.00003877,-0.00013137,0.00006616,0.00002633,0.00000849,0.
 00001339,-0.00004836,0.00000736,-0.00002648,0.00001051,-0.00010758,0.0
 0001660,0.00002300,-0.00000891,-0.00002188,-0.00000434,0.00000433,-0.0
 0001151,-0.00000104,-0.00000192,-0.00000044,0.00000189,0.00000095,0.00
 000381,0.00000019,-0.00000246,0.00000097,-0.00000988,0.00000695,-0.000
 00122,0.00000022,0.00000432,0.00001143,0.00001611,0.00000977,0.0000072
 1,-0.00001246,-0.00000025,-0.00000705,-0.00000100,-0.00000362,-0.00000
 185,0.00000300,-0.00000975,-0.00000586,0.00000751,0.00000263,0.0000057
 2,-0.00000291,-0.00000489,-0.00000271,0.00039709,0.00088349,-0.0000713
 5,-0.00021142,-0.00070962,-0.00178469,0.06625788,0.00012744,-0.0000416
 7,0.00004966,-0.00013196,-0.00004150,-0.00008050,-0.00001720,0.0000197
 5,-0.00000157,-0.00003237,0.00003084,-0.00003655,0.00004620,-0.0000725
 5,-0.00014817,-0.00011559,0.00005483,0.00001454,0.00013546,-0.00022365
 ,0.00000107,-0.00004600,0.00004488,0.00003726,-0.00005302,-0.00004670,
 -0.00001139,-0.00002519,0.00002911,0.00002749,-0.00020296,0.00196064,0
 .00076037,0.00009895,0.00002741,0.00006112,0.00047508,0.00061188,-0.00
 041119,0.00001364,0.00000178,-0.00000510,0.00179598,-0.00166937,-0.000
 28880,-0.00000932,-0.00001932,-0.00000410,0.00422503,-0.00154479,-0.00
 090394,-0.00000359,0.00000284,-0.00000044,-0.00001148,-0.00000891,-0.0
 0001077,-0.00908125,-0.01555049,0.00710945,-0.06112345,-0.31019190,0.0
 6961648,-0.00001176,-0.00000833,-0.00003861,0.00000548,-0.00001689,0.0
 0001485,0.00001801,-0.00000333,-0.00001318,-0.00001559,-0.00004334,0.0
 0001523,-0.00002600,-0.00002063,0.00000878,-0.00004648,-0.00001417,0.0
 0002380,-0.00002519,0.00000861,0.00007766,-0.00002253,-0.00000995,0.00
 004010,0.00001770,-0.00000228,0.00001790,0.00000213,-0.00000417,-0.000
 00423,0.00000219,0.00000311,-0.00000829,-0.00000181,-0.00000179,-0.000
 00007,0.00002742,-0.00001510,0.00000629,-0.00001171,0.00000060,-0.0000
 1326,-0.00002854,-0.00001504,-0.00003708,0.00003148,-0.00001356,0.0000
 1642,-0.00000211,-0.00000586,-0.00000400,0.00000596,0.00000651,0.00000
 685,-0.00000079,0.00000169,0.00000512,-0.00000561,-0.00000416,-0.00000
 107,-0.00048152,-0.00071660,0.00036188,-0.00014076,0.00070332,-0.00059
 190,0.06512841,0.32613414,-0.00001588,-0.00003051,-0.00001988,-0.00040
 862,0.00004052,-0.00064000,-0.00002824,0.00003535,0.00004625,-0.000004
 89,-0.00000424,-0.00001732,0.00023980,-0.00012204,-0.00022113,0.000148
 97,-0.00012539,-0.00013360,0.00004245,0.00071002,0.00015672,-0.0000067
 2,-0.00000450,0.00001172,-0.00001543,0.00002888,0.00001395,-0.00000511
 ,-0.00002031,-0.00001248,0.00516387,0.00081856,0.00423323,-0.00002796,
 -0.00011637,-0.00003489,0.00031229,-0.00032258,-0.00060147,-0.00000489
 ,0.00000210,0.00000020,0.00166689,0.01386649,-0.00009212,-0.00003848,-
 0.00002445,0.00000677,0.00299976,-0.00110134,0.00533585,0.00001147,0.0
 0000160,-0.00000710,-0.00000770,0.00000380,0.00000609,-0.00197859,-0.0
 0646367,0.00469877,0.02591944,0.06929425,-0.05794228,0.00000910,-0.000
 02014,0.00000176,0.00000169,-0.00000744,-0.00000202,0.00000571,-0.0000
 0238,-0.00001102,0.00002394,0.00007114,-0.00003486,-0.00000737,-0.0000
 9145,-0.00004172,0.00000263,0.00000061,0.00000372,-0.00004642,-0.00013
 521,0.00012076,-0.00002128,0.00000144,0.00001873,-0.00001089,0.0000059
 9,-0.00000470,0.00000076,-0.00000447,-0.00000181,0.00000317,0.00000174
 ,-0.00000046,0.00000119,-0.00000428,0.00000002,0.00000177,0.00000065,-
 0.00000330,0.00000753,-0.00000164,-0.00000120,0.00000645,0.00000502,0.
 00000418,-0.00000416,0.00000247,-0.00000817,-0.00000311,0.00000014,-0.
 00000032,0.00000352,-0.00000140,0.00000588,-0.00000208,-0.00000073,0.0
 0000086,0.00000108,0.00000139,0.00000205,0.00008481,-0.00015637,0.0003
 8946,-0.00193848,-0.00034881,-0.00292548,-0.03007845,-0.07523640,0.050
 80541,-0.00004181,0.00003490,-0.00003597,0.00046117,-0.00026480,-0.000
 08561,-0.00002829,-0.00002259,-0.00002403,0.00000118,-0.00001564,0.000
 03107,0.00001007,-0.00014391,-0.00004918,0.00001068,-0.00001581,-0.000
 25235,-0.00077738,-0.00163594,-0.00048033,0.00002591,-0.00001937,-0.00
 000856,0.00001160,-0.00001057,0.00002103,-0.00000242,-0.00007086,-0.00
 000645,0.00694110,-0.00689162,-0.00075053,-0.00004164,0.00001043,0.000
 04930,0.00138047,-0.00128282,0.00297235,-0.00000164,0.00000118,0.00000
 177,-0.15945087,0.13123349,0.04684161,-0.00000262,0.00002065,-0.000025
 93,-0.00006696,-0.00083467,-0.00026694,0.00000758,0.00000398,0.0000002
 0,-0.00000312,0.00000968,0.00000285,-0.00239026,-0.00221441,0.00517294
 ,-0.01144883,0.02199251,0.00520058,0.00000040,0.00001435,0.00001617,0.
 00000267,0.00001485,-0.00000314,0.00000822,0.00005606,-0.00002144,0.00
 003176,0.00007033,-0.00001041,0.00042126,-0.00062624,-0.00000295,-0.00
 025812,0.00003006,-0.00035635,0.00000352,-0.00003119,0.00000100,0.0000
 2688,-0.00002298,-0.00001563,-0.00000976,0.00000093,-0.00001257,0.0000
 0235,0.00000705,0.00000055,0.00000309,-0.00000254,-0.00000082,0.000000
 73,0.00000401,0.00000112,-0.00001284,0.00000613,-0.00000663,0.00002696
 ,-0.00000335,-0.00000978,0.00001186,-0.00000388,0.00003481,-0.00001458
 ,0.00001928,-0.00001475,0.00000130,-0.00000028,0.00000601,-0.00000164,
 -0.00000257,0.00000218,-0.00000509,-0.00000605,0.00000073,0.00000313,0
 .00000153,0.00000210,-0.00010535,0.00001467,-0.00027359,-0.00067491,0.
 00102360,0.00027852,-0.00030090,-0.00048275,-0.00200357,0.16624512,0.0
 0005400,-0.00000885,0.00001554,0.00103292,-0.00131749,-0.00014753,-0.0
 0001293,0.00002196,-0.00003331,-0.00002890,0.00000657,0.00000311,-0.00
 040772,-0.00026087,-0.00018812,-0.00021054,0.00037946,0.00018917,0.001
 28322,0.00037824,-0.00169996,-0.00002670,0.00002416,0.00001153,-0.0000
 2171,-0.00001562,-0.00000948,-0.00007628,0.00008015,-0.00023488,0.0186
 9813,-0.01738199,-0.00734135,0.00067639,0.00025882,0.00017186,-0.00247
 010,-0.00280699,0.00281162,0.00000538,0.00007627,0.00004864,0.13085298
 ,-0.21441401,-0.04568169,-0.00010781,-0.00010857,-0.00000459,-0.000914
 82,-0.00011317,0.00041057,0.00003126,0.00002692,0.00001777,-0.00005432
 ,-0.00003188,-0.00000156,-0.00097442,0.00125255,0.00114078,-0.00594601
 ,0.00741956,0.00266229,-0.00001560,0.00000582,-0.00001731,0.00000260,-
 0.00001296,0.00001350,0.00004827,0.00010106,-0.00010465,-0.00001606,-0
 .00005905,0.00001277,-0.00054078,-0.00013003,0.00110269,-0.00074349,-0
 .00036665,0.00002372,0.00005292,-0.00003119,-0.00001124,0.00011249,-0.
 00011904,0.00001060,0.00002268,0.00000002,0.00000675,-0.00000146,-0.00
 000055,-0.00000581,0.00000294,0.00000196,-0.00000367,-0.00000264,-0.00
 000072,0.00000083,0.00001256,-0.00000566,0.00000517,-0.00000073,0.0000
 0282,-0.00000186,-0.00000545,-0.00000538,-0.00001115,0.00001305,-0.000
 00351,0.00000788,-0.00001159,-0.00000341,-0.00000674,0.00000217,0.0000
 2163,0.00002037,-0.00002781,-0.00000759,0.00000237,-0.00000186,0.00000
 158,0.00000762,0.00002314,-0.00000816,-0.00008144,-0.00029971,0.000218
 61,0.00013570,-0.00004281,0.00066411,-0.00054602,-0.13996482,0.2262710
 9,0.00000940,-0.00001102,-0.00000203,-0.00020319,0.00016582,0.00010052
 ,-0.00003987,-0.00006820,-0.00005150,0.00000538,-0.00000162,-0.0000047
 4,0.00009131,0.00003271,-0.00002916,0.00001057,-0.00012065,-0.00023404
 ,-0.00171282,0.00136322,-0.00179359,-0.00001255,0.00000742,0.00000338,
 0.00000615,0.00001021,0.00000496,0.00002422,0.00000723,0.00008107,-0.0
 0338507,0.00562485,0.00483343,0.00000413,-0.00000326,-0.00002980,0.002
 60746,0.00250046,0.00490821,-0.00001239,-0.00000862,-0.00003129,0.0476
 6989,-0.04557168,-0.05732722,-0.00001779,-0.00002642,-0.00000233,-0.00
 019614,0.00061346,-0.00094651,0.00001134,-0.00000915,-0.00001721,-0.00
 001180,0.00000660,0.00000840,0.00521819,0.00142027,0.00385155,0.007969
 18,-0.01207047,0.00177147,-0.00000883,0.00002995,-0.00000793,-0.000001
 29,0.00001953,0.00000833,0.00001687,0.00001387,-0.00001562,0.00002920,
 0.00003856,0.00001650,0.00024892,-0.00032525,-0.00062480,-0.00063546,0
 .00019193,0.00001280,0.00001486,-0.00003120,0.00002988,-0.00002670,0.0
 0000656,-0.00001310,0.00000152,-0.00000014,-0.00000032,0.00000123,0.00
 000016,0.00000158,0.00000057,0.00000220,0.00000009,-0.00000110,-0.0000
 0370,-0.00000012,0.00000312,-0.00000113,0.00000204,-0.00001663,0.00000
 680,0.00000509,0.00002143,0.00000234,-0.00001153,0.00000057,-0.0000091
 4,0.00000546,-0.00000226,-0.00000273,-0.00000381,0.00000392,-0.0000030
 3,0.00000086,-0.00000009,0.00000315,0.00000585,-0.00000387,-0.00000622
 ,-0.00000012,-0.00022532,-0.00010233,-0.00048793,0.00048560,-0.0005691
 4,0.00001533,-0.00202245,-0.00042170,-0.00310506,-0.05591939,0.0472994
 9,0.04907298\\0.00000020,-0.00000017,0.00000001,0.00000061,-0.00000011
 ,-0.00000051,0.00000013,-0.00000004,0.00000020,-0.00000012,-0.00000016
 ,-0.00000029,-0.00000063,0.00000008,-0.00000010,0.00000003,-0.00000021
 ,0.00000037,-0.00000008,0.00000003,0.00000020,-0.00000002,0.00000003,-
 0.00000022,-0.00000016,0.00000007,-0.00000003,-0.00000007,-0.00000017,
 -0.00000015,0.00000003,0.00000017,0.00000009,-0.00000026,0.00000016,0.
 00000007,-0.00000021,0.00000004,0.00000024,-0.00000005,0.00000028,0.00
 000008,-0.00000046,-0.00000022,0.00000062,0.00000028,0.00000020,-0.000
 00040,0.00000004,-0.00000034,0.00000043,0.,-0.00000005,-0.00000057,-0.
 00000012,0.00000006,-0.00000042,0.00000037,0.00000026,0.00000026,0.000
 00017,0.00000031,0.00000037,-0.00000012,-0.00000040,-0.00000003,0.0000
 0005,-0.00000024,-0.00000027,-0.00000030,-0.00000015,-0.00000016,0.000
 00014,-0.00000023,-0.00000007,0.00000001,-0.00000034,0.00000017,0.0000
 0023,0.,0.00000042,0.00000004,0.00000017,-0.00000006,0.00000010,0.0000
 0005,-0.00000041,-0.00000013,-0.00000035,-0.00000014,-0.00000014,0.000
 00005,-0.00000023,0.00000004,0.00000008,0.00000007,0.00000009,0.000000
 22,-0.00000018,-0.00000009,-0.00000002,-0.00000021,0.00000002,0.000000
 06,0.00000031,0.00000015,-0.00000022,0.00000020,-0.00000008,-0.0000001
 3,0.00000004,-0.00000004,0.00000036,-0.00000041,0.00000003,0.00000031,
 -0.00000018,0.00000004,-0.00000013,-0.00000025,0.00000002,0.00000019,-
 0.00000041,-0.00000010,0.00000006,0.00000016,0.00000011,0.00000027,0.0
 0000035,0.00000007,0.00000019,0.00000056,0.00000018,-0.00000002,0.0000
 0045\\\@


 The hours that make us happy make us wise.
                         -- John Masefield
 Job cpu time:       0 days  3 hours 10 minutes 43.6 seconds.
 Elapsed time:       0 days  0 hours  4 minutes 48.0 seconds.
 File lengths (MBytes):  RWF=    888 Int=      0 D2E=      0 Chk=     18 Scr=      4
 Normal termination of Gaussian 16 at Tue Nov 19 14:01:29 2019.
