
                                 *****************
                                 * O   R   C   A *
                                 *****************

           --- An Ab Initio, DFT and Semiempirical electronic structure package ---

                  #######################################################
                  #                        -***-                        #
                  #          Department of theory and spectroscopy      #
                  #               Directorship: Frank Neese             #
                  #        Max Planck Institute fuer Kohlenforschung    #
                  #                Kaiser Wilhelm Platz 1               #
                  #                 D-45470 Muelheim/Ruhr               #
                  #                      Germany                        #
                  #                                                     #
                  #                  All rights reserved                #
                  #                        -***-                        #
                  #######################################################


                         Program Version 4.1.2  - RELEASE  -


 With contributions from (in alphabetic order):
   Daniel Aravena         : Magnetic Properties
   Michael Atanasov       : Ab Initio Ligand Field Theory
   Alexander A. Auer      : GIAO ZORA
   Ute Becker             : Parallelization
   Giovanni Bistoni       : ED, Open-shell LED
   Martin Brehm           : Molecular dynamics
   Dmytro Bykov           : SCF Hessian
   Vijay G. Chilkuri      : MRCI spin determinant printing
   Dipayan Datta          : RHF DLPNO-CCSD density
   Achintya Kumar Dutta   : EOM-CC, STEOM-CC
   Dmitry Ganyushin       : Spin-Orbit,Spin-Spin,Magnetic field MRCI
   Miquel Garcia          : C-PCM Hessian
   Yang Guo               : DLPNO-NEVPT2, CIM, IAO-localization
   Andreas Hansen         : Spin unrestricted coupled pair/coupled cluster methods
   Benjamin Helmich-Paris : CASSCF linear response (MC-RPA)
   Lee Huntington         : MR-EOM, pCC
   Robert Izsak           : Overlap fitted RIJCOSX, COSX-SCS-MP3, EOM
   Christian Kollmar      : KDIIS, OOCD, Brueckner-CCSD(T), CCSD density
   Simone Kossmann        : Meta GGA functionals, TD-DFT gradient, OOMP2, MP2 Hessian
   Martin Krupicka        : AUTO-CI
   Lucas Lang             : DCDCAS
   Dagmar Lenk            : GEPOL surface, SMD
   Dimitrios Liakos       : Extrapolation schemes; parallel MDCI
   Dimitrios Manganas     : ROCIS; embedding schemes
   Dimitrios Pantazis     : SARC Basis sets
   Taras Petrenko         : DFT Hessian,TD-DFT gradient, ASA, ECA, R-Raman, ABS, FL, XAS/XES, NRVS
   Peter Pinski           : DLPNO-MP2, DLPNO-MP2 Gradient
   Christoph Reimann      : Effective Core Potentials
   Marius Retegan         : Local ZFS, SOC
   Christoph Riplinger    : Optimizer, TS searches, QM/MM, DLPNO-CCSD(T), (RO)-DLPNO pert. Triples
   Tobias Risthaus        : Range-separated hybrids, TD-DFT gradient, RPA, STAB
   Michael Roemelt        : Restricted open shell CIS
   Masaaki Saitow         : Open-shell DLPNO
   Barbara Sandhoefer     : DKH picture change effects
   Avijit Sen             : IP-ROCIS
   Kantharuban Sivalingam : CASSCF convergence, NEVPT2, FIC-MRCI
   Bernardo de Souza      : ESD, SOC TD-DFT
   Georgi Stoychev        : AutoAux, RI-MP2 NMR
   Willem Van den Heuvel  : Paramagnetic NMR
   Boris Wezisla          : Elementary symmetry handling
   Frank Wennmohs         : Technical directorship


 We gratefully acknowledge several colleagues who have allowed us to
 interface, adapt or use parts of their codes:
   Stefan Grimme, W. Hujo, H. Kruse,             : VdW corrections, initial TS optimization,
                  C. Bannwarth                     DFT functionals, gCP, sTDA/sTD-DF
   Ed Valeev                                     : LibInt (2-el integral package), F12 methods
   Garnet Chan, S. Sharma, J. Yang, R. Olivares  : DMRG
   Ulf Ekstrom                                   : XCFun DFT Library
   Mihaly Kallay                                 : mrcc  (arbitrary order and MRCC methods)
   Andreas Klamt, Michael Diedenhofen            : otool_cosmo (COSMO solvation model)
   Jiri Pittner, Ondrej Demel                    : Mk-CCSD
   Frank Weinhold                                : gennbo (NPA and NBO analysis)
   Christopher J. Cramer and Donald G. Truhlar   : smd solvation model
   Lars Goerigk                                  : TD-DFT with DH, B97 family of functionals
   V. Asgeirsson, H. Jonsson                     : NEB implementation
   FAccTs GmbH                                   : IRC, NEB, NEB-TS, Multilevel


 Your calculation uses the libint2 library for the computation of 2-el integrals
 For citations please refer to: http://libint.valeyev.net

 This ORCA versions uses:
   CBLAS   interface :  Fast vector & matrix operations
   LAPACKE interface :  Fast linear algebra routines
   SCALAPACK package :  Parallel linear algebra routines


----- Orbital basis set information -----
Your calculation utilizes the basis: def2-TZVP
   F. Weigend and R. Ahlrichs, Phys. Chem. Chem. Phys. 7, 3297 (2005).

----- AuxC basis set information -----
Your calculation utilizes the auxiliary basis: def2-TZVP/C
  H-La, Hf-Rn : A. Hellweg, C. Hattig, S. Hofener and W. Klopper, Theor. Chem. Acc. 117, 587 (2007).
        Ce-Lu : J. Chmela and M. E. Harding, Mol. Phys. (2018).

================================================================================
                                        WARNINGS
                       Please study these warnings very carefully!
================================================================================


WARNING: PNO calculations with unrestricted orbitals require UNOs
  ===> : Switching on UNOs

WARNING: MDCI localization with Augmented Hessian Foster-Boys
  ===> : Switching off randomization!

WARNING: Post HF methods need fully converged wavefunctions
  ===> : Setting SCFConvForced true
         You can overwrite this default with %scf ConvForced false 


INFO   : the flag for use of LIBINT has been found!

================================================================================
                                       INPUT FILE
================================================================================
NAME = imipramine_rad.inp
|  1> !UHF DLPNO-CCSD(T) def2-TZVP def2-TZVP/C TightSCF normalPNO
|  2> %maxcore 10000
|  3> #
|  4> %pal
|  5> nproc 16
|  6> end
|  7> #how to do thermo
|  8> *xyz 0 2
|  9> N  -0.0222220000  -0.3672620000   0.6726600000
| 10> C   1.3338360000  -0.6217500000   0.3626270000
| 11> C  -0.3547220000   0.9968910000   0.8918680000
| 12> C   1.8913730000  -2.0256230000   0.3715790000
| 13> H   1.5627110000  -0.2120130000  -0.8269670000
| 14> H   1.9979640000   0.0739830000   0.8993020000
| 15> C  -1.0567540000  -1.3268420000   0.5274420000
| 16> C   0.0014670000   1.6038520000   2.0990130000
| 17> C  -0.9783900000   1.7352170000  -0.1259220000
| 18> C   3.3467510000  -1.9976750000  -0.0998660000
| 19> H   1.8301750000  -2.4675290000   1.3826060000
| 20> H   1.3034480000  -2.6896580000  -0.2835370000
| 21> C  -1.0008610000  -2.4579640000   1.3622960000
| 22> C  -2.1369660000  -1.1805860000  -0.3684020000
| 23> C  -0.2750860000   2.9532280000   2.3115740000
| 24> H   0.4951530000   1.0020470000   2.8662470000
| 25> C  -1.2908990000   1.0556280000  -1.4245440000
| 26> C  -1.2659990000   3.0831030000   0.1111380000
| 27> N   4.1843940000  -1.1661030000   0.7416690000
| 28> H   3.3652670000  -1.5834750000  -1.1183680000
| 29> H   3.7361180000  -3.0383600000  -0.1690050000
| 30> C  -1.9576920000  -3.4615490000   1.2964530000
| 31> H  -0.1894720000  -2.5218810000   2.0882770000
| 32> C  -2.3796600000  -0.0060740000  -1.2913810000
| 33> C  -3.1003320000  -2.2020990000  -0.4018630000
| 34> C  -0.9163820000   3.6927680000   1.3162010000
| 35> H   0.0025360000   3.4251690000   3.2577870000
| 36> H  -1.6236730000   1.8052380000  -2.1592130000
| 37> H  -0.3652150000   0.6157190000  -1.8308140000
| 38> H  -1.7552110000   3.6674980000  -0.6741050000
| 39> C   5.2869490000  -0.5622450000   0.0350580000
| 40> C   4.5896370000  -1.8142520000   1.9607370000
| 41> C  -3.0202410000  -3.3342970000   0.4000950000
| 42> H  -1.8846280000  -4.3303870000   1.9558850000
| 43> H  -2.6033140000  -0.4101050000  -2.2935980000
| 44> H  -3.3113560000   0.4874980000  -0.9593300000
| 45> H  -3.9393020000  -2.0963250000  -1.0972030000
| 46> H  -1.1415610000   4.7504480000   1.4778010000
| 47> H   5.8286740000   0.1235830000   0.7058540000
| 48> H   6.0248980000  -1.3040650000  -0.3476380000
| 49> H   4.9057040000   0.0254450000  -0.8121030000
| 50> H   5.1106430000  -1.1007730000   2.6181350000
| 51> H   5.2727370000  -2.6790020000   1.7908300000
| 52> H   3.7144690000  -2.1890080000   2.5131150000
| 53> H  -3.7883540000  -4.1093410000   0.3340440000
| 54> O   1.9183380000   0.2298690000  -1.9890300000
| 55> O   2.9001250000   1.1553210000  -1.7129560000
| 56> C   2.3102120000   2.3973860000  -1.4291510000
| 57> H   3.1432660000   3.0992770000  -1.2769780000
| 58> H   1.6921880000   2.3571180000  -0.5144690000
| 59> H   1.6835600000   2.7415200000  -2.2697160000
| 60> *
| 61> 
| 62>                          ****END OF INPUT****
================================================================================

                       ****************************
                       * Single Point Calculation *
                       ****************************

---------------------------------
CARTESIAN COORDINATES (ANGSTROEM)
---------------------------------
  N     -0.022222   -0.367262    0.672660
  C      1.333836   -0.621750    0.362627
  C     -0.354722    0.996891    0.891868
  C      1.891373   -2.025623    0.371579
  H      1.562711   -0.212013   -0.826967
  H      1.997964    0.073983    0.899302
  C     -1.056754   -1.326842    0.527442
  C      0.001467    1.603852    2.099013
  C     -0.978390    1.735217   -0.125922
  C      3.346751   -1.997675   -0.099866
  H      1.830175   -2.467529    1.382606
  H      1.303448   -2.689658   -0.283537
  C     -1.000861   -2.457964    1.362296
  C     -2.136966   -1.180586   -0.368402
  C     -0.275086    2.953228    2.311574
  H      0.495153    1.002047    2.866247
  C     -1.290899    1.055628   -1.424544
  C     -1.265999    3.083103    0.111138
  N      4.184394   -1.166103    0.741669
  H      3.365267   -1.583475   -1.118368
  H      3.736118   -3.038360   -0.169005
  C     -1.957692   -3.461549    1.296453
  H     -0.189472   -2.521881    2.088277
  C     -2.379660   -0.006074   -1.291381
  C     -3.100332   -2.202099   -0.401863
  C     -0.916382    3.692768    1.316201
  H      0.002536    3.425169    3.257787
  H     -1.623673    1.805238   -2.159213
  H     -0.365215    0.615719   -1.830814
  H     -1.755211    3.667498   -0.674105
  C      5.286949   -0.562245    0.035058
  C      4.589637   -1.814252    1.960737
  C     -3.020241   -3.334297    0.400095
  H     -1.884628   -4.330387    1.955885
  H     -2.603314   -0.410105   -2.293598
  H     -3.311356    0.487498   -0.959330
  H     -3.939302   -2.096325   -1.097203
  H     -1.141561    4.750448    1.477801
  H      5.828674    0.123583    0.705854
  H      6.024898   -1.304065   -0.347638
  H      4.905704    0.025445   -0.812103
  H      5.110643   -1.100773    2.618135
  H      5.272737   -2.679002    1.790830
  H      3.714469   -2.189008    2.513115
  H     -3.788354   -4.109341    0.334044
  O      1.918338    0.229869   -1.989030
  O      2.900125    1.155321   -1.712956
  C      2.310212    2.397386   -1.429151
  H      3.143266    3.099277   -1.276978
  H      1.692188    2.357118   -0.514469
  H      1.683560    2.741520   -2.269716

----------------------------
CARTESIAN COORDINATES (A.U.)
----------------------------
  NO LB      ZA    FRAG     MASS         X           Y           Z
   0 N     7.0000    0    14.007   -0.041993   -0.694025    1.271143
   1 C     6.0000    0    12.011    2.520585   -1.174937    0.685266
   2 C     6.0000    0    12.011   -0.670327    1.883851    1.685386
   3 C     6.0000    0    12.011    3.574177   -3.827873    0.702183
   4 H     1.0000    0     1.008    2.953096   -0.400647   -1.562741
   5 H     1.0000    0     1.008    3.775605    0.139808    1.699434
   6 C     6.0000    0    12.011   -1.996976   -2.507368    0.996721
   7 C     6.0000    0    12.011    0.002772    3.030841    3.966560
   8 C     6.0000    0    12.011   -1.848889    3.279085   -0.237958
   9 C     6.0000    0    12.011    6.324443   -3.775059   -0.188719
  10 H     1.0000    0     1.008    3.458530   -4.662954    2.612747
  11 H     1.0000    0     1.008    2.463160   -5.082717   -0.535807
  12 C     6.0000    0    12.011   -1.891353   -4.644879    2.574366
  13 C     6.0000    0    12.011   -4.038280   -2.230984   -0.696179
  14 C     6.0000    0    12.011   -0.519837    5.580792    4.368242
  15 H     1.0000    0     1.008    0.935704    1.893594    5.416422
  16 C     6.0000    0    12.011   -2.439446    1.994848   -2.691998
  17 C     6.0000    0    12.011   -2.392391    5.826220    0.210020
  18 N     7.0000    0    14.007    7.907359   -2.203615    1.401551
  19 H     1.0000    0     1.008    6.359433   -2.992334   -2.113409
  20 H     1.0000    0     1.008    7.060240   -5.741668   -0.319373
  21 C     6.0000    0    12.011   -3.699502   -6.541380    2.449941
  22 H     1.0000    0     1.008   -0.358050   -4.765664    3.946272
  23 C     6.0000    0    12.011   -4.496906   -0.011478   -2.440356
  24 C     6.0000    0    12.011   -5.858778   -4.161364   -0.759411
  25 C     6.0000    0    12.011   -1.731711    6.978320    2.487259
  26 H     1.0000    0     1.008    0.004792    6.472631    6.156325
  27 H     1.0000    0     1.008   -3.068297    3.411405   -4.080321
  28 H     1.0000    0     1.008   -0.690156    1.163540   -3.459737
  29 H     1.0000    0     1.008   -3.316868    6.930567   -1.273874
  30 C     6.0000    0    12.011    9.990886   -1.062489    0.066250
  31 C     6.0000    0    12.011    8.673157   -3.428439    3.705256
  32 C     6.0000    0    12.011   -5.707428   -6.300908    0.756070
  33 H     1.0000    0     1.008   -3.561431   -8.183245    3.696087
  34 H     1.0000    0     1.008   -4.919551   -0.774986   -4.334272
  35 H     1.0000    0     1.008   -6.257556    0.921238   -1.812871
  36 H     1.0000    0     1.008   -7.444202   -3.961480   -2.073413
  37 H     1.0000    0     1.008   -2.157238    8.977046    2.792639
  38 H     1.0000    0     1.008   11.014598    0.233538    1.333871
  39 H     1.0000    0     1.008   11.385407   -2.464326   -0.656941
  40 H     1.0000    0     1.008    9.270437    0.048084   -1.534652
  41 H     1.0000    0     1.008    9.657716   -2.080160    4.947558
  42 H     1.0000    0     1.008    9.964029   -5.062580    3.384178
  43 H     1.0000    0     1.008    7.019329   -4.136626    4.749099
  44 H     1.0000    0     1.008   -7.158952   -7.765529    0.631252
  45 O     8.0000    0    15.999    3.625133    0.434389   -3.758722
  46 O     8.0000    0    15.999    5.480442    2.183240   -3.237018
  47 C     6.0000    0    12.011    4.365668    4.530403   -2.700704
  48 H     1.0000    0     1.008    5.939912    5.856785   -2.413139
  49 H     1.0000    0     1.008    3.197772    4.454307   -0.972206
  50 H     1.0000    0     1.008    3.181467    5.180722   -4.289142

--------------------------------
INTERNAL COORDINATES (ANGSTROEM)
--------------------------------
 N      0   0   0     0.000000000000     0.00000000     0.00000000
 C      1   0   0     1.414135036903     0.00000000     0.00000000
 C      1   2   0     1.421098801869   115.52670866     0.00000000
 C      2   1   3     1.510558520813   121.32460195   167.83538806
 H      2   1   3     1.278828393347   108.53618059   287.63464393
 H      2   1   3     1.101422018709   110.95957965    34.48642516
 C      1   2   3     1.418498679220   123.72307373   167.86269613
 C      3   1   2     1.397308595217   119.37934963   283.85357757
 C      3   1   2     1.403561021331   119.80621752   100.86403908
 C      4   2   1     1.530087122230   109.40661908   175.89134211
 H      4   2   1     1.105079953112   110.89309385   297.38821187
 H      4   2   1     1.102621993389   111.06182629    54.80068197
 C      7   1   2     1.406962049115   117.00904703    65.71125749
 C      7   1   2     1.410951896705   123.58920481   243.74830277
 C      8   3   1     1.393728571102   120.11458465   177.74252010
 H      8   3   1     1.092951570463   118.84309358   357.61655847
 C      9   3   1     1.498640111196   118.84761984     0.53789044
 C      9   3   1     1.398468108137   118.39012859   181.37404283
 N     10   4   2     1.449599580180   112.41037191    59.45828929
 H     10   4   2     1.099659404661   107.95515443   300.23172172
 H     10   4   2     1.113288880406   109.55603295   184.30914808
 C     13   7   1     1.388180001093   121.71449053   180.42346739
 H     13   7   1     1.090635550755   118.14137903     1.69204136
 C     14   7   1     1.513363489126   126.18920406   359.38975991
 C     14   7   1     1.404522159899   117.70095757   180.61848774
 C     18   9   3     1.395026986435   121.07163568     1.45248266
 H     15   8   3     1.093216046230   119.97192849   179.85897670
 H     17   9   3     1.101086838872   109.41897671   189.03169663
 H     17   9   3     1.102481795331   108.97625608   304.79450297
 H     18   9   3     1.094281712366   119.01442643   180.20576722
 C     19  10   4     1.442071814269   113.42546054   210.04566540
 C     19  10   4     1.438904376209   113.33924722    79.65527889
 C     25  14   7     1.389756638138   122.63182785   359.66625153
 H     22  13   7     1.093191831731   119.99347750   179.75186813
 H     24  14   7     1.103494936901   107.59320068   132.06205534
 H     24  14   7     1.105408803204   107.36720524   245.07710379
 H     25  14   7     1.094786059272   118.06622971   180.20018018
 H     26  18   9     1.093392484171   119.92136043   179.40156371
 H     31  19  10     1.101722875693   109.77156439   175.01093796
 H     31  19  10     1.114146250461   113.32244446   294.99389538
 H     31  19  10     1.099276601246   109.65299929    56.66920024
 H     32  19  10     1.101213723980   110.31435616   187.30124860
 H     32  19  10     1.115027605555   113.12746631    66.62862773
 H     32  19  10     1.100673676729   110.76992140   305.94275575
 H     33  25  14     1.093185033426   120.14745676   180.58283357
 O      5   2   1     1.293105054132   174.07745440   148.08414509
 O     46   5   2     1.377165193849   104.21417316   331.39418565
 C     47  46   5     1.404018550383   109.60113962   274.85409575
 H     48  47  46     1.099902979688   105.91857334   183.21624558
 H     48  47  46     1.104634934050   111.72806052    64.15101559
 H     48  47  46     1.103481063854   111.13189377   302.25273263

---------------------------
INTERNAL COORDINATES (A.U.)
---------------------------
 N      0   0   0     0.000000000000     0.00000000     0.00000000
 C      1   0   0     2.672327936130     0.00000000     0.00000000
 C      1   2   0     2.685487544776   115.52670866     0.00000000
 C      2   1   3     2.854541913599   121.32460195   167.83538806
 H      2   1   3     2.416635435708   108.53618059   287.63464393
 H      2   1   3     2.081385973232   110.95957965    34.48642516
 C      1   2   3     2.680574025054   123.72307373   167.86269613
 C      3   1   2     2.640530569534   119.37934963   283.85357757
 C      3   1   2     2.652345942563   119.80621752   100.86403908
 C      4   2   1     2.891445622054   109.40661908   175.89134211
 H      4   2   1     2.088298467467   110.89309385   297.38821187
 H      4   2   1     2.083653596744   111.06182629    54.80068197
 C      7   1   2     2.658772953647   117.00904703    65.71125749
 C      7   1   2     2.666312672910   123.58920481   243.74830277
 C      8   3   1     2.633765304404   120.11458465   177.74252010
 H      8   3   1     2.065379145814   118.84309358   357.61655847
 C      9   3   1     2.832019383470   118.84761984     0.53789044
 C      9   3   1     2.642721731402   118.39012859   181.37404283
 N     10   4   2     2.739346210387   112.41037191    59.45828929
 H     10   4   2     2.078055115401   107.95515443   300.23172172
 H     10   4   2     2.103811091907   109.55603295   184.30914808
 C     13   7   1     2.623280026653   121.71449053   180.42346739
 H     13   7   1     2.061002502846   118.14137903     1.69204136
 C     14   7   1     2.859842535525   126.18920406   359.38975991
 C     14   7   1     2.654162231232   117.70095757   180.61848774
 C     18   9   3     2.636218953792   121.07163568     1.45248266
 H     15   8   3     2.065878932582   119.97192849   179.85897670
 H     17   9   3     2.080752575133   109.41897671   189.03169663
 H     17   9   3     2.083388660810   108.97625608   304.79450297
 H     18   9   3     2.067892749730   119.01442643   180.20576722
 C     19  10   4     2.725120794416   113.42546054   210.04566540
 C     19  10   4     2.719135203936   113.33924722    79.65527889
 C     25  14   7     2.626259438880   122.63182785   359.66625153
 H     22  13   7     2.065833173812   119.99347750   179.75186813
 H     24  14   7     2.085303220911   107.59320068   132.06205534
 H     24  14   7     2.088919904081   107.36720524   245.07710379
 H     25  14   7     2.068845827259   118.06622971   180.20018018
 H     26  18   9     2.066212351970   119.92136043   179.40156371
 H     31  19  10     2.081954510536   109.77156439   175.01093796
 H     31  19  10     2.105431286507   113.32244446   294.99389538
 H     31  19  10     2.077331721782   109.65299929    56.66920024
 H     32  19  10     2.080992353237   110.31435616   187.30124860
 H     32  19  10     2.107096806260   113.12746631    66.62862773
 H     32  19  10     2.079971811834   110.76992140   305.94275575
 H     33  25  14     2.065820326876   120.14745676   180.58283357
 O      5   2   1     2.443614414699   174.07745440   148.08414509
 O     46   5   2     2.602465057543   104.21417316   331.39418565
 C     47  46   5     2.653210547169   109.60113962   274.85409575
 H     48  47  46     2.078515405494   105.91857334   183.21624558
 H     48  47  46     2.087457503317   111.72806052    64.15101559
 H     48  47  46     2.085277004653   111.13189377   302.25273263

---------------------
BASIS SET INFORMATION
---------------------
There are 4 groups of distinct atoms

 Group   1 Type N   : 11s6p2d1f contracted to 5s3p2d1f pattern {62111/411/11/1}
 Group   2 Type C   : 11s6p2d1f contracted to 5s3p2d1f pattern {62111/411/11/1}
 Group   3 Type H   : 5s1p contracted to 3s1p pattern {311/1}
 Group   4 Type O   : 11s6p2d1f contracted to 5s3p2d1f pattern {62111/411/11/1}

Atom   0N    basis set group =>   1
Atom   1C    basis set group =>   2
Atom   2C    basis set group =>   2
Atom   3C    basis set group =>   2
Atom   4H    basis set group =>   3
Atom   5H    basis set group =>   3
Atom   6C    basis set group =>   2
Atom   7C    basis set group =>   2
Atom   8C    basis set group =>   2
Atom   9C    basis set group =>   2
Atom  10H    basis set group =>   3
Atom  11H    basis set group =>   3
Atom  12C    basis set group =>   2
Atom  13C    basis set group =>   2
Atom  14C    basis set group =>   2
Atom  15H    basis set group =>   3
Atom  16C    basis set group =>   2
Atom  17C    basis set group =>   2
Atom  18N    basis set group =>   1
Atom  19H    basis set group =>   3
Atom  20H    basis set group =>   3
Atom  21C    basis set group =>   2
Atom  22H    basis set group =>   3
Atom  23C    basis set group =>   2
Atom  24C    basis set group =>   2
Atom  25C    basis set group =>   2
Atom  26H    basis set group =>   3
Atom  27H    basis set group =>   3
Atom  28H    basis set group =>   3
Atom  29H    basis set group =>   3
Atom  30C    basis set group =>   2
Atom  31C    basis set group =>   2
Atom  32C    basis set group =>   2
Atom  33H    basis set group =>   3
Atom  34H    basis set group =>   3
Atom  35H    basis set group =>   3
Atom  36H    basis set group =>   3
Atom  37H    basis set group =>   3
Atom  38H    basis set group =>   3
Atom  39H    basis set group =>   3
Atom  40H    basis set group =>   3
Atom  41H    basis set group =>   3
Atom  42H    basis set group =>   3
Atom  43H    basis set group =>   3
Atom  44H    basis set group =>   3
Atom  45O    basis set group =>   4
Atom  46O    basis set group =>   4
Atom  47C    basis set group =>   2
Atom  48H    basis set group =>   3
Atom  49H    basis set group =>   3
Atom  50H    basis set group =>   3
-------------------------------
AUXILIARY BASIS SET INFORMATION
-------------------------------
There are 4 groups of distinct atoms

 Group   1 Type N   : 8s6p5d3f1g contracted to 8s6p4d3f1g pattern {11111111/111111/2111/111/1}
 Group   2 Type C   : 8s6p5d3f1g contracted to 8s6p4d3f1g pattern {11111111/111111/2111/111/1}
 Group   3 Type H   : 4s3p2d contracted to 4s2p1d pattern {1111/21/2}
 Group   4 Type O   : 8s6p5d3f1g contracted to 8s6p4d3f1g pattern {11111111/111111/2111/111/1}

Atom   0N    basis set group =>   1
Atom   1C    basis set group =>   2
Atom   2C    basis set group =>   2
Atom   3C    basis set group =>   2
Atom   4H    basis set group =>   3
Atom   5H    basis set group =>   3
Atom   6C    basis set group =>   2
Atom   7C    basis set group =>   2
Atom   8C    basis set group =>   2
Atom   9C    basis set group =>   2
Atom  10H    basis set group =>   3
Atom  11H    basis set group =>   3
Atom  12C    basis set group =>   2
Atom  13C    basis set group =>   2
Atom  14C    basis set group =>   2
Atom  15H    basis set group =>   3
Atom  16C    basis set group =>   2
Atom  17C    basis set group =>   2
Atom  18N    basis set group =>   1
Atom  19H    basis set group =>   3
Atom  20H    basis set group =>   3
Atom  21C    basis set group =>   2
Atom  22H    basis set group =>   3
Atom  23C    basis set group =>   2
Atom  24C    basis set group =>   2
Atom  25C    basis set group =>   2
Atom  26H    basis set group =>   3
Atom  27H    basis set group =>   3
Atom  28H    basis set group =>   3
Atom  29H    basis set group =>   3
Atom  30C    basis set group =>   2
Atom  31C    basis set group =>   2
Atom  32C    basis set group =>   2
Atom  33H    basis set group =>   3
Atom  34H    basis set group =>   3
Atom  35H    basis set group =>   3
Atom  36H    basis set group =>   3
Atom  37H    basis set group =>   3
Atom  38H    basis set group =>   3
Atom  39H    basis set group =>   3
Atom  40H    basis set group =>   3
Atom  41H    basis set group =>   3
Atom  42H    basis set group =>   3
Atom  43H    basis set group =>   3
Atom  44H    basis set group =>   3
Atom  45O    basis set group =>   4
Atom  46O    basis set group =>   4
Atom  47C    basis set group =>   2
Atom  48H    basis set group =>   3
Atom  49H    basis set group =>   3
Atom  50H    basis set group =>   3


           ************************************************************
           *        Program running with 16 parallel MPI-processes    *
           *              working on a common directory               *
           ************************************************************
------------------------------------------------------------------------------
                           ORCA GTO INTEGRAL CALCULATION
------------------------------------------------------------------------------

                         BASIS SET STATISTICS AND STARTUP INFO

 # of primitive gaussian shells          ...  642
 # of primitive gaussian functions       ... 1320
 # of contracted shells                  ...  372
 # of contracted basis functions         ...  906
 Highest angular momentum                ...    3
 Maximum contraction depth               ...    6
 Integral package used                   ... LIBINT
 Integral threshhold            Thresh   ...  2.500e-11
 Primitive cut-off              TCut     ...  2.500e-12


------------------------------ INTEGRAL EVALUATION ----------------------------


 * One electron integrals 
 Pre-screening matrix                    ... done
 Shell pair data                         ... done (   0.016 sec)



           ************************************************************
           *        Program running with 16 parallel MPI-processes    *
           *              working on a common directory               *
           ************************************************************
-------------------------------------------------------------------------------
                                 ORCA SCF
-------------------------------------------------------------------------------

------------
SCF SETTINGS
------------
Hamiltonian:
 Ab initio Hamiltonian  Method          .... Hartree-Fock(GTOs)


General Settings:
 Integral files         IntName         .... imipramine_rad
 Hartree-Fock type      HFTyp           .... UHF
 Total Charge           Charge          ....    0
 Multiplicity           Mult            ....    2
 Number of Electrons    NEL             ....  177
 Basis Dimension        Dim             ....  906
 Nuclear Repulsion      ENuc            ....   2177.0507181092 Eh

Convergence Acceleration:
 DIIS                   CNVDIIS         .... on
   Start iteration      DIISMaxIt       ....    12
   Startup error        DIISStart       ....  0.200000
   # of expansion vecs  DIISMaxEq       ....     5
   Bias factor          DIISBfac        ....   1.050
   Max. coefficient     DIISMaxC        ....  10.000
 Newton-Raphson         CNVNR           .... off
 SOSCF                  CNVSOSCF        .... off
 Level Shifting         CNVShift        .... on
   Level shift para.    LevelShift      ....    0.2500
   Turn off err/grad.   ShiftErr        ....    0.0010
 Zerner damping         CNVZerner       .... off
 Static damping         CNVDamp         .... on
   Fraction old density DampFac         ....    0.7000
   Max. Damping (<1)    DampMax         ....    0.9800
   Min. Damping (>=0)   DampMin         ....    0.0000
   Turn off err/grad.   DampErr         ....    0.1000
 Fernandez-Rico         CNVRico         .... off

SCF Procedure:
 Maximum # iterations   MaxIter         ....   125
 SCF integral mode      SCFMode         .... Direct
   Integral package                     .... LIBINT
 Reset frequency        DirectResetFreq ....    20
 Integral Threshold     Thresh          ....  2.500e-11 Eh
 Primitive CutOff       TCut            ....  2.500e-12 Eh

Convergence Tolerance:
 Convergence Check Mode ConvCheckMode   .... Total+1el-Energy
 Convergence forced     ConvForced      .... 1
 Energy Change          TolE            ....  1.000e-08 Eh
 1-El. energy change                    ....  1.000e-05 Eh
 DIIS Error             TolErr          ....  5.000e-07


Diagonalization of the overlap matrix:
Smallest eigenvalue                        ... 5.575e-06
Time for diagonalization                   ...    0.354 sec
Threshold for overlap eigenvalues          ... 1.000e-08
Number of eigenvalues below threshold      ... 0
Time for construction of square roots      ...    0.090 sec
Total time needed                          ...    0.447 sec

-------------------
DFT GRID GENERATION
-------------------

General Integration Accuracy     IntAcc      ...  4.340
Radial Grid Type                 RadialGrid  ... Gauss-Chebyshev
Angular Grid (max. acc.)         AngularGrid ... Lebedev-110
Angular grid pruning method      GridPruning ... 3 (G Style)
Weight generation scheme         WeightScheme... Becke
Basis function cutoff            BFCut       ...    1.0000e-11
Integration weight cutoff        WCut        ...    1.0000e-14
Grids for H and He will be reduced by one unit

# of grid points (after initial pruning)     ...  61394 (   0.0 sec)
# of grid points (after weights+screening)   ...  53703 (   0.1 sec)
nearest neighbour list constructed           ...    0.0 sec
Grid point re-assignment to atoms done       ...    0.0 sec
Grid point division into batches done        ...    0.0 sec
Reduced shell lists constructed in    0.1 sec

Total number of grid points                  ...    53703
Total number of batches                      ...      865
Average number of points per batch           ...       62
Average number of grid points per atom       ...     1053
Average number of shells per batch           ...   232.48 (62.50%)
Average number of basis functions per batch  ...   581.16 (64.15%)
Average number of large shells per batch     ...   167.50 (72.05%)
Average number of large basis fcns per batch ...   410.68 (70.67%)
Maximum spatial batch extension              ...   6.08,  3.16,  3.75 au
Average spatial batch extension              ...   0.11,  0.10,  0.10 au

Time for grid setup =    0.250 sec

------------------------------
INITIAL GUESS: MODEL POTENTIAL
------------------------------
Loading Hartree-Fock densities                     ... done
Calculating cut-offs                               ... done
Setting up the integral package                    ... done
Initializing the effective Hamiltonian             ... done
Starting the Coulomb interaction                   ... done (   0.2 sec)
Reading the grid                                   ... done
Mapping shells                                     ... done
Starting the XC term evaluation                    ... done (   0.2 sec)
Transforming the Hamiltonian                       ... done (   0.1 sec)
Diagonalizing the Hamiltonian                      ... done (   0.1 sec)
Back transforming the eigenvectors                 ... done (   0.0 sec)
Now organizing SCF variables                       ... done
                      ------------------
                      INITIAL GUESS DONE (   1.0 sec)
                      ------------------
--------------
SCF ITERATIONS
--------------
ITER       Energy         Delta-E        Max-DP      RMS-DP      [F,P]     Damp
               ***  Starting incremental Fock matrix formation  ***
  0  -1030.8412362218   0.000000000000 0.02093888  0.00030896  0.3100136 0.7000
  1  -1031.1708111055  -0.329574883696 0.01641145  0.00025689  0.2229501 0.7000
                               ***Turning on DIIS***
  2  -1031.3796934298  -0.208882324381 0.01281623  0.00018401  0.1612971 0.7000
  3  -1034.3635308885  -2.983837458622 0.01080921  0.00013575  0.1170328 0.7000
  4  -1033.9649637150   0.398567173433 0.02958098  0.00035171  0.0827007 0.0000
  5  -1031.9237386696   2.041225045457 0.00634368  0.00005593  0.0072273 0.0000
  6  -1031.8571084379   0.066630231679 0.00636646  0.00004005  0.0058668 0.0000
  7  -1031.8414797564   0.015628681538 0.00541962  0.00002961  0.0049493 0.0000
  8  -1031.8374833023   0.003996454074 0.00529308  0.00002762  0.0040677 0.0000
  9  -1031.8405669851  -0.003083682788 0.00468557  0.00002599  0.0035361 0.0000
 10  -1031.8357477794   0.004819205717 0.00374186  0.00002397  0.0027056 0.0000
 11  -1031.8406885283  -0.004940748943 0.00284612  0.00001870  0.0021275 0.0000
 12  -1031.8385442743   0.002144253986 0.00320791  0.00002186  0.0016829 0.0000
 13  -1031.8383420858   0.000202188462 0.00182546  0.00001299  0.0013375 0.0000
 14  -1031.8418417981  -0.003499712233 0.00259755  0.00002067  0.0008703 0.0000
 15  -1031.8438833288  -0.002041530685 0.00050142  0.00000639  0.0002499 0.0000
 16  -1031.8438412192   0.000042109597 0.00045424  0.00000484  0.0001283 0.0000
 17  -1031.8444674442  -0.000626225009 0.00067843  0.00000689  0.0000788 0.0000
 18  -1031.8443435282   0.000123915996 0.00057251  0.00000564  0.0000483 0.0000
 19  -1031.8445285098  -0.000184981644 0.00029220  0.00000288  0.0000431 0.0000
               *** Restarting incremental Fock matrix formation ***
                                   *** Resetting DIIS ***
 20  -1031.8444584696   0.000070040257 0.00049245  0.00000482  0.0000440 0.0000
 21  -1031.8449032637  -0.000444794146 0.00002932  0.00000029  0.0000454 0.0000
 22  -1031.8449485638  -0.000045300124 0.00002751  0.00000027  0.0000455 0.0000
 23  -1031.8449262882   0.000022275651 0.00000135  0.00000001  0.0000454 0.0000
 24  -1031.8449261728   0.000000115384 0.00000146  0.00000001  0.0000454 0.0000
 25  -1031.8445242589   0.000401913857 0.00053589  0.00000523  0.0000454 0.0000
 26  -1031.8459569454  -0.001432686463 0.00124164  0.00001215  0.0000469 0.0000
 27  -1031.8457966969   0.000160248530 0.00097442  0.00000962  0.0000430 0.0000
 28  -1031.8461137265  -0.000317029646 0.00131993  0.00001312  0.0000397 0.0000
 29  -1031.8456240162   0.000489710320 0.00036546  0.00000366  0.0000385 0.0000
 30  -1031.8454166477   0.000207368551 0.00042611  0.00000429  0.0000386 0.0000
 31  -1031.8441154065   0.001301241155 0.00009315  0.00000094  0.0000379 0.0000
 32  -1031.8467131002  -0.002597693665 0.00340826  0.00003475  0.0000321 0.0000
 33  -1031.8463101183   0.000402981856 0.00013207  0.00000169  0.0000512 0.0000
 34  -1031.8452719582   0.001038160136 0.00183775  0.00001933  0.0000181 0.0000
 35  -1031.8447570206   0.000514937563 0.00042877  0.00000441  0.0000272 0.0000
 36  -1031.8442966177   0.000460402885 0.00067187  0.00000718  0.0000211 0.0000
 37  -1031.8439704705   0.000326147205 0.00019096  0.00000194  0.0000216 0.0000
 38  -1031.8435690576   0.000401412921 0.00016122  0.00000187  0.0000220 0.0000
 39  -1031.8435168742   0.000052183428 0.00026936  0.00000319  0.0000200 0.0000
               *** Restarting incremental Fock matrix formation ***
                                   *** Resetting DIIS ***
 40  -1031.8435508498  -0.000033975589 0.00005704  0.00000061  0.0000164 0.0000
 41  -1031.8435636544  -0.000012804677 0.00007159  0.00000074  0.0000142 0.0000
 42  -1031.8435764958  -0.000012841406 0.00014720  0.00000151  0.0000122 0.0000
 43  -1031.8435403795   0.000036116352 0.00006367  0.00000065  0.0000087 0.0000
 44  -1031.8435522917  -0.000011912219 0.00004068  0.00000041  0.0000081 0.0000
 45  -1031.8435174620   0.000034829710 0.00005787  0.00000059  0.0000079 0.0000
 46  -1031.8435283456  -0.000010883632 0.00002061  0.00000021  0.0000087 0.0000
 47  -1031.8435580986  -0.000029753003 0.00006154  0.00000063  0.0000090 0.0000
 48  -1031.8435532894   0.000004809193 0.00003403  0.00000035  0.0000082 0.0000
 49  -1031.8435432518   0.000010037614 0.00000934  0.00000010  0.0000080 0.0000
 50  -1031.8435487254  -0.000005473617 0.00000181  0.00000002  0.0000081 0.0000
 51  -1031.8435516411  -0.000002915614 0.00002621  0.00000027  0.0000082 0.0000
 52  -1031.8435514046   0.000000236478 0.00003617  0.00000037  0.0000080 0.0000
 53  -1031.8435415648   0.000009839743 0.00001083  0.00000012  0.0000077 0.0000
 54  -1031.8435479245  -0.000006359654 0.00002046  0.00000021  0.0000078 0.0000
 55  -1031.8435489041  -0.000000979600 0.00001693  0.00000018  0.0000077 0.0000
 56  -1031.8435547054  -0.000005801261 0.00003062  0.00000032  0.0000077 0.0000
 57  -1031.8435527396   0.000001965794 0.00000363  0.00000007  0.0000079 0.0000
 58  -1031.8435576974  -0.000004957875 0.00002451  0.00000026  0.0000079 0.0000
 59  -1031.8435547851   0.000002912359 0.00001512  0.00000017  0.0000080 0.0000
               *** Restarting incremental Fock matrix formation ***
                                   *** Resetting DIIS ***
 60  -1031.8435651771  -0.000010392031 0.00008489  0.00000090  0.0000081 0.0000
 61  -1031.8435556155   0.000009561566 0.00002011  0.00000020  0.0000085 0.0000
 62  -1031.8435499639   0.000005651671 0.00001825  0.00000019  0.0000086 0.0000
 63  -1031.8435519776  -0.000002013728 0.00000280  0.00000003  0.0000085 0.0000
 64  -1031.8435519101   0.000000067546 0.00000376  0.00000004  0.0000085 0.0000
 65  -1031.8435690591  -0.000017149016 0.00009808  0.00000100  0.0000084 0.0000
 66  -1031.8435335096   0.000035549427 0.00017849  0.00000181  0.0000089 0.0000
 67  -1031.8435308083   0.000002701300 0.00020272  0.00000206  0.0000081 0.0000
 68  -1031.8434725376   0.000058270745 0.00063331  0.00000645  0.0000071 0.0000
 69  -1031.8435138361  -0.000041298526 0.00050137  0.00000508  0.0000066 0.0000
 70  -1031.8435749356  -0.000061099463 0.00008101  0.00000082  0.0000058 0.0000
 71  -1031.8435050089   0.000069926664 0.00028618  0.00000288  0.0000052 0.0000
 72  -1031.8435002884   0.000004720568 0.00005407  0.00000054  0.0000037 0.0000
 73  -1031.8435098007  -0.000009512334 0.00001299  0.00000014  0.0000023 0.0000
 74  -1031.8435380917  -0.000028291036 0.00001128  0.00000015  0.0000020 0.0000
 75  -1031.8435448341  -0.000006742337 0.00002322  0.00000029  0.0000010 0.0000
                            ***DIIS convergence achieved***

               *****************************************************
               *                     SUCCESS                       *
               *           SCF CONVERGED AFTER  76 CYCLES          *
               *****************************************************


----------------
TOTAL SCF ENERGY
----------------

Total Energy       :        -1031.84354216 Eh          -28077.89023 eV

Components:
Nuclear Repulsion  :         2177.05071811 Eh           59240.56177 eV
Electronic Energy  :        -3208.89426027 Eh          -87318.45201 eV
One Electron Energy:        -5733.94037346 Eh         -156028.44989 eV
Two Electron Energy:         2525.04611319 Eh           68709.99789 eV

Virial components:
Potential Energy   :        -2062.43083617 Eh          -56121.59622 eV
Kinetic Energy     :         1030.58729400 Eh           28043.70598 eV
Virial Ratio       :            2.00121896


---------------
SCF CONVERGENCE
---------------

  Last Energy change         ...    2.6722e-06  Tolerance :   1.0000e-08
  Last MAX-Density change    ...    1.1933e-05  Tolerance :   1.0000e-07
  Last RMS-Density change    ...    1.5501e-07  Tolerance :   5.0000e-09
  Last DIIS Error            ...    3.4550e-07  Tolerance :   5.0000e-07

             **** THE GBW FILE WAS UPDATED (imipramine_rad.gbw) ****
             **** DENSITY FILE WAS UPDATED (imipramine_rad.scfp.tmp) ****
             **** ENERGY FILE WAS UPDATED (imipramine_rad.en.tmp) ****
----------------------
UHF SPIN CONTAMINATION
----------------------

Expectation value of <S**2>     :     0.803112
Ideal value S*(S+1) for S=0.5   :     0.750000
Deviation                       :     0.053112

----------------
ORBITAL ENERGIES
----------------
                 SPIN UP ORBITALS
  NO   OCC          E(Eh)            E(eV) 
   0   1.0000     -20.628694      -561.3353 
   1   1.0000     -20.613759      -560.9289 
   2   1.0000     -15.571026      -423.7092 
   3   1.0000     -15.536282      -422.7637 
   4   1.0000     -11.273638      -306.7713 
   5   1.0000     -11.269783      -306.6664 
   6   1.0000     -11.269289      -306.6529 
   7   1.0000     -11.267734      -306.6106 
   8   1.0000     -11.242105      -305.9132 
   9   1.0000     -11.241064      -305.8849 
  10   1.0000     -11.240452      -305.8683 
  11   1.0000     -11.239199      -305.8342 
  12   1.0000     -11.238371      -305.8116 
  13   1.0000     -11.237362      -305.7842 
  14   1.0000     -11.236282      -305.7548 
  15   1.0000     -11.235802      -305.7417 
  16   1.0000     -11.233813      -305.6876 
  17   1.0000     -11.233012      -305.6658 
  18   1.0000     -11.231996      -305.6382 
  19   1.0000     -11.230941      -305.6094 
  20   1.0000     -11.230844      -305.6068 
  21   1.0000     -11.230199      -305.5893 
  22   1.0000     -11.226321      -305.4837 
  23   1.0000     -11.224135      -305.4242 
  24   1.0000      -1.501701       -40.8634 
  25   1.0000      -1.278823       -34.7985 
  26   1.0000      -1.226690       -33.3799 
  27   1.0000      -1.200531       -32.6681 
  28   1.0000      -1.154895       -31.4263 
  29   1.0000      -1.142822       -31.0978 
  30   1.0000      -1.080770       -29.4093 
  31   1.0000      -1.053904       -28.6782 
  32   1.0000      -1.029642       -28.0180 
  33   1.0000      -1.021680       -27.8013 
  34   1.0000      -0.993412       -27.0321 
  35   1.0000      -0.965742       -26.2792 
  36   1.0000      -0.944540       -25.7022 
  37   1.0000      -0.917933       -24.9782 
  38   1.0000      -0.905975       -24.6528 
  39   1.0000      -0.885425       -24.0936 
  40   1.0000      -0.849186       -23.1075 
  41   1.0000      -0.832822       -22.6622 
  42   1.0000      -0.820977       -22.3399 
  43   1.0000      -0.791568       -21.5397 
  44   1.0000      -0.783916       -21.3314 
  45   1.0000      -0.770768       -20.9737 
  46   1.0000      -0.729957       -19.8632 
  47   1.0000      -0.703497       -19.1431 
  48   1.0000      -0.682943       -18.5838 
  49   1.0000      -0.671781       -18.2801 
  50   1.0000      -0.667585       -18.1659 
  51   1.0000      -0.660429       -17.9712 
  52   1.0000      -0.658351       -17.9146 
  53   1.0000      -0.652408       -17.7529 
  54   1.0000      -0.643293       -17.5049 
  55   1.0000      -0.631203       -17.1759 
  56   1.0000      -0.622350       -16.9350 
  57   1.0000      -0.618360       -16.8264 
  58   1.0000      -0.610691       -16.6177 
  59   1.0000      -0.601819       -16.3763 
  60   1.0000      -0.598907       -16.2971 
  61   1.0000      -0.592854       -16.1324 
  62   1.0000      -0.580752       -15.8031 
  63   1.0000      -0.571148       -15.5417 
  64   1.0000      -0.558488       -15.1972 
  65   1.0000      -0.545552       -14.8452 
  66   1.0000      -0.542396       -14.7593 
  67   1.0000      -0.533049       -14.5050 
  68   1.0000      -0.532443       -14.4885 
  69   1.0000      -0.523538       -14.2462 
  70   1.0000      -0.521515       -14.1911 
  71   1.0000      -0.517252       -14.0751 
  72   1.0000      -0.508609       -13.8399 
  73   1.0000      -0.501265       -13.6401 
  74   1.0000      -0.498799       -13.5730 
  75   1.0000      -0.489911       -13.3312 
  76   1.0000      -0.483471       -13.1559 
  77   1.0000      -0.481524       -13.1029 
  78   1.0000      -0.476718       -12.9721 
  79   1.0000      -0.471558       -12.8317 
  80   1.0000      -0.466714       -12.6999 
  81   1.0000      -0.460794       -12.5388 
  82   1.0000      -0.436738       -11.8842 
  83   1.0000      -0.372777       -10.1438 
  84   1.0000      -0.344563        -9.3760 
  85   1.0000      -0.335398        -9.1266 
  86   1.0000      -0.329879        -8.9765 
  87   1.0000      -0.323092        -8.7918 
  88   1.0000      -0.298275        -8.1165 
  89   0.0000       0.108973         2.9653 
  90   0.0000       0.120469         3.2781 
  91   0.0000       0.122059         3.3214 
  92   0.0000       0.130644         3.5550 
  93   0.0000       0.134268         3.6536 
  94   0.0000       0.142112         3.8671 
  95   0.0000       0.154768         4.2114 
  96   0.0000       0.156799         4.2667 
  97   0.0000       0.167263         4.5515 
  98   0.0000       0.169160         4.6031 
  99   0.0000       0.171613         4.6698 
 100   0.0000       0.179823         4.8932 
 101   0.0000       0.194106         5.2819 
 102   0.0000       0.194666         5.2971 
 103   0.0000       0.197636         5.3779 
 104   0.0000       0.199555         5.4302 
 105   0.0000       0.205077         5.5804 
 106   0.0000       0.210024         5.7151 
 107   0.0000       0.211635         5.7589 
 108   0.0000       0.216593         5.8938 
 109   0.0000       0.220418         5.9979 
 110   0.0000       0.228122         6.2075 
 111   0.0000       0.231883         6.3099 
 112   0.0000       0.239756         6.5241 
 113   0.0000       0.242121         6.5885 
 114   0.0000       0.247638         6.7386 
 115   0.0000       0.254586         6.9276 
 116   0.0000       0.262792         7.1509 
 117   0.0000       0.270406         7.3581 
 118   0.0000       0.271536         7.3889 
 119   0.0000       0.283086         7.7032 
 120   0.0000       0.285527         7.7696 
 121   0.0000       0.287253         7.8165 
 122   0.0000       0.295313         8.0359 
 123   0.0000       0.304266         8.2795 
 124   0.0000       0.305870         8.3232 
 125   0.0000       0.308306         8.3894 
 126   0.0000       0.313592         8.5333 
 127   0.0000       0.318209         8.6589 
 128   0.0000       0.319976         8.7070 
 129   0.0000       0.323603         8.8057 
 130   0.0000       0.329796         8.9742 
 131   0.0000       0.330517         8.9938 
 132   0.0000       0.333212         9.0672 
 133   0.0000       0.334145         9.0925 
 134   0.0000       0.347823         9.4647 
 135   0.0000       0.351458         9.5637 
 136   0.0000       0.353626         9.6226 
 137   0.0000       0.357850         9.7376 
 138   0.0000       0.362426         9.8621 
 139   0.0000       0.364392         9.9156 
 140   0.0000       0.370894        10.0925 
 141   0.0000       0.376214        10.2373 
 142   0.0000       0.382996        10.4218 
 143   0.0000       0.384638        10.4665 
 144   0.0000       0.392349        10.6763 
 145   0.0000       0.398383        10.8405 
 146   0.0000       0.408549        11.1172 
 147   0.0000       0.411297        11.1920 
 148   0.0000       0.425260        11.5719 
 149   0.0000       0.429916        11.6986 
 150   0.0000       0.431620        11.7450 
 151   0.0000       0.433569        11.7980 
 152   0.0000       0.441343        12.0096 
 153   0.0000       0.446383        12.1467 
 154   0.0000       0.451544        12.2871 
 155   0.0000       0.455667        12.3993 
 156   0.0000       0.460092        12.5197 
 157   0.0000       0.463001        12.5989 
 158   0.0000       0.466386        12.6910 
 159   0.0000       0.475008        12.9256 
 160   0.0000       0.479452        13.0466 
 161   0.0000       0.484281        13.1780 
 162   0.0000       0.486173        13.2294 
 163   0.0000       0.487358        13.2617 
 164   0.0000       0.494224        13.4485 
 165   0.0000       0.496543        13.5116 
 166   0.0000       0.502017        13.6606 
 167   0.0000       0.508711        13.8427 
 168   0.0000       0.509062        13.8523 
 169   0.0000       0.520693        14.1688 
 170   0.0000       0.521083        14.1794 
 171   0.0000       0.525875        14.3098 
 172   0.0000       0.529729        14.4147 
 173   0.0000       0.532334        14.4855 
 174   0.0000       0.534985        14.5577 
 175   0.0000       0.540183        14.6991 
 176   0.0000       0.547056        14.8861 
 177   0.0000       0.550652        14.9840 
 178   0.0000       0.552335        15.0298 
 179   0.0000       0.553524        15.0621 
 180   0.0000       0.557375        15.1670 
 181   0.0000       0.566344        15.4110 
 182   0.0000       0.568464        15.4687 
 183   0.0000       0.568809        15.4781 
 184   0.0000       0.573467        15.6048 
 185   0.0000       0.578645        15.7457 
 186   0.0000       0.582542        15.8518 
 187   0.0000       0.584526        15.9058 
 188   0.0000       0.586629        15.9630 
 189   0.0000       0.593271        16.1437 
 190   0.0000       0.600383        16.3372 
 191   0.0000       0.601575        16.3697 
 192   0.0000       0.605089        16.4653 
 193   0.0000       0.606646        16.5077 
 194   0.0000       0.615357        16.7447 
 195   0.0000       0.618856        16.8399 
 196   0.0000       0.620260        16.8781 
 197   0.0000       0.622327        16.9344 
 198   0.0000       0.632718        17.2171 
 199   0.0000       0.634315        17.2606 
 200   0.0000       0.636264        17.3136 
 201   0.0000       0.644316        17.5327 
 202   0.0000       0.645151        17.5554 
 203   0.0000       0.649154        17.6644 
 204   0.0000       0.652871        17.7655 
 205   0.0000       0.659979        17.9589 
 206   0.0000       0.661857        18.0100 
 207   0.0000       0.666988        18.1497 
 208   0.0000       0.668950        18.2031 
 209   0.0000       0.675255        18.3746 
 210   0.0000       0.676231        18.4012 
 211   0.0000       0.680938        18.5293 
 212   0.0000       0.686399        18.6779 
 213   0.0000       0.687160        18.6986 
 214   0.0000       0.693671        18.8757 
 215   0.0000       0.696833        18.9618 
 216   0.0000       0.701544        19.0900 
 217   0.0000       0.703507        19.1434 
 218   0.0000       0.712794        19.3961 
 219   0.0000       0.720712        19.6116 
 220   0.0000       0.726893        19.7798 
 221   0.0000       0.730716        19.8838 
 222   0.0000       0.736504        20.0413 
 223   0.0000       0.739023        20.1098 
 224   0.0000       0.742853        20.2141 
 225   0.0000       0.753516        20.5042 
 226   0.0000       0.759086        20.6558 
 227   0.0000       0.763159        20.7666 
 228   0.0000       0.769986        20.9524 
 229   0.0000       0.774189        21.0667 
 230   0.0000       0.776783        21.1373 
 231   0.0000       0.787169        21.4199 
 232   0.0000       0.798428        21.7263 
 233   0.0000       0.799114        21.7450 
 234   0.0000       0.800788        21.7906 
 235   0.0000       0.808875        22.0106 
 236   0.0000       0.821619        22.3574 
 237   0.0000       0.827445        22.5159 
 238   0.0000       0.835881        22.7455 
 239   0.0000       0.838618        22.8200 
 240   0.0000       0.843892        22.9635 
 241   0.0000       0.850158        23.1340 
 242   0.0000       0.856679        23.3114 
 243   0.0000       0.864680        23.5291 
 244   0.0000       0.866787        23.5865 
 245   0.0000       0.868710        23.6388 
 246   0.0000       0.881542        23.9880 
 247   0.0000       0.883779        24.0489 
 248   0.0000       0.896214        24.3872 
 249   0.0000       0.897700        24.4277 
 250   0.0000       0.905372        24.6364 
 251   0.0000       0.908135        24.7116 
 252   0.0000       0.916604        24.9421 
 253   0.0000       0.920968        25.0608 
 254   0.0000       0.925440        25.1825 
 255   0.0000       0.932360        25.3708 
 256   0.0000       0.936415        25.4811 
 257   0.0000       0.949966        25.8499 
 258   0.0000       0.953011        25.9328 
 259   0.0000       0.956028        26.0148 
 260   0.0000       0.959917        26.1207 
 261   0.0000       0.964377        26.2420 
 262   0.0000       0.972350        26.4590 
 263   0.0000       0.984192        26.7812 
 264   0.0000       0.988596        26.9011 
 265   0.0000       0.991718        26.9860 
 266   0.0000       0.994034        27.0490 
 267   0.0000       1.009096        27.4589 
 268   0.0000       1.010406        27.4945 
 269   0.0000       1.013321        27.5739 
 270   0.0000       1.024659        27.8824 
 271   0.0000       1.030967        28.0540 
 272   0.0000       1.035149        28.1678 
 273   0.0000       1.039370        28.2827 
 274   0.0000       1.046852        28.4863 
 275   0.0000       1.052526        28.6407 
 276   0.0000       1.064779        28.9741 
 277   0.0000       1.070904        29.1408 
 278   0.0000       1.071587        29.1594 
 279   0.0000       1.079725        29.3808 
 280   0.0000       1.082099        29.4454 
 281   0.0000       1.091676        29.7060 
 282   0.0000       1.097729        29.8707 
 283   0.0000       1.105760        30.0892 
 284   0.0000       1.113466        30.2990 
 285   0.0000       1.116688        30.3866 
 286   0.0000       1.125052        30.6142 
 287   0.0000       1.129802        30.7435 
 288   0.0000       1.132410        30.8144 
 289   0.0000       1.139760        31.0145 
 290   0.0000       1.140111        31.0240 
 291   0.0000       1.152488        31.3608 
 292   0.0000       1.157682        31.5021 
 293   0.0000       1.160620        31.5821 
 294   0.0000       1.172605        31.9082 
 295   0.0000       1.175598        31.9896 
 296   0.0000       1.181248        32.1434 
 297   0.0000       1.196806        32.5668 
 298   0.0000       1.206565        32.8323 
 299   0.0000       1.209806        32.9205 
 300   0.0000       1.219288        33.1785 
 301   0.0000       1.233942        33.5773 
 302   0.0000       1.236867        33.6569 
 303   0.0000       1.238440        33.6997 
 304   0.0000       1.241561        33.7846 
 305   0.0000       1.256159        34.1818 
 306   0.0000       1.268765        34.5248 
 307   0.0000       1.281747        34.8781 
 308   0.0000       1.285253        34.9735 
 309   0.0000       1.289962        35.1017 
 310   0.0000       1.300443        35.3869 
 311   0.0000       1.307668        35.5835 
 312   0.0000       1.317212        35.8432 
 313   0.0000       1.326868        36.1059 
 314   0.0000       1.329624        36.1809 
 315   0.0000       1.336260        36.3615 
 316   0.0000       1.342649        36.5353 
 317   0.0000       1.347527        36.6681 
 318   0.0000       1.363136        37.0928 
 319   0.0000       1.367152        37.2021 
 320   0.0000       1.378127        37.5008 
 321   0.0000       1.379337        37.5337 
 322   0.0000       1.384286        37.6683 
 323   0.0000       1.386557        37.7301 
 324   0.0000       1.395200        37.9653 
 325   0.0000       1.400060        38.0976 
 326   0.0000       1.410146        38.3720 
 327   0.0000       1.421829        38.6899 
 328   0.0000       1.428259        38.8649 
 329   0.0000       1.434813        39.0433 
 330   0.0000       1.447440        39.3868 
 331   0.0000       1.452823        39.5333 
 332   0.0000       1.461988        39.7827 
 333   0.0000       1.468062        39.9480 
 334   0.0000       1.471543        40.0427 
 335   0.0000       1.481515        40.3141 
 336   0.0000       1.488451        40.5028 
 337   0.0000       1.493609        40.6432 
 338   0.0000       1.498275        40.7701 
 339   0.0000       1.508240        41.0413 
 340   0.0000       1.513152        41.1749 
 341   0.0000       1.526186        41.5296 
 342   0.0000       1.527996        41.5789 
 343   0.0000       1.545515        42.0556 
 344   0.0000       1.549972        42.1769 
 345   0.0000       1.554954        42.3125 
 346   0.0000       1.562226        42.5103 
 347   0.0000       1.568777        42.6886 
 348   0.0000       1.577301        42.9205 
 349   0.0000       1.588092        43.2142 
 350   0.0000       1.602971        43.6191 
 351   0.0000       1.616820        43.9959 
 352   0.0000       1.629119        44.3306 
 353   0.0000       1.636885        44.5419 
 354   0.0000       1.642842        44.7040 
 355   0.0000       1.649808        44.8936 
 356   0.0000       1.660975        45.1974 
 357   0.0000       1.672337        45.5066 
 358   0.0000       1.680538        45.7298 
 359   0.0000       1.686057        45.8799 
 360   0.0000       1.693323        46.0777 
 361   0.0000       1.695403        46.1342 
 362   0.0000       1.717033        46.7228 
 363   0.0000       1.721852        46.8540 
 364   0.0000       1.734214        47.1904 
 365   0.0000       1.740130        47.3513 
 366   0.0000       1.746713        47.5305 
 367   0.0000       1.753865        47.7251 
 368   0.0000       1.755416        47.7673 
 369   0.0000       1.761820        47.9415 
 370   0.0000       1.763327        47.9826 
 371   0.0000       1.774313        48.2815 
 372   0.0000       1.785093        48.5748 
 373   0.0000       1.786824        48.6219 
 374   0.0000       1.797744        48.9191 
 375   0.0000       1.799975        48.9798 
 376   0.0000       1.803679        49.0806 
 377   0.0000       1.809983        49.2521 
 378   0.0000       1.820108        49.5276 
 379   0.0000       1.826981        49.7147 
 380   0.0000       1.829210        49.7753 
 381   0.0000       1.834847        49.9287 
 382   0.0000       1.836409        49.9712 
 383   0.0000       1.842503        50.1371 
 384   0.0000       1.851915        50.3932 
 385   0.0000       1.855085        50.4794 
 386   0.0000       1.861683        50.6590 
 387   0.0000       1.866129        50.7800 
 388   0.0000       1.869698        50.8771 
 389   0.0000       1.872666        50.9578 
 390   0.0000       1.885410        51.3046 
 391   0.0000       1.885809        51.3155 
 392   0.0000       1.888543        51.3899 
 393   0.0000       1.896370        51.6029 
 394   0.0000       1.898704        51.6664 
 395   0.0000       1.901477        51.7418 
 396   0.0000       1.906573        51.8805 
 397   0.0000       1.913259        52.0624 
 398   0.0000       1.919061        52.2203 
 399   0.0000       1.928386        52.4740 
 400   0.0000       1.936125        52.6846 
 401   0.0000       1.938051        52.7370 
 402   0.0000       1.942391        52.8551 
 403   0.0000       1.955180        53.2032 
 404   0.0000       1.957695        53.2716 
 405   0.0000       1.963051        53.4173 
 406   0.0000       1.972883        53.6849 
 407   0.0000       1.982932        53.9583 
 408   0.0000       1.987500        54.0826 
 409   0.0000       1.998199        54.3738 
 410   0.0000       2.001193        54.4552 
 411   0.0000       2.007115        54.6164 
 412   0.0000       2.009748        54.6880 
 413   0.0000       2.020338        54.9762 
 414   0.0000       2.025236        55.1095 
 415   0.0000       2.028828        55.2072 
 416   0.0000       2.037305        55.4379 
 417   0.0000       2.044623        55.6370 
 418   0.0000       2.046242        55.6811 
 419   0.0000       2.050213        55.7891 
 420   0.0000       2.060742        56.0757 
 421   0.0000       2.066609        56.2353 
 422   0.0000       2.076619        56.5077 
 423   0.0000       2.079857        56.5958 
 424   0.0000       2.095682        57.0264 
 425   0.0000       2.107332        57.3434 
 426   0.0000       2.119388        57.6715 
 427   0.0000       2.132975        58.0412 
 428   0.0000       2.134205        58.0747 
 429   0.0000       2.142908        58.3115 
 430   0.0000       2.151036        58.5327 
 431   0.0000       2.161671        58.8221 
 432   0.0000       2.172075        59.1052 
 433   0.0000       2.179643        59.3111 
 434   0.0000       2.183762        59.4232 
 435   0.0000       2.187300        59.5195 
 436   0.0000       2.193023        59.6752 
 437   0.0000       2.203405        59.9577 
 438   0.0000       2.215608        60.2898 
 439   0.0000       2.220348        60.4187 
 440   0.0000       2.234762        60.8110 
 441   0.0000       2.235067        60.8193 
 442   0.0000       2.246021        61.1173 
 443   0.0000       2.250320        61.2343 
 444   0.0000       2.264817        61.6288 
 445   0.0000       2.273749        61.8718 
 446   0.0000       2.282779        62.1176 
 447   0.0000       2.289864        62.3104 
 448   0.0000       2.299325        62.5678 
 449   0.0000       2.303129        62.6713 
 450   0.0000       2.305760        62.7429 
 451   0.0000       2.319640        63.1206 
 452   0.0000       2.327494        63.3343 
 453   0.0000       2.334005        63.5115 
 454   0.0000       2.347875        63.8889 
 455   0.0000       2.350685        63.9654 
 456   0.0000       2.358933        64.1898 
 457   0.0000       2.367851        64.4325 
 458   0.0000       2.371787        64.5396 
 459   0.0000       2.390460        65.0477 
 460   0.0000       2.391181        65.0673 
 461   0.0000       2.403283        65.3966 
 462   0.0000       2.405795        65.4650 
 463   0.0000       2.409600        65.5686 
 464   0.0000       2.418319        65.8058 
 465   0.0000       2.423977        65.9598 
 466   0.0000       2.427996        66.0691 
 467   0.0000       2.447714        66.6057 
 468   0.0000       2.458310        66.8940 
 469   0.0000       2.469817        67.2071 
 470   0.0000       2.475588        67.3642 
 471   0.0000       2.481778        67.5326 
 472   0.0000       2.492908        67.8355 
 473   0.0000       2.497694        67.9657 
 474   0.0000       2.508815        68.2683 
 475   0.0000       2.510992        68.3276 
 476   0.0000       2.522603        68.6435 
 477   0.0000       2.526295        68.7440 
 478   0.0000       2.539356        69.0994 
 479   0.0000       2.542472        69.1842 
 480   0.0000       2.547242        69.3140 
 481   0.0000       2.556691        69.5711 
 482   0.0000       2.562110        69.7186 
 483   0.0000       2.568718        69.8984 
 484   0.0000       2.570142        69.9371 
 485   0.0000       2.575296        70.0774 
 486   0.0000       2.591964        70.5309 
 487   0.0000       2.599867        70.7460 
 488   0.0000       2.608983        70.9940 
 489   0.0000       2.610760        71.0424 
 490   0.0000       2.614547        71.1454 
 491   0.0000       2.636884        71.7533 
 492   0.0000       2.652004        72.1647 
 493   0.0000       2.654844        72.2420 
 494   0.0000       2.661443        72.4215 
 495   0.0000       2.666746        72.5658 
 496   0.0000       2.674864        72.7867 
 497   0.0000       2.680561        72.9418 
 498   0.0000       2.685452        73.0749 
 499   0.0000       2.698461        73.4288 
 500   0.0000       2.699497        73.4570 
 501   0.0000       2.710177        73.7477 
 502   0.0000       2.721986        74.0690 
 503   0.0000       2.730511        74.3010 
 504   0.0000       2.736828        74.4729 
 505   0.0000       2.745953        74.7212 
 506   0.0000       2.754363        74.9500 
 507   0.0000       2.762771        75.1788 
 508   0.0000       2.773314        75.4657 
 509   0.0000       2.776111        75.5418 
 510   0.0000       2.783199        75.7347 
 511   0.0000       2.788790        75.8868 
 512   0.0000       2.791183        75.9519 
 513   0.0000       2.798875        76.1613 
 514   0.0000       2.806863        76.3786 
 515   0.0000       2.815178        76.6049 
 516   0.0000       2.822010        76.7908 
 517   0.0000       2.829380        76.9913 
 518   0.0000       2.840552        77.2954 
 519   0.0000       2.845655        77.4342 
 520   0.0000       2.851370        77.5897 
 521   0.0000       2.856573        77.7313 
 522   0.0000       2.864136        77.9371 
 523   0.0000       2.877383        78.2976 
 524   0.0000       2.877844        78.3101 
 525   0.0000       2.882924        78.4484 
 526   0.0000       2.892093        78.6978 
 527   0.0000       2.896729        78.8240 
 528   0.0000       2.899686        78.9045 
 529   0.0000       2.903792        79.0162 
 530   0.0000       2.907715        79.1229 
 531   0.0000       2.912800        79.2613 
 532   0.0000       2.920397        79.4680 
 533   0.0000       2.922943        79.5373 
 534   0.0000       2.926345        79.6299 
 535   0.0000       2.938027        79.9478 
 536   0.0000       2.939650        79.9920 
 537   0.0000       2.942889        80.0801 
 538   0.0000       2.945288        80.1454 
 539   0.0000       2.951907        80.3255 
 540   0.0000       2.963105        80.6302 
 541   0.0000       2.965495        80.6952 
 542   0.0000       2.969802        80.8124 
 543   0.0000       2.980487        81.1032 
 544   0.0000       2.985737        81.2460 
 545   0.0000       2.989067        81.3366 
 546   0.0000       2.990204        81.3676 
 547   0.0000       3.000524        81.6484 
 548   0.0000       3.008780        81.8731 
 549   0.0000       3.014342        82.0244 
 550   0.0000       3.017981        82.1234 
 551   0.0000       3.026260        82.3487 
 552   0.0000       3.033494        82.5456 
 553   0.0000       3.035012        82.5869 
 554   0.0000       3.042664        82.7951 
 555   0.0000       3.048399        82.9512 
 556   0.0000       3.054729        83.1234 
 557   0.0000       3.062014        83.3216 
 558   0.0000       3.062885        83.3453 
 559   0.0000       3.069617        83.5285 
 560   0.0000       3.074817        83.6700 
 561   0.0000       3.081076        83.8403 
 562   0.0000       3.088125        84.0322 
 563   0.0000       3.090103        84.0860 
 564   0.0000       3.097601        84.2900 
 565   0.0000       3.102576        84.4254 
 566   0.0000       3.104093        84.4667 
 567   0.0000       3.114239        84.7428 
 568   0.0000       3.120348        84.9090 
 569   0.0000       3.127004        85.0901 
 570   0.0000       3.130054        85.1731 
 571   0.0000       3.131882        85.2228 
 572   0.0000       3.141085        85.4733 
 573   0.0000       3.149515        85.7027 
 574   0.0000       3.163598        86.0859 
 575   0.0000       3.165640        86.1414 
 576   0.0000       3.176844        86.4463 
 577   0.0000       3.187491        86.7361 
 578   0.0000       3.191073        86.8335 
 579   0.0000       3.193871        86.9097 
 580   0.0000       3.201922        87.1287 
 581   0.0000       3.209927        87.3466 
 582   0.0000       3.214186        87.4624 
 583   0.0000       3.219606        87.6099 
 584   0.0000       3.228985        87.8651 
 585   0.0000       3.234479        88.0146 
 586   0.0000       3.240013        88.1652 
 587   0.0000       3.248295        88.3906 
 588   0.0000       3.253498        88.5322 
 589   0.0000       3.268009        88.9271 
 590   0.0000       3.273731        89.0828 
 591   0.0000       3.276951        89.1704 
 592   0.0000       3.286115        89.4197 
 593   0.0000       3.298169        89.7477 
 594   0.0000       3.305222        89.9397 
 595   0.0000       3.309924        90.0676 
 596   0.0000       3.314703        90.1977 
 597   0.0000       3.322720        90.4158 
 598   0.0000       3.337720        90.8240 
 599   0.0000       3.346117        91.0525 
 600   0.0000       3.350477        91.1711 
 601   0.0000       3.366070        91.5954 
 602   0.0000       3.375294        91.8464 
 603   0.0000       3.380491        91.9878 
 604   0.0000       3.387943        92.1906 
 605   0.0000       3.397903        92.4617 
 606   0.0000       3.406360        92.6918 
 607   0.0000       3.407303        92.7174 
 608   0.0000       3.417744        93.0015 
 609   0.0000       3.423155        93.1488 
 610   0.0000       3.430524        93.3493 
 611   0.0000       3.442339        93.6708 
 612   0.0000       3.445631        93.7604 
 613   0.0000       3.455529        94.0297 
 614   0.0000       3.458971        94.1234 
 615   0.0000       3.463328        94.2420 
 616   0.0000       3.468214        94.3749 
 617   0.0000       3.476595        94.6030 
 618   0.0000       3.477609        94.6305 
 619   0.0000       3.484965        94.8307 
 620   0.0000       3.489170        94.9452 
 621   0.0000       3.491701        95.0140 
 622   0.0000       3.499916        95.2376 
 623   0.0000       3.500948        95.2656 
 624   0.0000       3.504415        95.3600 
 625   0.0000       3.510893        95.5362 
 626   0.0000       3.515414        95.6593 
 627   0.0000       3.523769        95.8866 
 628   0.0000       3.532549        96.1255 
 629   0.0000       3.537087        96.2490 
 630   0.0000       3.537972        96.2731 
 631   0.0000       3.548826        96.5685 
 632   0.0000       3.550569        96.6159 
 633   0.0000       3.561410        96.9109 
 634   0.0000       3.569491        97.1308 
 635   0.0000       3.572388        97.2096 
 636   0.0000       3.574292        97.2614 
 637   0.0000       3.580975        97.4433 
 638   0.0000       3.586544        97.5948 
 639   0.0000       3.591993        97.7431 
 640   0.0000       3.595998        97.8521 
 641   0.0000       3.602773        98.0364 
 642   0.0000       3.608151        98.1828 
 643   0.0000       3.612416        98.2988 
 644   0.0000       3.619863        98.5015 
 645   0.0000       3.622682        98.5782 
 646   0.0000       3.632302        98.8400 
 647   0.0000       3.637709        98.9871 
 648   0.0000       3.648543        99.2819 
 649   0.0000       3.655066        99.4594 
 650   0.0000       3.657689        99.5308 
 651   0.0000       3.659601        99.5828 
 652   0.0000       3.666551        99.7719 
 653   0.0000       3.669185        99.8436 
 654   0.0000       3.682781       100.2136 
 655   0.0000       3.683346       100.2289 
 656   0.0000       3.688968       100.3819 
 657   0.0000       3.693784       100.5130 
 658   0.0000       3.698407       100.6388 
 659   0.0000       3.703433       100.7755 
 660   0.0000       3.708244       100.9065 
 661   0.0000       3.718328       101.1809 
 662   0.0000       3.719503       101.2128 
 663   0.0000       3.724637       101.3525 
 664   0.0000       3.728388       101.4546 
 665   0.0000       3.734044       101.6085 
 666   0.0000       3.748048       101.9896 
 667   0.0000       3.752102       102.0999 
 668   0.0000       3.758948       102.2862 
 669   0.0000       3.766511       102.4920 
 670   0.0000       3.770931       102.6122 
 671   0.0000       3.772184       102.6463 
 672   0.0000       3.779151       102.8359 
 673   0.0000       3.785296       103.0031 
 674   0.0000       3.787377       103.0598 
 675   0.0000       3.795108       103.2701 
 676   0.0000       3.799805       103.3980 
 677   0.0000       3.804618       103.5289 
 678   0.0000       3.812807       103.7518 
 679   0.0000       3.822621       104.0188 
 680   0.0000       3.829157       104.1967 
 681   0.0000       3.834685       104.3471 
 682   0.0000       3.843961       104.5995 
 683   0.0000       3.849385       104.7471 
 684   0.0000       3.852995       104.8453 
 685   0.0000       3.854684       104.8913 
 686   0.0000       3.863279       105.1252 
 687   0.0000       3.868684       105.2722 
 688   0.0000       3.875700       105.4632 
 689   0.0000       3.881154       105.6116 
 690   0.0000       3.882547       105.6495 
 691   0.0000       3.891361       105.8893 
 692   0.0000       3.892206       105.9123 
 693   0.0000       3.902190       106.1840 
 694   0.0000       3.909581       106.3851 
 695   0.0000       3.913542       106.4929 
 696   0.0000       3.923834       106.7730 
 697   0.0000       3.924594       106.7936 
 698   0.0000       3.932262       107.0023 
 699   0.0000       3.941726       107.2598 
 700   0.0000       3.948527       107.4449 
 701   0.0000       3.960388       107.7676 
 702   0.0000       3.966172       107.9250 
 703   0.0000       3.970341       108.0385 
 704   0.0000       3.980764       108.3221 
 705   0.0000       3.982176       108.3605 
 706   0.0000       3.990458       108.5859 
 707   0.0000       3.997923       108.7890 
 708   0.0000       4.006542       109.0235 
 709   0.0000       4.018294       109.3433 
 710   0.0000       4.026354       109.5627 
 711   0.0000       4.034536       109.7853 
 712   0.0000       4.037666       109.8705 
 713   0.0000       4.057852       110.4198 
 714   0.0000       4.061639       110.5228 
 715   0.0000       4.063548       110.5748 
 716   0.0000       4.070084       110.7526 
 717   0.0000       4.087538       111.2276 
 718   0.0000       4.092097       111.3516 
 719   0.0000       4.116493       112.0155 
 720   0.0000       4.121863       112.1616 
 721   0.0000       4.128861       112.3520 
 722   0.0000       4.144947       112.7897 
 723   0.0000       4.159487       113.1854 
 724   0.0000       4.169969       113.4706 
 725   0.0000       4.178329       113.6981 
 726   0.0000       4.185228       113.8858 
 727   0.0000       4.208587       114.5215 
 728   0.0000       4.213262       114.6487 
 729   0.0000       4.215963       114.7222 
 730   0.0000       4.227836       115.0453 
 731   0.0000       4.247731       115.5866 
 732   0.0000       4.263509       116.0160 
 733   0.0000       4.273861       116.2977 
 734   0.0000       4.275999       116.3559 
 735   0.0000       4.286700       116.6470 
 736   0.0000       4.297132       116.9309 
 737   0.0000       4.306123       117.1756 
 738   0.0000       4.320708       117.5725 
 739   0.0000       4.334427       117.9457 
 740   0.0000       4.339642       118.0877 
 741   0.0000       4.345597       118.2497 
 742   0.0000       4.368418       118.8707 
 743   0.0000       4.382670       119.2585 
 744   0.0000       4.396876       119.6451 
 745   0.0000       4.409921       120.0001 
 746   0.0000       4.435058       120.6841 
 747   0.0000       4.446776       121.0029 
 748   0.0000       4.457845       121.3041 
 749   0.0000       4.471448       121.6743 
 750   0.0000       4.489281       122.1595 
 751   0.0000       4.497263       122.3768 
 752   0.0000       4.502486       122.5189 
 753   0.0000       4.511970       122.7770 
 754   0.0000       4.517015       122.9142 
 755   0.0000       4.523028       123.0778 
 756   0.0000       4.540828       123.5622 
 757   0.0000       4.547035       123.7311 
 758   0.0000       4.555745       123.9681 
 759   0.0000       4.558733       124.0494 
 760   0.0000       4.567812       124.2965 
 761   0.0000       4.570902       124.3806 
 762   0.0000       4.580256       124.6351 
 763   0.0000       4.583845       124.7328 
 764   0.0000       4.590878       124.9241 
 765   0.0000       4.600938       125.1979 
 766   0.0000       4.603806       125.2759 
 767   0.0000       4.614196       125.5587 
 768   0.0000       4.626505       125.8936 
 769   0.0000       4.636630       126.1691 
 770   0.0000       4.641309       126.2964 
 771   0.0000       4.649011       126.5060 
 772   0.0000       4.657142       126.7273 
 773   0.0000       4.658013       126.7510 
 774   0.0000       4.663214       126.8925 
 775   0.0000       4.668583       127.0386 
 776   0.0000       4.691258       127.6556 
 777   0.0000       4.694037       127.7312 
 778   0.0000       4.700395       127.9042 
 779   0.0000       4.710839       128.1884 
 780   0.0000       4.730558       128.7250 
 781   0.0000       4.746706       129.1644 
 782   0.0000       4.753328       129.3446 
 783   0.0000       4.758114       129.4749 
 784   0.0000       4.762916       129.6055 
 785   0.0000       4.775462       129.9469 
 786   0.0000       4.782260       130.1319 
 787   0.0000       4.805141       130.7545 
 788   0.0000       4.808337       130.8415 
 789   0.0000       4.824538       131.2824 
 790   0.0000       4.838577       131.6644 
 791   0.0000       4.847700       131.9126 
 792   0.0000       4.857250       132.1725 
 793   0.0000       4.889113       133.0395 
 794   0.0000       4.920862       133.9035 
 795   0.0000       4.924928       134.0141 
 796   0.0000       4.949246       134.6758 
 797   0.0000       4.961178       135.0005 
 798   0.0000       4.978509       135.4721 
 799   0.0000       4.997139       135.9791 
 800   0.0000       5.024051       136.7114 
 801   0.0000       5.028939       136.8444 
 802   0.0000       5.038851       137.1141 
 803   0.0000       5.050742       137.4377 
 804   0.0000       5.070450       137.9740 
 805   0.0000       5.087781       138.4456 
 806   0.0000       5.111792       139.0989 
 807   0.0000       5.139857       139.8626 
 808   0.0000       5.150881       140.1626 
 809   0.0000       5.173493       140.7779 
 810   0.0000       5.177744       140.8936 
 811   0.0000       5.196695       141.4093 
 812   0.0000       5.213837       141.8757 
 813   0.0000       5.227972       142.2603 
 814   0.0000       5.238277       142.5408 
 815   0.0000       5.281803       143.7252 
 816   0.0000       5.298502       144.1796 
 817   0.0000       5.316927       144.6809 
 818   0.0000       5.335893       145.1970 
 819   0.0000       5.339780       145.3028 
 820   0.0000       5.349796       145.5753 
 821   0.0000       5.378904       146.3674 
 822   0.0000       5.392715       146.7432 
 823   0.0000       5.414461       147.3350 
 824   0.0000       5.440426       148.0415 
 825   0.0000       5.473043       148.9291 
 826   0.0000       5.488055       149.3376 
 827   0.0000       5.503686       149.7629 
 828   0.0000       5.507030       149.8539 
 829   0.0000       5.525203       150.3484 
 830   0.0000       5.546107       150.9172 
 831   0.0000       5.573547       151.6639 
 832   0.0000       5.608062       152.6031 
 833   0.0000       5.608845       152.6244 
[...]
  E(ip->ab)
  E(pq->ra)
  E(ip->qr)
  E(ip->aq) and E(ip->qa)

   .... Finished loop over pairs

 PNO Occupation Number Statistics: 
  | Av. % of trace(Dij) retained        ...  98.823458063067
  | Av. % of trace(Dip) retained        ...  94.315500587954
  | Av. % of trace(Dpq) retained        ...  99.999988112654
  | sigma^2 in % of trace(Dij) retained ...   1.60e+00
  | sigma^2 in % of trace(Dip) retained ...   1.78e+01
  | sigma^2 in % of trace(Dpq) retained ...   0.00e+00
  | Av. % of trace(Di) retained         ...  99.998964035374
  | Av. % of trace(Dp) retained         ...  99.999999580002
  | sigma^2 in % of trace(Di) retained  ...   1.82e-07
  | sigma^2 in % of trace(Dp) retained  ...   0.00e+00
 Distributions of % trace(Dij) recovered:
  |       >= 99.9  ...   193 ( 26.4 % of all IJ-pairs)
  |   [90.0, 99.0) ...   282 ( 38.6 % of all IJ-pairs)
  |   [99.0, 99.9) ...   255 ( 34.9 % of all IJ-pairs)
 Distributions of % trace(Dip) recovered:
  |       >= 99.9  ...     1 (  1.9 % of all IP-pairs)
  |   [80.0, 90.0) ...     9 ( 17.3 % of all IP-pairs)
  |   [90.0, 99.0) ...    30 ( 57.7 % of all IP-pairs)
  |   [99.0, 99.9) ...    12 ( 23.1 % of all IP-pairs)
 Distributions of % trace(Dpq) recovered:
  |       >= 99.9  ...     1 (100.0 % of all PQ-pairs)
 Distributions of % trace(Di) recovered :
  |       >= 99.9  ...    64 (100.0 % of all I-pairs )
 Distributions of % trace(Dp) recovered :
  |       >= 99.9  ...     1 (100.0 % of all P-pairs )

                       ===========================
                       1449 OF 2643 PAIRS ARE KEPT
                       ===========================

 Initial PAO correlation energy (all pairs)    ...  -3.9630063013 Eh
 Energy constituents in PAO basis (Eh):
  | Vijab(+0) ...  -3.8118357408
  | Viab (-1) ...  -0.0731098829
  | Va   (-1) ...  -0.0002567187
  | Vija (+1) ...  -0.0553765671
  | Via  (+0) ...  -0.0223786674
  | Vi   (+1) ...  -0.0000487242
 Initial PNO correlation energy                ...  -3.9266202310 Eh
 Energy constituents in PNO basis (Eh):
  | Vijab(+0) ...  -3.7805753263 (err=  0.0312604145)
  | Viab (-1) ...  -0.0693864697 (err=  0.0037234133)
  | Va   (-1) ...  -0.0002567187 (err=  0.0000000000)
  | Vija (+1) ...  -0.0539777273 (err=  0.0013988398)
  | Via  (+0) ...  -0.0223753418 (err=  0.0000033256)
  | Vi   (+1) ...  -0.0000486472 (err=  0.0000000770)
 Sum of total truncation errors ...   0.0363860702 Eh
  | Pair screening ...   0.0205225860 Eh
  | PNO truncation ...   0.0158634842 Eh

 UMP2 correlation energy (PAO) ...  -3.9531126850
  | alpha-alpha ...  -0.4922772004 (NP_aa= 1321)
  | alpha-beta  ...  -2.9715358633 (NP_ab= 2642)
  | beta -beta  ...  -0.4892996212 (NP_bb= 1257)
 UMP2 correlation energy (PNO) ...  -3.9166700096
  | alpha-alpha ...  -0.4839774330 (err=  0.0082997675, NP_aa=  718)
  | alpha-beta  ...  -2.9502652146 (err=  0.0212706487, NP_ab= 1448)
  | beta -beta  ...  -0.4824273621 (err=  0.0068722592, NP_bb=  666)
 Sum of total UMP2 truncation errors ...   0.0364426754 Eh
  | Pair screening ...   0.0205466528 Eh
  | PNO truncation ...   0.0158960226 Eh
 Timing for NEV-PNO construction (sec.)
  | Intermediate construction  ..            0.418
  | Amplitude construction     ..            2.428
  | Total time                 ..            2.845
 Making pair pair interaction lists ...      ok
 Total size for 2-ext PNO integrals ...     14.1 MB
Checking the number of SOMO/SOMO doubles PNOs ...  No PNOs should be truncated!

--------------------------------
LOCAL RI TRANSFORMATION (VABPAO)
--------------------------------

Number of PAOs:     907
Basis functions:    906 (372 shells)
Aux. functions:    2229 (717 shells)

Processing maps (0.0 sec)
Average map sizes:
   Aux shells -> PAOs            888.8
   PAOs       -> AO shells       360.1

Calculating integrals (39.8 sec, 26157.903 MB)
Finished
-----------------------------
LOCAL RI TRANSFORMATION (IJV)
-----------------------------

Orbital window:      24 to 88
Basis functions:    906 (372 shells)
Aux. functions:    2229 (717 shells)

Processing maps (0.0 sec)
Average map sizes:
   Aux shells -> MOs(i)           50.3
   Aux shells -> MOs(j)           65.0
   MOs        -> AO shells       316.8

Calculating integrals (2.5 sec, 56.966 MB)
Sorting integrals (0.2 sec, 56.941 MB)
Total time for the integral transformation: 2.7 sec


-------------------------------------
Pair Pair Term precalculation with     
RI-(ij|mn) and (im|jn) transformation  
ON THE FLY                             
-------------------------------------

   IBatch   1 (of   2)              ... done (  213.782 sec)
   IBatch   2 (of   2)              ... done (  159.313 sec)
Total EXT                           ...         373.096 sec

---------------------
RI-PNO TRANSFORMATION
---------------------

Total Number of PNOs                   ... 46011
Total Number of IJ-PNOs                ... 44963
Total Number of IP-PNOs                ...   958
Total Number of PQ-PNOs                ...    90
Total Number of IJ-pairs               ...  1396
Total Number of PI-pairs               ...    52
Total Number of PQ-pairs               ...     1
Average number of PNOs per pair        ...    31
Maximal number of PNOs per pair        ...    90
>> Statistics for ij-pairs..
   #pairs with  1 -  5 PNOs   :    0
   #pairs with  6 - 10 PNOs   :   34
   #pairs with 11 - 15 PNOs   :  172
   #pairs with 16 - 20 PNOs   :  226
   #pairs with 21 - 25 PNOs   :  132
   #pairs with 26 - 30 PNOs   :  130
   #pairs with 31 - 35 PNOs   :  195
   #pairs with 36 - 40 PNOs   :  109
   #pairs with 41 - 45 PNOs   :  121
   #pairs with 46 - 50 PNOs   :  124
   #pairs with 51 - 55 PNOs   :   29
   #pairs with 56 - 60 PNOs   :   50
   #pairs with 61 - 65 PNOs   :   13
   #pairs with 66 - 70 PNOs   :    1
   #pairs with 71 - 75 PNOs   :   40
   #pairs with 76 - 80 PNOs   :   18
   #pairs with 81 - 85 PNOs   :    2
>> Statistics for ip-pairs..
   #pairs with  1 -  5 PNOs   :    0
   #pairs with  6 - 10 PNOs   :   12
   #pairs with 11 - 15 PNOs   :   17
   #pairs with 16 - 20 PNOs   :    5
   #pairs with 21 - 25 PNOs   :    6
   #pairs with 26 - 30 PNOs   :    2
   #pairs with 31 - 35 PNOs   :    6
   #pairs with 36 - 40 PNOs   :    1
   #pairs with 41 - 45 PNOs   :    1
   #pairs with 46 - 50 PNOs   :    1
   #pairs with 56 - 60 PNOs   :    1
>> Statistics for pq-pairs..
   #pairs with  1 -  5 PNOs   :    0
   #pairs with  6 - 10 PNOs   :    0
   #pairs with 11 - 15 PNOs   :    0
   #pairs with 16 - 20 PNOs   :    0
   #pairs with 21 - 25 PNOs   :    0
   #pairs with 26 - 30 PNOs   :    0
   #pairs with 31 - 35 PNOs   :    0
   #pairs with 36 - 40 PNOs   :    0
   #pairs with 41 - 45 PNOs   :    0
   #pairs with 46 - 50 PNOs   :    0
   #pairs with 86 - 90 PNOs   :    1

Generation of (ij|ab)[P] integrals            ... on
Generation of (ia|bc)[P],(ja|bc)[P] integrals ... on
Storage of 3 and 4 external integrals         ... on
Generation of ALL (ka|bc)[P] integrals        ... on
Keep RI integrals in memory                   ... off

Ibatch:  1 (of  1)
Starting 2-4 index PNO integral generation ... done

Timings:
Total PNO integral transformation time     ...        270.865 sec
Size of the 3-external file                ...       375 MB
Size of the 4-external file                ...      2592 MB
Size of the IKJL file                      ...        31 MB
Size of the all 3-external file            ...     10918 MB
Size of the 1-external file                ...        33 MB

Size of the PAO/PNO coefficient matrices   ...     165.6 MB

Making pair/pair overlap matrices          ... done (   37.307 sec)
Size of the pair overlap file              ...    3289.0 MB
Total # unrestricted pairs ...       2832
  # of alpha-alpha pairs   ...        718
  # of alpha-beta pairs    ...       1448
  # of beta-beta pairs     ...        666
Constructing the guess amplitudes          ... done (    0.541 sec)

-------------------------
FINAL STARTUP INFORMATION
-------------------------

E(0)                                       ...  -1031.828363192
E(SL-UMP2 in NEV-PNO space)                ...     -3.955629301
Initial E(tot)                             ...  -1035.783992493
<T|T>                                      ...      0.866348996
Number of unrestricted pairs included      ... 2832
Total number of pairs                      ... 8256
----------------------------------------------------------
                     OPEN-SHELL COUPLED CLUSTER ITERATIONS
----------------------------------------------------------

Number of PNO amplitudes to be optimized        ...          3460521
Number of canonical amplitudes for strong pairs ...       1892706231
Untruncated number of canonical amplitudes      ...       5517589521

Iter       E(tot)           E(Corr)          Delta-E          Residual     Time
  0  -1035.792046006     -3.924723522      0.030905780      0.025911399  202.79
                           *** Turning on DIIS ***
  1  -1035.934642062     -4.067319578     -0.142596056      0.018562574  190.36
  2  -1036.035729876     -4.168407392     -0.101087814      0.008689151  190.27
  3  -1036.059438717     -4.192116233     -0.023708841      0.004275719  195.75
  4  -1036.065766841     -4.198444357     -0.006328123      0.005014904  191.28
  5  -1036.067429760     -4.200107276     -0.001662919      0.002587238  193.20
  6  -1036.068042199     -4.200719715     -0.000612439      0.001823353  185.86
  7  -1036.068383955     -4.201061471     -0.000341756      0.000864420  181.39
  8  -1036.068490157     -4.201167673     -0.000106202      0.000518529  165.15
  9  -1036.068524058     -4.201201574     -0.000033901      0.000325178  154.44
 10  -1036.068544994     -4.201222510     -0.000020936      0.000173804  152.46
 11  -1036.068554677     -4.201232193     -0.000009683      0.000129984  149.61
 12  -1036.068555516     -4.201233032     -0.000000839      0.000094636  146.41
 13  -1036.068555142     -4.201232658      0.000000374      0.000052281  151.38
 14  -1036.068553927     -4.201231443      0.000001215      0.000035206  147.07
 15  -1036.068554325     -4.201231841     -0.000000398      0.000010770  147.15
 16  -1036.068555099     -4.201232615     -0.000000774      0.000005529  138.72
               --- The CCSD iterations have converged ---

E(0)                                       ...  -1031.828363192
E(CORR)(strong-pairs)                      ...     -4.201232615
E(CORR)(weak-pairs)                        ...     -0.038959292
E(CORR)(corrected)                         ...     -4.240191907
E(TOT)                                     ...  -1036.068555099
Singles norm <S|S>**1/2                    ...      0.153708867 ( 0.064404794, 0.089304073)  
T1 diagnostic                              ...      0.013533311                              
<S**2>(linearized)                         ...      0.7503945 (ideal value:      0.7500000)

----------------------
LARGEST PNO AMPLITUDES
----------------------
  29b-> 88b  -1b-> -1b       0.086063
  82a-> 89a  82b-> 89b       0.075160
  87b-> 88b  -1b-> -1b       0.050261
  27b-> 88b  -1b-> -1b       0.047386
  46a-> 93a  46b-> 93b       0.046428
  88a-> 95a  87b-> 88b       0.045957
  49a-> 89a  49b-> 89b       0.045615
  61a-> 93a  61b-> 93b       0.044682
  81a-> 93a  81b-> 93b       0.044508
  70a-> 93a  70b-> 93b       0.044386
  74a-> 93a  74b-> 93b       0.044326
  28b-> 88b  -1b-> -1b       0.043900
  79a-> 95a  79b-> 95b       0.042390
  64a-> 93a  64b-> 93b       0.041863
  76a-> 95a  76b-> 95b       0.040200
  73a-> 93a  73b-> 93b       0.040191

Total # unrestricted pairs ...       2388
  # of alpha-alpha pairs   ...        603
  # of alpha-beta pairs    ...       1194
  # of beta-beta pairs     ...        591

-------------------------------------------
DLPNO BASED TRIPLES CORRECTION
-------------------------------------------

Singles multiplier          ...  1.000000
Fragment selection                          .... not used
TCutTNO                     ... 1.000e-09
TCutMP2Pairs                ... 1.000e-05
TCutDOStrong                ... 2.000e-02
TCutMKNStrong               ... 1.000e-02
TCutDOWeak                  ... 4.000e-02
TCutMKNWeak                 ... 1.000e-01
NTCutTNO                    ... 1

Number of Triples that are to be computed         ...     50736

 . . . . . . . . .
10% done  
20% done  
30% done  
40% done  
50% done  
60% done  
70% done  
80% done  
90% done  
          Batch   1   done (   1250.139 sec)

Triples-Correction TCutTNO=   1.000e-09 (NWeakPairs = 0  1  2  3)  -0.189876903388   -0.003698279425    0.000000000000    0.000000000000
Triples-Correction  -0.193575182813

Triples timings:
Total time                      ...  1297.538 sec

Triples List generation         ...     0.000 sec
TNO generation                  ...    47.035 sec
Pair density generation         ...     0.066 sec
Look up tables                  ...     0.131 sec
Generating 3-index integrals    ...   418.646 sec
Make 4-ind.int. from 3-ind.int  ...     0.749 sec
Projecting amplitudes (D + S)   ...   698.368 sec
Sorting integrals for spin cases...    29.766 sec
Calculate W0/W1                 ...    72.424 sec
Energy contr. (sum over a,b,c)  ...    30.192 sec

Everything after 3-index        ...   863.600 sec

Energy contribution AAA         ...    12.898 sec
Energy contribution AAB         ...    58.169 sec
Energy contribution ABB         ...    54.839 sec
Energy contribution BBB         ...     6.522 sec
prep                ...     1.449 sec
makeTTNO            ...   688.669 sec
copyij              ...     0.054 sec
copyil              ...     2.529 sec
transposeij         ...     0.047 sec
newMatInDoubleProj  ...    14.977 sec
BlasInDoubleProj    ...   273.149 sec
ProjSingles         ...     4.254 sec
ProjDoubles         ...   694.113 sec
overall Doubles for projection      ... 5015212
used Doubles for projection         ... 5015212


Number of Triples   (0, 1, 2, 3 weak pairs; overall):  20054   21894       0       0  ( 41948)
Number of Atoms     (0, 1, 2, 3 weak pairs; overall):   19.9    15.6     0.0     0.0  (    51)
Number of PAOs      (0, 1, 2, 3 weak pairs; overall):  443.5   365.8     0.0     0.0  (   906)
Number of AuxFcns   (0, 1, 2, 3 weak pairs; overall):  550.4   369.2     0.0     0.0  (  2229)
Number of TNOs (0, 1, 2, 3 weak pairs         ):   88.5    59.2     0.0     0.0
Aver. Number of NTNO, Atoms, PAOs, AuxFcns / Triples:  41948    73.2    17.7   402.9   455.8

Triples Correction (T)                     ...     -0.193575183
    alpha-alpha-alpha ... -0.006038784 (  3.1%)
    alpha-alpha-beta  ... -0.090395333 ( 46.7%)
    alpha-beta -beta  ... -0.090747413 ( 46.9%)
    beta -beta -beta  ... -0.006393653 (  3.3%)
Final correlation energy                   ...     -4.433767090
E(CCSD)                                    ...  -1036.068555099
E(CCSD(T))                                 ...  -1036.262130282

----------------------------
STATISTICS FOR PAIR-ENERGIES
----------------------------
Minimum, maximum and average ratios of UMP and CCSD pair-energies ... 0.50, 1.56, 1.00


------------------------------------------------------------------------------- 
                                     TIMINGS                                   
------------------------------------------------------------------------------- 


Total execution time                   ...     5678.798 sec

Localization of occupied MO's          ...       25.540 sec (  0.4%)
Fock Matrix Formation                  ...       81.120 sec (  1.4%)
Differential overlap integrals         ...        0.782 sec (  0.0%)
Organizing maps                        ...        0.817 sec (  0.0%)
RI 3-index integral generations        ...       53.908 sec (  0.9%)
RI-PNO integral transformation         ...      748.160 sec ( 13.2%)
Initial Guess                          ...      484.718 sec (  8.5%)
DIIS Solver                            ...       41.903 sec (  0.7%)
State Vector Update                    ...        0.759 sec (  0.0%)
Sigma-vector construction              ...     2883.281 sec ( 50.8%)
  <0|H|D>                              ...        0.012 sec (  0.0% of sigma)
  <D|H|D>(0-ext)                       ...      232.553 sec (  8.1% of sigma)
  <D|H|D>(2-ext Fock)                  ...        0.139 sec (  0.0% of sigma)
  <D|H|D>(2-ext)                       ...      333.077 sec ( 11.6% of sigma)
  <D|H|D>(4-ext)                       ...      204.317 sec (  7.1% of sigma)
  <D|H|D>(4-ext-corr)                  ...      741.637 sec ( 25.7% of sigma)
  CCSD doubles correction              ...        5.853 sec (  0.2% of sigma)
  <S|H|S>                              ...       82.185 sec (  2.9% of sigma)
  <S|H|D>(1-ext)                       ...       52.826 sec (  1.8% of sigma)
  <D|H|S>(1-ext)                       ...        0.836 sec (  0.0% of sigma)
  <S|H|D>(3-ext)                       ...       98.107 sec (  3.4% of sigma)
  CCSD singles correction              ...        0.006 sec (  0.0% of sigma)
  Fock-dressing                        ...      682.754 sec ( 23.7% of sigma)
  Singles amplitudes                   ...       46.139 sec (  1.6% of sigma)
  (ik|jl)-dressing                     ...      292.536 sec ( 10.1% of sigma)
  (ij|ab),(ia|jb)-dressing             ...       81.053 sec (  2.8% of sigma)
  Pair energies                        ...        0.110 sec (  0.0% of sigma)
Total Time for computing (T)           ...     1404.354 sec ( 24.7% of ALL)


-------------------------   --------------------
FINAL SINGLE POINT ENERGY     -1036.262130282136
-------------------------   --------------------


                            ***************************************
                            *     ORCA property calculations      *
                            ***************************************

                                    ---------------------
                                    Active property flags
                                    ---------------------
   (+) Dipole Moment


------------------------------------------------------------------------------
                       ORCA ELECTRIC PROPERTIES CALCULATION
------------------------------------------------------------------------------

Dipole Moment Calculation                       ... on
Quadrupole Moment Calculation                   ... off
Polarizability Calculation                      ... off
GBWName                                         ... imipramine_rad.gbw
Electron density file                           ... imipramine_rad.scfp.tmp
The origin for moment calculation is the CENTER OF MASS  = ( 0.894576, -0.274927  0.351041)

-------------
DIPOLE MOMENT
-------------
                                X             Y             Z
Electronic contribution:    -17.58804       2.73171       0.30890
Nuclear contribution   :     17.23039      -2.44878       0.17182
                        -----------------------------------------
Total Dipole Moment    :     -0.35765       0.28293       0.48072
                        -----------------------------------------
Magnitude (a.u.)       :      0.66261
Magnitude (Debye)      :      1.68423



--------------------
Rotational spectrum 
--------------------
 
Rotational constants in cm-1:     0.009161     0.006822     0.005078 
Rotational constants in MHz :   274.639415   204.510643   152.238490 

 Dipole components along the rotational axes: 
x,y,z [a.u.] :    -0.361137     0.236221     0.502829 
x,y,z [Debye]:    -0.917936     0.600426     1.278091 

 

Timings for individual modules:

Sum of individual times         ...     8319.104 sec (= 138.652 min)
GTO integral calculation        ...        4.986 sec (=   0.083 min)   0.1 %
SCF iterations                  ...     2627.502 sec (=  43.792 min)  31.6 %
MDCI module                     ...     5686.617 sec (=  94.777 min)  68.4 %
                             ****ORCA TERMINATED NORMALLY****
TOTAL RUN TIME: 0 days 2 hours 18 minutes 44 seconds 632 msec
