
Running Job 1 of 2 c5h11o-2.in
qchem c5h11o-2.in_19552.0 /tmp/qchem19552/ 4
/opt/qchem/bin/mpi/mpirun_qchem -machinefile /tmp/281060.1.normal3/hostfile -np 4 /opt/qchem/exe/qcprog.exe c5h11o-2.in_19552.0 /tmp/qchem19552/

Process 0 of 4 is on node68.cluster - thread support 0
Process 1 of 4 is on node68.cluster - thread support 0
Process 3 of 4 is on node68.cluster - thread support 0
Process 2 of 4 is on node68.cluster - thread support 0
initial socket setup ...start
initial socket setup ...done 
now start server 0 ... 
                  Welcome to Q-Chem
     A Quantum Leap Into The Future Of Chemistry

 Y. Shao, L. Fusti-Molnar, Y. Jung, J. Kussmann, C. Ochsenfeld, S. T. Brown, 
 A. T. B. Gilbert, L. V. Slipchenko, S. V. Levchenko, D. P. O'Neill, 
 R. A. DiStasio Jr., R. C. Lochan, T. Wang, G. J. O. Beran, N. A. Besley, 
 J. M. Herbert, C. Y. Lin, T. Van Voorhis, S. H. Chien, A. Sodt, R. P. Steele, 
 V. A. Rassolov, P. E. Maslen, P. P. Korambath, R. D. Adamson, B. Austin, 
 J. Baker, E. F. C. Byrd, H. Dachsel, R. J. Doerksen, A. Dreuw, B. D. Dunietz, 
 A. D. Dutoi, T. R. Furlani, S. R. Gwaltney, A. Heyden, S. Hirata, C.-P. Hsu, 
 G. Kedziora, R. Z. Khaliullin, P. Klunzinger, A. M. Lee, M. S. Lee, W. Liang, 
 I. Lotan, N. Nair, B. Peters, E. I. Proynov, P. A. Pieniazek, Y. M. Rhee, 
 J. Ritchie, E. Rosta, C. D. Sherrill, A. C. Simmonett, J. E. Subotnik, 
 H. L. Woodcock III, W. Zhang, A. T. Bell, A. K. Chakraborty, D. M. Chipman, 
 F. J. Keil, A. Warshel, W. J. Hehre, H. F. Schaefer III, J. Kong, 
 A. I. Krylov, P. M. W. Gill, M. Head-Gordon

 Additional authors for Version 3.1: 
 Z. Gan, Y. Zhao, N. E. SchultzD. Truhlar, E. Epifanovsky, M. Oana

 Additional authors for Version 3.2: 
 R. Baer, B. R. Brooks, D. Casanova, J.-D. Chai, C.-L. Cheng, C. Cramer, 
 D. Crittenden, A. Ghysels, G. Hawkins, E. G. Hohenstein, C. Kelley, 
 W. Kurlancheek, D. Liotard, E. Livshits, P. Manohar, A. Marenich, 
 D. Neuhauser, R. Olson, M. A. Rohrdanz, K. S. Thanthiriwatte, A. J. W. Thom, 
 V. Vanovschi, C. F. Williams, Q. Wu, Z.-Q. You

 Additional authors for Version 4.0: 
 A. Aspuru-Guzik, Y. Bernard, C. Chang, J. Deng, A. Dreuw, M. Diedenhofen, 
 R. G. Edgar, D. Ghosh, W. A. Goddard III, M. Goldey, L. D. Jacobson, 
 M. Gordon, B. Kaduk, I. Kaliman, K. Khistyaev, R. King, A. Klamt, 
 D. Kosenkov, T. Kus, D. Lambrecht, A. Landau, A. W. Lange, K. Lawler, F. Liu, 
 J. Liu, R. Olivares-Amaya, S. P. Mao, J. Parkhill, N. Russ, M. Schmidt, 
 N. Shenvi, D. Small, Y. C. Su, E. Sundstrom, L. Vogt, O. Vydrov, M. Watson, 
 M. Wormit, X. Xu, S. Yeganeh, I. Y. Zhang, D. Zuev

 Additional authors for Version 4.1: 
 X. Feng, M. W. D. Hanson-Heine, P. Horn, H. Ji, A. Laurent, R. Peverati, 
 N. Mardirossian, N. Sergueev, S. Sharada, P. Zimmerman


 Q-Chem, Version 4.1, Q-Chem, Inc., Pittsburgh, PA (2013).

 Intel X86 Linux Version 4.1.0.1 

 Q-chem begins on Wed Apr  9 10:52:11 2014  

Host: 
0

     Scratch files written to /tmp/qchem19552.0//
 Oct1213 14483_epif 4150   
 Parallel job on  4  processors
Processing $rem in /opt/qchem/config/preferences.
 MEM_TOTAL  2000 
Warning: disabling incdft.
 Q-Chem warning in module /home/scratch/svnadmin/14483_epif/qchem/forms1/BasisType.C, line 1125:

 Setting pure/cartesian flag to 2111 for general basis


Finally everything over in PARseQInput

--------------------------------------------------------------
User input:
--------------------------------------------------------------
$rem
XC_GRID 000075000434
JOBTYPE opt
EXCHANGE M08SO
BASIS gen
GUI=2
UNRESTRICTED TRUE
CORRELATION NONE
$end

$comment
c5h11o-2
$end

$molecule
read c5h11o-2MG3S.out
$end

$basis
H  0
S  3 1.00
3.386500000000E+01 2.549380000000E-02
5.094790000000E+00 1.903730000000E-01
1.158790000000E+00 8.521610000000E-01
S  1 1.00
3.258400000000E-01 1.000000000000E+00
S  1 1.00
1.027410000000E-01 1.000000000000E+00
S  1 1.00
3.600000000000E-02 1.000000000000E+00
P  1 1.00
1.500000000000E+00 1.000000000000E+00
P  1 1.00
3.750000000000E-01 1.000000000000E+00
****
C 0
S  6 1.00
4.563240000000E+03 1.966650000000E-03
6.820240000000E+02 1.523060000000E-02
1.549730000000E+02 7.612690000000E-02
4.445530000000E+01 2.608010000000E-01
1.302900000000E+01 6.164620000000E-01
1.827730000000E+00 2.210060000000E-01
S  3 1.00
2.096420000000E+01 1.146600000000E-01
4.803310000000E+00 9.199990000000E-01
1.459330000000E+00 -3.030680000000E-03
S  1 1.00
4.834560000000E-01 1.000000000000E+00
S  1 1.00
1.455850000000E-01 1.000000000000E+00
S  1 1.00
4.380000000000E-02 1.000000000000E+00
P  3 1.00
2.096420000000E+01 4.024870000000E-02
4.803310000000E+00 2.375940000000E-01
1.459330000000E+00 8.158540000000E-01
P  1 1.00
4.834560000000E-01 1.000000000000E+00
P  1 1.00
1.455850000000E-01 1.000000000000E+00
P  1 1.00
4.380000000000E-02 1.000000000000E+00
D  1 1.00
1.252000000000E+00 1.000000000000E+00
D  1 1.00
3.130000000000E-01 1.000000000000E+00
F  1 1.00
8.000000000000E-01 1.000000000000E+00
****
O  0
S  6 1.00
8.588500000000E+03 1.895150000000E-03
1.297230000000E+03 1.438590000000E-02
2.992960000000E+02 7.073200000000E-02
8.737710000000E+01 2.400010000000E-01
2.567890000000E+01 5.947970000000E-01
3.740040000000E+00 2.808020000000E-01
S  3 1.00
4.211750000000E+01 1.138890000000E-01
9.628370000000E+00 9.208110000000E-01
2.853320000000E+00 -3.274470000000E-03
S  1 1.00
9.056610000000E-01 1.000000000000E+00
S  1 1.00
2.556110000000E-01 1.000000000000E+00
S  1 1.00
8.450000000000E-02 1.000000000000E+00
P  3 1.00
4.211750000000E+01 3.651140000000E-02
9.628370000000E+00 2.371530000000E-01
2.853320000000E+00 8.197020000000E-01
P  1 1.00
9.056610000000E-01 1.000000000000E+00
P  1 1.00
2.556110000000E-01 1.000000000000E+00
P  1 1.00
8.450000000000E-02 1.000000000000E+00
D  1 1.00
2.584000000000E+00 1.000000000000E+00
D  1 1.00
6.460000000000E-01 1.000000000000E+00
F  1 1.00
1.400000000000E+00 1.000000000000E+00
****
$end

--------------------------------------------------------------
 ----------------------------------------------------
       Standard Nuclear Orientation (Angstroms)
    I     Atom         X            Y            Z
 ----------------------------------------------------
    1      C       0.996903    -0.010155    -0.347119
    2      C      -0.343449     0.572480     0.118476
    3      C      -1.516779    -0.237939    -0.327123
    4      O      -2.765498     0.104898     0.119210
    5      C       2.147154     0.918218     0.043547
    6      C       1.218849    -1.412071     0.222185
    7      H       0.966886    -0.080666    -1.444229
    8      H      -0.433938     1.613773    -0.241311
    9      H      -0.331836     0.632786     1.220755
   10      H      -1.553738    -0.630304    -1.339366
   11      H      -2.698326     0.477829     1.010755
   12      H       2.204613     1.015412     1.134885
   13      H       2.015547     1.920515    -0.377222
   14      H       3.107213     0.525341    -0.306645
   15      H       1.246470    -1.373359     1.318643
   16      H       2.170518    -1.829267    -0.122924
   17      H       0.414511    -2.094441    -0.066813
 ----------------------------------------------------
 Molecular Point Group                 C1    NOp =  1
 Largest Abelian Subgroup              C1    NOp =  1
 Nuclear Repulsion Energy =   244.5708591479 hartrees
 There are       25 alpha and       24 beta electrons
 Requested basis set is non-standard
 There are 138 shells and 314 basis functions

Total QAlloc Memory Limit   2000 MB
Mega-Array Size        61 MB
MEM_STATIC part        62 MB
 A cutoff of  1.0D-11 yielded   8956 shell pairs
 There are     45896 function pairs (     55062 Cartesian)
 Smallest overlap matrix eigenvalue = 1.31E-05

  Scale SEOQF with 1.000000e-01/1.000000e-01/1.000000e-01

 Standard Electronic Orientation quadrupole field applied
 Nucleus-field energy     =     0.0000000070 hartrees
 Guess MOs from core Hamiltonian diagonalization
 An unrestricted hybrid HF-DFT SCF calculation will be
 performed using Pulay DIIS extrapolation
 Exchange:     0.5679 Hartree-Fock + 1.0000 M08SO
 SCF converges when DIIS error is below 1.0E-08
 ---------------------------------------
  Cycle       Energy         DIIS Error
 ---------------------------------------
    1    -191.3231183196      9.17E-02
    2    -166.7987479463      5.06E-02
    3    -164.1651564464      6.71E-02
    4    -244.2471048530      3.59E-02
    5    -269.2794684222      1.55E-02
    6    -271.7761125019      6.45E-03
    7    -272.1294174279      3.08E-03
    8    -272.2092113396      6.04E-04
    9    -272.2136716814      1.97E-04
   10    -272.2142779139      5.50E-05
   11    -272.2143801953      2.03E-05
   12    -272.2144004107      8.13E-06
   13    -272.2144040716      3.62E-06
   14    -272.2144049588      1.25E-06
   15    -272.2144050960      4.16E-07
   16    -272.2144051038      1.06E-07
   17    -272.2144051043      4.37E-08
   18    -272.2144051044      1.15E-08
   19    -272.2144051044      2.50E-09 Convergence criterion met
 ---------------------------------------
 <S^2> = 0.7545
 SCF time:  CPU 1798.83 s  wall 1816.24 s
 SCF   energy in the final basis set = -272.2144051044
 Total energy in the final basis set = -272.2144051044
 Analysis of SCF Wavefunction
 
 --------------------------------------------------------------
                    Orbital Energies (a.u.)
 --------------------------------------------------------------
 
 Alpha MOs
 -- Occupied --
-19.593 -10.545 -10.504 -10.502 -10.486 -10.482  -1.169  -0.920
 -0.821  -0.778  -0.722  -0.655  -0.583  -0.551  -0.546  -0.511
 -0.485  -0.483  -0.457  -0.446  -0.430  -0.400  -0.395  -0.390
 -0.235
 -- Virtual --
 -0.026  -0.018  -0.008  -0.006   0.009   0.017   0.019   0.024
  0.028   0.045   0.054   0.062   0.072   0.077   0.084   0.091
  0.099   0.108   0.119   0.126   0.129   0.130   0.137   0.140
  0.142   0.151   0.155   0.160   0.169   0.183   0.188   0.202
  0.205   0.214   0.219   0.239   0.246   0.251   0.264   0.265
  0.274   0.278   0.295   0.307   0.316   0.319   0.330   0.334
  0.359   0.380   0.392   0.418   0.436   0.472   0.480   0.484
  0.491   0.510   0.529   0.544   0.554   0.558   0.565   0.576
  0.579   0.581   0.587   0.613   0.617   0.619   0.629   0.639
  0.653   0.660   0.680   0.683   0.698   0.701   0.720   0.736
  0.751   0.766   0.778   0.820   0.821   0.848   0.873   0.913
  0.916   0.925   0.946   0.950   0.986   1.014   1.028   1.045
  1.067   1.080   1.100   1.114   1.125   1.127   1.139   1.150
  1.159   1.177   1.186   1.199   1.218   1.248   1.260   1.271
  1.290   1.296   1.314   1.325   1.338   1.351   1.357   1.366
  1.374   1.390   1.410   1.412   1.443   1.456   1.472   1.488
  1.492   1.516   1.526   1.543   1.572   1.579   1.587   1.598
  1.631   1.638   1.649   1.682   1.711   1.722   1.758   1.793
  1.902   2.008   2.155   2.256   2.338   2.398   2.428   2.470
  2.532   2.537   2.581   2.621   2.657   2.671   2.698   2.728
  2.735   2.751   2.778   2.812   2.827   2.853   2.868   2.877
  2.907   2.925   2.938   2.946   2.964   2.976   3.007   3.051
  3.080   3.103   3.136   3.140   3.180   3.196   3.209   3.245
  3.254   3.268   3.312   3.318   3.343   3.351   3.359   3.380
  3.396   3.425   3.440   3.449   3.468   3.484   3.490   3.530
  3.558   3.568   3.595   3.618   3.638   3.671   3.686   3.709
  3.714   3.733   3.753   3.785   3.792   3.817   3.837   3.869
  3.909   3.921   3.952   3.960   3.969   3.976   4.006   4.023
  4.031   4.063   4.070   4.113   4.134   4.148   4.177   4.183
  4.192   4.196   4.214   4.225   4.240   4.270   4.296   4.325
  4.366   4.382   4.410   4.445   4.476   4.482   4.516   4.557
  4.569   4.571   4.600   4.655   4.673   4.699   4.730   4.791
  4.843   5.053   5.126   5.153   5.175   5.275   5.346   5.393
  5.420   5.475   5.510   5.518   5.558   5.621   5.638   5.650
  5.663   5.675   5.775   6.027   6.560   6.914   7.094   7.128
  7.188   7.469   7.572  24.062  24.129  24.192  24.253  24.306
 49.783
 
 Beta MOs
 -- Occupied --
-19.589 -10.528 -10.504 -10.503 -10.486 -10.482  -1.157  -0.919
 -0.815  -0.778  -0.710  -0.654  -0.577  -0.539  -0.538  -0.502
 -0.482  -0.461  -0.456  -0.434  -0.427  -0.398  -0.394  -0.388
 -- Virtual --
 -0.030  -0.019  -0.011  -0.011  -0.001   0.007   0.014   0.018
  0.024   0.027   0.044   0.051   0.061   0.070   0.075   0.083
  0.089   0.097   0.105   0.116   0.125   0.127   0.127   0.136
  0.138   0.141   0.149   0.154   0.157   0.167   0.181   0.187
  0.203   0.205   0.214   0.221   0.238   0.249   0.252   0.264
  0.269   0.274   0.278   0.296   0.309   0.318   0.321   0.330
  0.342   0.361   0.382   0.397   0.420   0.438   0.475   0.483
  0.488   0.495   0.512   0.532   0.547   0.558   0.558   0.567
  0.576   0.580   0.586   0.593   0.616   0.620   0.625   0.640
  0.645   0.656   0.671   0.686   0.692   0.702   0.709   0.727
  0.739   0.755   0.772   0.790   0.822   0.823   0.853   0.877
  0.914   0.917   0.929   0.950   0.954   0.989   1.021   1.028
  1.048   1.070   1.086   1.107   1.119   1.129   1.130   1.140
  1.157   1.162   1.181   1.192   1.203   1.222   1.254   1.263
  1.274   1.293   1.301   1.318   1.330   1.349   1.353   1.361
  1.369   1.378   1.393   1.413   1.416   1.449   1.458   1.477
  1.493   1.501   1.526   1.538   1.552   1.574   1.581   1.589
  1.599   1.633   1.639   1.654   1.685   1.716   1.728   1.766
  1.803   1.915   2.028   2.165   2.260   2.348   2.401   2.433
  2.489   2.537   2.542   2.601   2.626   2.669   2.695   2.712
  2.731   2.745   2.761   2.806   2.829   2.854   2.888   2.916
  2.922   2.937   2.943   2.950   2.971   2.980   3.000   3.036
  3.072   3.109   3.120   3.143   3.158   3.206   3.212   3.227
  3.267   3.282   3.290   3.330   3.346   3.357   3.364   3.387
  3.396   3.413   3.447   3.460   3.477   3.501   3.506   3.529
  3.543   3.576   3.589   3.607   3.631   3.654   3.694   3.702
  3.717   3.727   3.743   3.762   3.791   3.819   3.829   3.845
  3.875   3.916   3.924   3.961   3.967   3.976   3.989   4.015
  4.029   4.045   4.067   4.076   4.127   4.145   4.153   4.179
  4.188   4.196   4.202   4.217   4.228   4.269   4.288   4.313
  4.335   4.371   4.388   4.428   4.462   4.483   4.488   4.528
  4.568   4.577   4.579   4.622   4.665   4.693   4.719   4.737
  4.837   4.857   5.104   5.152   5.167   5.186   5.276   5.353
  5.402   5.419   5.488   5.520   5.558   5.581   5.621   5.639
  5.651   5.663   5.675   5.778   6.026   6.558   6.916   7.106
  7.131   7.189   7.460   7.555  24.063  24.134  24.192  24.258
 24.321  49.788
 --------------------------------------------------------------
 
          Ground-State Mulliken Net Atomic Charges

     Atom                 Charge (a.u.)    Spin (a.u.)
  --------------------------------------------------------
      1 C                    -0.260168       0.031325
      2 C                    -0.249656      -0.107639
      3 C                    -0.289829       0.931200
      4 O                    -0.294990       0.074477
      5 C                    -0.646205      -0.004460
      6 C                    -0.652178       0.016124
      7 H                     0.264403       0.002124
      8 H                     0.187973       0.081247
      9 H                     0.227949       0.009802
     10 H                     0.221506      -0.036510
     11 H                     0.283312      -0.001846
     12 H                     0.207696       0.000769
     13 H                     0.187740      -0.002981
     14 H                     0.196636       0.001033
     15 H                     0.208736       0.002869
     16 H                     0.199100       0.002947
     17 H                     0.207977      -0.000483
  --------------------------------------------------------
  Sum of atomic charges =     0.000000
  Sum of spin   charges =     1.000000

 -----------------------------------------------------------------
                    Cartesian Multipole Moments
 -----------------------------------------------------------------
    Charge (ESU x 10^10)
                 0.0000
    Dipole Moment (Debye)
         X       1.2043      Y       0.7581      Z       0.7570
       Tot       1.6118
    Quadrupole Moments (Debye-Ang)
        XX     -45.3154     XY      -1.7273     YY     -41.0566
        XZ      -3.2611     YZ       1.4656     ZZ     -37.4993
    Octapole Moments (Debye-Ang^2)
       XXX       8.2126    XXY       3.0912    XYY      -3.9571
       YYY       2.9535    XXZ       8.3105    XYZ      -3.5263
       YYZ      -0.8729    XZZ     -10.0147    YZZ       0.9351
       ZZZ       2.9269
    Hexadecapole Moments (Debye-Ang^3)
      XXXX    -832.0101   XXXY     -19.0071   XXYY    -169.9528
      XYYY      -2.8009   YYYY    -239.8141   XXXZ     -36.6662
      XXYZ      10.9798   XYYZ      -3.1650   YYYZ      -0.1444
      XXZZ    -128.1497   XYZZ      -2.4294   YYZZ     -56.2010
      XZZZ      -6.9904   YZZZ       3.6001   ZZZZ     -91.3981
 -----------------------------------------------------------------
 Calculating analytic gradient of the SCF energy
 Gradient of Coulomb and Exchange Energy
            1           2           3           4           5           6
    1  -4.2088420   1.8466463   0.3261020  11.9256142  -3.2219672  -2.3755149
    2   0.0407434   0.5965339   1.2772886   0.0869760  -1.6025760   2.4618953
    3   0.5352170  -0.0376638   1.0361914   0.8995489  -0.1677039  -0.3221985
            7           8           9          10          11          12
    1  -0.1013814   0.5546161   0.1047438   0.4577570   0.8656960  -0.9634370
    2   0.2939059  -4.3689632  -0.9377718   2.0691663  -2.0739275  -0.9329063
    3   4.7847960   1.1044494  -4.2908903   4.1926497  -4.1783699  -3.6395693
           13          14          15          16          17
    1  -0.2050259  -3.6985642  -0.4234560  -3.3706233   2.4876366
    2  -3.7266803   0.8307470   0.7745572   2.1080603   3.1029512
    3   1.2158348   1.0123250  -3.7969533   0.8955785   0.7567584
 Gradient of SCF Energy
            1           2           3           4           5           6
    1  -0.0004796   0.0006246   0.0030229  -0.0037133   0.0002970   0.0001399
    2   0.0000570   0.0026761  -0.0050385   0.0001884   0.0000970  -0.0006903
    3   0.0006171  -0.0016253   0.0021403  -0.0057949   0.0002323  -0.0001705
            7           8           9          10          11          12
    1   0.0001955   0.0004314  -0.0000198  -0.0008438   0.0012919   0.0000619
    2   0.0002218  -0.0015816  -0.0002553   0.0026502   0.0008848  -0.0000604
    3   0.0019014   0.0008316  -0.0023406   0.0016327   0.0039726  -0.0018486
           13          14          15          16          17
    1   0.0003181  -0.0014614  -0.0000746  -0.0014860   0.0016953
    2  -0.0017414   0.0006597  -0.0001693   0.0007069   0.0013948
    3   0.0006725   0.0005072  -0.0019024   0.0005781   0.0005966
 Max gradient component =       5.795E-03
 RMS gradient           =       1.777E-03
 Gradient time:  CPU 129.43 s  wall 129.59 s
 Geometry Optimization Parameters
   NAtoms,    NIC,     NZ,  NCons,   NDum,   NFix, NCnnct, MaxDiis
       17     113       0       0       0       0       0       0


** GEOMETRY OPTIMIZATION IN DELOCALIZED INTERNAL COORDINATES **
   Searching for a Minimum

   Optimization Cycle:   1

                       Coordinates (Angstroms)
     ATOM              X           Y           Z
      1  C         0.996903   -0.010155   -0.347119
      2  C        -0.343449    0.572480    0.118476
      3  C        -1.516779   -0.237939   -0.327123
      4  O        -2.765498    0.104898    0.119210
      5  C         2.147154    0.918218    0.043547
      6  C         1.218849   -1.412071    0.222185
      7  H         0.966886   -0.080666   -1.444229
      8  H        -0.433938    1.613773   -0.241311
      9  H        -0.331836    0.632786    1.220755
     10  H        -1.553738   -0.630304   -1.339366
     11  H        -2.698326    0.477829    1.010755
     12  H         2.204613    1.015412    1.134885
     13  H         2.015547    1.920515   -0.377222
     14  H         3.107213    0.525341   -0.306645
     15  H         1.246470   -1.373359    1.318643
     16  H         2.170518   -1.829267   -0.122924
     17  H         0.414511   -2.094441   -0.066813
   Point Group: c1    Number of degrees of freedom:    45


   Energy is   -272.214405104


 Attempting to Generate Delocalized Internal Coordinates
 GETINT wrote B to file, NVib is           45
 calling HSSCONV
 HCONV 3*NATOMS:           51
 wrote HINT to file
  writing hessian 

 45 Hessian modes will be used to form the next step
  Hessian Eigenvalues:
     0.004697    0.005304    0.005354    0.009972    0.019655    0.020428
     0.037342    0.041891    0.048640    0.049501    0.055682    0.055682
     0.055695    0.057069    0.057467    0.095249    0.129478    0.148721
     0.160000    0.160000    0.160000    0.160000    0.160000    0.160000
     0.160000    0.166703    0.168046    0.219237    0.224396    0.290681
     0.294889    0.295241    0.330149    0.330912    0.332448    0.337061
     0.339613    0.339978    0.342442    0.342514    0.342580    0.343923
     0.352490    0.510362    0.536369

 Minimum Search - Taking Simple RFO Step
 Searching for Lamda that Minimizes Along All modes
 Value Taken    Lamda =  -0.00064832
 Step Taken.  Stepsize is  0.147908

                             Maximum     Tolerance    Cnvgd?
         Gradient           0.004794      0.000300      NO
         Displacement       0.070275      0.001200      NO
         Energy change     *********      0.000001      NO


 New Cartesian Coordinates Obtained by Inverse Iteration

 Displacement from previous Coordinates is:  0.103466
 ----------------------------------------------------
       Standard Nuclear Orientation (Angstroms)
    I     Atom         X            Y            Z
 ----------------------------------------------------
    1      C       0.997443    -0.007501    -0.351327
    2      C      -0.342196     0.579211     0.118565
    3      C      -1.515692    -0.219744    -0.345229
    4      O      -2.760820     0.082432     0.133371
    5      C       2.150561     0.920112     0.042065
    6      C       1.211380    -1.411143     0.223633
    7      H       0.965456    -0.079188    -1.451317
    8      H      -0.428079     1.625802    -0.235746
    9      H      -0.335528     0.630923     1.225063
   10      H      -1.544409    -0.647295    -1.347386
   11      H      -2.693476     0.469280     1.014546
   12      H       2.205128     1.015134     1.136619
   13      H       2.020122     1.926023    -0.378047
   14      H       3.112954     0.525077    -0.307392
   15      H       1.242277    -1.367399     1.322782
   16      H       2.161335    -1.837826    -0.123146
   17      H       0.398642    -2.090846    -0.061351
 ----------------------------------------------------
 Molecular Point Group                 C1    NOp =  1
 Largest Abelian Subgroup              C1    NOp =  1
 Nuclear Repulsion Energy =   244.3980763435 hartrees
 There are       25 alpha and       24 beta electrons
 Applying Cartesian multipole field
    Component          Value
    ---------          -----
     (2,0,0)        1.00000E-11
     (0,2,0)        2.00000E-11
     (0,0,2)       -3.00000E-11
 Nucleus-field energy     =     0.0000000069 hartrees
 Requested basis set is non-standard
 There are 138 shells and 314 basis functions
 A cutoff of  1.0D-11 yielded   8953 shell pairs
 There are     45869 function pairs (     55032 Cartesian)
 Smallest overlap matrix eigenvalue = 1.32E-05
 Guess MOs from SCF MO coefficient file
Reading MOs from coefficient file
Reading MOs from coefficient file
 An unrestricted hybrid HF-DFT SCF calculation will be
 performed using Pulay DIIS extrapolation
 Exchange:     0.5679 Hartree-Fock + 1.0000 M08SO
 SCF converges when DIIS error is below 1.0E-08
Geometry optimization detected.  Setting ReadMinima to 0
Setting SaveMinima to 0
 Inaccurate integrated density:
   Number of electrons =    49
   Numerical integral  =    48.982948435936
   Relative error      =    -0.0347991103 %
 ---------------------------------------
  Cycle       Energy         DIIS Error
 ---------------------------------------
    1    -272.2127957666      4.48E-04
    2    -272.2147042176      4.85E-05
    3    -272.2147694145      2.75E-05
    4    -272.2147821120      1.05E-05
    5    -272.2147854454      2.66E-06
    6    -272.2147857490      1.43E-06
    7    -272.2147858403      6.02E-07
    8    -272.2147858599      2.14E-07
    9    -272.2147858618      6.50E-08
   10    -272.2147858618      1.30E-08
   11    -272.2147858619      5.99E-09 Convergence criterion met
 ---------------------------------------
 <S^2> = 0.7546
 SCF time:  CPU 1010.49 s  wall 1017.67 s
 SCF   energy in the final basis set = -272.2147858619
 Total energy in the final basis set = -272.2147858619
 Analysis of SCF Wavefunction
 
 --------------------------------------------------------------
                    Orbital Energies (a.u.)
 --------------------------------------------------------------
 
 Alpha MOs
 -- Occupied --
-19.593 -10.544 -10.505 -10.503 -10.487 -10.483  -1.169  -0.919
 -0.820  -0.777  -0.723  -0.655  -0.584  -0.550  -0.546  -0.510
 -0.485  -0.482  -0.457  -0.445  -0.430  -0.400  -0.395  -0.390
 -0.231
 -- Virtual --
 -0.026  -0.018  -0.008  -0.006   0.009   0.017   0.019   0.024
  0.028   0.045   0.054   0.062   0.072   0.077   0.084   0.091
  0.099   0.108   0.119   0.126   0.128   0.130   0.137   0.139
  0.142   0.150   0.155   0.160   0.169   0.183   0.188   0.202
  0.204   0.215   0.219   0.238   0.246   0.251   0.264   0.265
  0.274   0.277   0.294   0.305   0.317   0.318   0.330   0.333
  0.359   0.381   0.394   0.418   0.437   0.473   0.480   0.484
  0.492   0.510   0.529   0.544   0.555   0.558   0.565   0.576
  0.578   0.580   0.587   0.612   0.617   0.619   0.628   0.640
  0.652   0.659   0.679   0.682   0.697   0.698   0.717   0.735
  0.751   0.766   0.783   0.819   0.820   0.845   0.873   0.912
  0.915   0.926   0.945   0.948   0.983   1.016   1.026   1.045
  1.063   1.081   1.100   1.112   1.124   1.128   1.136   1.150
  1.159   1.175   1.183   1.196   1.216   1.246   1.258   1.269
  1.290   1.295   1.312   1.325   1.340   1.351   1.356   1.364
  1.372   1.388   1.408   1.411   1.441   1.454   1.471   1.485
  1.492   1.519   1.529   1.541   1.570   1.575   1.584   1.595
  1.629   1.635   1.656   1.681   1.708   1.718   1.759   1.795
  1.904   2.000   2.168   2.253   2.343   2.398   2.431   2.470
  2.532   2.541   2.581   2.623   2.659   2.674   2.697   2.725
  2.735   2.749   2.778   2.816   2.827   2.852   2.864   2.875
  2.908   2.926   2.937   2.946   2.963   2.974   3.004   3.049
  3.078   3.105   3.129   3.139   3.178   3.195   3.210   3.243
  3.249   3.265   3.311   3.320   3.339   3.349   3.357   3.377
  3.391   3.420   3.440   3.448   3.468   3.484   3.490   3.529
  3.558   3.569   3.595   3.619   3.635   3.667   3.682   3.705
  3.715   3.729   3.751   3.783   3.791   3.814   3.835   3.868
  3.905   3.917   3.948   3.956   3.966   3.970   4.002   4.017
  4.030   4.056   4.065   4.110   4.137   4.146   4.171   4.179
  4.187   4.191   4.209   4.218   4.228   4.265   4.290   4.320
  4.363   4.378   4.403   4.442   4.472   4.474   4.514   4.550
  4.562   4.566   4.604   4.649   4.673   4.696   4.725   4.792
  4.843   5.047   5.120   5.148   5.171   5.269   5.343   5.384
  5.416   5.472   5.516   5.525   5.547   5.608   5.627   5.638
  5.650   5.662   5.769   6.056   6.560   6.914   7.113   7.127
  7.195   7.480   7.570  24.054  24.121  24.177  24.241  24.299
 49.788
 
 Beta MOs
 -- Occupied --
-19.588 -10.527 -10.505 -10.504 -10.487 -10.483  -1.157  -0.918
 -0.814  -0.777  -0.710  -0.654  -0.577  -0.539  -0.538  -0.501
 -0.482  -0.461  -0.455  -0.432  -0.428  -0.397  -0.394  -0.388
 -- Virtual --
 -0.030  -0.019  -0.011  -0.011   0.001   0.007   0.014   0.018
  0.025   0.027   0.044   0.051   0.061   0.070   0.075   0.083
  0.089   0.097   0.105   0.116   0.124   0.126   0.127   0.136
  0.138   0.141   0.149   0.154   0.158   0.166   0.181   0.187
  0.203   0.204   0.215   0.221   0.237   0.249   0.252   0.264
  0.270   0.275   0.276   0.295   0.308   0.317   0.322   0.330
  0.342   0.361   0.382   0.398   0.420   0.439   0.475   0.484
  0.488   0.496   0.513   0.532   0.548   0.557   0.558   0.566
  0.576   0.579   0.585   0.594   0.614   0.618   0.626   0.639
  0.645   0.655   0.671   0.686   0.690   0.699   0.706   0.724
  0.739   0.754   0.773   0.796   0.820   0.822   0.851   0.877
  0.913   0.916   0.929   0.947   0.953   0.986   1.024   1.026
  1.048   1.067   1.086   1.107   1.118   1.127   1.130   1.138
  1.158   1.162   1.180   1.188   1.200   1.220   1.252   1.260
  1.272   1.293   1.300   1.317   1.329   1.352   1.353   1.359
  1.368   1.375   1.391   1.412   1.413   1.447   1.457   1.475
  1.489   1.503   1.529   1.540   1.551   1.571   1.578   1.586
  1.595   1.631   1.636   1.661   1.684   1.713   1.724   1.765
  1.807   1.917   2.021   2.177   2.257   2.355   2.401   2.436
  2.491   2.536   2.546   2.605   2.628   2.670   2.694   2.713
  2.729   2.746   2.759   2.808   2.833   2.853   2.887   2.916
  2.920   2.937   2.941   2.949   2.968   2.982   2.998   3.039
  3.071   3.105   3.121   3.143   3.154   3.206   3.208   3.228
  3.266   3.284   3.288   3.328   3.346   3.354   3.363   3.388
  3.392   3.407   3.447   3.460   3.473   3.494   3.510   3.528
  3.542   3.576   3.590   3.606   3.631   3.654   3.688   3.693
  3.712   3.729   3.741   3.759   3.788   3.814   3.831   3.842
  3.871   3.912   3.921   3.956   3.961   3.970   3.986   4.012
  4.024   4.042   4.059   4.073   4.125   4.148   4.152   4.173
  4.184   4.190   4.199   4.214   4.223   4.261   4.278   4.305
  4.330   4.368   4.383   4.420   4.458   4.478   4.479   4.524
  4.561   4.570   4.573   4.621   4.659   4.690   4.729   4.733
  4.839   4.861   5.104   5.145   5.163   5.183   5.269   5.351
  5.394   5.414   5.495   5.528   5.546   5.578   5.609   5.627
  5.639   5.650   5.663   5.773   6.055   6.558   6.915   7.121
  7.135   7.195   7.470   7.553  24.055  24.126  24.177  24.245
 24.315  49.793
 --------------------------------------------------------------
 
          Ground-State Mulliken Net Atomic Charges

     Atom                 Charge (a.u.)    Spin (a.u.)
  --------------------------------------------------------
      1 C                    -0.268382       0.035287
      2 C                    -0.239197      -0.118598
      3 C                    -0.291780       0.940329
      4 O                    -0.294588       0.072020
      5 C                    -0.645130      -0.003439
      6 C                    -0.645312       0.015745
      7 H                     0.262677       0.002179
      8 H                     0.186282       0.081502
      9 H                     0.224374       0.011871
     10 H                     0.225611      -0.038685
     11 H                     0.282639      -0.001692
     12 H                     0.206302       0.000835
     13 H                     0.187000      -0.003026
     14 H                     0.195600       0.000974
     15 H                     0.207386       0.002770
     16 H                     0.198604       0.002917
     17 H                     0.207914      -0.000989
  --------------------------------------------------------
  Sum of atomic charges =     0.000000
  Sum of spin   charges =     1.000000

 -----------------------------------------------------------------
                    Cartesian Multipole Moments
 -----------------------------------------------------------------
    Charge (ESU x 10^10)
                 0.0000
    Dipole Moment (Debye)
         X       1.1938      Y       0.7517      Z       0.7538
       Tot       1.5995
    Quadrupole Moments (Debye-Ang)
        XX     -45.3460     XY      -1.7746     YY     -41.0397
        XZ      -3.2302     YZ       1.5022     ZZ     -37.5187
    Octapole Moments (Debye-Ang^2)
       XXX       7.9848    XXY       3.2655    XYY      -4.1309
       YYY       2.7487    XXZ       8.2013    XYZ      -3.5728
       YYZ      -0.8804    XZZ     -10.0408    YZZ       0.8018
       ZZZ       3.1241
    Hexadecapole Moments (Debye-Ang^3)
      XXXX    -831.0315   XXXY     -20.9689   XXYY    -169.6461
      XYYY      -3.8212   YYYY    -240.2303   XXXZ     -35.9021
      XXYZ      11.0493   XYYZ      -2.9939   YYYZ      -0.0854
      XXZZ    -128.2371   XYZZ      -2.6845   YYZZ     -56.4388
      XZZZ      -6.8761   YZZZ       3.8297   ZZZZ     -92.5249
 -----------------------------------------------------------------
 Calculating analytic gradient of the SCF energy
 Gradient of Coulomb and Exchange Energy
            1           2           3           4           5           6
    1  -4.2374756   1.7886752   0.3712683  11.8810149  -3.2706746  -2.3224201
    2  -0.0386787   0.5440559   0.8685004   0.4140475  -1.6065582   2.5005928
    3   0.6535766  -0.2326068   1.5657315   0.5876685  -0.2115865  -0.3478249
            7           8           9          10          11          12
    1  -0.0861319   0.5685888   0.1153435   0.3964741   0.9168744  -0.9446222
    2   0.3073798  -4.3599489  -0.8967650   2.2496097  -2.1448250  -0.9171853
    3   4.7784882   1.1027983  -4.3068307   4.1773453  -4.1833545  -3.6408444
           13          14          15          16          17
    1  -0.2013857  -3.6998374  -0.4326280  -3.3561058   2.5130421
    2  -3.7270661   0.8424279   0.7515832   2.1319237   3.0809062
    3   1.2126923   1.0077077  -3.8019089   0.9019253   0.7370229
 Gradient of SCF Energy
            1           2           3           4           5           6
    1  -0.0003225   0.0012300   0.0008778  -0.0016282  -0.0000535  -0.0000753
    2  -0.0001006   0.0011297  -0.0018396   0.0012646   0.0000973  -0.0000743
    3   0.0000879   0.0001293   0.0004613   0.0000287   0.0001600  -0.0000418
            7           8           9          10          11          12
    1   0.0000909  -0.0003734   0.0000341   0.0001569  -0.0000668   0.0000742
    2   0.0000445  -0.0005139   0.0001542   0.0000815  -0.0002505   0.0000470
    3  -0.0000704  -0.0001984   0.0000203  -0.0011450   0.0006281  -0.0000574
           13          14          15          16          17
    1   0.0000706  -0.0000350  -0.0000308  -0.0000097   0.0000606
    2   0.0000310  -0.0000061  -0.0001079   0.0000915  -0.0000486
    3   0.0000161  -0.0000328  -0.0000177  -0.0000014   0.0000333
 Max gradient component =       1.840E-03
 RMS gradient           =       5.227E-04
 Gradient time:  CPU 128.22 s  wall 128.36 s
 Geometry Optimization Parameters
   NAtoms,    NIC,     NZ,  NCons,   NDum,   NFix, NCnnct, MaxDiis
       17     113       0       0       0       0       0       0

 Cartesian Hessian Update
 Hessian Updated using BFGS Update


** GEOMETRY OPTIMIZATION IN DELOCALIZED INTERNAL COORDINATES **
   Searching for a Minimum

   Optimization Cycle:   2

                       Coordinates (Angstroms)
     ATOM              X           Y           Z
      1  C         0.997443   -0.007501   -0.351327
      2  C        -0.342196    0.579211    0.118565
      3  C        -1.515692   -0.219744   -0.345229
      4  O        -2.760820    0.082432    0.133371
      5  C         2.150561    0.920112    0.042065
      6  C         1.211380   -1.411143    0.223633
      7  H         0.965456   -0.079188   -1.451317
      8  H        -0.428079    1.625802   -0.235746
      9  H        -0.335528    0.630923    1.225063
     10  H        -1.544409   -0.647295   -1.347386
     11  H        -2.693476    0.469280    1.014546
     12  H         2.205128    1.015134    1.136619
     13  H         2.020122    1.926023   -0.378047
     14  H         3.112954    0.525077   -0.307392
     15  H         1.242277   -1.367399    1.322782
     16  H         2.161335   -1.837826   -0.123146
     17  H         0.398642   -2.090846   -0.061351
   Point Group: c1    Number of degrees of freedom:    45


   Energy is   -272.214785862

 GETINT wrote B to file, NVib is           45
 Hessian Updated using BFGS Update

 40 Hessian modes will be used to form the next step
  Hessian Eigenvalues:
     0.004624    0.005291    0.005355    0.009911    0.014729    0.020396
     0.037328    0.042769    0.048589    0.049502    0.055656    0.055682
     0.055807    0.057070    0.057468    0.095539    0.130136    0.148953
     0.159500    0.162509    0.166734    0.168493    0.218720    0.226572
     0.290095    0.295027    0.296833    0.324911    0.331030    0.333550
     0.337646    0.339780    0.340384    0.342463    0.342549    0.343075
     0.344197    0.377988    0.502761    0.541903

 Minimum Search - Taking Simple RFO Step
 Searching for Lamda that Minimizes Along All modes
 Value Taken    Lamda =  -0.00011207
 Step Taken.  Stepsize is  0.087608

                             Maximum     Tolerance    Cnvgd?
         Gradient           0.001386      0.000300      NO
         Displacement       0.032191      0.001200      NO
         Energy change     -0.000381      0.000001      NO


 New Cartesian Coordinates Obtained by Inverse Iteration

 Displacement from previous Coordinates is:  0.067201
 ----------------------------------------------------
       Standard Nuclear Orientation (Angstroms)
    I     Atom         X            Y            Z
 ----------------------------------------------------
    1      C       0.996663    -0.006570    -0.352035
    2      C      -0.342911     0.579946     0.120754
    3      C      -1.514929    -0.212301    -0.352070
    4      O      -2.758725     0.070054     0.134018
    5      C       2.150494     0.920512     0.040204
    6      C       1.210273    -1.409845     0.224066
    7      H       0.961881    -0.078566    -1.452151
    8      H      -0.421855     1.632392    -0.221116
    9      H      -0.338706     0.618976     1.228179
   10      H      -1.540392    -0.656980    -1.345232
   11      H      -2.690874     0.479365     1.003777
   12      H       2.204427     1.015067     1.135273
   13      H       2.019063     1.926678    -0.379830
   14      H       3.113302     0.525525    -0.309233
   15      H       1.247202    -1.362941     1.323288
   16      H       2.157136    -1.841024    -0.126877
   17      H       0.393048    -2.087239    -0.055313
 ----------------------------------------------------
 Molecular Point Group                 C1    NOp =  1
 Largest Abelian Subgroup              C1    NOp =  1
 Nuclear Repulsion Energy =   244.4896076391 hartrees
 There are       25 alpha and       24 beta electrons
 Applying Cartesian multipole field
    Component          Value
    ---------          -----
     (2,0,0)        1.00000E-11
     (0,2,0)        2.00000E-11
     (0,0,2)       -3.00000E-11
 Nucleus-field energy     =     0.0000000069 hartrees
 Requested basis set is non-standard
 There are 138 shells and 314 basis functions
 A cutoff of  1.0D-11 yielded   8955 shell pairs
 There are     45887 function pairs (     55053 Cartesian)
 Smallest overlap matrix eigenvalue = 1.31E-05
 Guess MOs from SCF MO coefficient file
Reading MOs from coefficient file
Reading MOs from coefficient file
 An unrestricted hybrid HF-DFT SCF calculation will be
 performed using Pulay DIIS extrapolation
 Exchange:     0.5679 Hartree-Fock + 1.0000 M08SO
 SCF converges when DIIS error is below 1.0E-08
Geometry optimization detected.  Setting ReadMinima to 0
Setting SaveMinima to 0
 Inaccurate integrated density:
   Number of electrons =    49
   Numerical integral  =    48.994665657285
   Relative error      =    -0.0108864137 %
 ---------------------------------------
  Cycle       Energy         DIIS Error
 ---------------------------------------
    1    -272.2137289014      2.16E-04
    2    -272.2148411770      2.66E-05
    3    -272.2148587501      1.21E-05
    4    -272.2148613262      6.26E-06
    5    -272.2148621286      1.60E-06
    6    -272.2148622129      7.61E-07
    7    -272.2148622359      3.21E-07
    8    -272.2148622408      9.19E-08
    9    -272.2148622412      3.51E-08
   10    -272.2148622410      8.88E-09 Convergence criterion met
 ---------------------------------------
 <S^2> = 0.7547
 SCF time:  CPU 920.59 s  wall 928.20 s
 SCF   energy in the final basis set = -272.2148622410
 Total energy in the final basis set = -272.2148622410
 Analysis of SCF Wavefunction
 
 --------------------------------------------------------------
                    Orbital Energies (a.u.)
 --------------------------------------------------------------
 
 Alpha MOs
 -- Occupied --
-19.593 -10.543 -10.505 -10.503 -10.487 -10.483  -1.171  -0.919
 -0.820  -0.777  -0.723  -0.655  -0.585  -0.550  -0.546  -0.510
 -0.486  -0.482  -0.456  -0.445  -0.430  -0.400  -0.395  -0.390
 -0.229
 -- Virtual --
 -0.026  -0.018  -0.008  -0.006   0.009   0.017   0.019   0.024
  0.029   0.045   0.054   0.062   0.073   0.077   0.084   0.091
  0.099   0.108   0.119   0.126   0.128   0.129   0.137   0.139
  0.142   0.150   0.155   0.160   0.168   0.183   0.188   0.202
  0.204   0.216   0.219   0.238   0.246   0.252   0.263   0.265
  0.274   0.277   0.294   0.305   0.318   0.319   0.330   0.333
  0.359   0.381   0.394   0.419   0.437   0.473   0.480   0.485
  0.493   0.510   0.529   0.544   0.555   0.558   0.565   0.576
  0.579   0.579   0.587   0.612   0.617   0.619   0.629   0.641
  0.651   0.659   0.678   0.682   0.697   0.698   0.716   0.736
  0.752   0.766   0.787   0.818   0.820   0.844   0.873   0.912
  0.914   0.926   0.943   0.949   0.982   1.018   1.026   1.047
  1.063   1.081   1.100   1.111   1.125   1.129   1.135   1.152
  1.159   1.174   1.182   1.195   1.216   1.246   1.258   1.269
  1.290   1.295   1.312   1.325   1.343   1.352   1.355   1.364
  1.372   1.387   1.409   1.411   1.440   1.454   1.471   1.484
  1.494   1.522   1.532   1.542   1.569   1.573   1.583   1.595
  1.629   1.635   1.660   1.680   1.708   1.717   1.759   1.799
  1.906   1.996   2.176   2.253   2.347   2.398   2.433   2.471
  2.531   2.543   2.580   2.624   2.660   2.675   2.697   2.725
  2.736   2.750   2.777   2.818   2.827   2.853   2.863   2.876
  2.909   2.928   2.938   2.947   2.964   2.975   3.003   3.050
  3.078   3.105   3.128   3.139   3.178   3.196   3.212   3.243
  3.246   3.265   3.309   3.322   3.338   3.348   3.357   3.377
  3.389   3.418   3.441   3.449   3.469   3.484   3.491   3.528
  3.558   3.570   3.595   3.618   3.634   3.666   3.681   3.705
  3.717   3.728   3.752   3.783   3.792   3.815   3.836   3.870
  3.906   3.918   3.948   3.955   3.966   3.970   4.002   4.016
  4.032   4.056   4.065   4.109   4.139   4.145   4.170   4.178
  4.186   4.191   4.210   4.215   4.227   4.265   4.289   4.320
  4.364   4.377   4.401   4.444   4.471   4.473   4.514   4.550
  4.561   4.568   4.608   4.647   4.678   4.700   4.725   4.794
  4.844   5.046   5.118   5.149   5.172   5.269   5.347   5.385
  5.417   5.475   5.518   5.533   5.547   5.607   5.625   5.637
  5.647   5.661   5.771   6.073   6.568   6.913   7.116   7.130
  7.201   7.483   7.570  24.055  24.123  24.176  24.241  24.304
 49.791
 
 Beta MOs
 -- Occupied --
-19.588 -10.526 -10.505 -10.504 -10.487 -10.483  -1.159  -0.918
 -0.814  -0.777  -0.711  -0.654  -0.578  -0.539  -0.538  -0.501
 -0.482  -0.461  -0.455  -0.432  -0.429  -0.397  -0.394  -0.389
 -- Virtual --
 -0.030  -0.019  -0.011  -0.011   0.001   0.007   0.014   0.018
  0.025   0.027   0.044   0.051   0.061   0.070   0.075   0.083
  0.089   0.097   0.105   0.116   0.124   0.126   0.127   0.136
  0.138   0.140   0.148   0.154   0.158   0.165   0.180   0.187
  0.203   0.204   0.216   0.221   0.237   0.249   0.253   0.263
  0.270   0.275   0.276   0.295   0.308   0.317   0.323   0.330
  0.342   0.361   0.383   0.399   0.421   0.439   0.475   0.483
  0.488   0.497   0.513   0.533   0.548   0.557   0.558   0.567
  0.577   0.579   0.584   0.594   0.614   0.618   0.627   0.640
  0.646   0.654   0.671   0.686   0.690   0.699   0.706   0.723
  0.739   0.755   0.772   0.800   0.820   0.823   0.850   0.877
  0.913   0.916   0.930   0.945   0.954   0.985   1.025   1.027
  1.049   1.066   1.087   1.107   1.117   1.129   1.131   1.138
  1.161   1.162   1.179   1.186   1.200   1.220   1.251   1.260
  1.272   1.293   1.299   1.317   1.328   1.353   1.355   1.359
  1.368   1.375   1.390   1.412   1.414   1.446   1.457   1.474
  1.487   1.505   1.532   1.543   1.552   1.570   1.576   1.585
  1.595   1.630   1.635   1.664   1.684   1.713   1.723   1.764
  1.811   1.919   2.017   2.186   2.256   2.359   2.401   2.437
  2.491   2.536   2.549   2.605   2.628   2.671   2.693   2.716
  2.729   2.749   2.758   2.810   2.837   2.853   2.888   2.914
  2.920   2.936   2.942   2.951   2.967   2.985   2.997   3.041
  3.072   3.104   3.120   3.143   3.153   3.206   3.208   3.230
  3.266   3.284   3.290   3.327   3.347   3.353   3.363   3.387
  3.393   3.405   3.447   3.460   3.472   3.494   3.513   3.527
  3.542   3.577   3.590   3.606   3.630   3.654   3.686   3.690
  3.712   3.731   3.742   3.759   3.787   3.814   3.833   3.843
  3.872   3.913   3.921   3.957   3.960   3.970   3.986   4.013
  4.024   4.042   4.059   4.074   4.126   4.149   4.153   4.172
  4.183   4.188   4.199   4.214   4.222   4.261   4.275   4.303
  4.331   4.368   4.383   4.418   4.459   4.476   4.478   4.524
  4.558   4.572   4.575   4.621   4.657   4.690   4.732   4.742
  4.840   4.865   5.106   5.145   5.162   5.183   5.270   5.352
  5.395   5.414   5.498   5.535   5.546   5.582   5.607   5.625
  5.637   5.647   5.662   5.775   6.074   6.566   6.915   7.121
  7.141   7.202   7.474   7.553  24.056  24.127  24.176  24.245
 24.322  49.797
 --------------------------------------------------------------
 
          Ground-State Mulliken Net Atomic Charges

     Atom                 Charge (a.u.)    Spin (a.u.)
  --------------------------------------------------------
      1 C                    -0.276427       0.036525
      2 C                    -0.231879      -0.124361
      3 C                    -0.294749       0.943623
      4 O                    -0.292687       0.071832
      5 C                    -0.645748      -0.003039
      6 C                    -0.642072       0.016050
      7 H                     0.261841       0.002297
      8 H                     0.184673       0.081499
      9 H                     0.224158       0.013672
     10 H                     0.227849      -0.039299
     11 H                     0.282330      -0.001694
     12 H                     0.206243       0.000875
     13 H                     0.186912      -0.003058
     14 H                     0.195477       0.000944
     15 H                     0.206810       0.002683
     16 H                     0.199047       0.002879
     17 H                     0.208221      -0.001429
  --------------------------------------------------------
  Sum of atomic charges =     0.000000
  Sum of spin   charges =     1.000000

 -----------------------------------------------------------------
                    Cartesian Multipole Moments
 -----------------------------------------------------------------
    Charge (ESU x 10^10)
                 0.0000
    Dipole Moment (Debye)
         X       1.1848      Y       0.7701      Z       0.7492
       Tot       1.5994
    Quadrupole Moments (Debye-Ang)
        XX     -45.3127     XY      -1.8677     YY     -40.9885
        XZ      -3.1997     YZ       1.5401     ZZ     -37.5927
    Octapole Moments (Debye-Ang^2)
       XXX       7.8202    XXY       3.5661    XYY      -4.2947
       YYY       2.7491    XXZ       8.0958    XYZ      -3.6579
       YYZ      -0.8507    XZZ      -9.8761    YZZ       0.7595
       ZZZ       3.1681
    Hexadecapole Moments (Debye-Ang^3)
      XXXX    -829.7071   XXXY     -22.3861   XXYY    -169.1103
      XYYY      -4.3310   YYYY    -240.0194   XXXZ     -35.5655
      XXYZ      11.2577   XYYZ      -3.0639   YYYZ      -0.0117
      XXZZ    -128.5523   XYZZ      -2.8037   YYZZ     -56.4396
      XZZZ      -6.8142   YZZZ       3.8866   ZZZZ     -92.9266
 -----------------------------------------------------------------
 Calculating analytic gradient of the SCF energy
 Gradient of Coulomb and Exchange Energy
            1           2           3           4           5           6
    1  -4.2541294   1.7863638   0.3605742  11.8904247  -3.3019820  -2.2989543
    2  -0.0979510   0.4942500   0.6996852   0.6400014  -1.5818515   2.5071945
    3   0.6485536  -0.2173622   1.7110268   0.4879339  -0.2209781  -0.3493752
            7           8           9          10          11          12
    1  -0.0688791   0.5452826   0.1308500   0.3922205   0.9241974  -0.9363336
    2   0.3132441  -4.3721451  -0.8454305   2.3348585  -2.2496733  -0.9139328
    3   4.7773805   1.0440655  -4.3128634   4.1630595  -4.1444332  -3.6391294
           13          14          15          16          17
    1  -0.1929768  -3.7037579  -0.4536795  -3.3463572   2.5271366
    2  -3.7262782   0.8435846   0.7374652   2.1490733   3.0679058
    3   1.2157170   1.0064503  -3.8014935   0.9158516   0.7155963
 Gradient of SCF Energy
            1           2           3           4           5           6
    1  -0.0001696   0.0006312  -0.0003268   0.0000455  -0.0000245  -0.0000209
    2  -0.0000648   0.0002852  -0.0005309   0.0007716  -0.0000446   0.0001336
    3   0.0000500   0.0002709   0.0003137   0.0003586   0.0000212  -0.0000187
            7           8           9          10          11          12
    1   0.0000208  -0.0002530  -0.0000592   0.0000109   0.0000095  -0.0000015
    2   0.0000066   0.0000338   0.0000725  -0.0000035  -0.0005615  -0.0000014
    3  -0.0002324  -0.0002526   0.0001266  -0.0003678  -0.0003812   0.0002051
           13          14          15          16          17
    1  -0.0000557   0.0001968  -0.0000262   0.0002125  -0.0001897
    2   0.0002044  -0.0000757  -0.0000070  -0.0000623  -0.0001559
    3  -0.0000740  -0.0000837   0.0002195  -0.0000717  -0.0000836
 Max gradient component =       7.716E-04
 RMS gradient           =       2.402E-04
 Gradient time:  CPU 136.91 s  wall 137.24 s
 Geometry Optimization Parameters
   NAtoms,    NIC,     NZ,  NCons,   NDum,   NFix, NCnnct, MaxDiis
       17     113       0       0       0       0       0       0

 Cartesian Hessian Update
 Hessian Updated using BFGS Update


** GEOMETRY OPTIMIZATION IN DELOCALIZED INTERNAL COORDINATES **
   Searching for a Minimum

   Optimization Cycle:   3

                       Coordinates (Angstroms)
     ATOM              X           Y           Z
      1  C         0.996663   -0.006570   -0.352035
      2  C        -0.342911    0.579946    0.120754
      3  C        -1.514929   -0.212301   -0.352070
      4  O        -2.758725    0.070054    0.134018
      5  C         2.150494    0.920512    0.040204
      6  C         1.210273   -1.409845    0.224066
      7  H         0.961881   -0.078566   -1.452151
      8  H        -0.421855    1.632392   -0.221116
      9  H        -0.338706    0.618976    1.228179
     10  H        -1.540392   -0.656980   -1.345232
     11  H        -2.690874    0.479365    1.003777
     12  H         2.204427    1.015067    1.135273
     13  H         2.019063    1.926678   -0.379830
     14  H         3.113302    0.525525   -0.309233
     15  H         1.247202   -1.362941    1.323288
     16  H         2.157136   -1.841024   -0.126877
     17  H         0.393048   -2.087239   -0.055313
   Point Group: c1    Number of degrees of freedom:    45


   Energy is   -272.214862241

 GETINT wrote B to file, NVib is           45
 Hessian Updated using BFGS Update

 41 Hessian modes will be used to form the next step
  Hessian Eigenvalues:
     0.004153    0.005214    0.005355    0.008017    0.011705    0.020913
     0.037480    0.042444    0.048599    0.049502    0.055665    0.055685
     0.055796    0.057088    0.057487    0.094867    0.129219    0.148317
     0.159606    0.160086    0.163850    0.166818    0.168546    0.218567
     0.225381    0.290327    0.295020    0.296806    0.325955    0.331694
     0.333524    0.337624    0.339782    0.340693    0.342495    0.342551
     0.343484    0.351158    0.371727    0.525728    0.554267

 Minimum Search - Taking Simple RFO Step
 Searching for Lamda that Minimizes Along All modes
 Value Taken    Lamda =  -0.00004597
 Step Taken.  Stepsize is  0.080662

                             Maximum     Tolerance    Cnvgd?
         Gradient           0.000554      0.000300      NO
         Displacement       0.032506      0.001200      NO
         Energy change     -0.000076      0.000001      NO


 New Cartesian Coordinates Obtained by Inverse Iteration

 Displacement from previous Coordinates is:  0.077401
 ----------------------------------------------------
       Standard Nuclear Orientation (Angstroms)
    I     Atom         X            Y            Z
 ----------------------------------------------------
    1      C       0.995709    -0.006281    -0.351308
    2      C      -0.343942     0.578421     0.124728
    3      C      -1.514598    -0.208541    -0.355368
    4      O      -2.759535     0.062349     0.132070
    5      C       2.149451     0.921336     0.038845
    6      C       1.211630    -1.409690     0.223369
    7      H       0.957809    -0.077618    -1.451067
    8      H      -0.416926     1.635318    -0.205036
    9      H      -0.340397     0.606137     1.232556
   10      H      -1.535075    -0.667933    -1.340948
   11      H      -2.695715     0.499973     0.988654
   12      H       2.204087     1.016885     1.133611
   13      H       2.017558     1.926850    -0.381942
   14      H       3.111883     0.526291    -0.310668
   15      H       1.257073    -1.362031     1.322001
   16      H       2.154765    -1.842813    -0.134325
   17      H       0.391321    -2.085603    -0.049469
 ----------------------------------------------------
 Molecular Point Group                 C1    NOp =  1
 Largest Abelian Subgroup              C1    NOp =  1
 Nuclear Repulsion Energy =   244.5256708396 hartrees
 There are       25 alpha and       24 beta electrons
 Applying Cartesian multipole field
    Component          Value
    ---------          -----
     (2,0,0)        1.00000E-11
     (0,2,0)        2.00000E-11
     (0,0,2)       -3.00000E-11
 Nucleus-field energy     =     0.0000000069 hartrees
 Requested basis set is non-standard
 There are 138 shells and 314 basis functions
 A cutoff of  1.0D-11 yielded   8958 shell pairs
 There are     45892 function pairs (     55058 Cartesian)
 Smallest overlap matrix eigenvalue = 1.30E-05
 Guess MOs from SCF MO coefficient file
Reading MOs from coefficient file
Reading MOs from coefficient file
 An unrestricted hybrid HF-DFT SCF calculation will be
 performed using Pulay DIIS extrapolation
 Exchange:     0.5679 Hartree-Fock + 1.0000 M08SO
 SCF converges when DIIS error is below 1.0E-08
Geometry optimization detected.  Setting ReadMinima to 0
Setting SaveMinima to 0
 ---------------------------------------
  Cycle       Energy         DIIS Error
 ---------------------------------------
    1    -272.2129321303      1.63E-04
    2    -272.2148726695      2.69E-05
    3    -272.2148861797      1.66E-05
    4    -272.2148891754      7.33E-06
    5    -272.2148899529      2.19E-06
    6    -272.2148900613      6.71E-07
    7    -272.2148900867      2.30E-07
    8    -272.2148900904      7.73E-08
    9    -272.2148900909      3.01E-08
   10    -272.2148900908      7.62E-09 Convergence criterion met
 ---------------------------------------
 <S^2> = 0.7547
 SCF time:  CPU 934.61 s  wall 941.59 s
 SCF   energy in the final basis set = -272.2148900908
 Total energy in the final basis set = -272.2148900908
 Analysis of SCF Wavefunction
 
 --------------------------------------------------------------
                    Orbital Energies (a.u.)
 --------------------------------------------------------------
 
 Alpha MOs
 -- Occupied --
-19.593 -10.542 -10.505 -10.503 -10.487 -10.483  -1.171  -0.919
 -0.820  -0.777  -0.723  -0.655  -0.585  -0.549  -0.546  -0.510
 -0.487  -0.481  -0.456  -0.445  -0.431  -0.400  -0.395  -0.391
 -0.228
 -- Virtual --
 -0.026  -0.018  -0.008  -0.006   0.009   0.017   0.019   0.025
  0.029   0.045   0.054   0.061   0.073   0.077   0.084   0.091
  0.099   0.108   0.119   0.125   0.128   0.130   0.137   0.140
  0.142   0.150   0.155   0.161   0.168   0.183   0.188   0.202
  0.204   0.217   0.220   0.238   0.247   0.253   0.263   0.265
  0.275   0.277   0.294   0.305   0.318   0.320   0.330   0.333
  0.359   0.381   0.394   0.419   0.437   0.473   0.480   0.485
  0.494   0.510   0.530   0.544   0.554   0.559   0.565   0.576
  0.579   0.579   0.587   0.612   0.616   0.621   0.629   0.642
  0.650   0.659   0.679   0.683   0.697   0.698   0.715   0.737
  0.752   0.766   0.789   0.818   0.821   0.843   0.874   0.912
  0.913   0.927   0.941   0.949   0.982   1.020   1.026   1.048
  1.062   1.082   1.100   1.111   1.127   1.130   1.135   1.154
  1.159   1.173   1.181   1.195   1.215   1.246   1.259   1.269
  1.291   1.295   1.312   1.325   1.345   1.352   1.355   1.364
  1.372   1.387   1.409   1.412   1.439   1.455   1.470   1.483
  1.494   1.526   1.535   1.544   1.569   1.572   1.583   1.595
  1.629   1.635   1.662   1.680   1.709   1.716   1.757   1.801
  1.907   1.993   2.183   2.253   2.349   2.398   2.434   2.472
  2.531   2.545   2.579   2.623   2.661   2.675   2.698   2.724
  2.737   2.750   2.777   2.817   2.829   2.854   2.863   2.877
  2.910   2.929   2.939   2.948   2.965   2.975   3.001   3.051
  3.078   3.104   3.127   3.140   3.178   3.196   3.213   3.242
  3.244   3.266   3.307   3.324   3.337   3.347   3.357   3.377
  3.388   3.417   3.441   3.449   3.469   3.484   3.493   3.528
  3.557   3.571   3.595   3.617   3.633   3.664   3.681   3.706
  3.717   3.729   3.752   3.782   3.793   3.816   3.838   3.871
  3.906   3.919   3.950   3.956   3.967   3.971   4.001   4.015
  4.034   4.056   4.066   4.109   4.140   4.145   4.170   4.178
  4.186   4.191   4.210   4.212   4.226   4.264   4.290   4.320
  4.365   4.377   4.401   4.446   4.471   4.473   4.515   4.550
  4.563   4.570   4.610   4.647   4.681   4.706   4.725   4.796
  4.845   5.045   5.116   5.148   5.170   5.269   5.348   5.387
  5.417   5.478   5.518   5.535   5.549   5.608   5.625   5.638
  5.648   5.662   5.769   6.084   6.571   6.912   7.114   7.128
  7.205   7.486   7.570  24.057  24.124  24.177  24.243  24.308
 49.792
 
 Beta MOs
 -- Occupied --
-19.588 -10.526 -10.505 -10.504 -10.487 -10.483  -1.159  -0.918
 -0.814  -0.777  -0.711  -0.654  -0.579  -0.540  -0.537  -0.501
 -0.483  -0.461  -0.455  -0.431  -0.430  -0.397  -0.394  -0.390
 -- Virtual --
 -0.030  -0.019  -0.011  -0.011   0.002   0.007   0.014   0.018
  0.025   0.028   0.043   0.051   0.061   0.070   0.075   0.083
  0.090   0.097   0.105   0.116   0.124   0.126   0.127   0.136
  0.138   0.140   0.148   0.154   0.159   0.165   0.180   0.187
  0.203   0.205   0.217   0.221   0.237   0.250   0.253   0.263
  0.270   0.275   0.276   0.295   0.308   0.317   0.324   0.330
  0.342   0.361   0.383   0.399   0.421   0.439   0.475   0.483
  0.488   0.499   0.513   0.533   0.548   0.557   0.559   0.567
  0.577   0.579   0.584   0.594   0.614   0.617   0.628   0.641
  0.646   0.654   0.672   0.685   0.691   0.698   0.706   0.722
  0.740   0.756   0.772   0.803   0.821   0.823   0.850   0.877
  0.913   0.915   0.930   0.943   0.954   0.985   1.025   1.028
  1.051   1.066   1.088   1.107   1.116   1.130   1.132   1.137
  1.162   1.163   1.179   1.185   1.199   1.219   1.251   1.261
  1.272   1.294   1.299   1.318   1.328   1.353   1.355   1.360
  1.368   1.375   1.390   1.413   1.415   1.445   1.458   1.473
  1.486   1.506   1.535   1.545   1.554   1.570   1.575   1.585
  1.596   1.630   1.635   1.666   1.684   1.714   1.722   1.762
  1.814   1.920   2.014   2.193   2.256   2.361   2.401   2.438
  2.492   2.535   2.550   2.605   2.628   2.670   2.692   2.717
  2.729   2.751   2.757   2.811   2.840   2.854   2.889   2.912
  2.921   2.936   2.943   2.951   2.967   2.986   2.997   3.042
  3.073   3.103   3.120   3.143   3.153   3.206   3.208   3.230
  3.266   3.283   3.292   3.326   3.347   3.352   3.364   3.386
  3.394   3.404   3.447   3.459   3.472   3.495   3.514   3.526
  3.543   3.577   3.589   3.605   3.629   3.655   3.685   3.688
  3.713   3.732   3.744   3.759   3.786   3.814   3.834   3.844
  3.873   3.913   3.922   3.958   3.961   3.970   3.987   4.013
  4.024   4.041   4.059   4.075   4.126   4.150   4.153   4.172
  4.182   4.188   4.200   4.215   4.221   4.261   4.272   4.303
  4.332   4.368   4.384   4.418   4.461   4.476   4.478   4.524
  4.558   4.573   4.578   4.622   4.657   4.691   4.733   4.752
  4.842   4.868   5.106   5.145   5.161   5.181   5.270   5.353
  5.397   5.415   5.499   5.538   5.548   5.584   5.608   5.626
  5.639   5.648   5.663   5.773   6.085   6.569   6.914   7.119
  7.140   7.206   7.476   7.553  24.058  24.128  24.177  24.246
 24.326  49.798
 --------------------------------------------------------------
 
          Ground-State Mulliken Net Atomic Charges

     Atom                 Charge (a.u.)    Spin (a.u.)
  --------------------------------------------------------
      1 C                    -0.282575       0.036678
      2 C                    -0.227934      -0.128561
      3 C                    -0.294517       0.946698
      4 O                    -0.292647       0.071425
      5 C                    -0.647939      -0.002947
      6 C                    -0.640161       0.016549
      7 H                     0.261558       0.002415
      8 H                     0.183850       0.081108
      9 H                     0.224555       0.015536
     10 H                     0.229391      -0.039531
     11 H                     0.282626      -0.001682
     12 H                     0.206632       0.000915
     13 H                     0.187170      -0.003064
     14 H                     0.195563       0.000905
     15 H                     0.206420       0.002583
     16 H                     0.199724       0.002809
     17 H                     0.208283      -0.001834
  --------------------------------------------------------
  Sum of atomic charges =     0.000000
  Sum of spin   charges =     1.000000

 -----------------------------------------------------------------
                    Cartesian Multipole Moments
 -----------------------------------------------------------------
    Charge (ESU x 10^10)
                 0.0000
    Dipole Moment (Debye)
         X       1.1799      Y       0.7994      Z       0.7414
       Tot       1.6065
    Quadrupole Moments (Debye-Ang)
        XX     -45.2688     XY      -1.9899     YY     -40.9120
        XZ      -3.1746     YZ       1.5934     ZZ     -37.6818
    Octapole Moments (Debye-Ang^2)
       XXX       7.6869    XXY       3.9958    XYY      -4.4669
       YYY       2.8135    XXZ       8.0519    XYZ      -3.7923
       YYZ      -0.8113    XZZ      -9.6440    YZZ       0.7510
       ZZZ       3.1365
    Hexadecapole Moments (Debye-Ang^3)
      XXXX    -829.0773   XXXY     -23.7791   XXYY    -168.5903
      XYYY      -4.5835   YYYY    -239.8769   XXXZ     -35.5683
      XXYZ      11.6028   XYYZ      -3.1993   YYYZ      -0.0099
      XXZZ    -129.0205   XYZZ      -2.8833   YYZZ     -56.3850
      XZZZ      -6.7079   YZZZ       3.8371   ZZZZ     -93.1391
 -----------------------------------------------------------------
 Calculating analytic gradient of the SCF energy
 Gradient of Coulomb and Exchange Energy
            1           2           3           4           5           6
    1  -4.2746729   1.8038338   0.3540939  11.8852869  -3.3193256  -2.2691105
    2  -0.1430235   0.4603776   0.6069814   0.8235858  -1.5576597   2.5016879
    3   0.5946475  -0.1718549   1.7771027   0.4209597  -0.2197382  -0.3359876
            7           8           9          10          11          12
    1  -0.0490503   0.5201826   0.1392293   0.3769689   0.9478465  -0.9338267
    2   0.3143615  -4.3822937  -0.8056101   2.4044660  -2.3776140  -0.9189790
    3   4.7761629   0.9789890  -4.3153307   4.1493353  -4.0779521  -3.6361441
           13          14          15          16          17
    1  -0.1889257  -3.7042948  -0.4860416  -3.3360466   2.5338529
    2  -3.7255146   0.8444188   0.7339422   2.1589862   3.0618872
    3   1.2217554   1.0058775  -3.7981169   0.9388515   0.6914427
 Gradient of SCF Energy
            1           2           3           4           5           6
    1   0.0000285   0.0000221  -0.0004065   0.0005208   0.0000507   0.0000051
    2   0.0000054  -0.0000882   0.0000162   0.0001333  -0.0000165   0.0000236
    3   0.0000411  -0.0000225   0.0000005  -0.0000251  -0.0000565  -0.0000173
            7           8           9          10          11          12
    1  -0.0000349   0.0000146  -0.0000560  -0.0000042  -0.0001128  -0.0000182
    2  -0.0000049   0.0001181   0.0000236   0.0000012  -0.0001913  -0.0000248
    3  -0.0000464  -0.0000626   0.0000446   0.0000710  -0.0000088   0.0000853
           13          14          15          16          17
    1  -0.0000363   0.0000476  -0.0000119   0.0000598  -0.0000684
    2   0.0000690  -0.0000068   0.0000248  -0.0000339  -0.0000488
    3  -0.0000094  -0.0000168   0.0000729  -0.0000083  -0.0000419
 Max gradient component =       5.208E-04
 RMS gradient           =       1.077E-04
 Gradient time:  CPU 127.27 s  wall 127.48 s
 Geometry Optimization Parameters
   NAtoms,    NIC,     NZ,  NCons,   NDum,   NFix, NCnnct, MaxDiis
       17     113       0       0       0       0       0       0

 Cartesian Hessian Update
 Hessian Updated using BFGS Update


** GEOMETRY OPTIMIZATION IN DELOCALIZED INTERNAL COORDINATES **
   Searching for a Minimum

   Optimization Cycle:   4

                       Coordinates (Angstroms)
     ATOM              X           Y           Z
      1  C         0.995709   -0.006281   -0.351308
      2  C        -0.343942    0.578421    0.124728
      3  C        -1.514598   -0.208541   -0.355368
      4  O        -2.759535    0.062349    0.132070
      5  C         2.149451    0.921336    0.038845
      6  C         1.211630   -1.409690    0.223369
      7  H         0.957809   -0.077618   -1.451067
      8  H        -0.416926    1.635318   -0.205036
      9  H        -0.340397    0.606137    1.232556
     10  H        -1.535075   -0.667933   -1.340948
     11  H        -2.695715    0.499973    0.988654
     12  H         2.204087    1.016885    1.133611
     13  H         2.017558    1.926850   -0.381942
     14  H         3.111883    0.526291   -0.310668
     15  H         1.257073   -1.362031    1.322001
     16  H         2.154765   -1.842813   -0.134325
     17  H         0.391321   -2.085603   -0.049469
   Point Group: c1    Number of degrees of freedom:    45


   Energy is   -272.214890091

 GETINT wrote B to file, NVib is           45
 Hessian Updated using BFGS Update

 42 Hessian modes will be used to form the next step
  Hessian Eigenvalues:
     0.003728    0.005088    0.005350    0.006735    0.012041    0.020944
     0.037444    0.042705    0.048663    0.049508    0.055680    0.055719
     0.055820    0.057085    0.057484    0.094949    0.130051    0.148652
     0.159991    0.160024    0.160458    0.165438    0.166833    0.168557
     0.218518    0.225383    0.290385    0.295025    0.296649    0.326836
     0.331552    0.333497    0.337632    0.339780    0.340618    0.342502
     0.342557    0.343488    0.349148    0.371187    0.533235    0.550131

 Minimum Search - Taking Simple RFO Step
 Searching for Lamda that Minimizes Along All modes
 Value Taken    Lamda =  -0.00000729
 Step Taken.  Stepsize is  0.034236

                             Maximum     Tolerance    Cnvgd?
         Gradient           0.000268      0.000300     YES
         Displacement       0.012872      0.001200      NO
         Energy change     -0.000028      0.000001      NO


 New Cartesian Coordinates Obtained by Inverse Iteration

 Displacement from previous Coordinates is:  0.047119
 ----------------------------------------------------
       Standard Nuclear Orientation (Angstroms)
    I     Atom         X            Y            Z
 ----------------------------------------------------
    1      C       0.995071    -0.006284    -0.350618
    2      C      -0.344609     0.576652     0.127770
    3      C      -1.514625    -0.209497    -0.354043
    4      O      -2.761012     0.061746     0.130063
    5      C       2.148452     0.921826     0.038974
    6      C       1.213265    -1.410125     0.221992
    7      H       0.955916    -0.076440    -1.450326
    8      H      -0.417352     1.634503    -0.198512
    9      H      -0.340189     0.601062     1.235667
   10      H      -1.532450    -0.675295    -1.336613
   11      H      -2.698239     0.515282     0.978478
   12      H       2.203307     1.018322     1.133527
   13      H       2.016606     1.926878    -0.382616
   14      H       3.110817     0.526621    -0.310277
   15      H       1.263307    -1.363601     1.320348
   16      H       2.154821    -1.842832    -0.140011
   17      H       0.392012    -2.085767    -0.048100
 ----------------------------------------------------
 Molecular Point Group                 C1    NOp =  1
 Largest Abelian Subgroup              C1    NOp =  1
 Nuclear Repulsion Energy =   244.5244513944 hartrees
 There are       25 alpha and       24 beta electrons
 Applying Cartesian multipole field
    Component          Value
    ---------          -----
     (2,0,0)        1.00000E-11
     (0,2,0)        2.00000E-11
     (0,0,2)       -3.00000E-11
 Nucleus-field energy     =     0.0000000069 hartrees
 Requested basis set is non-standard
 There are 138 shells and 314 basis functions
 A cutoff of  1.0D-11 yielded   8959 shell pairs
 There are     45895 function pairs (     55061 Cartesian)
 Smallest overlap matrix eigenvalue = 1.29E-05
 Guess MOs from SCF MO coefficient file
Reading MOs from coefficient file
Reading MOs from coefficient file
 An unrestricted hybrid HF-DFT SCF calculation will be
 performed using Pulay DIIS extrapolation
 Exchange:     0.5679 Hartree-Fock + 1.0000 M08SO
 SCF converges when DIIS error is below 1.0E-08
Geometry optimization detected.  Setting ReadMinima to 0
Setting SaveMinima to 0
 ---------------------------------------
  Cycle       Energy         DIIS Error
 ---------------------------------------
    1    -272.2141545786      7.04E-05
    2    -272.2148904409      1.33E-05
    3    -272.2148940619      6.11E-06
    4    -272.2148945804      3.58E-06
    5    -272.2148947609      9.56E-07
    6    -272.2148947860      3.86E-07
    7    -272.2148947928      9.62E-08
    8    -272.2148947938      3.61E-08
    9    -272.2148947940      1.50E-08
   10    -272.2148947936      3.18E-09 Convergence criterion met
 ---------------------------------------
 <S^2> = 0.7547
 SCF time:  CPU 940.95 s  wall 947.84 s
 SCF   energy in the final basis set = -272.2148947936
 Total energy in the final basis set = -272.2148947936
 Analysis of SCF Wavefunction
 
 --------------------------------------------------------------
                    Orbital Energies (a.u.)
 --------------------------------------------------------------
 
 Alpha MOs
 -- Occupied --
-19.593 -10.542 -10.505 -10.503 -10.487 -10.483  -1.171  -0.920
 -0.821  -0.777  -0.723  -0.655  -0.585  -0.549  -0.546  -0.510
 -0.487  -0.480  -0.456  -0.446  -0.431  -0.400  -0.395  -0.391
 -0.228
 -- Virtual --
 -0.026  -0.018  -0.008  -0.007   0.009   0.017   0.019   0.025
  0.029   0.045   0.054   0.061   0.072   0.077   0.084   0.091
  0.099   0.108   0.119   0.125   0.128   0.130   0.137   0.140
  0.142   0.150   0.155   0.161   0.168   0.182   0.188   0.202
  0.204   0.217   0.220   0.238   0.246   0.253   0.262   0.265
  0.275   0.276   0.294   0.305   0.318   0.320   0.331   0.333
  0.359   0.381   0.394   0.419   0.437   0.473   0.480   0.485
  0.494   0.510   0.530   0.544   0.553   0.559   0.565   0.576
  0.579   0.579   0.588   0.612   0.615   0.621   0.629   0.642
  0.650   0.659   0.679   0.683   0.697   0.698   0.714   0.738
  0.753   0.765   0.790   0.818   0.822   0.843   0.873   0.912
  0.913   0.927   0.940   0.949   0.982   1.020   1.025   1.049
  1.062   1.082   1.099   1.110   1.128   1.130   1.134   1.154
  1.159   1.172   1.181   1.195   1.215   1.246   1.259   1.269
  1.291   1.295   1.313   1.326   1.345   1.352   1.355   1.364
  1.372   1.387   1.410   1.413   1.439   1.455   1.470   1.483
  1.494   1.527   1.536   1.545   1.569   1.572   1.583   1.596
  1.629   1.635   1.662   1.680   1.709   1.716   1.756   1.802
  1.908   1.992   2.185   2.253   2.350   2.399   2.434   2.472
  2.531   2.545   2.579   2.623   2.661   2.674   2.698   2.724
  2.737   2.751   2.776   2.816   2.830   2.854   2.862   2.877
  2.910   2.929   2.939   2.948   2.965   2.976   3.001   3.052
  3.078   3.104   3.127   3.140   3.178   3.196   3.214   3.240
  3.243   3.267   3.307   3.324   3.337   3.347   3.357   3.377
  3.388   3.417   3.441   3.449   3.470   3.483   3.494   3.528
  3.557   3.571   3.595   3.617   3.633   3.664   3.681   3.706
  3.717   3.729   3.752   3.782   3.793   3.816   3.838   3.871
  3.906   3.920   3.950   3.957   3.967   3.972   4.001   4.015
  4.035   4.056   4.067   4.109   4.140   4.145   4.170   4.179
  4.187   4.192   4.210   4.212   4.226   4.264   4.290   4.320
  4.366   4.377   4.401   4.446   4.471   4.473   4.515   4.550
  4.564   4.570   4.611   4.647   4.681   4.708   4.726   4.797
  4.845   5.044   5.115   5.148   5.170   5.269   5.349   5.388
  5.418   5.479   5.517   5.536   5.549   5.608   5.625   5.639
  5.648   5.662   5.767   6.085   6.571   6.911   7.114   7.128
  7.207   7.486   7.571  24.058  24.124  24.177  24.243  24.308
 49.792
 
 Beta MOs
 -- Occupied --
-19.588 -10.526 -10.505 -10.504 -10.487 -10.483  -1.159  -0.918
 -0.814  -0.777  -0.711  -0.654  -0.579  -0.540  -0.537  -0.501
 -0.483  -0.461  -0.455  -0.431  -0.430  -0.397  -0.394  -0.390
 -- Virtual --
 -0.030  -0.019  -0.011  -0.011   0.002   0.007   0.014   0.018
  0.025   0.028   0.043   0.051   0.060   0.070   0.075   0.083
  0.090   0.097   0.105   0.116   0.124   0.126   0.127   0.136
  0.138   0.140   0.148   0.154   0.159   0.165   0.180   0.187
  0.202   0.205   0.217   0.221   0.237   0.250   0.253   0.263
  0.270   0.275   0.276   0.295   0.308   0.317   0.324   0.330
  0.342   0.361   0.382   0.399   0.421   0.438   0.475   0.483
  0.488   0.499   0.513   0.534   0.548   0.556   0.559   0.567
  0.577   0.579   0.584   0.594   0.614   0.616   0.629   0.641
  0.646   0.654   0.672   0.685   0.691   0.698   0.706   0.722
  0.741   0.756   0.772   0.803   0.821   0.824   0.850   0.877
  0.913   0.915   0.930   0.943   0.954   0.985   1.025   1.028
  1.051   1.066   1.088   1.107   1.116   1.130   1.133   1.136
  1.162   1.163   1.179   1.184   1.200   1.218   1.251   1.261
  1.272   1.294   1.299   1.318   1.328   1.353   1.355   1.361
  1.368   1.375   1.391   1.413   1.415   1.445   1.458   1.473
  1.486   1.507   1.536   1.546   1.555   1.570   1.575   1.585
  1.596   1.630   1.635   1.666   1.684   1.714   1.722   1.761
  1.815   1.921   2.013   2.195   2.256   2.361   2.401   2.438
  2.492   2.535   2.550   2.605   2.628   2.670   2.691   2.718
  2.730   2.752   2.757   2.811   2.842   2.854   2.889   2.911
  2.921   2.936   2.943   2.951   2.966   2.987   2.997   3.042
  3.073   3.103   3.119   3.143   3.153   3.206   3.209   3.230
  3.266   3.283   3.293   3.326   3.347   3.352   3.364   3.386
  3.394   3.403   3.447   3.458   3.472   3.495   3.515   3.527
  3.542   3.577   3.590   3.605   3.628   3.655   3.685   3.687
  3.713   3.731   3.744   3.759   3.786   3.814   3.834   3.844
  3.873   3.914   3.923   3.958   3.961   3.970   3.988   4.013
  4.024   4.041   4.059   4.076   4.127   4.150   4.153   4.172
  4.183   4.189   4.201   4.215   4.221   4.260   4.271   4.303
  4.332   4.369   4.384   4.418   4.461   4.476   4.478   4.525
  4.558   4.574   4.579   4.622   4.658   4.691   4.733   4.755
  4.842   4.869   5.105   5.145   5.161   5.180   5.270   5.353
  5.398   5.415   5.499   5.538   5.548   5.584   5.609   5.626
  5.639   5.648   5.663   5.771   6.086   6.568   6.913   7.118
  7.140   7.207   7.476   7.553  24.059  24.128  24.177  24.246
 24.327  49.798
 --------------------------------------------------------------
 
          Ground-State Mulliken Net Atomic Charges

     Atom                 Charge (a.u.)    Spin (a.u.)
  --------------------------------------------------------
      1 C                    -0.284973       0.036136
      2 C                    -0.227656      -0.129395
      3 C                    -0.293174       0.947628
      4 O                    -0.293150       0.071284
      5 C                    -0.648849      -0.003122
      6 C                    -0.639724       0.016888
      7 H                     0.261825       0.002454
      8 H                     0.183957       0.080845
      9 H                     0.225120       0.016327
     10 H                     0.229709      -0.039483
     11 H                     0.282758      -0.001691
     12 H                     0.206865       0.000936
     13 H                     0.187395      -0.003069
     14 H                     0.195571       0.000891
     15 H                     0.206255       0.002547
     16 H                     0.200059       0.002771
     17 H                     0.208013      -0.001947
  --------------------------------------------------------
  Sum of atomic charges =     0.000000
  Sum of spin   charges =     1.000000

 -----------------------------------------------------------------
                    Cartesian Multipole Moments
 -----------------------------------------------------------------
    Charge (ESU x 10^10)
                 0.0000
    Dipole Moment (Debye)
         X       1.1825      Y       0.8182      Z       0.7329
       Tot       1.6140
    Quadrupole Moments (Debye-Ang)
        XX     -45.2650     XY      -2.0579     YY     -40.8668
        XZ      -3.1503     YZ       1.6251     ZZ     -37.7333
    Octapole Moments (Debye-Ang^2)
       XXX       7.7099    XXY       4.2282    XYY      -4.5677
       YYY       2.8792    XXZ       7.9888    XYZ      -3.8743
       YYZ      -0.7994    XZZ      -9.4886    YZZ       0.7659
       ZZZ       3.0667
    Hexadecapole Moments (Debye-Ang^3)
      XXXX    -829.2859   XXXY     -24.3208   XXYY    -168.3353
      XYYY      -4.5801   YYYY    -239.9244   XXXZ     -35.4852
      XXYZ      11.7950   XYYZ      -3.2799   YYYZ      -0.0773
      XXZZ    -129.3599   XYZZ      -2.8942   YYZZ     -56.3301
      XZZZ      -6.5968   YZZZ       3.7209   ZZZZ     -93.1271
 -----------------------------------------------------------------
 Calculating analytic gradient of the SCF energy
 Gradient of Coulomb and Exchange Energy
            1           2           3           4           5           6
    1  -4.2863885   1.8197155   0.3485682  11.8931762  -3.3236041  -2.2576731
    2  -0.1468967   0.4563893   0.5991702   0.8843853  -1.5509831   2.4955447
    3   0.5682155  -0.1571023   1.7638363   0.4121666  -0.2182269  -0.3287874
            7           8           9          10          11          12
    1  -0.0414584   0.5173418   0.1388326   0.3688942   0.9482755  -0.9322767
    2   0.3100644  -4.3832523  -0.7970653   2.4318940  -2.4533789  -0.9240782
    3   4.7766328   0.9563060  -4.3148796   4.1388264  -4.0327850  -3.6356007
           13          14          15          16          17
    1  -0.1879745  -3.7033812  -0.5042817  -3.3318709   2.5341052
    2  -3.7249855   0.8451754   0.7381466   2.1584414   3.0614287
    3   1.2260581   1.0044360  -3.7958216   0.9544885   0.6822374
 Gradient of SCF Energy
[...]
 H          0.010  0.467  0.021    0.443 -0.207  0.062   -0.189  0.176  0.072
 H         -0.313 -0.094 -0.072   -0.073  0.018  0.048   -0.039 -0.023  0.027
 H         -0.176  0.027 -0.022   -0.360  0.000  0.027    0.057 -0.219 -0.117
 H         -0.248 -0.027  0.025    0.255  0.034 -0.005    0.727  0.132 -0.013
 H         -0.434  0.024  0.023    0.129  0.001  0.010    0.381 -0.002  0.009
 H         -0.337 -0.157 -0.056   -0.106 -0.284 -0.030   -0.156 -0.009 -0.020
 H         -0.187 -0.044  0.040    0.221  0.141  0.094   -0.116 -0.005  0.065
 H          0.059  0.041  0.068   -0.130 -0.228  0.058    0.130  0.111  0.082
 H          0.127 -0.120  0.045    0.110  0.293 -0.086   -0.068  0.026 -0.003
 H          0.033  0.108  0.006    0.070  0.242  0.023    0.009 -0.117  0.075
 H          0.093 -0.249  0.087    0.059 -0.223  0.121   -0.042  0.046  0.051
 TransDip   0.000  0.000  0.000    0.000  0.000  0.000    0.000  0.000  0.000

 Mode:                22                     23                     24
 Frequency:      1225.02                1242.56                1318.59
 Force Cnst:      1.3016                 1.4673                 1.5772
 Red. Mass:       1.4721                 1.6130                 1.5396
 IR Active:          YES                    YES                    YES
 IR Intens:        0.000                  0.000                  0.000
 Raman Active:       YES                    YES                    YES
               X      Y      Z        X      Y      Z        X      Y      Z
 C         -0.028 -0.004  0.142    0.017  0.038  0.012   -0.114 -0.010  0.010
 C          0.005  0.013 -0.019   -0.099 -0.022  0.001   -0.044  0.011  0.044
 C         -0.070  0.020 -0.012   -0.138  0.018  0.078    0.086 -0.065 -0.095
 O          0.052 -0.014 -0.019    0.076 -0.028 -0.052   -0.024  0.037  0.059
 C          0.010  0.005 -0.048    0.005 -0.019 -0.057    0.021 -0.010 -0.043
 C          0.017 -0.014 -0.087   -0.018 -0.003  0.026    0.027  0.012 -0.004
 H          0.027 -0.224  0.159    0.359  0.348 -0.021    0.633  0.086 -0.023
 H         -0.383 -0.003  0.020    0.660  0.039  0.023    0.268 -0.018 -0.084
 H          0.684  0.026 -0.020    0.206  0.040  0.005    0.166  0.019  0.031
 H         -0.188 -0.029  0.015    0.016  0.072  0.054    0.180 -0.067 -0.103
 H         -0.047 -0.001 -0.024    0.352 -0.047 -0.059   -0.546  0.045  0.081
 H         -0.117 -0.096 -0.020   -0.168 -0.097 -0.037   -0.058  0.021 -0.035
 H          0.002  0.067  0.113   -0.027  0.030  0.063    0.039  0.068  0.118
 H          0.064 -0.001  0.119    0.074  0.043  0.067    0.119  0.106  0.092
 H         -0.078  0.297 -0.085    0.058 -0.102  0.029   -0.093 -0.047  0.005
 H          0.076 -0.077  0.163   -0.010  0.044 -0.020   -0.029 -0.097 -0.006
 H         -0.081  0.018  0.150    0.041 -0.063 -0.003   -0.015  0.034  0.041
 TransDip   0.000  0.000  0.000    0.000  0.000  0.000    0.000  0.000  0.000

 Mode:                25                     26                     27
 Frequency:      1344.71                1368.11                1384.50
 Force Cnst:      1.4982                 1.6284                 1.5547
 Red. Mass:       1.4062                 1.4766                 1.3766
 IR Active:          YES                    YES                    YES
 IR Intens:        0.000                  0.000                  0.000
 Raman Active:       YES                    YES                    YES
               X      Y      Z        X      Y      Z        X      Y      Z
 C         -0.004 -0.170  0.019   -0.133  0.033 -0.008    0.044  0.072 -0.009
 C          0.013  0.029 -0.014    0.110 -0.019  0.014   -0.026 -0.011 -0.003
 C          0.009  0.010  0.000    0.007  0.040  0.051   -0.016 -0.013 -0.011
 O         -0.004 -0.003 -0.003   -0.019 -0.023 -0.035    0.009  0.006  0.010
 C         -0.020  0.025 -0.038    0.014 -0.025 -0.021   -0.079 -0.073 -0.009
 C          0.010  0.006  0.053    0.039 -0.037  0.001    0.000 -0.110  0.032
 H         -0.020  0.762 -0.042    0.538 -0.140 -0.017   -0.131 -0.180  0.013
 H         -0.306  0.008  0.006   -0.200 -0.033  0.026    0.155  0.012  0.025
 H          0.076 -0.066 -0.011   -0.417  0.065  0.022    0.055  0.042 -0.005
 H         -0.075 -0.009  0.010   -0.336  0.012  0.081    0.150  0.000 -0.024
 H          0.039 -0.001 -0.007    0.408 -0.026 -0.054   -0.114  0.006  0.016
 H          0.117 -0.068 -0.028   -0.024  0.136 -0.030    0.269  0.267 -0.049
 H          0.178  0.098  0.080    0.042  0.054  0.131    0.304  0.051  0.137
 H          0.066  0.027  0.163    0.093  0.122  0.033    0.126  0.312  0.081
 H         -0.039  0.081  0.042   -0.155  0.117  0.000    0.024  0.407 -0.002
 H         -0.017  0.185 -0.206    0.023  0.022 -0.080    0.132  0.345 -0.156
 H         -0.070  0.209 -0.189   -0.105  0.129  0.016   -0.202  0.250 -0.203
 TransDip   0.000  0.000  0.000    0.000  0.000  0.000    0.000  0.000  0.000

 Mode:                28                     29                     30
 Frequency:      1398.33                1430.44                1455.59
 Force Cnst:      1.4567                 2.0388                 1.5283
 Red. Mass:       1.2644                 1.6911                 1.2243
 IR Active:          YES                    YES                    YES
 IR Intens:        0.000                  0.000                  0.000
 Raman Active:       YES                    YES                    YES
               X      Y      Z        X      Y      Z        X      Y      Z
 C          0.023 -0.006  0.010    0.025  0.019  0.002    0.013  0.009  0.004
 C         -0.003  0.003  0.000   -0.125  0.004  0.027   -0.053 -0.069 -0.040
 C          0.018  0.014  0.012    0.189  0.036  0.011    0.090  0.003 -0.006
 O         -0.009 -0.004 -0.007   -0.069 -0.002 -0.010   -0.033  0.003  0.001
 C         -0.089 -0.063 -0.031    0.014  0.000  0.003   -0.013  0.009 -0.004
 C         -0.021  0.085 -0.038   -0.013 -0.028  0.006    0.014  0.008  0.010
 H         -0.038  0.014  0.015   -0.043 -0.029  0.009   -0.052 -0.007  0.009
 H         -0.053 -0.026 -0.064    0.180 -0.119 -0.390    0.082  0.150  0.542
 H          0.000 -0.079 -0.004    0.269 -0.347  0.018    0.111  0.588 -0.038
 H         -0.108  0.005  0.022   -0.628 -0.031  0.072   -0.250 -0.003  0.009
 H          0.087 -0.006 -0.011    0.255 -0.016 -0.015    0.062  0.005 -0.004
 H          0.361  0.232 -0.071   -0.083 -0.006  0.008    0.153 -0.163  0.005
 H          0.362  0.098  0.190   -0.052 -0.015 -0.011   -0.028 -0.050 -0.123
 H          0.172  0.323  0.210   -0.026 -0.036 -0.057    0.061  0.035  0.157
 H          0.101 -0.347 -0.016    0.136  0.096 -0.005   -0.211  0.056  0.013
 H         -0.075 -0.279  0.237    0.060  0.079  0.059   -0.105 -0.058 -0.212
 H          0.181 -0.253  0.171   -0.057  0.083 -0.112    0.090 -0.112  0.051
 TransDip   0.000  0.000  0.000    0.000  0.000  0.000    0.000  0.000  0.000

 Mode:                31                     32                     33
 Frequency:      1463.55                1470.91                1479.98
 Force Cnst:      1.3148                 1.3647                 1.3567
 Red. Mass:       1.0418                 1.0706                 1.0513
 IR Active:          YES                    YES                    YES
 IR Intens:        0.000                  0.000                  0.000
 Raman Active:       YES                    YES                    YES
               X      Y      Z        X      Y      Z        X      Y      Z
 C         -0.001  0.000 -0.003   -0.019 -0.035  0.001   -0.024  0.014 -0.025
 C         -0.002  0.001  0.003   -0.003 -0.026 -0.021    0.008 -0.005  0.001
 C          0.002  0.002  0.001    0.022 -0.004 -0.006   -0.001 -0.003  0.000
 O         -0.001  0.000  0.000   -0.008  0.002  0.002   -0.001  0.000  0.001
 C         -0.020  0.012  0.029    0.021 -0.015  0.014   -0.001  0.028 -0.029
 C          0.017 -0.012 -0.035   -0.035  0.002 -0.017   -0.016 -0.019 -0.014
 H          0.017  0.036 -0.006    0.023  0.086 -0.008    0.020 -0.028 -0.029
 H          0.008 -0.013 -0.034   -0.025  0.084  0.296    0.026  0.010  0.032
 H         -0.002 -0.036  0.002    0.015  0.304 -0.019   -0.046  0.041 -0.003
 H         -0.006 -0.001  0.003   -0.044 -0.004 -0.005    0.012 -0.002 -0.002
 H          0.005 -0.002  0.001   -0.002  0.005  0.000   -0.003  0.001  0.001
 H         -0.015 -0.336  0.048   -0.291  0.188  0.007    0.417 -0.139 -0.023
 H          0.236 -0.137 -0.393    0.167  0.049  0.096   -0.384 -0.015  0.020
 H          0.069  0.294 -0.092   -0.069  0.072 -0.322    0.079 -0.252  0.508
 H         -0.177 -0.299  0.004    0.469 -0.109 -0.031    0.279 -0.132 -0.016
 H          0.207  0.303  0.113    0.166  0.041  0.435    0.185  0.127  0.321
 H         -0.273  0.161  0.424   -0.117  0.180 -0.159   -0.177  0.194 -0.017
 TransDip   0.000  0.000  0.000    0.000  0.000  0.000    0.000  0.000  0.000

 Mode:                34                     35                     36
 Frequency:      1485.77                2892.23                2922.26
 Force Cnst:      1.3856                 5.2388                 5.4926
 Red. Mass:       1.0653                 1.0629                 1.0917
 IR Active:          YES                    YES                    YES
 IR Intens:        0.000                  0.000                  0.000
 Raman Active:       YES                    YES                    YES
               X      Y      Z        X      Y      Z        X      Y      Z
 C          0.044 -0.019 -0.019   -0.001 -0.001  0.000    0.001  0.002  0.019
 C         -0.022 -0.003 -0.001    0.006 -0.070 -0.005   -0.003  0.024 -0.082
 C          0.013 -0.001 -0.002    0.000 -0.002  0.000    0.001  0.001  0.000
 O         -0.003  0.001  0.001   -0.001  0.000  0.000    0.000  0.000  0.000
 C          0.017 -0.020 -0.019    0.000  0.001  0.000    0.001  0.000 -0.001
 C          0.020  0.000 -0.021    0.000  0.000  0.000    0.000  0.000 -0.001
 H         -0.096  0.035 -0.021    0.001  0.000  0.008   -0.010 -0.016 -0.240
 H          0.026  0.022  0.053   -0.055  0.878 -0.297    0.020 -0.324  0.083
 H          0.026  0.057 -0.002    0.007 -0.017  0.363    0.008  0.024  0.906
 H         -0.030 -0.002 -0.001   -0.001 -0.004 -0.011   -0.001  0.000 -0.013
 H         -0.002  0.000  0.002   -0.003  0.000  0.005   -0.006  0.005  0.004
 H         -0.077  0.422 -0.048    0.001  0.000 -0.006    0.003  0.002  0.012
 H         -0.150  0.157  0.432    0.005 -0.010  0.005    0.000 -0.002  0.000
 H         -0.115 -0.276 -0.050   -0.002  0.004  0.001   -0.007  0.004  0.005
 H         -0.321 -0.244  0.014    0.000 -0.001 -0.006    0.003 -0.002  0.020
 H          0.106  0.257 -0.080   -0.005  0.001  0.003   -0.004  0.001  0.003
 H         -0.172  0.050  0.430    0.003  0.003  0.001    0.004  0.002  0.001
 TransDip   0.000  0.000  0.000    0.000  0.000  0.000    0.000  0.000  0.000

 Mode:                37                     38                     39
 Frequency:      2957.74                2968.15                2972.21
 Force Cnst:      5.5754                 5.3922                 5.4147
 Red. Mass:       1.0817                 1.0388                 1.0403
 IR Active:          YES                    YES                    YES
 IR Intens:        0.000                  0.000                  0.000
 Raman Active:       YES                    YES                    YES
               X      Y      Z        X      Y      Z        X      Y      Z
 C         -0.003 -0.005 -0.075   -0.001 -0.002 -0.013    0.000 -0.001 -0.022
 C         -0.001  0.007 -0.020    0.000  0.001 -0.003    0.000  0.000 -0.005
 C          0.000  0.000  0.001    0.000  0.000  0.000    0.000  0.000  0.000
 O          0.000  0.000  0.000    0.000  0.000  0.000    0.000  0.000  0.000
 C          0.003  0.003  0.016    0.013  0.011  0.015   -0.028 -0.026 -0.025
 C          0.002 -0.005  0.019   -0.008  0.032 -0.032   -0.004  0.015 -0.012
 H          0.029  0.060  0.898    0.005  0.013  0.151    0.006  0.017  0.256
 H          0.009 -0.087  0.022    0.000 -0.008  0.003    0.000 -0.009  0.002
 H          0.001  0.005  0.210   -0.001  0.002  0.029   -0.003  0.002  0.057
 H          0.003 -0.002 -0.010    0.000 -0.002 -0.003    0.001 -0.001 -0.002
 H         -0.003  0.001  0.001    0.000  0.000  0.000    0.000  0.001  0.001
 H         -0.007 -0.018 -0.212   -0.011 -0.026 -0.332    0.025  0.053  0.628
 H         -0.001 -0.023  0.013    0.027 -0.179  0.083   -0.060  0.411 -0.186
 H         -0.024  0.007  0.013   -0.162  0.073  0.064    0.362 -0.163 -0.141
 H         -0.012 -0.017 -0.273    0.029  0.040  0.643    0.012  0.013  0.258
 H         -0.051  0.027  0.025    0.381 -0.170 -0.157    0.175 -0.079 -0.071
 H          0.046  0.041  0.019   -0.315 -0.246 -0.111   -0.146 -0.116 -0.049
 TransDip   0.000  0.000  0.000    0.000  0.000  0.000    0.000  0.000  0.000

 Mode:                40                     41                     42
 Frequency:      3034.87                3039.68                3054.78
 Force Cnst:      5.9592                 5.9775                 6.0609
 Red. Mass:       1.0981                 1.0980                 1.1024
 IR Active:          YES                    YES                    YES
 IR Intens:        0.000                  0.000                  0.000
 Raman Active:       YES                    YES                    YES
               X      Y      Z        X      Y      Z        X      Y      Z
 C          0.000  0.000 -0.005   -0.001 -0.001 -0.016   -0.001 -0.001 -0.001
 C          0.000  0.000  0.000    0.000  0.001 -0.001    0.000  0.000  0.000
 C          0.000  0.000  0.000    0.000  0.000  0.000    0.000  0.000  0.000
 O          0.000  0.000  0.000    0.000  0.000  0.000    0.000  0.000  0.000
 C         -0.013 -0.010  0.039    0.021  0.023 -0.073    0.018 -0.022  0.001
 C          0.012 -0.039 -0.069    0.004 -0.020 -0.035   -0.087 -0.018 -0.003
 H          0.001  0.000  0.054    0.008  0.011  0.165    0.001  0.001  0.007
 H          0.000 -0.001  0.002    0.003 -0.012  0.003   -0.001  0.002 -0.001
 H         -0.001  0.002  0.004   -0.004  0.002  0.018    0.000 -0.001  0.000
 H          0.000 -0.001 -0.003    0.001 -0.001 -0.004    0.000 -0.001 -0.002
 H          0.000  0.000  0.000   -0.001  0.000  0.000    0.000  0.000  0.001
 H         -0.015 -0.027 -0.303    0.032  0.058  0.574    0.004 -0.004  0.000
 H         -0.036  0.235 -0.093    0.068 -0.481  0.194   -0.022  0.188 -0.084
 H          0.205 -0.093 -0.068   -0.346  0.154  0.111   -0.190  0.081  0.072
 H          0.031  0.024  0.576    0.015  0.009  0.297   -0.016  0.000  0.059
 H         -0.469  0.209  0.169   -0.224  0.101  0.079    0.503 -0.241 -0.204
 H          0.301  0.232  0.081    0.164  0.129  0.046    0.550  0.455  0.187
 TransDip   0.000  0.000  0.000    0.000  0.000  0.000    0.000  0.000  0.000

 Mode:                43                     44                     45
 Frequency:      3056.39                3177.94                3877.73
 Force Cnst:      6.0659                 6.4809                 9.4446
 Red. Mass:       1.1021                 1.0892                 1.0661
 IR Active:          YES                    YES                    YES
 IR Intens:        0.000                  0.000                  0.000
 Raman Active:       YES                    YES                    YES
               X      Y      Z        X      Y      Z        X      Y      Z
 C         -0.001  0.001  0.001    0.000  0.000 -0.001    0.000  0.000  0.000
 C          0.000  0.000 -0.001    0.002  0.002 -0.001    0.000  0.000  0.001
 C          0.000  0.000  0.000   -0.002 -0.041 -0.076   -0.001 -0.001 -0.002
 O          0.000  0.000  0.000    0.000  0.001  0.001   -0.002 -0.030 -0.054
 C         -0.057  0.067  0.003    0.000  0.000  0.000    0.000  0.000  0.000
 C         -0.028 -0.004  0.001    0.000  0.000  0.000    0.000  0.000  0.000
 H          0.001 -0.001 -0.007   -0.003  0.001  0.008    0.000  0.000  0.000
 H          0.003 -0.006  0.002    0.002  0.006 -0.001    0.000 -0.002  0.001
 H          0.001  0.000  0.002    0.002  0.001  0.016    0.002  0.002 -0.005
 H          0.000  0.001  0.002    0.021  0.445  0.891    0.001  0.006  0.013
 H          0.000  0.000  0.000   -0.009 -0.006 -0.014    0.048  0.487  0.870
 H         -0.015  0.012 -0.042    0.001  0.000  0.000    0.000  0.000  0.000
 H          0.065 -0.552  0.247    0.000  0.001  0.000    0.000  0.000  0.000
 H          0.635 -0.263 -0.238   -0.003  0.001  0.001    0.000  0.000  0.000
 H         -0.006 -0.001  0.001    0.001  0.000  0.004    0.000  0.000  0.000
 H          0.176 -0.087 -0.071    0.000  0.001  0.000    0.000  0.000  0.000
 H          0.163  0.135  0.055    0.000  0.002  0.000    0.000  0.000  0.000
 TransDip   0.000  0.000  0.000    0.000  0.000  0.000    0.000  0.000  0.000

 STANDARD THERMODYNAMIC QUANTITIES AT   298.15 K  AND     1.00 ATM

   This Molecule has  0 Imaginary Frequencies
   Zero point vibrational energy:       93.549 kcal/mol

   Atom    1 Element C  Has Mass   12.00000
   Atom    2 Element C  Has Mass   12.00000
   Atom    3 Element C  Has Mass   12.00000
   Atom    4 Element O  Has Mass   15.99491
   Atom    5 Element C  Has Mass   12.00000
   Atom    6 Element C  Has Mass   12.00000
   Atom    7 Element H  Has Mass    1.00783
   Atom    8 Element H  Has Mass    1.00783
   Atom    9 Element H  Has Mass    1.00783
   Atom   10 Element H  Has Mass    1.00783
   Atom   11 Element H  Has Mass    1.00783
   Atom   12 Element H  Has Mass    1.00783
   Atom   13 Element H  Has Mass    1.00783
   Atom   14 Element H  Has Mass    1.00783
   Atom   15 Element H  Has Mass    1.00783
   Atom   16 Element H  Has Mass    1.00783
   Atom   17 Element H  Has Mass    1.00783
   Molecular Mass:    87.081040 amu
   Principal axes and moments of inertia in atomic units:
                             1           2           3
    Eigenvalues --      253.43258  1018.71723  1174.05188
          X               1.00000    -0.00090    -0.00044
          Y               0.00090     0.99986     0.01700
          Z               0.00043    -0.01700     0.99986
   Rotational Symmetry Number is   1
   The Molecule is an Asymmetric Top
   Translational Enthalpy:        0.889 kcal/mol
   Rotational Enthalpy:           0.889 kcal/mol
   Vibrational Enthalpy:         96.998 kcal/mol
   gas constant (RT):             0.592 kcal/mol
   Translational Entropy:        39.306  cal/mol.K
   Rotational Entropy:           27.207  cal/mol.K
   Vibrational Entropy:          20.583  cal/mol.K

   Total Enthalpy:               99.368 kcal/mol
   Total Entropy:                87.095  cal/mol.K
Archival summary:
1\1\node68\FREQ\ProcedureUnspecified\BasisUnspecified\1511(2)\edames\ThuApr1012:51:332014ThuApr1012:51:332014\0\\#,FREQ,ProcedureUnspecified,BasisUnspecified,\\0,2\C\H,1,1.10262\C,1,1.53088,2,108.596\H,3,1.09744,1,111.174,2,61.4247,0\H,3,1.09783,1,111.523,2,-59.451,0\H,3,1.10012,1,110.133,2,-179.25,0\C,1,1.53176,2,108.638,3,120.442,0\H,7,1.09721,1,111.466,2,61.0476,0\H,7,1.09765,1,111.095,2,-60.1542,0\H,7,1.10045,1,109.94,2,-179.482,0\C,1,1.53717,2,107.68,3,-119.475,0\H,11,1.10811,1,108.412,2,-177.021,0\H,11,1.10936,1,109.119,2,68.0941,0\C,11,1.48985,1,112.554,2,-55.3662,0\H,14,1.08769,11,122.038,1,35.5611,0\O,14,1.3648,11,119.795,1,-171.629,0\H,16,0.964129,14,110.232,11,21.2283,0\\\@

 Total job time:  85150.62s(wall), 84492.66s(cpu) 
 Thu Apr 10 12:51:33 2014

        *************************************************************
        *                                                           *
        *  Thank you very much for using Q-Chem.  Have a nice day.  *
        *                                                           *
        *************************************************************


0 sent ACK to 0 
now end server 0 ... 
cleanup process ... done
remove work dirs /tmp/qchem19552.0 -- /tmp/qchem19552.3
rm -rf /tmp/qchem19552.0
rm -rf /tmp/qchem19552.1
rm -rf /tmp/qchem19552.2
rm -rf /tmp/qchem19552.3
rm -rf /tmp/qchem19552
