
Running Job 1 of 2 c5h11o-2aaron.in
qchem c5h11o-2aaron.in_17599.0 /scratch/edames/qchem17599/ 8
/opt/qchem/bin/mpi/mpirun_qchem -machinefile /tmp/319823.1.normal1/hostfile -np 8 /opt/qchem/exe/qcprog.exe c5h11o-2aaron.in_17599.0 /scratch/edames/qchem17599/

Process 6 of 8 is on node03.cluster - thread support 0
Process 4 of 8 is on node03.cluster - thread support 0
Process 0 of 8 is on node03.cluster - thread support 0
Process 1 of 8 is on node03.cluster - thread support 0
Process 3 of 8 is on node03.cluster - thread support 0
Process 5 of 8 is on node03.cluster - thread support 0
Process 2 of 8 is on node03.cluster - thread support 0
Process 7 of 8 is on node03.cluster - thread support 0
initial socket setup ...start
initial socket setup ...done 
now start server 0 ... 
set process cleaner
set process cleaner
set process cleaner
set process cleaner
set process cleaner
set process cleaner
set process cleaner
                  Welcome to Q-Chem
     A Quantum Leap Into The Future Of Chemistry


 Q-Chem 4.2, Q-Chem, Inc., Pleasanton, CA (2014).

 Y. Shao,  Z. Gan,  E. Epifanovsky,  A. T. B. Gilbert,  M. Wormit,  
 J. Kussmann,  A. W. Lange,  A. Behn,  J. Deng,  X. Feng,  D. Ghosh,  
 M. Goldey,  P. R. Horn,  L. D. Jacobson,  I. Kaliman,  R. Z. Khaliullin,  
 T. Kus,  A. Landau,  J. Liu,  E. I. Proynov,  Y. M. Rhee,  R. M. Richard,  
 M. A. Rohrdanz,  R. P. Steele,  E. J. Sundstrom,  H. L. Woodcock III,  
 P. M. Zimmerman,  D. Zuev,  B. Albrecht,  E. Alguire,  B. Austin,  
 G. J. O. Beran,  Y. A. Bernard,  E. Berquist,  K. Brandhorst,  
 K. B. Bravaya,  S. T. Brown,  D. Casanova,  C.-M. Chang,  Y. Chen,  
 S. H. Chien,  K. D. Closser,  D. L. Crittenden,  M. Diedenhofen,  
 R. A. DiStasio Jr.,  H. Do,  A. D. Dutoi,  R. G. Edgar,  S. Fatehi,  
 L. Fusti-Molnar,  A. Ghysels,  A. Golubeva-Zadorozhnaya,  J. Gomes,  
 M. W. D. Hanson-Heine,  P. H. P. Harbach,  A. W. Hauser,  E. G. Hohenstein,  
 Z. C. Holden,  T.-C. Jagau,  H. Ji,  B. Kaduk,  K. Khistyaev,  Jaehoon Kim,  
 Jihan Kim,  R. A. King,  P. Klunzinger,  D. Kosenkov,  T. Kowalczyk,  
 C. M. Krauter,  K. U. Lao,  A. Laurent,  K. V. Lawler,  S. V. Levchenko,  
 C. Y. Lin,  F. Liu,  E. Livshits,  R. C. Lochan,  A. Luenser,  P. Manohar,  
 S. F. Manzer,  S.-P. Mao,  N. Mardirossian,  A. V. Marenich,  S. A. Maurer,  
 N. J. Mayhall,  C. M. Oana,  R. Olivares-Amaya,  D. P. O'Neill,  
 J. A. Parkhill,  T. M. Perrine,  R. Peverati,  P. A. Pieniazek,  A. Prociuk,  
 D. R. Rehn,  E. Rosta,  N. J. Russ,  N. Sergueev,  S. M. Sharada,  
 S. Sharma,  D. W. Small,  A. Sodt,  T. Stein,  D. Stuck,  Y.-C. Su,  
 A. J. W. Thom,  T. Tsuchimochi,  L. Vogt,  O. Vydrov,  T. Wang,  
 M. A. Watson,  J. Wenzel,  A. White,  C. F. Williams,  V. Vanovschi,  
 S. Yeganeh,  S. R. Yost,  Z.-Q. You,  I. Y. Zhang,  X. Zhang,  Y. Zhao,  
 B. R. Brooks,  G. K. L. Chan,  D. M. Chipman,  C. J. Cramer,  
 W. A. Goddard III,  M. S. Gordon,  W. J. Hehre,  A. Klamt,  
 H. F. Schaefer III,  M. W. Schmidt,  C. D. Sherrill,  D. G. Truhlar,  
 A. Warshel,  X. Xu,  A. Aspuru-Guzik,  R. Baer,  A. T. Bell,  N. A. Besley,  
 J.-D. Chai,  A. Dreuw,  B. D. Dunietz,  T. R. Furlani,  S. R. Gwaltney,  
 C.-P. Hsu,  Y. Jung,  J. Kong,  D. S. Lambrecht,  W. Liang,  C. Ochsenfeld,  
 V. A. Rassolov,  L. V. Slipchenko,  J. E. Subotnik,  T. Van Voorhis,  
 J. M. Herbert,  A. I. Krylov,  P. M. W. Gill,  M. Head-Gordon

 Contributors to earlier versions of Q-Chem not listed above: 
 R. D. Adamson,  J. Baker,  E. F. C. Byrd,  A. K. Chakraborty,  C.-L. Cheng,  
 H. Dachsel,  R. J. Doerksen,  G. Hawkins,  A. Heyden,  S. Hirata,  
 G. Kedziora,  F. J. Keil,  C. Kelley,  P. P. Korambath,  W. Kurlancheek,  
 A. M. Lee,  M. S. Lee,  D. Liotard,  I. Lotan,  P. E. Maslen,  N. Nair,  
 D. Neuhauser,  R. Olson,  B. Peters,  J. Ritchie,  N. E. Schultz,  
 N. Shenvi,  A. C. Simmonett,  K. S. Thanthiriwatte,  Q. Wu,  W. Zhang

 Q-Chem 4.2.0 for Intel X86 Linux

 Parts of Q-Chem use Armadillo 4.100.2 (Dirt Cruiser).
 http://arma.sourceforge.net/

 Q-Chem begins on Wed Jul  9 07:49:08 2014  

Host: 
0

     Scratch files written to /scratch/edames/qchem17599.0//
 May2514 8580_ilyak 4150   
 Parallel job on  8  processors
Processing $rem in /opt/qchem/config/preferences.
 MEM_TOTAL  2000 
Warning: disabling incdft.
 Q-Chem warning in module /home/scratch/svnadmin/8580_ilyak/qchem/forms1/BasisType.C, line 1209:

 Setting pure/cartesian flag to 2111 for general basis


Finally everything over in PARseQInput

--------------------------------------------------------------
User input:
--------------------------------------------------------------
$rem
XC_GRID 000075000434
JOBTYPE opt
EXCHANGE M08SO
SCF_ALGORITHM DIIS_GDM
BASIS gen
GUI=2
UNRESTRICTED TRUE
CORRELATION NONE
$end

$comment
c5h11o-2
$end

$molecule
0 2
C        -1.7170206182   -0.9051346785    0.6026608630
C        -1.0556295075   -0.0542546501   -0.4842397155
C        -0.9600384715    1.4068860248   -0.0337295679
C         0.3436451532   -0.6186315053   -0.8427510487
C         1.3479005731   -0.5458611343    0.2565113345
O         2.0637846789    0.5986096426    0.4566375381
H        -1.6689702424   -0.1018174287   -1.3977784644
H        -1.0988901825   -0.8950900552    1.5121799525
H        -2.7107124214   -0.5173129388    0.8614005138
H        -1.8290590173   -1.9489278579    0.2802017706
H        -0.3932726830    1.4783644283    0.9068011932
H        -0.4651902016    2.0327666133   -0.7925925608
H        -1.9553615328    1.8321659042    0.1471112643
H         0.7280702214   -0.0685577255   -1.7241637374
H         0.2302774799   -1.6678860705   -1.1521618059
H         1.7698049103   -1.4068920960    0.7624561736
H         1.6919841919    1.3197896683   -0.0653087857
$end

$basis
H  0
S  3 1.00
3.386500000000E+01 2.549380000000E-02
5.094790000000E+00 1.903730000000E-01
1.158790000000E+00 8.521610000000E-01
S  1 1.00
3.258400000000E-01 1.000000000000E+00
S  1 1.00
1.027410000000E-01 1.000000000000E+00
S  1 1.00
3.600000000000E-02 1.000000000000E+00
P  1 1.00
1.500000000000E+00 1.000000000000E+00
P  1 1.00
3.750000000000E-01 1.000000000000E+00
****
C 0
S  6 1.00
4.563240000000E+03 1.966650000000E-03
6.820240000000E+02 1.523060000000E-02
1.549730000000E+02 7.612690000000E-02
4.445530000000E+01 2.608010000000E-01
1.302900000000E+01 6.164620000000E-01
1.827730000000E+00 2.210060000000E-01
S  3 1.00
2.096420000000E+01 1.146600000000E-01
4.803310000000E+00 9.199990000000E-01
1.459330000000E+00 -3.030680000000E-03
S  1 1.00
4.834560000000E-01 1.000000000000E+00
S  1 1.00
1.455850000000E-01 1.000000000000E+00
S  1 1.00
4.380000000000E-02 1.000000000000E+00
P  3 1.00
2.096420000000E+01 4.024870000000E-02
4.803310000000E+00 2.375940000000E-01
1.459330000000E+00 8.158540000000E-01
P  1 1.00
4.834560000000E-01 1.000000000000E+00
P  1 1.00
1.455850000000E-01 1.000000000000E+00
P  1 1.00
4.380000000000E-02 1.000000000000E+00
D  1 1.00
1.252000000000E+00 1.000000000000E+00
D  1 1.00
3.130000000000E-01 1.000000000000E+00
F  1 1.00
8.000000000000E-01 1.000000000000E+00
****
O  0
S  6 1.00
8.588500000000E+03 1.895150000000E-03
1.297230000000E+03 1.438590000000E-02
2.992960000000E+02 7.073200000000E-02
8.737710000000E+01 2.400010000000E-01
2.567890000000E+01 5.947970000000E-01
3.740040000000E+00 2.808020000000E-01
S  3 1.00
4.211750000000E+01 1.138890000000E-01
9.628370000000E+00 9.208110000000E-01
2.853320000000E+00 -3.274470000000E-03
S  1 1.00
9.056610000000E-01 1.000000000000E+00
S  1 1.00
2.556110000000E-01 1.000000000000E+00
S  1 1.00
8.450000000000E-02 1.000000000000E+00
P  3 1.00
4.211750000000E+01 3.651140000000E-02
9.628370000000E+00 2.371530000000E-01
2.853320000000E+00 8.197020000000E-01
P  1 1.00
9.056610000000E-01 1.000000000000E+00
P  1 1.00
2.556110000000E-01 1.000000000000E+00
P  1 1.00
8.450000000000E-02 1.000000000000E+00
D  1 1.00
2.584000000000E+00 1.000000000000E+00
D  1 1.00
6.460000000000E-01 1.000000000000E+00
F  1 1.00
1.400000000000E+00 1.000000000000E+00
****
$end

--------------------------------------------------------------
 ----------------------------------------------------------------
             Standard Nuclear Orientation (Angstroms)
    I     Atom           X                Y                Z
 ----------------------------------------------------------------
    1      C      -1.7587502602    -0.7450015936     0.6349289634
    2      C      -1.0400162719     0.0537402952    -0.4551264208
    3      C      -0.7775674887     1.4868036561     0.0186658869
    4      C       0.2812016304    -0.6478461384    -0.8640040523
    5      C       1.3166090532    -0.7047771374     0.2069266609
    6      O       2.1552278281     0.3530969284     0.4068639529
    7      H      -1.6792069400     0.0904868413    -1.3512776926
    8      H      -1.1188956695    -0.8194698937     1.5262491523
    9      H      -2.6982781005    -0.2597520141     0.9292002521
   10      H      -1.9897396455    -1.7640959899     0.2971018096
   11      H      -0.1814044421     1.4781941404     0.9435692504
   12      H      -0.2395007743     2.0725980899    -0.7427823750
   13      H      -1.7168224101     2.0110986172     0.2358049328
   14      H       0.6981653507    -0.1231665279    -1.7461064763
   15      H       0.0486601190    -1.6725030143    -1.1888503555
   16      H       1.6579838430    -1.6160234304     0.6848923640
   17      H       1.8483560672     1.1203432623    -0.0910587137
 ----------------------------------------------------------------
 Molecular Point Group                 C1    NOp =  1
 Largest Abelian Subgroup              C1    NOp =  1
 Nuclear Repulsion Energy =   251.7485906157 hartrees
 There are       25 alpha and       24 beta electrons
 Requested basis set is non-standard
 There are 138 shells and 314 basis functions

Total QAlloc Memory Limit   2000 MB
Mega-Array Size        61 MB
MEM_STATIC part        62 MB
 A cutoff of  1.0D-12 yielded   9190 shell pairs
 There are     47670 function pairs (     57367 Cartesian)
 Smallest overlap matrix eigenvalue = 1.83E-05

  Scale SEOQF with 1.000000e-01/1.000000e-01/1.000000e-01

 Standard Electronic Orientation quadrupole field applied
 Nucleus-field energy     =     0.0000000045 hartrees
 Guess MOs from core Hamiltonian diagonalization
 An unrestricted hybrid HF-DFT SCF calculation will be
 performed using Pulay DIIS + Geometric Direct Minimization
 Exchange:     0.5679 Hartree-Fock + 1.0000 M08SO
 SCF converges when RMS gradient is below 1.0E-08
 ---------------------------------------
  Cycle       Energy         DIIS Error
 ---------------------------------------
    1    -192.0421571971      9.13E-02
    2    -175.2179479937      4.82E-02
    3    -180.1821659953      6.36E-02
    4    -245.7721188595      3.50E-02
    5    -269.0398188117      1.54E-02
    6    -271.3288317515      8.30E-03 Done DIIS. Switching to GDM
    7    -272.1096875781      7.55E-02 Descent step
    8    -272.2021907362      3.61E-02 Normal BFGS step
    9    -272.2130931912      1.77E-02 Normal BFGS step
   10    -272.2147947359      3.45E-03 Normal BFGS step
   11    -272.2152988007      9.99E-04 Normal BFGS step
   12    -272.2153248023      5.51E-04 Normal BFGS step
   13    -272.2153302948      1.95E-04 Normal BFGS step
   14    -272.2153309163      6.17E-05 Normal BFGS step
   15    -272.2153310523      2.08E-05 Normal BFGS step
   16    -272.2153310627      7.87E-06 Normal BFGS step
   17    -272.2153310648      2.35E-06 Normal BFGS step
   18    -272.2153310650      6.73E-07 Normal BFGS step
   19    -272.2153310651      2.64E-07 Normal BFGS step
   GDM::WARNING energy changes are now smaller than effective accuracy.
   GDM::        calculation will continue, but THRESH should be increased
   GDM::        or SCF_CONVERGENCE decreased.
   GDM::        effective_thresh =   3.729117069826982E-009
   20    -272.2153310650      6.86E-08 Normal BFGS step
   21    -272.2153310650      3.83E-08 Normal BFGS step
   22    -272.2153310651      9.45E-09 Convergence criterion met
 ---------------------------------------
 <S^2> = 0.7550
 SCF time:  CPU 1495.23 s  wall 2292.50 s
 SCF   energy in the final basis set = -272.2153310651
 Total energy in the final basis set = -272.2153310651
 Analysis of SCF Wavefunction
 
 --------------------------------------------------------------
                    Orbital Energies (a.u.)
 --------------------------------------------------------------
 
 Alpha MOs
 -- Occupied --
-19.593 -10.542 -10.506 -10.504 -10.491 -10.483  -1.171  -0.918
 -0.821  -0.779  -0.727  -0.655  -0.573  -0.561  -0.543  -0.513
 -0.497  -0.481  -0.457  -0.438  -0.434  -0.403  -0.399  -0.389
 -0.225
 -- Virtual --
 -0.027  -0.013  -0.007  -0.006   0.012   0.016   0.020   0.022
  0.026   0.052   0.055   0.062   0.071   0.082   0.086   0.089
  0.099   0.113   0.116   0.124   0.126   0.130   0.134   0.141
  0.143   0.145   0.147   0.150   0.158   0.164   0.188   0.205
  0.212   0.221   0.226   0.241   0.244   0.254   0.263   0.269
  0.283   0.296   0.297   0.308   0.313   0.328   0.330   0.360
  0.367   0.390   0.395   0.416   0.434   0.470   0.481   0.487
  0.499   0.505   0.520   0.540   0.558   0.563   0.566   0.568
  0.576   0.583   0.597   0.602   0.607   0.615   0.628   0.640
  0.646   0.659   0.676   0.685   0.693   0.697   0.717   0.729
  0.752   0.754   0.801   0.817   0.839   0.851   0.884   0.921
  0.933   0.953   0.961   0.989   1.002   1.019   1.036   1.050
  1.068   1.075   1.097   1.117   1.125   1.138   1.157   1.168
  1.174   1.188   1.200   1.210   1.238   1.251   1.264   1.284
  1.304   1.313   1.328   1.334   1.352   1.366   1.371   1.379
  1.391   1.402   1.408   1.413   1.433   1.449   1.472   1.481
  1.494   1.509   1.518   1.544   1.554   1.569   1.585   1.611
  1.624   1.629   1.653   1.688   1.714   1.752   1.781   1.823
  1.917   1.966   2.221   2.282   2.350   2.385   2.431   2.503
  2.517   2.525   2.548   2.614   2.634   2.667   2.697   2.731
  2.746   2.779   2.790   2.804   2.828   2.837   2.860   2.877
  2.920   2.936   2.954   2.964   2.987   3.014   3.029   3.045
  3.077   3.114   3.126   3.141   3.159   3.179   3.227   3.244
  3.250   3.267   3.297   3.316   3.333   3.351   3.358   3.381
  3.394   3.412   3.429   3.438   3.454   3.491   3.510   3.539
  3.559   3.593   3.613   3.629   3.655   3.675   3.694   3.715
  3.726   3.745   3.767   3.796   3.820   3.832   3.844   3.872
  3.892   3.922   3.932   3.963   3.970   3.987   3.995   4.010
  4.040   4.054   4.090   4.119   4.142   4.157   4.165   4.180
  4.196   4.202   4.211   4.222   4.249   4.261   4.312   4.344
  4.367   4.402   4.424   4.435   4.450   4.514   4.519   4.532
  4.536   4.576   4.590   4.628   4.669   4.689   4.726   4.786
  4.850   5.051   5.119   5.152   5.169   5.286   5.340   5.360
  5.387   5.503   5.516   5.541   5.571   5.600   5.634   5.645
  5.651   5.686   5.763   6.107   6.574   6.920   7.104   7.131
  7.243   7.496   7.575  24.066  24.108  24.172  24.248  24.291
 49.799
 
 Beta MOs
 -- Occupied --
-19.588 -10.526 -10.505 -10.504 -10.491 -10.483  -1.158  -0.916
 -0.815  -0.779  -0.714  -0.653  -0.566  -0.551  -0.535  -0.509
 -0.494  -0.459  -0.443  -0.438  -0.431  -0.399  -0.394  -0.388
 -- Virtual --
 -0.034  -0.017  -0.013  -0.011  -0.001   0.010   0.013   0.018
  0.019   0.027   0.049   0.054   0.062   0.067   0.076   0.083
  0.085   0.096   0.109   0.113   0.121   0.123   0.125   0.131
  0.138   0.140   0.142   0.145   0.147   0.155   0.162   0.186
  0.207   0.211   0.220   0.227   0.240   0.243   0.257   0.267
  0.270   0.282   0.295   0.298   0.306   0.312   0.328   0.335
  0.368   0.371   0.392   0.398   0.415   0.434   0.469   0.481
  0.489   0.501   0.509   0.528   0.546   0.559   0.563   0.568
  0.571   0.579   0.592   0.602   0.604   0.611   0.619   0.637
  0.646   0.651   0.662   0.684   0.689   0.699   0.703   0.719
  0.731   0.755   0.766   0.810   0.825   0.840   0.854   0.889
  0.925   0.937   0.955   0.964   0.993   1.003   1.023   1.042
  1.052   1.069   1.076   1.099   1.120   1.131   1.143   1.168
  1.174   1.178   1.191   1.204   1.214   1.246   1.254   1.272
  1.286   1.309   1.316   1.329   1.335   1.356   1.369   1.376
  1.381   1.392   1.405   1.410   1.418   1.447   1.456   1.475
  1.482   1.500   1.513   1.523   1.555   1.558   1.572   1.586
  1.613   1.628   1.631   1.657   1.690   1.719   1.755   1.786
  1.835   1.931   1.985   2.236   2.282   2.362   2.387   2.433
  2.521   2.522   2.552   2.560   2.618   2.657   2.693   2.705
  2.737   2.758   2.799   2.805   2.851   2.860   2.866   2.882
  2.897   2.936   2.948   2.956   2.993   3.017   3.042   3.068
  3.094   3.110   3.125   3.150   3.178   3.187   3.230   3.249
  3.264   3.271   3.285   3.322   3.329   3.345   3.360   3.377
  3.405   3.435   3.441   3.446   3.455   3.477   3.512   3.545
  3.556   3.594   3.600   3.618   3.646   3.673   3.682   3.703
  3.726   3.736   3.753   3.773   3.803   3.829   3.843   3.850
  3.879   3.895   3.933   3.943   3.964   3.971   3.995   4.012
  4.020   4.044   4.066   4.104   4.130   4.143   4.164   4.171
  4.182   4.198   4.214   4.218   4.240   4.263   4.274   4.316
  4.358   4.375   4.422   4.444   4.448   4.468   4.517   4.529
  4.536   4.546   4.582   4.614   4.649   4.671   4.708   4.766
  4.859   4.877   5.119   5.136   5.163   5.188   5.298   5.333
  5.369   5.397   5.506   5.529   5.566   5.600   5.607   5.636
  5.648   5.652   5.697   5.766   6.109   6.570   6.922   7.108
  7.145   7.243   7.485   7.558  24.067  24.112  24.173  24.249
 24.312  49.805
 --------------------------------------------------------------
 
          Ground-State Mulliken Net Atomic Charges

     Atom                 Charge (a.u.)    Spin (a.u.)
  --------------------------------------------------------
      1 C                    -0.669689       0.001790
      2 C                    -0.066986       0.061656
      3 C                    -0.773723      -0.032039
      4 C                    -0.590450      -0.089239
      5 C                    -0.231789       0.961519
      6 O                    -0.270591       0.064586
      7 H                     0.255601       0.008018
      8 H                     0.228533      -0.000371
      9 H                     0.191885       0.002624
     10 H                     0.186659      -0.002029
     11 H                     0.269908      -0.003866
     12 H                     0.223960       0.006493
     13 H                     0.203389      -0.004644
     14 H                     0.288020       0.039001
     15 H                     0.233186       0.018909
     16 H                     0.236437      -0.034708
     17 H                     0.285650       0.002300
  --------------------------------------------------------
  Sum of atomic charges =     0.000000
  Sum of spin   charges =     1.000000

 -----------------------------------------------------------------
                    Cartesian Multipole Moments
 -----------------------------------------------------------------
    Charge (ESU x 10^10)
                 0.0000
    Dipole Moment (Debye)
         X      -1.2662      Y       0.3404      Z      -1.1461
       Tot       1.7415
    Quadrupole Moments (Debye-Ang)
        XX     -44.5778     XY       0.2858     YY     -37.6580
        XZ      -1.6368     YZ      -0.8904     ZZ     -41.1299
    Octopole Moments (Debye-Ang^2)
       XXX      -7.3328    XXY       2.4318    XYY       7.1589
       YYY       1.2687    XXZ      -3.4351    XYZ      -3.6240
       YYZ      -0.3089    XZZ       2.1678    YZZ       0.5799
       ZZZ      -0.1420
    Hexadecapole Moments (Debye-Ang^3)
      XXXX    -565.0090   XXXY      -1.5735   XXYY    -121.6689
      XYYY       8.1347   YYYY    -259.0503   XXXZ      -5.7385
      XXYZ      -4.4613   XYYZ       2.9403   YYYZ      -0.4683
      XXZZ    -116.3053   XYZZ       0.1986   YYZZ     -69.5397
      XZZZ       3.7664   YZZZ      -0.2370   ZZZZ    -153.3236
 -----------------------------------------------------------------
 Calculating analytic gradient of the SCF energy
 Gradient of Coulomb and Exchange Energy
            1           2           3           4           5           6
    1   3.5188594   2.3231015   2.5704735   0.0701772  -1.4427964 -11.5409150
    2   1.8614277  -1.4113511  -3.6104901   2.1230904   4.2611553  -2.6656209
    3  -1.3747904   1.6353477   0.6565928  -0.2254346   1.0549466  -4.8581242
            7           8           9          10          11          12
    1   3.0964856  -1.4852223   3.5992128   1.2317470  -1.8968888  -1.9316078
    2  -0.0825804   0.7570430  -1.2598261   3.8005245  -0.9652075  -2.5949994
    3   3.7914873  -3.5533554  -1.4345519   0.6490592  -3.0654617   2.1665195
           13          14          15          16          17
    1   3.5594676  -1.7482882   1.1531517  -1.7095784   0.6326207
    2  -2.4190547  -2.0055018   4.5206471   4.2499856  -4.5592416
    3  -0.8769661   3.7778673   1.8505273  -2.3095898   2.1159265
 Gradient of SCF Energy
            1           2           3           4           5           6
    1   0.0000249   0.0000880  -0.0000631  -0.0000320   0.0000216  -0.0000900
    2   0.0000638  -0.0000252   0.0000352   0.0001048  -0.0000183  -0.0000266
    3   0.0000856   0.0000049  -0.0000703   0.0000163   0.0000484   0.0000276
            7           8           9          10          11          12
    1   0.0000032  -0.0000531   0.0000134  -0.0000175   0.0000149  -0.0000383
    2  -0.0000104   0.0000372  -0.0000202  -0.0000631   0.0000263  -0.0000161
    3  -0.0000308  -0.0000524  -0.0000052  -0.0000160   0.0000107   0.0000353
           13          14          15          16          17
    1   0.0000298   0.0000133  -0.0000149   0.0000224   0.0000773
    2  -0.0000112   0.0000409  -0.0000276  -0.0000393  -0.0000504
    3  -0.0000166   0.0000251  -0.0000081  -0.0000042  -0.0000503
 Max gradient component =       1.048E-04
 RMS gradient           =       4.216E-05
 Gradient time:  CPU 82.88 s  wall 124.67 s
 Geometry Optimization Parameters
   NAtoms,    NIC,     NZ,  NCons,   NDum,   NFix, NCnnct, MaxDiis
       17     113       0       0       0       0       0       0


** GEOMETRY OPTIMIZATION IN DELOCALIZED INTERNAL COORDINATES **
   Searching for a Minimum

   Optimization Cycle:   1

                       Coordinates (Angstroms)
     ATOM                X               Y               Z
      1  C        -1.7587502602   -0.7450015936    0.6349289634
      2  C        -1.0400162719    0.0537402952   -0.4551264208
      3  C        -0.7775674887    1.4868036561    0.0186658869
      4  C         0.2812016304   -0.6478461384   -0.8640040523
      5  C         1.3166090532   -0.7047771374    0.2069266609
      6  O         2.1552278281    0.3530969284    0.4068639529
      7  H        -1.6792069400    0.0904868413   -1.3512776926
      8  H        -1.1188956695   -0.8194698937    1.5262491523
      9  H        -2.6982781005   -0.2597520141    0.9292002521
     10  H        -1.9897396455   -1.7640959899    0.2971018096
     11  H        -0.1814044421    1.4781941404    0.9435692504
     12  H        -0.2395007743    2.0725980899   -0.7427823750
     13  H        -1.7168224101    2.0110986172    0.2358049328
     14  H         0.6981653507   -0.1231665279   -1.7461064763
     15  H         0.0486601190   -1.6725030143   -1.1888503555
     16  H         1.6579838430   -1.6160234304    0.6848923640
     17  H         1.8483560672    1.1203432623   -0.0910587137
   Point Group: c1    Number of degrees of freedom:    45


   Energy is   -272.215331065


 Attempting to Generate Delocalized Internal Coordinates
 GETINT wrote B to file, NVib is           45
 calling HSSCONV
 HCONV 3*NATOMS:           51
 wrote HINT to file
  writing hessian 

 45 Hessian modes will be used to form the next step
  Hessian Eigenvalues:
     0.002457    0.004946    0.005129    0.010408    0.014172    0.020317
     0.036854    0.039495    0.048148    0.048470    0.054329    0.055443
     0.055696    0.056776    0.057425    0.097908    0.131069    0.157273
     0.160000    0.160000    0.160000    0.160000    0.160000    0.160000
     0.160000    0.166270    0.167012    0.219913    0.220791    0.275821
     0.292393    0.293665    0.328326    0.333724    0.335318    0.335581
     0.336354    0.337061    0.337117    0.338823    0.339464    0.339740
     0.354988    0.520125    0.544618

 Minimum Search - Taking Simple RFO Step
 Searching for Lamda that Minimizes Along All modes
 Value Taken    Lamda =  -0.00000552
 Step Taken.  Stepsize is  0.037855

                             Maximum     Tolerance    Cnvgd?
         Gradient           0.000285      0.000300     YES
         Displacement       0.019951      0.001200      NO
         Energy change     *********      0.000001      NO


 New Cartesian Coordinates Obtained by Inverse Iteration

 Displacement from previous Coordinates is:  0.074105
 ----------------------------------------------------------------
             Standard Nuclear Orientation (Angstroms)
    I     Atom           X                Y                Z
 ----------------------------------------------------------------
    1      C      -1.7631127655    -0.7459539683     0.6316693493
    2      C      -1.0395340115     0.0531138857    -0.4548682137
    3      C      -0.7724753292     1.4838066219     0.0234403751
    4      C       0.2805323897    -0.6514189089    -0.8624724344
    5      C       1.3188515703    -0.6986562981     0.2060545680
    6      O       2.1537874532     0.3635965891     0.3985126832
    7      H      -1.6768434532     0.0943660951    -1.3521207907
    8      H      -1.1246595441    -0.8264435663     1.5236065058
    9      H      -2.7008427331    -0.2573619039     0.9262958274
   10      H      -1.9982586960    -1.7627350844     0.2901104945
   11      H      -0.1790466797     1.4699563159     0.9500019160
   12      H      -0.2295298879     2.0692743746    -0.7349187409
   13      H      -1.7101259737     2.0115688408     0.2393561657
   14      H       0.6947458648    -0.1329887161    -1.7495361911
   15      H       0.0479318440    -1.6785472826    -1.1792102769
   16      H       1.6635939099    -1.6056482355     0.6895508565
   17      H       1.8410079310     1.1277973322    -0.1004749546
 ----------------------------------------------------------------
 Molecular Point Group                 C1    NOp =  1
 Largest Abelian Subgroup              C1    NOp =  1
 Nuclear Repulsion Energy =   251.8128891801 hartrees
 There are       25 alpha and       24 beta electrons
 Applying Cartesian multipole field
    Component          Value
    ---------          -----
     (2,0,0)        1.00000E-11
     (0,2,0)        2.00000E-11
     (0,0,2)       -3.00000E-11
 Nucleus-field energy     =     0.0000000045 hartrees
 Requested basis set is non-standard
 There are 138 shells and 314 basis functions
 A cutoff of  1.0D-12 yielded   9191 shell pairs
 There are     47677 function pairs (     57374 Cartesian)
 Smallest overlap matrix eigenvalue = 1.83E-05
 Guess MOs from SCF MO coefficient file
Reading MOs from coefficient file
Reading MOs from coefficient file
 An unrestricted hybrid HF-DFT SCF calculation will be
 performed using Pulay DIIS + Geometric Direct Minimization
 Exchange:     0.5679 Hartree-Fock + 1.0000 M08SO
 SCF converges when RMS gradient is below 1.0E-08
Geometry optimization detected.  Setting ReadMinima to 0
Setting SaveMinima to 0
 ---------------------------------------
  Cycle       Energy        RMS Gradient
 ---------------------------------------
    1    -272.2154484174      1.03E-04 Done DIIS. Switching to GDM
    2    -272.2153286843      2.38E-04 Normal BFGS step
    3    -272.2153317886      1.47E-04 Normal BFGS step
    4    -272.2153322091      1.04E-04 Normal BFGS step
    5    -272.2153324288      1.11E-05 Normal BFGS step
    6    -272.2153324342      7.94E-06 Normal BFGS step
    7    -272.2153324377      1.73E-06 Normal BFGS step
    8    -272.2153324378      8.05E-07 Normal BFGS step
    9    -272.2153324378      2.89E-07 Normal BFGS step
   GDM::WARNING energy changes are now smaller than effective accuracy.
   GDM::        calculation will continue, but THRESH should be increased
   GDM::        or SCF_CONVERGENCE decreased.
   GDM::        effective_thresh =   2.500000000000000E-010
   10    -272.2153324378      1.11E-07 Normal BFGS step
   GDM::WARNING energy changes are now smaller than effective accuracy.
   GDM::        calculation will continue, but THRESH should be increased
   GDM::        or SCF_CONVERGENCE decreased.
   GDM::        effective_thresh =   2.500000000000000E-010
   11    -272.2153324378      2.33E-08 Normal BFGS step
   12    -272.2153324379      1.39E-08 Normal BFGS step
   GDM::WARNING energy changes are now smaller than effective accuracy.
   GDM::        calculation will continue, but THRESH should be increased
   GDM::        or SCF_CONVERGENCE decreased.
   GDM::        effective_thresh =   2.500000000000000E-010
   13    -272.2153324378      4.73E-09 Convergence criterion met
 ---------------------------------------
 <S^2> = 0.7550
 SCF time:  CPU 957.40 s  wall 1418.27 s
 SCF   energy in the final basis set = -272.2153324378
 Total energy in the final basis set = -272.2153324378
 Analysis of SCF Wavefunction
 
 --------------------------------------------------------------
                    Orbital Energies (a.u.)
 --------------------------------------------------------------
 
 Alpha MOs
 -- Occupied --
-19.593 -10.542 -10.506 -10.504 -10.491 -10.483  -1.171  -0.918
 -0.821  -0.779  -0.727  -0.655  -0.573  -0.561  -0.543  -0.513
 -0.497  -0.481  -0.457  -0.439  -0.434  -0.403  -0.399  -0.389
 -0.225
 -- Virtual --
 -0.026  -0.012  -0.007  -0.006   0.012   0.016   0.020   0.023
  0.026   0.052   0.055   0.062   0.071   0.082   0.086   0.089
  0.099   0.113   0.116   0.124   0.126   0.130   0.134   0.141
  0.143   0.145   0.147   0.150   0.158   0.164   0.187   0.205
  0.212   0.221   0.227   0.241   0.244   0.253   0.263   0.269
  0.283   0.296   0.297   0.308   0.314   0.328   0.330   0.360
  0.367   0.390   0.395   0.416   0.434   0.470   0.481   0.487
  0.499   0.506   0.520   0.540   0.558   0.562   0.566   0.568
  0.577   0.583   0.597   0.602   0.606   0.614   0.629   0.640
  0.646   0.659   0.677   0.685   0.693   0.697   0.717   0.729
  0.752   0.755   0.801   0.817   0.838   0.851   0.884   0.921
  0.933   0.953   0.961   0.990   1.002   1.018   1.036   1.051
  1.069   1.075   1.097   1.117   1.126   1.138   1.157   1.167
  1.174   1.189   1.199   1.211   1.237   1.251   1.265   1.284
  1.305   1.313   1.328   1.334   1.351   1.366   1.370   1.380
  1.390   1.403   1.408   1.413   1.433   1.449   1.472   1.481
  1.494   1.508   1.518   1.545   1.555   1.570   1.585   1.611
  1.624   1.628   1.653   1.688   1.714   1.751   1.781   1.824
  1.917   1.965   2.221   2.284   2.350   2.385   2.431   2.504
  2.516   2.525   2.548   2.614   2.635   2.667   2.696   2.731
  2.746   2.780   2.789   2.805   2.829   2.836   2.860   2.877
  2.919   2.936   2.955   2.964   2.987   3.014   3.029   3.046
  3.078   3.114   3.124   3.141   3.159   3.178   3.227   3.244
  3.251   3.268   3.297   3.316   3.333   3.351   3.357   3.381
  3.394   3.412   3.428   3.438   3.455   3.491   3.511   3.538
  3.559   3.592   3.613   3.629   3.655   3.676   3.694   3.716
  3.726   3.745   3.768   3.796   3.820   3.832   3.844   3.873
  3.892   3.922   3.932   3.964   3.970   3.987   3.996   4.010
  4.040   4.055   4.090   4.119   4.142   4.156   4.164   4.179
  4.196   4.204   4.211   4.221   4.251   4.262   4.311   4.343
  4.367   4.402   4.425   4.437   4.451   4.513   4.519   4.532
  4.536   4.576   4.589   4.628   4.669   4.689   4.726   4.786
  4.850   5.052   5.120   5.153   5.170   5.286   5.340   5.361
  5.388   5.503   5.517   5.541   5.571   5.599   5.634   5.645
  5.651   5.686   5.763   6.108   6.574   6.921   7.104   7.131
  7.243   7.496   7.575  24.066  24.108  24.172  24.248  24.291
 49.799
 
 Beta MOs
 -- Occupied --
-19.588 -10.526 -10.505 -10.504 -10.491 -10.483  -1.158  -0.916
 -0.815  -0.779  -0.714  -0.654  -0.566  -0.551  -0.535  -0.510
 -0.494  -0.460  -0.443  -0.438  -0.431  -0.399  -0.394  -0.388
 -- Virtual --
 -0.034  -0.017  -0.013  -0.011  -0.001   0.009   0.013   0.018
  0.019   0.027   0.049   0.054   0.062   0.067   0.076   0.083
  0.085   0.096   0.109   0.113   0.121   0.123   0.125   0.131
  0.138   0.140   0.142   0.145   0.147   0.155   0.162   0.186
  0.207   0.211   0.220   0.228   0.240   0.243   0.256   0.267
  0.270   0.282   0.295   0.299   0.305   0.313   0.328   0.336
  0.368   0.370   0.392   0.398   0.415   0.434   0.469   0.481
  0.489   0.501   0.509   0.528   0.546   0.560   0.563   0.569
  0.571   0.579   0.592   0.602   0.604   0.611   0.619   0.637
  0.646   0.651   0.662   0.684   0.689   0.700   0.704   0.719
  0.731   0.755   0.767   0.811   0.825   0.840   0.854   0.888
  0.924   0.937   0.956   0.964   0.994   1.003   1.022   1.042
  1.052   1.070   1.075   1.099   1.120   1.132   1.143   1.168
  1.173   1.178   1.192   1.203   1.215   1.245   1.254   1.273
  1.286   1.310   1.316   1.329   1.335   1.356   1.369   1.376
  1.381   1.392   1.406   1.410   1.419   1.447   1.455   1.476
  1.482   1.500   1.513   1.523   1.556   1.558   1.573   1.586
  1.614   1.628   1.630   1.656   1.690   1.720   1.755   1.785
  1.836   1.931   1.985   2.236   2.284   2.362   2.387   2.433
  2.521   2.523   2.551   2.561   2.619   2.658   2.693   2.705
  2.738   2.758   2.799   2.805   2.852   2.860   2.867   2.882
  2.897   2.936   2.949   2.956   2.993   3.017   3.042   3.068
  3.095   3.110   3.125   3.150   3.179   3.188   3.229   3.249
  3.263   3.271   3.286   3.322   3.329   3.345   3.360   3.377
  3.405   3.436   3.440   3.446   3.456   3.477   3.513   3.544
  3.556   3.593   3.600   3.618   3.646   3.674   3.682   3.704
  3.726   3.735   3.753   3.774   3.803   3.829   3.843   3.851
  3.880   3.895   3.934   3.943   3.964   3.972   3.994   4.012
  4.020   4.043   4.067   4.105   4.130   4.143   4.163   4.170
  4.182   4.198   4.214   4.218   4.242   4.264   4.273   4.315
  4.357   4.376   4.422   4.444   4.449   4.469   4.516   4.528
  4.536   4.546   4.582   4.612   4.649   4.672   4.708   4.767
  4.859   4.877   5.119   5.136   5.164   5.189   5.298   5.333
  5.369   5.397   5.505   5.529   5.566   5.600   5.606   5.636
  5.648   5.652   5.697   5.766   6.109   6.570   6.922   7.108
  7.144   7.244   7.485   7.559  24.067  24.112  24.172  24.249
 24.312  49.805
 --------------------------------------------------------------
 
          Ground-State Mulliken Net Atomic Charges

     Atom                 Charge (a.u.)    Spin (a.u.)
  --------------------------------------------------------
      1 C                    -0.670266       0.001546
      2 C                    -0.066229       0.062931
      3 C                    -0.775367      -0.032796
      4 C                    -0.588401      -0.090380
      5 C                    -0.232897       0.961843
      6 O                    -0.270288       0.064497
      7 H                     0.255706       0.008340
      8 H                     0.227884      -0.000160
      9 H                     0.191685       0.002495
     10 H                     0.186272      -0.002067
     11 H                     0.271983      -0.003850
     12 H                     0.223710       0.006550
     13 H                     0.203480      -0.004706
     14 H                     0.288137       0.039452
     15 H                     0.232358       0.018694
     16 H                     0.236633      -0.034661
     17 H                     0.285601       0.002271
  --------------------------------------------------------
  Sum of atomic charges =     0.000000
  Sum of spin   charges =     1.000000

 -----------------------------------------------------------------
                    Cartesian Multipole Moments
 -----------------------------------------------------------------
    Charge (ESU x 10^10)
                 0.0000
    Dipole Moment (Debye)
         X      -1.2757      Y       0.3314      Z      -1.1396
       Tot       1.7424
    Quadrupole Moments (Debye-Ang)
        XX     -44.6028     XY       0.2439     YY     -37.6618
        XZ      -1.6158     YZ      -0.9128     ZZ     -41.1070
    Octopole Moments (Debye-Ang^2)
       XXX      -7.4037    XXY       2.2596    XYY       7.0997
       YYY       1.2219    XXZ      -3.3367    XYZ      -3.6698
       YYZ      -0.3119    XZZ       2.2133    YZZ       0.5374
       ZZZ      -0.0359
    Hexadecapole Moments (Debye-Ang^3)
      XXXX    -565.4205   XXXY      -2.8021   XXYY    -121.7709
      XYYY       7.3732   YYYY    -258.7577   XXXZ      -5.1751
      XXYZ      -4.6312   XYYZ       2.9666   YYYZ      -0.7845
      XXZZ    -116.1453   XYZZ      -0.0985   YYZZ     -69.4334
      XZZZ       4.1251   YZZZ      -0.5580   ZZZZ    -152.7421
 -----------------------------------------------------------------
 Calculating analytic gradient of the SCF energy
 Gradient of Coulomb and Exchange Energy
            1           2           3           4           5           6
    1   3.5205754   2.2782256   2.6069660   0.1072302  -1.4752535 -11.5537959
    2   1.8650017  -1.4271665  -3.6160018   2.1517009   4.2705002  -2.7170935
    3  -1.3867745   1.6478865   0.6586803  -0.2280470   1.0323442  -4.8027282
            7           8           9          10          11          12
    1   3.0944418  -1.4750349   3.5938477   1.2460641  -1.8957363  -1.9522310
    2  -0.1014815   0.7789566  -1.2701571   3.7917539  -0.9412330  -2.5882924
    3   3.7975246  -3.5499639  -1.4322183   0.6616423  -3.0753006   2.1498843
           13          14          15          16          17
    1   3.5597446  -1.7400328   1.1489895  -1.7272330   0.6632325
    2  -2.4308386  -1.9787053   4.5323655   4.2330484  -4.5523576
    3  -0.8748656   3.7943739   1.8180127  -2.3331785   2.1227278
 Gradient of SCF Energy
            1           2           3           4           5           6
    1  -0.0000114   0.0000294   0.0000846  -0.0000990   0.0000554  -0.0000626
    2   0.0000105   0.0000179  -0.0000075  -0.0000425   0.0000769   0.0000746
    3   0.0000103   0.0000041  -0.0000963   0.0000542  -0.0000367   0.0000838
            7           8           9          10          11          12
    1   0.0000163  -0.0000288  -0.0000116   0.0000050   0.0000134   0.0000163
    2  -0.0000054   0.0000042   0.0000001  -0.0000140   0.0000047  -0.0000547
    3  -0.0000209  -0.0000189  -0.0000335   0.0000076   0.0000235   0.0000398
           13          14          15          16          17
    1  -0.0000038  -0.0000076  -0.0000152  -0.0000285   0.0000482
    2  -0.0000105   0.0000170  -0.0000158  -0.0000356  -0.0000199
    3   0.0000400   0.0000275  -0.0000218   0.0000024  -0.0000652
 Max gradient component =       9.901E-05
 RMS gradient           =       3.993E-05
 Gradient time:  CPU 80.15 s  wall 125.09 s
 Geometry Optimization Parameters
   NAtoms,    NIC,     NZ,  NCons,   NDum,   NFix, NCnnct, MaxDiis
       17     113       0       0       0       0       0       0

 Cartesian Hessian Update
 Hessian Updated using BFGS Update


** GEOMETRY OPTIMIZATION IN DELOCALIZED INTERNAL COORDINATES **
   Searching for a Minimum

   Optimization Cycle:   2

                       Coordinates (Angstroms)
     ATOM                X               Y               Z
      1  C        -1.7631127655   -0.7459539683    0.6316693493
      2  C        -1.0395340115    0.0531138857   -0.4548682137
      3  C        -0.7724753292    1.4838066219    0.0234403751
      4  C         0.2805323897   -0.6514189089   -0.8624724344
      5  C         1.3188515703   -0.6986562981    0.2060545680
      6  O         2.1537874532    0.3635965891    0.3985126832
      7  H        -1.6768434532    0.0943660951   -1.3521207907
      8  H        -1.1246595441   -0.8264435663    1.5236065058
      9  H        -2.7008427331   -0.2573619039    0.9262958274
     10  H        -1.9982586960   -1.7627350844    0.2901104945
     11  H        -0.1790466797    1.4699563159    0.9500019160
     12  H        -0.2295298879    2.0692743746   -0.7349187409
     13  H        -1.7101259737    2.0115688408    0.2393561657
     14  H         0.6947458648   -0.1329887161   -1.7495361911
     15  H         0.0479318440   -1.6785472826   -1.1792102769
     16  H         1.6635939099   -1.6056482355    0.6895508565
     17  H         1.8410079310    1.1277973322   -0.1004749546
   Point Group: c1    Number of degrees of freedom:    45


   Energy is   -272.215332438

 GETINT wrote B to file, NVib is           45
 Hessian Updated using BFGS Update

 40 Hessian modes will be used to form the next step
  Hessian Eigenvalues:
     0.003732    0.004879    0.005145    0.009559    0.014287    0.018085
     0.037057    0.042857    0.048155    0.048700    0.054415    0.055673
     0.056127    0.056879    0.057475    0.097941    0.131119    0.157335
     0.159678    0.160168    0.166867    0.175845    0.220427    0.227546
     0.278517    0.292873    0.293582    0.328377    0.333773    0.334417
     0.335371    0.336240    0.336722    0.337104    0.338651    0.339446
     0.339816    0.354845    0.520763    0.544652

 Minimum Search - Taking Simple RFO Step
 Searching for Lamda that Minimizes Along All modes
 Value Taken    Lamda =  -0.00000228
 Step Taken.  Stepsize is  0.015580

                             Maximum     Tolerance    Cnvgd?
         Gradient           0.000253      0.000300     YES
         Displacement       0.007561      0.001200      NO
         Energy change     -0.000001      0.000001      NO


 New Cartesian Coordinates Obtained by Inverse Iteration

 Displacement from previous Coordinates is:  0.033050
 ----------------------------------------------------------------
             Standard Nuclear Orientation (Angstroms)
    I     Atom           X                Y                Z
 ----------------------------------------------------------------
    1      C      -1.7608675065    -0.7453150553     0.6331744202
    2      C      -1.0395711320     0.0531883021    -0.4552620595
    3      C      -0.7739177710     1.4849203906     0.0208676606
    4      C       0.2808383458    -0.6506537012    -0.8635979314
    5      C       1.3182034081    -0.7014908228     0.2057109546
    6      O       2.1530071036     0.3600413324     0.4025900616
    7      H      -1.6781031625     0.0927427718    -1.3517037182
    8      H      -1.1204907861    -0.8253544130     1.5238385664
    9      H      -2.6979740689    -0.2565720787     0.9295769668
   10      H      -1.9967057107    -1.7622175131     0.2925755112
   11      H      -0.1797880213     1.4731264792     0.9469645983
   12      H      -0.2323887259     2.0701139011    -0.7388259102
   13      H      -1.7120906241     2.0118442827     0.2365752327
   14      H       0.6959530550    -0.1304379027    -1.7492084201
   15      H       0.0481810340    -1.6769421962    -1.1828842410
   16      H       1.6627972679    -1.6101142391     0.6861765352
   17      H       1.8389391835     1.1268465537    -0.0915710881
 ----------------------------------------------------------------
 Molecular Point Group                 C1    NOp =  1
 Largest Abelian Subgroup              C1    NOp =  1
 Nuclear Repulsion Energy =   251.8027157268 hartrees
 There are       25 alpha and       24 beta electrons
 Applying Cartesian multipole field
    Component          Value
    ---------          -----
     (2,0,0)        1.00000E-11
     (0,2,0)        2.00000E-11
     (0,0,2)       -3.00000E-11
 Nucleus-field energy     =     0.0000000045 hartrees
 Requested basis set is non-standard
 There are 138 shells and 314 basis functions
 A cutoff of  1.0D-12 yielded   9192 shell pairs
 There are     47680 function pairs (     57377 Cartesian)
 Smallest overlap matrix eigenvalue = 1.83E-05
 Guess MOs from SCF MO coefficient file
Reading MOs from coefficient file
Reading MOs from coefficient file
 An unrestricted hybrid HF-DFT SCF calculation will be
 performed using Pulay DIIS + Geometric Direct Minimization
 Exchange:     0.5679 Hartree-Fock + 1.0000 M08SO
 SCF converges when RMS gradient is below 1.0E-08
Geometry optimization detected.  Setting ReadMinima to 0
Setting SaveMinima to 0
 ---------------------------------------
  Cycle       Energy        RMS Gradient
 ---------------------------------------
    1    -272.2150922289      4.80E-05 Done DIIS. Switching to GDM
    2    -272.2153328164      1.70E-04 Normal BFGS step
    3    -272.2153336527      7.09E-05 Normal BFGS step
    4    -272.2153338165      4.79E-05 Normal BFGS step
    5    -272.2153338799      1.28E-05 Normal BFGS step
    6    -272.2153338827      6.30E-06 Normal BFGS step
    7    -272.2153338838      2.19E-06 Normal BFGS step
    8    -272.2153338839      6.44E-07 Normal BFGS step
    9    -272.2153338839      1.82E-07 Normal BFGS step
   10    -272.2153338839      9.57E-08 Normal BFGS step
   GDM::WARNING energy changes are now smaller than effective accuracy.
   GDM::        calculation will continue, but THRESH should be increased
   GDM::        or SCF_CONVERGENCE decreased.
   GDM::        effective_thresh =   2.500000000000000E-010
   11    -272.2153338839      1.88E-08 Normal BFGS step
   12    -272.2153338839      7.57E-09 Convergence criterion met
 ---------------------------------------
 <S^2> = 0.7550
 SCF time:  CPU 818.96 s  wall 1273.18 s
 SCF   energy in the final basis set = -272.2153338839
 Total energy in the final basis set = -272.2153338839
 Analysis of SCF Wavefunction
 
 --------------------------------------------------------------
                    Orbital Energies (a.u.)
 --------------------------------------------------------------
 
 Alpha MOs
 -- Occupied --
-19.593 -10.542 -10.506 -10.504 -10.491 -10.483  -1.171  -0.918
 -0.821  -0.779  -0.727  -0.655  -0.573  -0.561  -0.543  -0.513
 -0.497  -0.481  -0.457  -0.438  -0.434  -0.403  -0.399  -0.389
 -0.225
 -- Virtual --
 -0.026  -0.012  -0.007  -0.006   0.012   0.016   0.020   0.022
  0.026   0.052   0.055   0.062   0.071   0.082   0.086   0.089
  0.099   0.113   0.116   0.124   0.126   0.130   0.134   0.141
  0.143   0.145   0.147   0.150   0.158   0.164   0.187   0.205
  0.212   0.221   0.227   0.241   0.244   0.253   0.263   0.269
  0.283   0.296   0.297   0.308   0.314   0.328   0.330   0.360
  0.367   0.391   0.395   0.416   0.434   0.470   0.481   0.487
  0.499   0.506   0.520   0.540   0.559   0.562   0.566   0.568
  0.577   0.583   0.597   0.602   0.607   0.614   0.628   0.640
  0.646   0.659   0.676   0.685   0.693   0.697   0.717   0.729
  0.751   0.754   0.801   0.817   0.839   0.851   0.884   0.921
  0.932   0.953   0.961   0.990   1.002   1.019   1.036   1.051
  1.069   1.075   1.097   1.118   1.126   1.138   1.157   1.168
  1.174   1.189   1.200   1.211   1.238   1.251   1.264   1.284
  1.305   1.313   1.328   1.334   1.352   1.366   1.370   1.380
  1.391   1.403   1.408   1.413   1.433   1.449   1.472   1.481
  1.494   1.509   1.518   1.545   1.555   1.570   1.585   1.611
  1.623   1.628   1.653   1.688   1.714   1.752   1.781   1.824
  1.917   1.965   2.221   2.284   2.350   2.385   2.431   2.504
  2.517   2.525   2.548   2.614   2.635   2.667   2.696   2.731
  2.746   2.781   2.790   2.804   2.829   2.836   2.860   2.877
  2.920   2.936   2.955   2.964   2.988   3.014   3.029   3.046
  3.078   3.114   3.125   3.141   3.159   3.178   3.227   3.244
  3.251   3.268   3.297   3.317   3.333   3.351   3.357   3.381
  3.394   3.412   3.428   3.438   3.455   3.491   3.511   3.539
  3.559   3.592   3.612   3.629   3.654   3.675   3.694   3.715
  3.726   3.745   3.767   3.796   3.820   3.832   3.844   3.873
  3.892   3.922   3.932   3.964   3.970   3.987   3.995   4.010
  4.040   4.055   4.090   4.119   4.142   4.156   4.164   4.179
  4.196   4.204   4.210   4.221   4.251   4.262   4.311   4.343
  4.368   4.402   4.425   4.436   4.451   4.513   4.519   4.532
  4.536   4.577   4.589   4.628   4.669   4.689   4.726   4.786
  4.850   5.052   5.120   5.153   5.170   5.286   5.340   5.360
  5.388   5.502   5.517   5.541   5.571   5.599   5.634   5.645
  5.651   5.686   5.763   6.107   6.574   6.921   7.104   7.131
  7.243   7.496   7.575  24.066  24.108  24.172  24.248  24.291
 49.799
 
 Beta MOs
 -- Occupied --
-19.588 -10.526 -10.505 -10.504 -10.491 -10.483  -1.158  -0.916
 -0.815  -0.779  -0.714  -0.654  -0.566  -0.551  -0.535  -0.510
 -0.494  -0.460  -0.443  -0.438  -0.431  -0.399  -0.394  -0.388
 -- Virtual --
 -0.034  -0.017  -0.013  -0.011  -0.001   0.009   0.013   0.018
  0.019   0.027   0.049   0.054   0.062   0.067   0.076   0.083
  0.085   0.096   0.109   0.113   0.121   0.123   0.125   0.131
  0.138   0.140   0.142   0.145   0.147   0.155   0.162   0.186
  0.207   0.211   0.220   0.228   0.240   0.243   0.256   0.267
  0.270   0.282   0.295   0.298   0.305   0.313   0.328   0.336
  0.368   0.370   0.392   0.398   0.415   0.434   0.469   0.481
  0.489   0.501   0.509   0.528   0.546   0.560   0.563   0.568
  0.571   0.579   0.592   0.602   0.604   0.611   0.619   0.637
  0.646   0.651   0.662   0.684   0.690   0.699   0.704   0.718
  0.731   0.754   0.767   0.811   0.825   0.840   0.854   0.888
  0.924   0.937   0.956   0.964   0.994   1.003   1.023   1.042
  1.052   1.070   1.075   1.099   1.120   1.131   1.143   1.168
  1.173   1.178   1.191   1.203   1.215   1.245   1.254   1.272
  1.286   1.310   1.316   1.329   1.335   1.356   1.369   1.376
  1.381   1.392   1.406   1.410   1.419   1.447   1.455   1.476
  1.482   1.500   1.513   1.523   1.556   1.558   1.573   1.586
  1.613   1.628   1.630   1.657   1.690   1.719   1.755   1.786
  1.836   1.931   1.985   2.236   2.283   2.363   2.387   2.433
  2.521   2.523   2.551   2.561   2.619   2.658   2.693   2.705
  2.737   2.758   2.799   2.805   2.852   2.860   2.867   2.882
  2.897   2.936   2.949   2.956   2.993   3.018   3.042   3.068
  3.094   3.110   3.125   3.150   3.179   3.187   3.229   3.249
  3.263   3.271   3.286   3.322   3.329   3.345   3.360   3.377
  3.405   3.436   3.440   3.446   3.455   3.477   3.514   3.545
  3.556   3.594   3.600   3.617   3.646   3.674   3.682   3.704
  3.726   3.735   3.753   3.773   3.803   3.829   3.843   3.851
  3.880   3.895   3.934   3.942   3.965   3.972   3.994   4.012
  4.020   4.043   4.067   4.104   4.130   4.143   4.163   4.170
  4.182   4.198   4.214   4.218   4.242   4.264   4.273   4.315
  4.357   4.376   4.422   4.444   4.449   4.469   4.516   4.529
  4.536   4.546   4.582   4.613   4.649   4.671   4.708   4.767
  4.859   4.877   5.119   5.135   5.164   5.189   5.298   5.333
  5.369   5.397   5.505   5.529   5.566   5.600   5.606   5.636
  5.648   5.652   5.697   5.766   6.108   6.570   6.922   7.108
  7.144   7.244   7.485   7.559  24.067  24.112  24.172  24.249
 24.312  49.805
 --------------------------------------------------------------
 
          Ground-State Mulliken Net Atomic Charges

     Atom                 Charge (a.u.)    Spin (a.u.)
  --------------------------------------------------------
      1 C                    -0.670435       0.001642
      2 C                    -0.065361       0.062134
      3 C                    -0.775553      -0.032375
      4 C                    -0.589568      -0.089684
      5 C                    -0.232635       0.961674
      6 O                    -0.270397       0.064506
      7 H                     0.255825       0.008217
      8 H                     0.228216      -0.000280
      9 H                     0.191596       0.002518
     10 H                     0.186473      -0.002045
     11 H                     0.270943      -0.003845
     12 H                     0.223997       0.006534
     13 H                     0.203525      -0.004664
     14 H                     0.288309       0.039456
     15 H                     0.232697       0.018676
     16 H                     0.236637      -0.034729
     17 H                     0.285730       0.002265
  --------------------------------------------------------
  Sum of atomic charges =     0.000000
  Sum of spin   charges =     1.000000

 -----------------------------------------------------------------
                    Cartesian Multipole Moments
 -----------------------------------------------------------------
    Charge (ESU x 10^10)
                 0.0000
    Dipole Moment (Debye)
         X      -1.2782      Y       0.3366      Z      -1.1371
       Tot       1.7436
    Quadrupole Moments (Debye-Ang)
        XX     -44.6060     XY       0.2491     YY     -37.6506
        XZ      -1.6096     YZ      -0.8925     ZZ     -41.1211
    Octopole Moments (Debye-Ang^2)
       XXX      -7.4124    XXY       2.2918    XYY       7.1171
       YYY       1.2639    XXZ      -3.3405    XYZ      -3.6303
       YYZ      -0.2966    XZZ       2.1811    YZZ       0.5544
       ZZZ      -0.0687
    Hexadecapole Moments (Debye-Ang^3)
      XXXX    -564.9576   XXXY      -2.4242   XXYY    -121.6714
      XYYY       7.6780   YYYY    -258.8941   XXXZ      -5.3471
      XXYZ      -4.5278   XYYZ       2.9755   YYYZ      -0.6625
      XXZZ    -116.1724   XYZZ       0.0166   YYZZ     -69.5008
      XZZZ       3.9385   YZZZ      -0.4533   ZZZZ    -153.0368
 -----------------------------------------------------------------
 Calculating analytic gradient of the SCF energy
 Gradient of Coulomb and Exchange Energy
            1           2           3           4           5           6
    1   3.5234337   2.2861891   2.5953378   0.1037485  -1.4768414 -11.5550587
    2   1.8642370  -1.4227889  -3.6188391   2.1360723   4.2791658  -2.6942425
    3  -1.3841735   1.6469070   0.6540255  -0.2319190   1.0564464  -4.8202447
            7           8           9          10          11          12
    1   3.0989226  -1.4837636   3.5908233   1.2482805  -1.8957583  -1.9457107
    2  -0.0941397   0.7771222  -1.2710798   3.7932146  -0.9497509  -2.5882180
    3   3.7930698  -3.5477304  -1.4396578   0.6587386  -3.0683405   2.1565231
           13          14          15          16          17
    1   3.5616167  -1.7447790   1.1494652  -1.7262337   0.6703281
    2  -2.4280163  -1.9848953   4.5272578   4.2395288  -4.5646279
    3  -0.8718665   3.7897462   1.8297910  -2.3200408   2.0987256
 Gradient of SCF Energy
            1           2           3           4           5           6
    1  -0.0000039  -0.0000209   0.0000136  -0.0000283   0.0000531  -0.0000485
    2   0.0000009   0.0000068  -0.0000106  -0.0000294   0.0000000   0.0000227
    3  -0.0000166   0.0000066   0.0000015   0.0000418  -0.0000210   0.0000745
            7           8           9          10          11          12
    1  -0.0000029  -0.0000038  -0.0000121   0.0000042   0.0000231   0.0000175
    2   0.0000069   0.0000018   0.0000084   0.0000144  -0.0000064  -0.0000062
    3  -0.0000018   0.0000090  -0.0000175   0.0000019  -0.0000288   0.0000032
           13          14          15          16          17
    1  -0.0000108   0.0000058   0.0000131  -0.0000237   0.0000242
    2   0.0000023   0.0000072   0.0000042  -0.0000046  -0.0000186
    3  -0.0000009   0.0000025  -0.0000187   0.0000101  -0.0000458
 Max gradient component =       7.453E-05
 RMS gradient           =       2.140E-05
 Gradient time:  CPU 81.70 s  wall 126.19 s
 Geometry Optimization Parameters
   NAtoms,    NIC,     NZ,  NCons,   NDum,   NFix, NCnnct, MaxDiis
       17     113       0       0       0       0       0       0

 Cartesian Hessian Update
 Hessian Updated using BFGS Update


** GEOMETRY OPTIMIZATION IN DELOCALIZED INTERNAL COORDINATES **
   Searching for a Minimum

   Optimization Cycle:   3

                       Coordinates (Angstroms)
     ATOM                X               Y               Z
      1  C        -1.7608675065   -0.7453150553    0.6331744202
      2  C        -1.0395711320    0.0531883021   -0.4552620595
      3  C        -0.7739177710    1.4849203906    0.0208676606
      4  C         0.2808383458   -0.6506537012   -0.8635979314
      5  C         1.3182034081   -0.7014908228    0.2057109546
      6  O         2.1530071036    0.3600413324    0.4025900616
      7  H        -1.6781031625    0.0927427718   -1.3517037182
      8  H        -1.1204907861   -0.8253544130    1.5238385664
      9  H        -2.6979740689   -0.2565720787    0.9295769668
     10  H        -1.9967057107   -1.7622175131    0.2925755112
     11  H        -0.1797880213    1.4731264792    0.9469645983
     12  H        -0.2323887259    2.0701139011   -0.7388259102
     13  H        -1.7120906241    2.0118442827    0.2365752327
     14  H         0.6959530550   -0.1304379027   -1.7492084201
     15  H         0.0481810340   -1.6769421962   -1.1828842410
     16  H         1.6627972679   -1.6101142391    0.6861765352
     17  H         1.8389391835    1.1268465537   -0.0915710881
   Point Group: c1    Number of degrees of freedom:    45


   Energy is   -272.215333884

 GETINT wrote B to file, NVib is           45
 Hessian Updated using BFGS Update

 41 Hessian modes will be used to form the next step
  Hessian Eigenvalues:
     0.004007    0.004351    0.005723    0.008928    0.013828    0.014956
     0.036806    0.041078    0.048147    0.049231    0.054417    0.055316
     0.055693    0.057415    0.057726    0.098127    0.131660    0.157338
     0.159894    0.159943    0.160495    0.166472    0.171196    0.219633
     0.220555    0.279310    0.292185    0.293801    0.328511    0.333782
     0.335075    0.335521    0.336690    0.337072    0.337493    0.338703
     0.339449    0.339737    0.354973    0.521218    0.544602

 Minimum Search - Taking Simple RFO Step
 Searching for Lamda that Minimizes Along All modes
 Value Taken    Lamda =   0.00000000
 Step Taken.  Stepsize is  0.011687

                             Maximum     Tolerance    Cnvgd?
         Gradient           0.000115      0.000300     YES
         Displacement       0.004507      0.001200      NO
         Energy change     -0.000001      0.000001      NO


 New Cartesian Coordinates Obtained by Inverse Iteration

 Displacement from previous Coordinates is:  0.015054
 ----------------------------------------------------------------
             Standard Nuclear Orientation (Angstroms)
    I     Atom           X                Y                Z
 ----------------------------------------------------------------
    1      C      -1.7603878728    -0.7450508118     0.6335850812
    2      C      -1.0394189469     0.0532377854    -0.4552405167
    3      C      -0.7744873501     1.4853846362     0.0202540807
    4      C       0.2809720610    -0.6507239660    -0.8637386230
    5      C       1.3186386455    -0.7022732409     0.2052454018
    6      O       2.1538859395     0.3588965252     0.4022739312
    7      H      -1.6780722460     0.0922928697    -1.3515998201
    8      H      -1.1191240566    -0.8260509053     1.5235381530
    9      H      -2.6966940147    -0.2555440599     0.9312528069
   10      H      -1.9975541140    -1.7615788427     0.2927945720
   11      H      -0.1821860721     1.4744225808     0.9475373208
   12      H      -0.2318100682     2.0700918922    -0.7390562746
   13      H      -1.7130357441     2.0124706306     0.2338222570
   14      H       0.6959952468    -0.1309215666    -1.7496184604
   15      H       0.0478964211    -1.6770168483    -1.1826593394
   16      H       1.6643037891    -1.6114553276     0.6838618759
   17      H       1.8371002713     1.1275447402    -0.0872553072
 ----------------------------------------------------------------
 Molecular Point Group                 C1    NOp =  1
 Largest Abelian Subgroup              C1    NOp =  1
 Nuclear Repulsion Energy =   251.7822132355 hartrees
 There are       25 alpha and       24 beta electrons
 Applying Cartesian multipole field
    Component          Value
    ---------          -----
     (2,0,0)        1.00000E-11
     (0,2,0)        2.00000E-11
     (0,0,2)       -3.00000E-11
 Nucleus-field energy     =     0.0000000045 hartrees
 Requested basis set is non-standard
 There are 138 shells and 314 basis functions
 A cutoff of  1.0D-12 yielded   9191 shell pairs
 There are     47679 function pairs (     57376 Cartesian)
 Smallest overlap matrix eigenvalue = 1.83E-05
 Guess MOs from SCF MO coefficient file
Reading MOs from coefficient file
Reading MOs from coefficient file
 An unrestricted hybrid HF-DFT SCF calculation will be
 performed using Pulay DIIS + Geometric Direct Minimization
 Exchange:     0.5679 Hartree-Fock + 1.0000 M08SO
 SCF converges when RMS gradient is below 1.0E-08
Geometry optimization detected.  Setting ReadMinima to 0
Setting SaveMinima to 0
 ---------------------------------------
  Cycle       Energy        RMS Gradient
 ---------------------------------------
    1    -272.2151774078      2.24E-05 Done DIIS. Switching to GDM
    2    -272.2153340617      9.21E-05 Normal BFGS step
    3    -272.2153344228      5.06E-05 Normal BFGS step
    4    -272.2153344550      4.52E-05 Normal BFGS step
    5    -272.2153344908      6.22E-06 Normal BFGS step
    6    -272.2153344916      2.98E-06 Normal BFGS step
    7    -272.2153344919      6.65E-07 Normal BFGS step
    8    -272.2153344919      2.80E-07 Normal BFGS step
   GDM::WARNING energy changes are now smaller than effective accuracy.
   GDM::        calculation will continue, but THRESH should be increased
   GDM::        or SCF_CONVERGENCE decreased.
   GDM::        effective_thresh =   2.500000000000000E-010
    9    -272.2153344918      8.03E-08 Normal BFGS step
   10    -272.2153344919      3.61E-08 Normal BFGS step
   11    -272.2153344919      8.86E-09 Convergence criterion met
 ---------------------------------------
 <S^2> = 0.7550
 SCF time:  CPU 772.63 s  wall 1163.80 s
 SCF   energy in the final basis set = -272.2153344919
 Total energy in the final basis set = -272.2153344919
 Analysis of SCF Wavefunction
 
 --------------------------------------------------------------
                    Orbital Energies (a.u.)
 --------------------------------------------------------------
 
 Alpha MOs
 -- Occupied --
-19.593 -10.542 -10.506 -10.504 -10.491 -10.483  -1.171  -0.918
 -0.822  -0.779  -0.727  -0.655  -0.573  -0.561  -0.543  -0.513
 -0.497  -0.481  -0.457  -0.438  -0.434  -0.403  -0.399  -0.389
 -0.225
 -- Virtual --
 -0.026  -0.012  -0.007  -0.006   0.012   0.016   0.020   0.022
  0.026   0.052   0.055   0.062   0.071   0.082   0.086   0.089
  0.099   0.113   0.116   0.124   0.126   0.130   0.134   0.141
  0.143   0.145   0.147   0.150   0.158   0.164   0.187   0.205
  0.212   0.221   0.227   0.241   0.244   0.254   0.263   0.269
  0.283   0.296   0.297   0.308   0.314   0.328   0.330   0.360
  0.367   0.391   0.395   0.416   0.434   0.470   0.481   0.487
  0.498   0.506   0.520   0.540   0.559   0.562   0.566   0.568
  0.577   0.583   0.597   0.602   0.607   0.614   0.628   0.640
  0.646   0.659   0.676   0.685   0.693   0.697   0.717   0.729
  0.751   0.754   0.801   0.817   0.839   0.851   0.883   0.921
  0.932   0.953   0.961   0.990   1.002   1.019   1.036   1.051
  1.068   1.075   1.097   1.118   1.126   1.138   1.157   1.168
  1.174   1.188   1.199   1.211   1.238   1.251   1.264   1.284
  1.305   1.313   1.328   1.334   1.352   1.366   1.370   1.380
  1.391   1.403   1.408   1.413   1.433   1.450   1.472   1.481
  1.494   1.508   1.519   1.545   1.555   1.570   1.585   1.611
  1.623   1.628   1.653   1.687   1.714   1.752   1.781   1.823
  1.918   1.965   2.221   2.283   2.351   2.385   2.431   2.504
  2.517   2.525   2.548   2.614   2.635   2.666   2.697   2.731
  2.746   2.782   2.790   2.804   2.828   2.836   2.860   2.877
  2.920   2.936   2.955   2.964   2.988   3.014   3.029   3.045
  3.078   3.114   3.125   3.141   3.159   3.179   3.227   3.244
  3.250   3.267   3.297   3.317   3.333   3.351   3.357   3.381
  3.394   3.412   3.428   3.438   3.455   3.491   3.512   3.539
  3.559   3.592   3.612   3.629   3.654   3.675   3.694   3.715
  3.726   3.745   3.767   3.796   3.820   3.832   3.844   3.873
  3.892   3.922   3.932   3.964   3.970   3.987   3.995   4.010
  4.040   4.056   4.089   4.119   4.142   4.156   4.164   4.179
  4.196   4.204   4.210   4.221   4.251   4.262   4.311   4.343
  4.368   4.402   4.425   4.436   4.451   4.513   4.519   4.532
  4.535   4.577   4.589   4.628   4.669   4.689   4.726   4.786
  4.850   5.051   5.119   5.153   5.170   5.286   5.340   5.360
  5.387   5.502   5.517   5.541   5.571   5.599   5.634   5.645
  5.651   5.686   5.763   6.107   6.574   6.920   7.104   7.131
  7.243   7.496   7.575  24.066  24.107  24.172  24.248  24.291
 49.799
 
 Beta MOs
 -- Occupied --
-19.588 -10.526 -10.505 -10.504 -10.491 -10.483  -1.158  -0.916
 -0.815  -0.779  -0.714  -0.654  -0.566  -0.551  -0.535  -0.510
 -0.494  -0.460  -0.443  -0.438  -0.431  -0.399  -0.394  -0.388
 -- Virtual --
 -0.034  -0.017  -0.013  -0.011  -0.001   0.009   0.013   0.018
  0.019   0.027   0.049   0.054   0.062   0.067   0.076   0.083
  0.085   0.096   0.109   0.113   0.121   0.123   0.125   0.131
  0.138   0.140   0.142   0.145   0.147   0.155   0.162   0.186
  0.207   0.211   0.220   0.228   0.240   0.243   0.257   0.267
  0.270   0.282   0.295   0.298   0.305   0.313   0.328   0.336
  0.368   0.370   0.392   0.398   0.415   0.434   0.469   0.480
  0.489   0.501   0.510   0.528   0.546   0.561   0.563   0.568
  0.571   0.579   0.592   0.602   0.604   0.611   0.619   0.637
  0.646   0.651   0.662   0.684   0.690   0.699   0.703   0.718
  0.731   0.754   0.766   0.811   0.825   0.841   0.854   0.888
  0.924   0.937   0.956   0.964   0.993   1.003   1.023   1.042
  1.052   1.069   1.075   1.099   1.120   1.131   1.143   1.168
  1.173   1.178   1.191   1.203   1.215   1.245   1.254   1.272
  1.286   1.310   1.316   1.329   1.335   1.356   1.369   1.376
  1.381   1.392   1.406   1.410   1.419   1.447   1.456   1.476
  1.481   1.500   1.512   1.524   1.556   1.558   1.572   1.586
  1.613   1.628   1.630   1.657   1.690   1.719   1.755   1.786
  1.835   1.931   1.984   2.236   2.283   2.363   2.387   2.433
  2.521   2.523   2.551   2.561   2.619   2.658   2.693   2.705
  2.737   2.758   2.799   2.805   2.852   2.860   2.867   2.882
  2.897   2.936   2.949   2.956   2.993   3.018   3.042   3.068
  3.094   3.110   3.125   3.150   3.178   3.187   3.229   3.249
  3.263   3.271   3.286   3.322   3.329   3.345   3.360   3.377
  3.405   3.436   3.440   3.446   3.455   3.477   3.514   3.544
  3.556   3.594   3.600   3.617   3.645   3.674   3.682   3.705
  3.726   3.735   3.753   3.773   3.802   3.828   3.843   3.850
  3.880   3.895   3.934   3.942   3.965   3.972   3.994   4.012
  4.020   4.044   4.067   4.104   4.129   4.143   4.163   4.169
  4.182   4.198   4.214   4.218   4.242   4.264   4.273   4.315
  4.357   4.376   4.422   4.444   4.449   4.468   4.516   4.528
  4.536   4.546   4.582   4.613   4.649   4.671   4.708   4.767
  4.859   4.877   5.119   5.135   5.164   5.189   5.297   5.333
  5.369   5.397   5.505   5.529   5.566   5.599   5.606   5.636
  5.648   5.652   5.697   5.766   6.108   6.570   6.922   7.108
  7.145   7.244   7.485   7.559  24.067  24.112  24.172  24.248
 24.311  49.805
 --------------------------------------------------------------
 
          Ground-State Mulliken Net Atomic Charges

     Atom                 Charge (a.u.)    Spin (a.u.)
  --------------------------------------------------------
      1 C                    -0.670478       0.001568
      2 C                    -0.065041       0.061958
      3 C                    -0.775585      -0.032360
      4 C                    -0.590046      -0.089277
      5 C                    -0.232696       0.961446
      6 O                    -0.270349       0.064494
      7 H                     0.255955       0.008181
      8 H                     0.228316      -0.000334
      9 H                     0.191502       0.002510
     10 H                     0.186532      -0.002025
     11 H                     0.270661      -0.003770
     12 H                     0.223944       0.006537
     13 H                     0.203720      -0.004667
     14 H                     0.288449       0.039540
     15 H                     0.232678       0.018670
     16 H                     0.236691      -0.034710
     17 H                     0.285746       0.002239
  --------------------------------------------------------
  Sum of atomic charges =     0.000000
  Sum of spin   charges =     1.000000

 -----------------------------------------------------------------
                    Cartesian Multipole Moments
 -----------------------------------------------------------------
    Charge (ESU x 10^10)
                 0.0000
    Dipole Moment (Debye)
         X      -1.2834      Y       0.3397      Z      -1.1326
       Tot       1.7450
    Quadrupole Moments (Debye-Ang)
        XX     -44.6199     XY       0.2454     YY     -37.6401
        XZ      -1.5982     YZ      -0.8795     ZZ     -41.1260
    Octopole Moments (Debye-Ang^2)
       XXX      -7.4835    XXY       2.2814    XYY       7.1190
       YYY       1.2888    XXZ      -3.3154    XYZ      -3.6048
       YYZ      -0.2823    XZZ       2.1614    YZZ       0.5658
       ZZZ      -0.0594
    Hexadecapole Moments (Debye-Ang^3)
      XXXX    -565.2041   XXXY      -2.3650   XXYY    -121.6592
      XYYY       7.7849   YYYY    -258.9524   XXXZ      -5.2866
      XXYZ      -4.4823   XYYZ       3.0075   YYYZ      -0.6333
      XXZZ    -116.2116   XYZZ       0.0624   YYZZ     -69.5252
      XZZZ       3.9307   YZZZ      -0.4271   ZZZZ    -153.0490
 -----------------------------------------------------------------
 Calculating analytic gradient of the SCF energy
 Gradient of Coulomb and Exchange Energy
            1           2           3           4           5           6
    1   3.5254250   2.2800446   2.5893902   0.1087717  -1.4736097 -11.5640728
    2   1.8638648  -1.4240304  -3.6205557   2.1280947   4.2858887  -2.6830083
    3  -1.3828641   1.6430684   0.6498747  -0.2345494   1.0581687  -4.8048986
            7           8           9          10          11          12
    1   3.0996475  -1.4872921   3.5871253   1.2528980  -1.8894389  -1.9475713
    2  -0.0916367   0.7798718  -1.2738325   3.7922114  -0.9517642  -2.5868330
    3   3.7925521  -3.5453588  -1.4444930   0.6595030  -3.0708965   2.1556426
           13          14          15          16          17
    1   3.5634672  -1.7457524   1.1506862  -1.7318258   0.6821073
    2  -2.4286721  -1.9829434   4.5253790   4.2414890  -4.5735231
    3  -0.8623435   3.7907454   1.8287455  -2.3115590   2.0786625
 Gradient of SCF Energy
            1           2           3           4           5           6
    1  -0.0000114  -0.0000381  -0.0000199   0.0000237   0.0000352  -0.0000113
    2  -0.0000035  -0.0000006   0.0000128  -0.0000074  -0.0000569  -0.0000094
    3  -0.0000213   0.0000110   0.0000436   0.0000333  -0.0000417   0.0000483
            7           8           9          10          11          12
    1   0.0000008  -0.0000001  -0.0000066  -0.0000017  -0.0000104   0.0000143
    2   0.0000057   0.0000023   0.0000101   0.0000146  -0.0000015   0.0000138
    3   0.0000038   0.0000102  -0.0000069  -0.0000016  -0.0000226  -0.0000206
           13          14          15          16          17
    1   0.0000010   0.0000067   0.0000230  -0.0000194   0.0000140
    2   0.0000064  -0.0000058   0.0000128   0.0000187  -0.0000122
    3  -0.0000190  -0.0000147   0.0000009   0.0000209  -0.0000234
 Max gradient component =       5.686E-05
 RMS gradient           =       2.009E-05
 Gradient time:  CPU 78.77 s  wall 123.73 s
 Geometry Optimization Parameters
   NAtoms,    NIC,     NZ,  NCons,   NDum,   NFix, NCnnct, MaxDiis
       17     113       0       0       0       0       0       0

 Cartesian Hessian Update
 Hessian Updated using BFGS Update


** GEOMETRY OPTIMIZATION IN DELOCALIZED INTERNAL COORDINATES **
   Searching for a Minimum

   Optimization Cycle:   4

                       Coordinates (Angstroms)
     ATOM                X               Y               Z
      1  C        -1.7603878728   -0.7450508118    0.6335850812
      2  C        -1.0394189469    0.0532377854   -0.4552405167
      3  C        -0.7744873501    1.4853846362    0.0202540807
      4  C         0.2809720610   -0.6507239660   -0.8637386230
      5  C         1.3186386455   -0.7022732409    0.2052454018
      6  O         2.1538859395    0.3588965252    0.4022739312
      7  H        -1.6780722460    0.0922928697   -1.3515998201
      8  H        -1.1191240566   -0.8260509053    1.5235381530
      9  H        -2.6966940147   -0.2555440599    0.9312528069
     10  H        -1.9975541140   -1.7615788427    0.2927945720
     11  H        -0.1821860721    1.4744225808    0.9475373208
     12  H        -0.2318100682    2.0700918922   -0.7390562746
     13  H        -1.7130357441    2.0124706306    0.2338222570
     14  H         0.6959952468   -0.1309215666   -1.7496184604
     15  H         0.0478964211   -1.6770168483   -1.1826593394
     16  H         1.6643037891   -1.6114553276    0.6838618759
     17  H         1.8371002713    1.1275447402   -0.0872553072
   Point Group: c1    Number of degrees of freedom:    45


   Energy is   -272.215334492

 GETINT wrote B to file, NVib is           45
 Hessian Updated using BFGS Update

 42 Hessian modes will be used to form the next step
  Hessian Eigenvalues:
     0.002744    0.004376    0.005737    0.007345    0.012800    0.014860
     0.037807    0.044140    0.048272    0.049334    0.054647    0.055685
     0.056940    0.057379    0.057712    0.098350    0.131575    0.157512
     0.159678    0.159909    0.160012    0.160536    0.167765    0.178331
     0.220514    0.236998    0.289430    0.293705    0.304162    0.328698
     0.333807    0.335315    0.335815    0.336720    0.337025    0.338532
     0.339362    0.339472    0.342209    0.355829    0.521308    0.544547

 Minimum Search - Taking Simple RFO Step
 Searching for Lamda that Minimizes Along All modes
 Value Taken    Lamda =   0.00000000
 Step Taken.  Stepsize is  0.011887

                             Maximum     Tolerance    Cnvgd?
         Gradient           0.000098      0.000300     YES
         Displacement       0.005338      0.001200      NO
         Energy change     -0.000001      0.000001     YES

 Final energy is   -272.215334491936     


 ******************************
 **  OPTIMIZATION CONVERGED  **
 ******************************

Z-matrix Print:
$molecule
0 2
C 
H  1 1.101301
C  1 1.530556 2 108.925545
H  3 1.097676 1 111.230703 2 62.495374 0
H  3 1.098051 1 111.333688 2 -58.298656 0
H  3 1.099908 1 109.839021 2 -177.864301 0
C  1 1.532099 2 108.646587 3 120.278580 0
H  7 1.097408 1 111.190893 2 -57.845301 0
H  7 1.100361 1 110.200462 2 -176.975576 0
H  7 1.101333 1 111.561868 2 62.144963 0
C  1 1.551085 2 107.181478 3 -119.676706 0
H  11 1.099687 1 108.633563 2 62.341332 0
H  11 1.107800 1 108.455343 2 -53.128768 0
C  11 1.490683 1 114.796974 2 -175.549049 0
H  14 1.084053 11 124.581164 1 -113.477395 0
O  14 1.364749 11 120.176481 1 84.094305 0
H  16 0.964786 14 110.198596 11 -12.019074 0
$end

 Analysis of SCF Wavefunction
 
 --------------------------------------------------------------
                    Orbital Energies (a.u.)
 --------------------------------------------------------------
 
 Alpha MOs
 -- Occupied --
-19.593 -10.542 -10.506 -10.504 -10.491 -10.483  -1.171  -0.918
 -0.822  -0.779  -0.727  -0.655  -0.573  -0.561  -0.543  -0.513
 -0.497  -0.481  -0.457  -0.438  -0.434  -0.403  -0.399  -0.389
 -0.225
 -- Virtual --
 -0.026  -0.012  -0.007  -0.006   0.012   0.016   0.020   0.022
  0.026   0.052   0.055   0.062   0.071   0.082   0.086   0.089
  0.099   0.113   0.116   0.124   0.126   0.130   0.134   0.141
  0.143   0.145   0.147   0.150   0.158   0.164   0.187   0.205
  0.212   0.221   0.227   0.241   0.244   0.254   0.263   0.269
  0.283   0.296   0.297   0.308   0.314   0.328   0.330   0.360
  0.367   0.391   0.395   0.416   0.434   0.470   0.481   0.487
  0.498   0.506   0.520   0.540   0.559   0.562   0.566   0.568
  0.577   0.583   0.597   0.602   0.607   0.614   0.628   0.640
  0.646   0.659   0.676   0.685   0.693   0.697   0.717   0.729
  0.751   0.754   0.801   0.817   0.839   0.851   0.883   0.921
  0.932   0.953   0.961   0.990   1.002   1.019   1.036   1.051
  1.068   1.075   1.097   1.118   1.126   1.138   1.157   1.168
  1.174   1.188   1.199   1.211   1.238   1.251   1.264   1.284
  1.305   1.313   1.328   1.334   1.352   1.366   1.370   1.380
  1.391   1.403   1.408   1.413   1.433   1.450   1.472   1.481
  1.494   1.508   1.519   1.545   1.555   1.570   1.585   1.611
  1.623   1.628   1.653   1.687   1.714   1.752   1.781   1.823
  1.918   1.965   2.221   2.283   2.351   2.385   2.431   2.504
  2.517   2.525   2.548   2.614   2.635   2.666   2.697   2.731
  2.746   2.782   2.790   2.804   2.828   2.836   2.860   2.877
  2.920   2.936   2.955   2.964   2.988   3.014   3.029   3.045
  3.078   3.114   3.125   3.141   3.159   3.179   3.227   3.244
  3.250   3.267   3.297   3.317   3.333   3.351   3.357   3.381
  3.394   3.412   3.428   3.438   3.455   3.491   3.512   3.539
  3.559   3.592   3.612   3.629   3.654   3.675   3.694   3.715
  3.726   3.745   3.767   3.796   3.820   3.832   3.844   3.873
  3.892   3.922   3.932   3.964   3.970   3.987   3.995   4.010
  4.040   4.056   4.089   4.119   4.142   4.156   4.164   4.179
  4.196   4.204   4.210   4.221   4.251   4.262   4.311   4.343
  4.368   4.402   4.425   4.436   4.451   4.513   4.519   4.532
  4.535   4.577   4.589   4.628   4.669   4.689   4.726   4.786
  4.850   5.051   5.119   5.153   5.170   5.286   5.340   5.360
  5.387   5.502   5.517   5.541   5.571   5.599   5.634   5.645
  5.651   5.686   5.763   6.107   6.574   6.920   7.104   7.131
  7.243   7.496   7.575  24.066  24.107  24.172  24.248  24.291
 49.799
 
 Beta MOs
 -- Occupied --
-19.588 -10.526 -10.505 -10.504 -10.491 -10.483  -1.158  -0.916
 -0.815  -0.779  -0.714  -0.654  -0.566  -0.551  -0.535  -0.510
 -0.494  -0.460  -0.443  -0.438  -0.431  -0.399  -0.394  -0.388
 -- Virtual --
 -0.034  -0.017  -0.013  -0.011  -0.001   0.009   0.013   0.018
  0.019   0.027   0.049   0.054   0.062   0.067   0.076   0.083
  0.085   0.096   0.109   0.113   0.121   0.123   0.125   0.131
  0.138   0.140   0.142   0.145   0.147   0.155   0.162   0.186
  0.207   0.211   0.220   0.228   0.240   0.243   0.257   0.267
  0.270   0.282   0.295   0.298   0.305   0.313   0.328   0.336
  0.368   0.370   0.392   0.398   0.415   0.434   0.469   0.480
  0.489   0.501   0.510   0.528   0.546   0.561   0.563   0.568
  0.571   0.579   0.592   0.602   0.604   0.611   0.619   0.637
  0.646   0.651   0.662   0.684   0.690   0.699   0.703   0.718
  0.731   0.754   0.766   0.811   0.825   0.841   0.854   0.888
  0.924   0.937   0.956   0.964   0.993   1.003   1.023   1.042
  1.052   1.069   1.075   1.099   1.120   1.131   1.143   1.168
  1.173   1.178   1.191   1.203   1.215   1.245   1.254   1.272
  1.286   1.310   1.316   1.329   1.335   1.356   1.369   1.376
  1.381   1.392   1.406   1.410   1.419   1.447   1.456   1.476
  1.481   1.500   1.512   1.524   1.556   1.558   1.572   1.586
  1.613   1.628   1.630   1.657   1.690   1.719   1.755   1.786
  1.835   1.931   1.984   2.236   2.283   2.363   2.387   2.433
  2.521   2.523   2.551   2.561   2.619   2.658   2.693   2.705
  2.737   2.758   2.799   2.805   2.852   2.860   2.867   2.882
  2.897   2.936   2.949   2.956   2.993   3.018   3.042   3.068
  3.094   3.110   3.125   3.150   3.178   3.187   3.229   3.249
  3.263   3.271   3.286   3.322   3.329   3.345   3.360   3.377
  3.405   3.436   3.440   3.446   3.455   3.477   3.514   3.544
  3.556   3.594   3.600   3.617   3.645   3.674   3.682   3.705
[...]
 H         -0.154 -0.009  0.052   -0.032 -0.091  0.157   -0.112 -0.105  0.202
 H          0.015 -0.015 -0.028   -0.118 -0.177  0.024   -0.093 -0.375 -0.055
 H         -0.031 -0.151 -0.086    0.046  0.215  0.120    0.097  0.090  0.093
 H         -0.024 -0.039 -0.071   -0.043 -0.172  0.073   -0.002 -0.058  0.127
 H          0.544 -0.067  0.294   -0.102  0.008 -0.106   -0.001  0.073  0.085
 H         -0.064  0.032 -0.111   -0.112  0.032  0.051    0.239 -0.101 -0.017
 H          0.140  0.137  0.029    0.429  0.278  0.266   -0.357 -0.215 -0.236
 H          0.369  0.250  0.158    0.343  0.204  0.156   -0.286 -0.180 -0.126
 TransDip   0.099  0.112  0.026    0.174  0.161  0.055   -0.121 -0.088 -0.023

 Mode:                22                     23                     24
 Frequency:      1223.76                1287.90                1324.77
 Force Cnst:      1.2076                 1.7544                 1.8380
 Red. Mass:       1.3686                 1.7952                 1.7775
 IR Active:          YES                    YES                    YES
 IR Intens:       17.924                  2.557                  4.571
 Raman Active:       YES                    YES                    YES
               X      Y      Z        X      Y      Z        X      Y      Z
 C         -0.035  0.024 -0.054   -0.060  0.026 -0.001   -0.031 -0.003 -0.020
 C         -0.028 -0.053  0.060    0.157 -0.083 -0.018    0.059  0.044 -0.038
 C          0.042  0.012  0.005   -0.068  0.030 -0.012   -0.002 -0.021  0.019
 C          0.022  0.021  0.013   -0.154  0.068 -0.021   -0.005 -0.052  0.021
 C         -0.066 -0.057 -0.051    0.029 -0.013  0.003    0.083  0.192 -0.016
 O          0.038  0.065  0.006   -0.007 -0.010  0.000   -0.019 -0.096  0.026
 H         -0.215 -0.404  0.182   -0.252  0.305  0.291   -0.323 -0.297  0.219
 H          0.151  0.108 -0.177    0.115 -0.041 -0.125    0.016  0.010 -0.048
 H          0.000 -0.005  0.087   -0.052 -0.067  0.140   -0.011 -0.035  0.103
 H          0.084 -0.022  0.005    0.168 -0.034  0.013    0.009 -0.059  0.108
 H         -0.035  0.096  0.056    0.090 -0.156 -0.110    0.017  0.076  0.010
 H         -0.018  0.094  0.034    0.144 -0.087  0.045   -0.038 -0.037 -0.028
 H         -0.027 -0.096 -0.016    0.044  0.165  0.096    0.029  0.048 -0.030
 H          0.609 -0.218  0.155    0.359 -0.193  0.066    0.134  0.014  0.105
 H         -0.273  0.091  0.000    0.515 -0.122  0.081   -0.354  0.112 -0.221
 H         -0.190 -0.139 -0.127    0.119  0.069  0.101    0.040  0.168 -0.061
 H          0.080  0.089  0.012   -0.005 -0.016 -0.008   -0.464 -0.393 -0.176
 TransDip  -0.089 -0.099 -0.024    0.045 -0.019 -0.015    0.008  0.068 -0.006

 Mode:                25                     26                     27
 Frequency:      1343.55                1348.78                1386.23
 Force Cnst:      1.3702                 1.4498                 1.6302
 Red. Mass:       1.2884                 1.3526                 1.4399
 IR Active:          YES                    YES                    YES
 IR Intens:       14.386                  0.636                 12.170
 Raman Active:       YES                    YES                    YES
               X      Y      Z        X      Y      Z        X      Y      Z
 C          0.013 -0.023  0.020    0.006  0.013  0.048   -0.062 -0.074  0.065
 C         -0.068  0.036  0.078   -0.045 -0.136  0.024    0.045  0.096 -0.030
 C          0.025  0.000 -0.005   -0.016 -0.021 -0.052   -0.022 -0.109 -0.007
 C         -0.074  0.020 -0.047    0.029  0.002  0.012   -0.009 -0.009  0.000
 C         -0.013  0.029 -0.030    0.016  0.050 -0.011   -0.007 -0.028  0.008
 O          0.017 -0.026  0.021   -0.004 -0.018  0.007    0.000  0.012 -0.006
 H          0.472 -0.218 -0.313    0.147  0.591 -0.085   -0.119 -0.270  0.073
 H          0.055  0.098 -0.005    0.155 -0.017 -0.072    0.275  0.270 -0.155
 H          0.048  0.130 -0.131   -0.030  0.084 -0.224    0.069  0.307 -0.182
 H         -0.001  0.042 -0.134    0.095  0.086 -0.232    0.128  0.019 -0.307
 H         -0.065 -0.028  0.052   -0.073  0.168  0.000    0.057  0.390 -0.046
 H         -0.038  0.001 -0.038    0.045  0.259  0.198   -0.042  0.226  0.215
 H         -0.030 -0.097  0.005    0.150  0.208  0.170    0.198  0.293 -0.001
 H          0.360 -0.198  0.020    0.160 -0.056  0.042   -0.139  0.069 -0.015
 H          0.301 -0.077 -0.026   -0.365  0.114 -0.059    0.169 -0.058  0.030
 H          0.270  0.225  0.136   -0.029  0.021 -0.044   -0.017 -0.036  0.008
 H         -0.242 -0.201 -0.098   -0.076 -0.076 -0.043    0.077  0.067  0.036
 TransDip  -0.107 -0.032 -0.047    0.007  0.024 -0.003    0.051  0.096 -0.024

 Mode:                28                     29                     30
 Frequency:      1394.84                1424.66                1450.69
 Force Cnst:      1.4574                 1.6324                 1.7697
 Red. Mass:       1.2714                 1.3650                 1.4273
 IR Active:          YES                    YES                    YES
 IR Intens:       11.900                 49.923                 30.185
 Raman Active:       YES                    YES                    YES
               X      Y      Z        X      Y      Z        X      Y      Z
 C          0.047  0.045 -0.077   -0.015 -0.003  0.022    0.011  0.003  0.007
 C         -0.009  0.013  0.021    0.020 -0.015 -0.028   -0.003  0.007  0.019
 C         -0.016 -0.096 -0.034   -0.006  0.022  0.015    0.005 -0.001  0.001
 C         -0.011  0.006 -0.015    0.053 -0.011 -0.011   -0.062 -0.027 -0.115
 C         -0.032 -0.020 -0.020   -0.115 -0.049 -0.078    0.107  0.040  0.062
 O          0.014  0.005  0.007    0.052  0.017  0.028   -0.039 -0.017 -0.018
 H          0.058 -0.035 -0.023   -0.135  0.081  0.084    0.129 -0.082 -0.081
 H         -0.331 -0.155  0.186    0.111 -0.006 -0.071    0.063  0.023 -0.032
 H         -0.002 -0.255  0.298   -0.040  0.012 -0.097   -0.067 -0.092 -0.078
 H         -0.138 -0.053  0.327    0.010  0.008 -0.040   -0.127  0.031  0.007
 H         -0.033  0.392 -0.010    0.088 -0.106 -0.049   -0.034 -0.020  0.026
 H         -0.014  0.291  0.252    0.012 -0.035 -0.023   -0.047  0.010 -0.029
 H          0.224  0.289  0.109   -0.061 -0.040 -0.098    0.013  0.016 -0.002
 H          0.066  0.052  0.052   -0.051  0.442  0.217    0.258  0.460  0.333
 H          0.083 -0.053  0.122   -0.175 -0.098  0.482   -0.116 -0.205  0.527
 H          0.138  0.094  0.074    0.382  0.291  0.197   -0.274 -0.217 -0.132
 H         -0.041 -0.035 -0.023   -0.217 -0.160 -0.094    0.123  0.080  0.043
 TransDip  -0.081  0.000  0.075   -0.184 -0.129 -0.029    0.093  0.119  0.090

 Mode:                31                     32                     33
 Frequency:      1466.65                1473.79                1485.96
 Force Cnst:      1.3214                 1.3551                 1.3596
 Red. Mass:       1.0426                 1.0589                 1.0451
 IR Active:          YES                    YES                    YES
 IR Intens:        3.039                  2.937                 15.184
 Raman Active:       YES                    YES                    YES
               X      Y      Z        X      Y      Z        X      Y      Z
 C         -0.038  0.005 -0.017    0.006 -0.041 -0.022   -0.026 -0.004 -0.004
 C         -0.011 -0.006  0.002   -0.008 -0.036 -0.005   -0.015  0.011 -0.024
 C          0.026 -0.009  0.019   -0.017  0.013  0.017   -0.011  0.018 -0.034
 C         -0.002 -0.003 -0.009    0.000  0.001 -0.008    0.003 -0.007 -0.010
 C          0.006  0.001  0.004    0.010  0.010  0.003    0.003  0.000  0.002
 O         -0.002  0.000 -0.001   -0.003 -0.005  0.000    0.000  0.000  0.000
 H          0.039  0.044 -0.033    0.017  0.067 -0.022   -0.002 -0.040 -0.043
 H         -0.155 -0.296  0.059   -0.320  0.468  0.260   -0.117 -0.158  0.056
 H          0.219  0.385  0.114    0.223  0.098  0.471    0.154  0.270  0.089
 H          0.525 -0.164  0.106    0.047  0.091 -0.384    0.345 -0.098  0.028
 H         -0.091 -0.225  0.078    0.242 -0.031 -0.150   -0.132  0.320  0.062
 H         -0.361  0.163 -0.131    0.104  0.042  0.114    0.392 -0.305  0.025
 H          0.081  0.209 -0.236   -0.091 -0.056 -0.173   -0.053 -0.271  0.500
 H          0.020  0.048  0.034    0.047  0.038  0.038   -0.003  0.092  0.043
 H         -0.022 -0.019  0.050   -0.076  0.000  0.048   -0.032 -0.029  0.089
 H         -0.017 -0.015 -0.009   -0.011 -0.005 -0.013   -0.004 -0.006 -0.002
 H          0.019  0.010  0.000   -0.014 -0.006  0.005   -0.001 -0.005 -0.005
 TransDip   0.038  0.040  0.007    0.012  0.041  0.035    0.053 -0.022  0.111

 Mode:                34                     35                     36
 Frequency:      1493.42                2907.91                2957.49
 Force Cnst:      1.3981                 5.3288                 5.3515
 Red. Mass:       1.0640                 1.0696                 1.0384
 IR Active:          YES                    YES                    YES
 IR Intens:        7.999                 40.952                 27.117
 Raman Active:       YES                    YES                    YES
               X      Y      Z        X      Y      Z        X      Y      Z
 C         -0.004  0.021 -0.003    0.000  0.000 -0.001    0.001  0.002 -0.002
 C         -0.036  0.014  0.024    0.005  0.001  0.006    0.001 -0.001  0.000
 C         -0.039 -0.006  0.020   -0.001 -0.001  0.000    0.025  0.046  0.003
 C          0.001 -0.004 -0.007    0.025  0.019 -0.067    0.001  0.001 -0.001
 C          0.015  0.011  0.008    0.001  0.001 -0.001    0.000  0.000  0.000
 O         -0.006 -0.005 -0.003   -0.001  0.000  0.000    0.000  0.000  0.000
 H          0.065 -0.029 -0.049   -0.052  0.000 -0.078   -0.008  0.003 -0.011
 H          0.065 -0.293 -0.079    0.010 -0.001  0.015    0.029 -0.002  0.037
 H         -0.018  0.080 -0.169   -0.006  0.004  0.001   -0.034  0.019  0.010
 H          0.130 -0.088  0.209   -0.002 -0.006 -0.002   -0.008 -0.038 -0.016
 H          0.533  0.056 -0.348    0.007  0.000  0.012   -0.292  0.015 -0.464
 H          0.294  0.113  0.329    0.009  0.006 -0.013   -0.358 -0.375  0.509
 H         -0.185 -0.158 -0.327   -0.006  0.001  0.002    0.351 -0.182 -0.077
 H          0.027 -0.025 -0.007   -0.359 -0.456  0.771   -0.009 -0.008  0.017
 H         -0.002  0.002 -0.026    0.056  0.217  0.054   -0.002 -0.002  0.000
 H         -0.041 -0.026 -0.022   -0.001  0.007 -0.009   -0.001  0.002 -0.002
 H         -0.011  0.008  0.024    0.000 -0.009 -0.003   -0.002 -0.006  0.004
 TransDip   0.085 -0.024 -0.019    0.068  0.042 -0.189    0.070  0.151 -0.016

 Mode:                37                     38                     39
 Frequency:      2964.45                2970.06                3009.22
 Force Cnst:      5.6136                 5.3850                 5.8199
 Red. Mass:       1.0842                 1.0361                 1.0908
 IR Active:          YES                    YES                    YES
 IR Intens:       25.087                 20.411                 18.943
 Raman Active:       YES                    YES                    YES
               X      Y      Z        X      Y      Z        X      Y      Z
 C          0.007 -0.002  0.012    0.016  0.025 -0.040    0.002  0.002  0.003
 C         -0.046  0.003 -0.066   -0.007  0.000 -0.008   -0.003 -0.001 -0.003
 C          0.006 -0.003  0.011   -0.002 -0.004  0.001    0.002  0.001 -0.001
 C          0.004  0.006 -0.007   -0.001  0.000  0.000   -0.025 -0.082 -0.010
 C          0.001  0.000  0.000    0.000  0.000  0.000   -0.001  0.001 -0.001
 O          0.000  0.000  0.000    0.000  0.000  0.000    0.000  0.000  0.000
 H          0.557 -0.031  0.786    0.075 -0.003  0.103    0.030 -0.002  0.037
 H         -0.106  0.011 -0.142    0.377 -0.039  0.515   -0.016  0.002 -0.023
 H          0.014 -0.003 -0.002   -0.446  0.245  0.133    0.004  0.000  0.000
 H          0.007  0.011  0.003   -0.113 -0.495 -0.179   -0.003 -0.023 -0.010
 H         -0.071  0.003 -0.109    0.016  0.001  0.025   -0.001  0.000 -0.002
 H          0.028  0.023 -0.037    0.029  0.031 -0.040   -0.008 -0.008  0.011
 H         -0.030  0.012  0.010   -0.026  0.014  0.006   -0.011  0.006  0.002
 H         -0.041 -0.046  0.084    0.004  0.003 -0.006    0.076  0.088 -0.171
 H         -0.009 -0.025 -0.008    0.001 -0.001 -0.001    0.211  0.907  0.279
 H         -0.001  0.002 -0.001    0.000  0.002 -0.001    0.007 -0.030  0.017
 H          0.000 -0.001  0.000    0.000  0.000  0.000    0.002  0.002  0.002
 TransDip  -0.093  0.008 -0.131    0.067  0.064 -0.111   -0.041 -0.130 -0.032

 Mode:                40                     41                     42
 Frequency:      3024.75                3039.14                3045.67
 Force Cnst:      5.9267                 5.9894                 6.0125
 Red. Mass:       1.0995                 1.1006                 1.1001
 IR Active:          YES                    YES                    YES
 IR Intens:       26.148                 18.616                 26.100
 Raman Active:       YES                    YES                    YES
               X      Y      Z        X      Y      Z        X      Y      Z
 C          0.003  0.002  0.004   -0.075 -0.010 -0.047   -0.011 -0.015 -0.015
 C         -0.005  0.001 -0.009   -0.006  0.000 -0.009   -0.007  0.000 -0.008
 C          0.017  0.017 -0.087    0.020 -0.005 -0.001   -0.082  0.029 -0.013
 C          0.001  0.002 -0.001    0.000 -0.002 -0.001    0.000 -0.002 -0.001
 C          0.000  0.000  0.000    0.000  0.000  0.000    0.000  0.000  0.000
 O          0.000  0.000  0.000    0.000  0.000  0.000    0.000  0.000  0.000
 H          0.062 -0.001  0.088    0.060 -0.005  0.090    0.065 -0.001  0.092
 H         -0.029  0.001 -0.037    0.414 -0.052  0.587    0.088 -0.015  0.124
 H         -0.008  0.004  0.003    0.403 -0.226 -0.141   -0.004  0.000 -0.004
 H         -0.008 -0.039 -0.013    0.076  0.396  0.126    0.044  0.190  0.063
 H          0.378 -0.006  0.562   -0.037  0.003 -0.066    0.235  0.001  0.392
 H         -0.328 -0.348  0.451   -0.024 -0.033  0.041    0.035  0.060 -0.075
 H         -0.249  0.145  0.034   -0.173  0.096  0.038    0.712 -0.400 -0.162
 H         -0.007 -0.005  0.013    0.000  0.001  0.000   -0.001 -0.001  0.002
 H         -0.004 -0.017 -0.004    0.003  0.020  0.006    0.003  0.017  0.005
 H          0.000  0.002 -0.001   -0.001  0.003 -0.002    0.001 -0.003  0.002
 H          0.001 -0.005  0.001    0.000 -0.001  0.001    0.003  0.001 -0.002
 TransDip   0.059  0.036 -0.148   -0.103 -0.045 -0.080   -0.154  0.030 -0.045

 Mode:                43                     44                     45
 Frequency:      3048.20                3217.27                3859.07
 Force Cnst:      6.0343                 6.6530                 9.3539
 Red. Mass:       1.1023                 1.0909                 1.0661
 IR Active:          YES                    YES                    YES
 IR Intens:       31.170                  7.569                 49.592
 Raman Active:       YES                    YES                    YES
               X      Y      Z        X      Y      Z        X      Y      Z
 C          0.035 -0.077 -0.034    0.000  0.000  0.000    0.000  0.000  0.000
 C          0.001 -0.001  0.000    0.000  0.000  0.000    0.000  0.000  0.000
 C          0.014 -0.004  0.000    0.000  0.000  0.000    0.000  0.000 -0.001
 C         -0.001 -0.001  0.000   -0.003 -0.002 -0.002    0.000  0.000 -0.001
 C          0.000  0.000  0.000    0.027 -0.072  0.041    0.002 -0.002  0.002
 O          0.000  0.000  0.000    0.000  0.002 -0.001    0.019 -0.051  0.031
 H         -0.004  0.001 -0.005    0.001  0.000 -0.001    0.001  0.000  0.001
 H          0.016 -0.019  0.003   -0.002  0.000 -0.004    0.000  0.000  0.000
 H         -0.599  0.307  0.181   -0.001  0.001  0.000    0.001  0.000  0.000
 H          0.160  0.639  0.219    0.000  0.000  0.000    0.000  0.000  0.000
 H         -0.027  0.000 -0.049    0.000  0.000  0.002    0.000  0.001 -0.001
 H         -0.015 -0.018  0.024    0.001  0.002 -0.002   -0.002 -0.004  0.006
 H         -0.119  0.070  0.026    0.002 -0.001  0.000    0.000 -0.001  0.001
 H          0.002  0.003 -0.003    0.003  0.008 -0.016   -0.004 -0.003  0.002
 H          0.002  0.017  0.007    0.010  0.026  0.012    0.002  0.001  0.002
 H          0.000  0.000  0.000   -0.312  0.833 -0.448   -0.006  0.015 -0.007
 H          0.000  0.000  0.000    0.012 -0.011  0.011   -0.312  0.803 -0.503
 TransDip   0.084 -0.147 -0.058    0.011 -0.084  0.026   -0.032  0.213 -0.066

 STANDARD THERMODYNAMIC QUANTITIES AT   298.15 K  AND     1.00 ATM

   This Molecule has  0 Imaginary Frequencies
   Zero point vibrational energy:       93.596 kcal/mol

   Atom    1 Element C  Has Mass   12.00000
   Atom    2 Element C  Has Mass   12.00000
   Atom    3 Element C  Has Mass   12.00000
   Atom    4 Element C  Has Mass   12.00000
   Atom    5 Element C  Has Mass   12.00000
   Atom    6 Element O  Has Mass   15.99491
   Atom    7 Element H  Has Mass    1.00783
   Atom    8 Element H  Has Mass    1.00783
   Atom    9 Element H  Has Mass    1.00783
   Atom   10 Element H  Has Mass    1.00783
   Atom   11 Element H  Has Mass    1.00783
   Atom   12 Element H  Has Mass    1.00783
   Atom   13 Element H  Has Mass    1.00783
   Atom   14 Element H  Has Mass    1.00783
   Atom   15 Element H  Has Mass    1.00783
   Atom   16 Element H  Has Mass    1.00783
   Atom   17 Element H  Has Mass    1.00783
   Molecular Mass:    87.081040 amu
   Principal axes and moments of inertia in amu*Bohr^2:
                             1           2           3
    Eigenvalues --      351.30607   746.97850   877.64267
          X               0.99977    -0.00105    -0.02147
          Y               0.00058     0.99976    -0.02199
          Z               0.02148     0.02197     0.99953
   Rotational Symmetry Number is   1
   The Molecule is an Asymmetric Top
   Translational Enthalpy:        0.889 kcal/mol
   Rotational Enthalpy:           0.889 kcal/mol
   Vibrational Enthalpy:         97.002 kcal/mol
   gas constant (RT):             0.592 kcal/mol
   Translational Entropy:        39.306  cal/mol.K
   Rotational Entropy:           26.934  cal/mol.K
   Vibrational Entropy:          19.919  cal/mol.K

   Total Enthalpy:               99.371 kcal/mol
   Total Entropy:                86.159  cal/mol.K
Archival summary:
1\1\node03\FREQ\ProcedureUnspecified\BasisUnspecified\1511(2)\edames\ThuJul1009:25:582014ThuJul1009:25:582014\0\\#,FREQ,ProcedureUnspecified,BasisUnspecified,\\0,2\C\H,1,1.1013\C,1,1.53056,2,108.926\H,3,1.09768,1,111.231,2,62.4954,0\H,3,1.09805,1,111.334,2,-58.2987,0\H,3,1.09991,1,109.839,2,-177.864,0\C,1,1.5321,2,108.647,3,120.279,0\H,7,1.09741,1,111.191,2,-57.8453,0\H,7,1.10036,1,110.2,2,-176.976,0\H,7,1.10133,1,111.562,2,62.145,0\C,1,1.55109,2,107.181,3,-119.677,0\H,11,1.09969,1,108.634,2,62.3413,0\H,11,1.1078,1,108.455,2,-53.1288,0\C,11,1.49068,1,114.797,2,-175.549,0\H,14,1.08405,11,124.581,1,-113.477,0\O,14,1.36475,11,120.176,1,84.0943,0\H,16,0.964786,14,110.199,11,-12.0191,0\\\@

 Total job time:  85551.93s(wall), 55269.80s(cpu) 
 Thu Jul 10 09:25:58 2014

        *************************************************************
        *                                                           *
        *  Thank you very much for using Q-Chem.  Have a nice day.  *
        *                                                           *
        *************************************************************


0 sent ACK to 0 
now end server 0 ... 
cleanup process ... done
remove work dirs /scratch/edames/qchem17599.0 -- /scratch/edames/qchem17599.7
rm -rf /scratch/edames/qchem17599.0
rm -rf /scratch/edames/qchem17599.1
rm -rf /scratch/edames/qchem17599.2
rm -rf /scratch/edames/qchem17599.3
rm -rf /scratch/edames/qchem17599.4
rm -rf /scratch/edames/qchem17599.5
rm -rf /scratch/edames/qchem17599.6
rm -rf /scratch/edames/qchem17599.7
rm -rf /scratch/edames/qchem17599
