
Running Job 1 of 1 c5h11o2scan3.in
qchem c5h11o2scan3.in_7130.0 /scratch/edames/qchem7130/ 8
/opt/qchem/bin/mpi/mpirun_qchem -machinefile /tmp/318171.1.long2/hostfile -np 8 /opt/qchem/exe/qcprog.exe c5h11o2scan3.in_7130.0 /scratch/edames/qchem7130/

Process 0 of 8 is on node52.cluster - thread support 0
Process 4 of 8 is on node52.cluster - thread support 0
Process 1 of 8 is on node52.cluster - thread support 0
Process 2 of 8 is on node52.cluster - thread support 0
Process 6 of 8 is on node52.cluster - thread support 0
Process 5 of 8 is on node52.cluster - thread support 0
Process 3 of 8 is on node52.cluster - thread support 0
Process 7 of 8 is on node52.cluster - thread support 0
initial socket setup ...start
initial socket setup ...done 
now start server 0 ... 
set process cleaner
set process cleaner
set process cleaner
set process cleaner
set process cleaner
set process cleaner
                  Welcome to Q-Chem
     A Quantum Leap Into The Future Of Chemistry


 Q-Chem 4.2, Q-Chem, Inc., Pleasanton, CA (2014).

 Y. Shao,  Z. Gan,  E. Epifanovsky,  A. T. B. Gilbert,  M. Wormit,  
 J. Kussmann,  A. W. Lange,  A. Behn,  J. Deng,  X. Feng,  D. Ghosh,  
 M. Goldey,  P. R. Horn,  L. D. Jacobson,  I. Kaliman,  R. Z. Khaliullin,  
 T. Kus,  A. Landau,  J. Liu,  E. I. Proynov,  Y. M. Rhee,  R. M. Richard,  
 M. A. Rohrdanz,  R. P. Steele,  E. J. Sundstrom,  H. L. Woodcock III,  
 P. M. Zimmerman,  D. Zuev,  B. Albrecht,  E. Alguire,  B. Austin,  
 G. J. O. Beran,  Y. A. Bernard,  E. Berquist,  K. Brandhorst,  
 K. B. Bravaya,  S. T. Brown,  D. Casanova,  C.-M. Chang,  Y. Chen,  
 S. H. Chien,  K. D. Closser,  D. L. Crittenden,  M. Diedenhofen,  
 R. A. DiStasio Jr.,  H. Do,  A. D. Dutoi,  R. G. Edgar,  S. Fatehi,  
 L. Fusti-Molnar,  A. Ghysels,  A. Golubeva-Zadorozhnaya,  J. Gomes,  
 M. W. D. Hanson-Heine,  P. H. P. Harbach,  A. W. Hauser,  E. G. Hohenstein,  
 Z. C. Holden,  T.-C. Jagau,  H. Ji,  B. Kaduk,  K. Khistyaev,  Jaehoon Kim,  
 Jihan Kim,  R. A. King,  P. Klunzinger,  D. Kosenkov,  T. Kowalczyk,  
 C. M. Krauter,  K. U. Lao,  A. Laurent,  K. V. Lawler,  S. V. Levchenko,  
 C. Y. Lin,  F. Liu,  E. Livshits,  R. C. Lochan,  A. Luenser,  P. Manohar,  
 S. F. Manzer,  S.-P. Mao,  N. Mardirossian,  A. V. Marenich,  S. A. Maurer,  
 N. J. Mayhall,  C. M. Oana,  R. Olivares-Amaya,  D. P. O'Neill,  
 J. A. Parkhill,  T. M. Perrine,  R. Peverati,  P. A. Pieniazek,  A. Prociuk,  
 D. R. Rehn,  E. Rosta,  N. J. Russ,  N. Sergueev,  S. M. Sharada,  
 S. Sharma,  D. W. Small,  A. Sodt,  T. Stein,  D. Stuck,  Y.-C. Su,  
 A. J. W. Thom,  T. Tsuchimochi,  L. Vogt,  O. Vydrov,  T. Wang,  
 M. A. Watson,  J. Wenzel,  A. White,  C. F. Williams,  V. Vanovschi,  
 S. Yeganeh,  S. R. Yost,  Z.-Q. You,  I. Y. Zhang,  X. Zhang,  Y. Zhao,  
 B. R. Brooks,  G. K. L. Chan,  D. M. Chipman,  C. J. Cramer,  
 W. A. Goddard III,  M. S. Gordon,  W. J. Hehre,  A. Klamt,  
 H. F. Schaefer III,  M. W. Schmidt,  C. D. Sherrill,  D. G. Truhlar,  
 A. Warshel,  X. Xu,  A. Aspuru-Guzik,  R. Baer,  A. T. Bell,  N. A. Besley,  
 J.-D. Chai,  A. Dreuw,  B. D. Dunietz,  T. R. Furlani,  S. R. Gwaltney,  
 C.-P. Hsu,  Y. Jung,  J. Kong,  D. S. Lambrecht,  W. Liang,  C. Ochsenfeld,  
 V. A. Rassolov,  L. V. Slipchenko,  J. E. Subotnik,  T. Van Voorhis,  
 J. M. Herbert,  A. I. Krylov,  P. M. W. Gill,  M. Head-Gordon

 Contributors to earlier versions of Q-Chem not listed above: 
 R. D. Adamson,  J. Baker,  E. F. C. Byrd,  A. K. Chakraborty,  C.-L. Cheng,  
 H. Dachsel,  R. J. Doerksen,  G. Hawkins,  A. Heyden,  S. Hirata,  
 G. Kedziora,  F. J. Keil,  C. Kelley,  P. P. Korambath,  W. Kurlancheek,  
 A. M. Lee,  M. S. Lee,  D. Liotard,  I. Lotan,  P. E. Maslen,  N. Nair,  
 D. Neuhauser,  R. Olson,  B. Peters,  J. Ritchie,  N. E. Schultz,  
 N. Shenvi,  A. C. Simmonett,  K. S. Thanthiriwatte,  Q. Wu,  W. Zhang

 Q-Chem 4.2.0 for Intel X86 Linux

 Parts of Q-Chem use Armadillo 4.100.2 (Dirt Cruiser).
 http://arma.sourceforge.net/

 Q-Chem begins on Thu Jun 26 09:45:30 2014  

Host: 
0

     Scratch files written to /scratch/edames/qchem7130.0//
 May2514 8580_ilyak 4150   
 Parallel job on  8  processors
Processing $rem in /opt/qchem/config/preferences.
 MEM_TOTAL  2000 

 Q-Chem warning in module /home/scratch/svnadmin/8580_ilyak/qchem/forms1/BasisType.C, line 1209:

 Setting pure/cartesian flag to 2111 for general basis


Finally everything over in PARseQInput

--------------------------------------------------------------
User input:
--------------------------------------------------------------
$rem
SCF_ALGORITHM DIIS_GDM
max_scf_cycles = 100
incdft false
varthresh false
SCF_CONVERGENCE =  5
THRESH = 10
GEOM_OPT_TOL_DISPLACEMENT 3000
JOBTYPE pes_scan
EXCHANGE M062X
BASIS gen
GUI=2
UNRESTRICTED TRUE
CORRELATION NONE
MAX_SCF_CYCLES 80
GEOM_OPT_MAX_CYCLES 90
$end

$scan
tors 7 1 5 12 -180 180 15
$end

$comment
c5h11o-1
$end

$molecule
READ c5h11o-2MG3S.out
$end

$basis
H  0
S  3 1.00
3.386500000000E+01 2.549380000000E-02
5.094790000000E+00 1.903730000000E-01
1.158790000000E+00 8.521610000000E-01
S  1 1.00
3.258400000000E-01 1.000000000000E+00
S  1 1.00
1.027410000000E-01 1.000000000000E+00
S  1 1.00
3.600000000000E-02 1.000000000000E+00
P  1 1.00
1.500000000000E+00 1.000000000000E+00
P  1 1.00
3.750000000000E-01 1.000000000000E+00
****
C 0
S  6 1.00
4.563240000000E+03 1.966650000000E-03
6.820240000000E+02 1.523060000000E-02
1.549730000000E+02 7.612690000000E-02
4.445530000000E+01 2.608010000000E-01
1.302900000000E+01 6.164620000000E-01
1.827730000000E+00 2.210060000000E-01
S  3 1.00
2.096420000000E+01 1.146600000000E-01
4.803310000000E+00 9.199990000000E-01
1.459330000000E+00 -3.030680000000E-03
S  1 1.00
4.834560000000E-01 1.000000000000E+00
S  1 1.00
1.455850000000E-01 1.000000000000E+00
S  1 1.00
4.380000000000E-02 1.000000000000E+00
P  3 1.00
2.096420000000E+01 4.024870000000E-02
4.803310000000E+00 2.375940000000E-01
1.459330000000E+00 8.158540000000E-01
P  1 1.00
4.834560000000E-01 1.000000000000E+00
P  1 1.00
1.455850000000E-01 1.000000000000E+00
P  1 1.00
4.380000000000E-02 1.000000000000E+00
D  1 1.00
1.252000000000E+00 1.000000000000E+00
D  1 1.00
3.130000000000E-01 1.000000000000E+00
F  1 1.00
8.000000000000E-01 1.000000000000E+00
****
O  0
S  6 1.00
8.588500000000E+03 1.895150000000E-03
1.297230000000E+03 1.438590000000E-02
2.992960000000E+02 7.073200000000E-02
8.737710000000E+01 2.400010000000E-01
2.567890000000E+01 5.947970000000E-01
3.740040000000E+00 2.808020000000E-01
S  3 1.00
4.211750000000E+01 1.138890000000E-01
9.628370000000E+00 9.208110000000E-01
2.853320000000E+00 -3.274470000000E-03
S  1 1.00
9.056610000000E-01 1.000000000000E+00
S  1 1.00
2.556110000000E-01 1.000000000000E+00
S  1 1.00
8.450000000000E-02 1.000000000000E+00
P  3 1.00
4.211750000000E+01 3.651140000000E-02
9.628370000000E+00 2.371530000000E-01
2.853320000000E+00 8.197020000000E-01
P  1 1.00
9.056610000000E-01 1.000000000000E+00
P  1 1.00
2.556110000000E-01 1.000000000000E+00
P  1 1.00
8.450000000000E-02 1.000000000000E+00
D  1 1.00
2.584000000000E+00 1.000000000000E+00
D  1 1.00
6.460000000000E-01 1.000000000000E+00
F  1 1.00
1.400000000000E+00 1.000000000000E+00
****
$end

--------------------------------------------------------------
 ----------------------------------------------------------------
             Standard Nuclear Orientation (Angstroms)
    I     Atom           X                Y                Z
 ----------------------------------------------------------------
    1      C       0.9969028241    -0.0101550640    -0.3471190056
    2      C      -0.3434491139     0.5724804742     0.1184759317
    3      C      -1.5167786638    -0.2379387435    -0.3271233452
    4      O      -2.7654981960     0.1048978058     0.1192103164
    5      C       2.1471540019     0.9182176164     0.0435466991
    6      C       1.2188485797    -1.4120712214     0.2221846371
    7      H       0.9668855463    -0.0806656658    -1.4442294678
    8      H      -0.4339376336     1.6137728266    -0.2413111549
    9      H      -0.3318361262     0.6327859171     1.2207551366
   10      H      -1.5537381767    -0.6303036939    -1.3393660105
   11      H      -2.6983256136     0.4778292837     1.0107546071
   12      H       2.2046127031     1.0154119376     1.1348848640
   13      H       2.0155469496     1.9205146745    -0.3772217017
   14      H       3.1072129272     0.5253409641    -0.3066449998
   15      H       1.2464700612    -1.3733586403     1.3186434915
   16      H       2.1705177291    -1.8292669920    -0.1229242159
   17      H       0.4145114332    -2.0944414276    -0.0668125823
 ----------------------------------------------------------------
 Molecular Point Group                 C1    NOp =  1
 Largest Abelian Subgroup              C1    NOp =  1
 Nuclear Repulsion Energy =   244.5708591479 hartrees
 There are       25 alpha and       24 beta electrons
 Requested basis set is non-standard
 There are 138 shells and 314 basis functions

Total QAlloc Memory Limit   2000 MB
Mega-Array Size        61 MB
MEM_STATIC part        62 MB
A total of 1 constraints
  
            1
    1   3.0100000
    2   7.0100000
    3   1.0100000
    4   5.0100000
    5  12.0100000
    6-180.0000000
    7 180.0000000
    8  15.0000000
    9   0.0000000
   10   0.0000000
 A cutoff of  1.0D-10 yielded   8843 shell pairs
 There are     45167 function pairs (     54115 Cartesian)
 Smallest overlap matrix eigenvalue = 1.31E-05

  Scale SEOQF with 1.000000e-01/1.000000e-01/1.000000e-01

 Standard Electronic Orientation quadrupole field applied
 Nucleus-field energy     =     0.0000000070 hartrees
 Guess MOs from core Hamiltonian diagonalization
 An unrestricted hybrid HF-DFT SCF calculation will be
 performed using Pulay DIIS + Geometric Direct Minimization
 Exchange:     0.5400 Hartree-Fock + 1.0000 M062X
 SCF converges when RMS gradient is below 1.0E-05
 ---------------------------------------
  Cycle       Energy         DIIS Error
 ---------------------------------------
    1    -191.5626274179      9.19E-02
    2    -167.0760277242      5.07E-02
    3    -164.2378188179      6.71E-02
    4    -244.7301556887      3.56E-02
    5    -269.3603199508      1.55E-02
    6    -271.8519614878      6.36E-03 Done DIIS. Switching to GDM
    7    -272.1941936790      1.27E-01 Descent step
    8    -272.2725937497      4.36E-02 Normal BFGS step
    9    -272.2814686798      3.76E-03 Normal BFGS step
   10    -272.2818919774      2.43E-03 Normal BFGS step
   11    -272.2820955199      9.15E-04 Normal BFGS step
   12    -272.2821154420      3.57E-04 Normal BFGS step
   13    -272.2821178814      8.95E-05 Normal BFGS step
   14    -272.2821182008      4.13E-05 Normal BFGS step
   15    -272.2821182767      8.43E-06 Convergence criterion met
 ---------------------------------------
 <S^2> = 0.7545
 SCF time:  CPU 63.82 s  wall 186.95 s
 SCF   energy in the final basis set = -272.2821182767
 Total energy in the final basis set = -272.2821182767
 Analysis of SCF Wavefunction
 
 --------------------------------------------------------------
                    Orbital Energies (a.u.)
 --------------------------------------------------------------
 
 Alpha MOs
 -- Occupied --
-19.649 -10.580 -10.545 -10.541 -10.526 -10.523  -1.176  -0.918
 -0.820  -0.776  -0.719  -0.651  -0.577  -0.543  -0.538  -0.503
 -0.477  -0.475  -0.450  -0.438  -0.424  -0.392  -0.388  -0.382
 -0.227
 -- Virtual --
 -0.003   0.005   0.015   0.016   0.032   0.039   0.040   0.047
  0.052   0.067   0.075   0.085   0.096   0.102   0.108   0.116
  0.120   0.125   0.137   0.147   0.149   0.149   0.157   0.160
  0.162   0.169   0.177   0.183   0.189   0.204   0.207   0.216
  0.221   0.232   0.236   0.256   0.260   0.270   0.280   0.283
  0.290   0.297   0.311   0.322   0.334   0.336   0.349   0.352
  0.377   0.398   0.413   0.436   0.455   0.489   0.498   0.503
  0.509   0.528   0.550   0.562   0.576   0.583   0.589   0.601
  0.602   0.606   0.611   0.632   0.638   0.641   0.649   0.664
  0.678   0.683   0.703   0.706   0.728   0.730   0.745   0.760
  0.776   0.791   0.802   0.842   0.845   0.871   0.896   0.937
  0.941   0.951   0.969   0.977   1.016   1.043   1.057   1.075
  1.096   1.107   1.129   1.144   1.156   1.162   1.171   1.183
  1.197   1.210   1.220   1.231   1.253   1.284   1.293   1.303
  1.322   1.331   1.347   1.359   1.369   1.390   1.393   1.402
  1.412   1.427   1.446   1.452   1.483   1.495   1.513   1.527
  1.528   1.556   1.564   1.578   1.613   1.621   1.625   1.639
  1.666   1.672   1.686   1.714   1.741   1.754   1.790   1.821
  1.914   2.024   2.170   2.289   2.355   2.429   2.459   2.506
  2.563   2.570   2.613   2.650   2.690   2.707   2.728   2.757
  2.766   2.787   2.818   2.858   2.875   2.899   2.905   2.922
  2.944   2.960   2.986   2.989   3.010   3.013   3.049   3.083
  3.116   3.132   3.178   3.183   3.227   3.245   3.252   3.278
  3.291   3.307   3.336   3.344   3.372   3.379   3.394   3.418
  3.425   3.466   3.476   3.496   3.507   3.514   3.528   3.568
  3.603   3.610   3.636   3.662   3.676   3.703   3.717   3.735
  3.748   3.766   3.790   3.818   3.830   3.857   3.878   3.910
  3.952   3.960   3.986   4.003   4.009   4.011   4.041   4.063
  4.070   4.108   4.122   4.142   4.175   4.196   4.226   4.234
  4.243   4.247   4.268   4.277   4.291   4.322   4.344   4.370
  4.412   4.428   4.463   4.490   4.521   4.525   4.566   4.603
  4.611   4.614   4.652   4.703   4.720   4.751   4.786   4.849
  4.870   5.102   5.190   5.215   5.234   5.300   5.389   5.411
  5.451   5.518   5.556   5.569   5.579   5.626   5.644   5.655
  5.668   5.681   5.835   6.092   6.596   6.941   7.151   7.167
  7.220   7.518   7.626  24.264  24.334  24.392  24.455  24.513
 50.130
 
 Beta MOs
 -- Occupied --
-19.646 -10.573 -10.545 -10.542 -10.526 -10.523  -1.163  -0.915
 -0.809  -0.775  -0.703  -0.649  -0.567  -0.531  -0.530  -0.494
 -0.475  -0.453  -0.448  -0.425  -0.418  -0.389  -0.387  -0.377
 -- Virtual --
 -0.005   0.007   0.011   0.017   0.020   0.034   0.041   0.044
  0.050   0.053   0.068   0.078   0.087   0.093   0.101   0.108
  0.116   0.120   0.127   0.138   0.144   0.151   0.151   0.156
  0.160   0.162   0.169   0.176   0.182   0.185   0.203   0.206
  0.218   0.221   0.231   0.239   0.256   0.263   0.273   0.281
  0.285   0.291   0.296   0.312   0.325   0.334   0.339   0.349
  0.356   0.379   0.398   0.416   0.439   0.456   0.492   0.500
  0.504   0.512   0.531   0.552   0.565   0.580   0.581   0.591
  0.602   0.603   0.607   0.615   0.634   0.639   0.643   0.657
  0.666   0.681   0.685   0.705   0.709   0.729   0.731   0.747
  0.762   0.778   0.794   0.806   0.842   0.846   0.874   0.899
  0.938   0.943   0.953   0.971   0.977   1.016   1.045   1.057
  1.076   1.097   1.111   1.132   1.145   1.157   1.162   1.172
  1.186   1.201   1.212   1.223   1.235   1.254   1.285   1.295
  1.304   1.323   1.332   1.348   1.363   1.372   1.391   1.395
  1.403   1.412   1.428   1.448   1.453   1.484   1.496   1.515
  1.528   1.531   1.557   1.571   1.587   1.613   1.621   1.626
  1.639   1.667   1.672   1.688   1.714   1.742   1.755   1.792
  1.824   1.919   2.034   2.174   2.291   2.365   2.430   2.461
  2.514   2.566   2.573   2.620   2.653   2.695   2.722   2.733
  2.759   2.772   2.794   2.832   2.868   2.889   2.910   2.930
  2.945   2.950   2.975   2.991   2.991   3.013   3.023   3.057
  3.093   3.135   3.144   3.183   3.193   3.244   3.257   3.261
  3.290   3.309   3.319   3.348   3.365   3.383   3.391   3.406
  3.428   3.439   3.482   3.498   3.504   3.530   3.534   3.559
  3.572   3.607   3.624   3.647   3.667   3.685   3.714   3.722
  3.745   3.751   3.776   3.797   3.824   3.846   3.869   3.887
  3.920   3.953   3.969   3.995   4.004   4.013   4.021   4.046
  4.069   4.077   4.119   4.126   4.148   4.182   4.199   4.228
  4.236   4.245   4.250   4.271   4.280   4.317   4.326   4.355
  4.377   4.416   4.431   4.473   4.498   4.525   4.527   4.570
  4.607   4.613   4.618   4.662   4.706   4.732   4.755   4.789
  4.861   4.878   5.134   5.203   5.222   5.243   5.307   5.393
  5.420   5.453   5.541   5.563   5.576   5.612   5.628   5.645
  5.655   5.668   5.681   5.848   6.104   6.610   6.949   7.157
  7.175   7.225   7.524   7.625  24.265  24.338  24.392  24.458
 24.521  50.128
 --------------------------------------------------------------
 
          Ground-State Mulliken Net Atomic Charges

     Atom                 Charge (a.u.)    Spin (a.u.)
  --------------------------------------------------------
      1 C                    -0.079607       0.042845
      2 C                    -0.159986      -0.047330
      3 C                    -0.298650       0.890796
      4 O                    -0.274520       0.091032
      5 C                    -0.474029       0.000016
      6 C                    -0.469761       0.021956
      7 H                     0.181761      -0.008582
      8 H                     0.129834       0.067319
      9 H                     0.159057       0.006722
     10 H                     0.190134      -0.047613
     11 H                     0.259121      -0.002944
     12 H                     0.139646       0.000032
     13 H                     0.132005      -0.004181
     14 H                     0.139930       0.000110
     15 H                     0.143139      -0.003503
     16 H                     0.139186      -0.000104
     17 H                     0.142741      -0.006572
  --------------------------------------------------------
  Sum of atomic charges =     0.000000
  Sum of spin   charges =     1.000000

 -----------------------------------------------------------------
                    Cartesian Multipole Moments
 -----------------------------------------------------------------
    Charge (ESU x 10^10)
                 0.0000
    Dipole Moment (Debye)
         X       1.1694      Y       0.7555      Z       0.7494
       Tot       1.5811
    Quadrupole Moments (Debye-Ang)
        XX     -44.8742     XY      -1.7108     YY     -40.7060
        XZ      -3.2113     YZ       1.4843     ZZ     -37.1549
    Octopole Moments (Debye-Ang^2)
       XXX       7.6609    XXY       3.0759    XYY      -3.9950
       YYY       3.1133    XXZ       8.2646    XYZ      -3.5491
       YYZ      -0.8930    XZZ      -9.9157    YZZ       0.9472
       ZZZ       2.9495
    Hexadecapole Moments (Debye-Ang^3)
      XXXX    -821.8238   XXXY     -19.1367   XXYY    -168.1262
      XYYY      -2.7324   YYYY    -236.4150   XXXZ     -36.2897
      XXYZ      10.9498   XYYZ      -3.0994   YYYZ      -0.1074
      XXZZ    -126.6129   XYZZ      -2.4482   YYZZ     -55.3233
      XZZZ      -6.8622   YZZZ       3.6196   ZZZZ     -89.4416
 -----------------------------------------------------------------
 Calculating analytic gradient of the SCF energy
 Gradient of Coulomb and Exchange Energy
            1           2           3           4           5           6
    1  -3.9603733   1.9563180   0.7212009  11.7921642  -3.8995289  -2.2995194
    2   0.0923493  -0.5136873   1.5224993   0.1607161  -2.2972551   3.5792686
    3   1.1877055  -0.8490578   1.5913970   0.5938010  -0.2877629  -0.6543554
            7           8           9          10          11          12
    1  -0.1367940   0.6035444   0.0664047   0.4834705   0.8402370  -0.9270507
    2   0.3001743  -4.3720025  -0.8155798   2.1544707  -1.9932945  -0.8824634
    3   4.8293260   1.2241305  -4.3282518   4.1641844  -3.9456064  -3.8056420
           13          14          15          16          17
    1  -0.1718063  -3.7726781  -0.4386953  -3.4480009   2.5911073
    2  -3.8329710   0.9092890   0.6927387   2.1221348   3.1736127
    3   1.3266795   1.0991713  -3.9845957   0.9973967   0.8414800
 Gradient of SCF Energy
            1           2           3           4           5           6
    1  -0.0000115  -0.0002393   0.0023807  -0.0039073  -0.0011920  -0.0006383
    2   0.0004475  -0.0003460  -0.0036301  -0.0013290  -0.0013017   0.0011496
    3   0.0011063  -0.0015405   0.0015384  -0.0069851   0.0001473  -0.0004302
            7           8           9          10          11          12
    1   0.0000519   0.0000405   0.0002621  -0.0008975   0.0004561   0.0003571
    2  -0.0002169   0.0032533   0.0003487  -0.0003871   0.0025776   0.0003814
    3  -0.0030734  -0.0007320   0.0029948  -0.0023215   0.0075469   0.0029139
           13          14          15          16          17
    1  -0.0002587   0.0028280   0.0001726   0.0028629  -0.0022674
    2   0.0030022  -0.0009764   0.0002193  -0.0012948  -0.0018975
    3  -0.0012737  -0.0010045   0.0030653  -0.0010282  -0.0009239
 Max gradient component =       7.547E-03
 RMS gradient           =       2.238E-03
 Gradient time:  CPU 8.52 s  wall 28.68 s
 Geometry Optimization Parameters
   NAtoms,    NIC,     NZ,  NCons,   NDum,   NFix, NCnnct, MaxDiis
       17     113       0       1       0       0       0       0


** CONSTRAINED OPTIMIZATION IN DELOCALIZED INTERNAL COORDINATES **
   Searching for a Minimum

   Optimization Cycle:   1

                       Coordinates (Angstroms)
     ATOM                X               Y               Z
      1  C         0.9969028241   -0.0101550640   -0.3471190056
      2  C        -0.3434491139    0.5724804742    0.1184759317
      3  C        -1.5167786638   -0.2379387435   -0.3271233452
      4  O        -2.7654981960    0.1048978058    0.1192103164
      5  C         2.1471540019    0.9182176164    0.0435466991
      6  C         1.2188485797   -1.4120712214    0.2221846371
      7  H         0.9668855463   -0.0806656658   -1.4442294678
      8  H        -0.4339376336    1.6137728266   -0.2413111549
      9  H        -0.3318361262    0.6327859171    1.2207551366
     10  H        -1.5537381767   -0.6303036939   -1.3393660105
     11  H        -2.6983256136    0.4778292837    1.0107546071
     12  H         2.2046127031    1.0154119376    1.1348848640
     13  H         2.0155469496    1.9205146745   -0.3772217017
     14  H         3.1072129272    0.5253409641   -0.3066449998
     15  H         1.2464700612   -1.3733586403    1.3186434915
     16  H         2.1705177291   -1.8292669920   -0.1229242159
     17  H         0.4145114332   -2.0944414276   -0.0668125823
   Point Group: c1    Number of degrees of freedom:    45


   Energy is   -272.282118277

              Constraints and their Current Values
                                        Value     Constraint
   Dihedral:        7   1   5  12      179.774     -180.000

 Attempting to Generate Delocalized Internal Coordinates
 GETINT wrote B to file, NVib is           45
 GETINT wrote B to file, NVib is           45
 calling HSSCONV
 HCONV 3*NATOMS:           51
 wrote HINT to file
  writing hessian 

   Using Lagrange Multiplier Algorithm


 46 Hessian modes will be used to form the next step
  Hessian Eigenvalues:
    -0.977753    0.045000    0.045000    0.045000    0.045000    0.051620
     0.055934    0.070720    0.071384    0.077867    0.080506    0.082361
     0.082451    0.082471    0.083778    0.110896    0.136910    0.150889
     0.160000    0.160000    0.160000    0.160000    0.160000    0.160000
     0.160000    0.178470    0.179579    0.219566    0.224485    0.290681
     0.294889    0.295241    0.330149    0.330912    0.332448    0.337061
     0.339613    0.339978    0.342442    0.342514    0.342580    0.343923
     0.352490    0.510362    0.536369    1.022753

 Minimum Search - Taking P-RFO Step
 Searching for Lamda that Maximizes Along the Constraint modes Only
 Value Taken    Lamda =   0.00000919
 Searching for Lamda that Minimizes Along All other modes
 Value Taken    Lamda =  -0.00054803
 Step Taken.  Stepsize is  0.046087

                             Maximum     Tolerance    Cnvgd?
         Gradient           0.007414      0.000300      NO
         Displacement       0.021618      0.003000      NO
         Energy change     *********      0.000001      NO


 New Cartesian Coordinates Obtained by Inverse Iteration

 Displacement from previous Coordinates is:  0.061528
 ----------------------------------------------------------------
             Standard Nuclear Orientation (Angstroms)
    I     Atom           X                Y                Z
 ----------------------------------------------------------------
    1      C       0.9945851186    -0.0115669329    -0.3450533254
    2      C      -0.3420473244     0.5701431155     0.1203901894
    3      C      -1.5136929119    -0.2325056323    -0.3271682445
    4      O      -2.7584908491     0.1076335347     0.1206076675
    5      C       2.1407145354     0.9165902319     0.0430668324
    6      C       1.2200484204    -1.4100528132     0.2218533906
    7      H       0.9642363643    -0.0825129352    -1.4372913944
    8      H      -0.4320851648     1.6059225196    -0.2392497401
    9      H      -0.3328937606     0.6297598297     1.2179414201
   10      H      -1.5461013568    -0.6277762050    -1.3346777496
   11      H      -2.6892732791     0.4842875684     1.0018711197
   12      H       2.1993145878     1.0097821281     1.1300822406
   13      H       2.0073986567     1.9144203289    -0.3747240488
   14      H       3.0960348354     0.5257833549    -0.3071971564
   15      H       1.2489091301    -1.3729127090     1.3135386968
   16      H       2.1678652583    -1.8224020932    -0.1235825572
   17      H       0.4205769711    -2.0915432394    -0.0647041409
 ----------------------------------------------------------------
 Molecular Point Group                 C1    NOp =  1
 Largest Abelian Subgroup              C1    NOp =  1
 Nuclear Repulsion Energy =   245.2850331873 hartrees
 There are       25 alpha and       24 beta electrons
 Applying Cartesian multipole field
    Component          Value
    ---------          -----
     (2,0,0)        1.00000E-11
     (0,2,0)        2.00000E-11
     (0,0,2)       -3.00000E-11
 Nucleus-field energy     =     0.0000000069 hartrees
 Requested basis set is non-standard
 There are 138 shells and 314 basis functions
 A cutoff of  1.0D-10 yielded   8847 shell pairs
 There are     45221 function pairs (     54197 Cartesian)
 Smallest overlap matrix eigenvalue = 1.28E-05
 Guess MOs from core Hamiltonian diagonalization
 An unrestricted hybrid HF-DFT SCF calculation will be
 performed using Pulay DIIS + Geometric Direct Minimization
 Exchange:     0.5400 Hartree-Fock + 1.0000 M062X
 SCF converges when RMS gradient is below 1.0E-05
 ---------------------------------------
  Cycle       Energy         DIIS Error
 ---------------------------------------
    1    -191.4483850637      9.20E-02
    2    -166.9478329248      5.08E-02
    3    -164.0206685422      6.73E-02
    4    -244.5954059326      3.56E-02
    5    -269.3713166148      1.55E-02
    6    -271.8610988128      6.32E-03 Done DIIS. Switching to GDM
    7    -272.1974299966      1.23E-01 Descent step
    8    -272.2725589858      4.30E-02 Normal BFGS step
    9    -272.2817900994      3.71E-03 Normal BFGS step
   10    -272.2821867458      2.36E-03 Normal BFGS step
   11    -272.2823814480      9.02E-04 Normal BFGS step
   12    -272.2824005501      3.49E-04 Normal BFGS step
   13    -272.2824028748      8.97E-05 Normal BFGS step
   14    -272.2824031807      4.02E-05 Normal BFGS step
   15    -272.2824032515      8.80E-06 Convergence criterion met
 ---------------------------------------
 <S^2> = 0.7544
 SCF time:  CPU 62.34 s  wall 182.36 s
 SCF   energy in the final basis set = -272.2824032515
 Total energy in the final basis set = -272.2824032515
 Analysis of SCF Wavefunction
 
 --------------------------------------------------------------
                    Orbital Energies (a.u.)
 --------------------------------------------------------------
 
 Alpha MOs
 -- Occupied --
-19.649 -10.579 -10.543 -10.539 -10.524 -10.521  -1.179  -0.920
 -0.822  -0.777  -0.721  -0.652  -0.579  -0.545  -0.540  -0.504
 -0.479  -0.476  -0.451  -0.439  -0.424  -0.393  -0.388  -0.382
 -0.225
 -- Virtual --
 -0.003   0.006   0.015   0.016   0.032   0.039   0.040   0.047
  0.052   0.067   0.075   0.086   0.096   0.102   0.108   0.116
  0.121   0.125   0.137   0.147   0.149   0.150   0.158   0.160
  0.162   0.169   0.177   0.183   0.190   0.204   0.208   0.217
  0.222   0.233   0.237   0.257   0.261   0.272   0.281   0.284
  0.290   0.298   0.312   0.323   0.335   0.337   0.350   0.353
  0.378   0.398   0.414   0.436   0.456   0.490   0.498   0.504
  0.510   0.528   0.552   0.563   0.577   0.584   0.591   0.602
  0.603   0.607   0.613   0.634   0.640   0.643   0.652   0.666
  0.679   0.684   0.705   0.708   0.730   0.732   0.747   0.761
  0.777   0.792   0.803   0.845   0.846   0.872   0.898   0.940
  0.944   0.953   0.971   0.977   1.019   1.044   1.059   1.077
  1.097   1.109   1.131   1.146   1.159   1.165   1.173   1.185
  1.198   1.212   1.222   1.233   1.255   1.287   1.297   1.306
  1.325   1.334   1.349   1.361   1.371   1.392   1.397   1.406
  1.414   1.431   1.450   1.455   1.487   1.498   1.516   1.529
  1.531   1.560   1.568   1.581   1.617   1.625   1.628   1.644
  1.670   1.676   1.691   1.717   1.744   1.757   1.793   1.825
  1.918   2.028   2.174   2.287   2.359   2.428   2.460   2.506
  2.563   2.569   2.613   2.650   2.690   2.713   2.728   2.758
  2.769   2.790   2.822   2.862   2.878   2.902   2.907   2.924
  2.947   2.965   2.990   2.992   3.013   3.015   3.053   3.087
  3.117   3.134   3.180   3.188   3.231   3.249   3.255   3.279
  3.295   3.310   3.339   3.348   3.375   3.383   3.398   3.421
  3.428   3.470   3.479   3.497   3.511   3.517   3.530   3.569
  3.604   3.611   3.636   3.662   3.680   3.706   3.720   3.738
  3.756   3.772   3.798   3.822   3.837   3.865   3.886   3.918
  3.963   3.970   3.997   4.011   4.020   4.022   4.051   4.071
  4.080   4.116   4.130   4.148   4.186   4.206   4.235   4.243
  4.253   4.256   4.276   4.286   4.298   4.332   4.353   4.380
  4.423   4.434   4.475   4.499   4.533   4.536   4.576   4.611
  4.623   4.625   4.663   4.716   4.732   4.763   4.797   4.852
  4.872   5.110   5.192   5.220   5.240   5.308   5.400   5.426
  5.461   5.535   5.576   5.585   5.599   5.646   5.664   5.676
  5.689   5.701   5.845   6.111   6.608   6.944   7.163   7.194
  7.234   7.523   7.625  24.281  24.353  24.418  24.480  24.539
 50.139
 
 Beta MOs
 -- Occupied --
-19.645 -10.571 -10.543 -10.540 -10.524 -10.521  -1.166  -0.917
 -0.811  -0.777  -0.705  -0.651  -0.569  -0.533  -0.532  -0.496
 -0.476  -0.454  -0.449  -0.426  -0.419  -0.390  -0.387  -0.378
 -- Virtual --
 -0.005   0.007   0.012   0.017   0.020   0.034   0.041   0.045
  0.050   0.053   0.068   0.078   0.088   0.094   0.101   0.108
  0.116   0.121   0.127   0.138   0.144   0.151   0.152   0.156
  0.160   0.162   0.169   0.176   0.183   0.185   0.203   0.207
  0.219   0.223   0.233   0.240   0.257   0.264   0.274   0.282
  0.286   0.292   0.297   0.314   0.327   0.336   0.340   0.350
  0.357   0.380   0.399   0.418   0.439   0.456   0.492   0.500
  0.505   0.513   0.532   0.554   0.565   0.580   0.582   0.592
  0.603   0.605   0.608   0.617   0.635   0.641   0.645   0.660
  0.668   0.683   0.686   0.708   0.711   0.731   0.734   0.749
  0.763   0.778   0.796   0.808   0.844   0.847   0.875   0.902
  0.940   0.945   0.955   0.974   0.977   1.019   1.047   1.059
  1.078   1.098   1.112   1.134   1.147   1.160   1.165   1.174
  1.189   1.202   1.214   1.224   1.236   1.257   1.288   1.298
  1.307   1.325   1.336   1.351   1.364   1.375   1.393   1.398
  1.406   1.414   1.432   1.452   1.456   1.488   1.500   1.518
  1.530   1.534   1.561   1.575   1.590   1.617   1.625   1.628
  1.643   1.670   1.676   1.693   1.717   1.745   1.758   1.796
  1.829   1.924   2.038   2.179   2.288   2.370   2.430   2.462
  2.515   2.566   2.572   2.620   2.653   2.695   2.727   2.735
  2.760   2.775   2.797   2.836   2.873   2.892   2.913   2.933
  2.947   2.953   2.979   2.993   2.996   3.015   3.026   3.061
  3.097   3.135   3.146   3.186   3.198   3.247   3.261   3.264
  3.292   3.314   3.322   3.350   3.368   3.387   3.396   3.410
  3.432   3.441   3.485   3.502   3.505   3.534   3.535   3.560
  3.573   3.608   3.626   3.647   3.668   3.688   3.717   3.726
  3.749   3.760   3.781   3.805   3.828   3.854   3.876   3.896
  3.928   3.964   3.978   4.006   4.014   4.022   4.033   4.056
  4.077   4.087   4.127   4.134   4.154   4.193   4.208   4.237
  4.246   4.255   4.259   4.279   4.289   4.324   4.336   4.365
  4.387   4.426   4.437   4.485   4.506   4.536   4.539   4.580
  4.616   4.625   4.629   4.674   4.719   4.744   4.768   4.799
  4.863   4.881   5.142   5.206   5.226   5.249   5.316   5.404
  5.434   5.463   5.557   5.583   5.593   5.632   5.649   5.664
  5.676   5.689   5.701   5.859   6.123   6.622   6.952   7.172
  7.203   7.236   7.530   7.624  24.282  24.358  24.418  24.483
 24.547  50.136
 --------------------------------------------------------------
 
          Ground-State Mulliken Net Atomic Charges

     Atom                 Charge (a.u.)    Spin (a.u.)
  --------------------------------------------------------
      1 C                    -0.087625       0.045124
      2 C                    -0.161990      -0.049203
      3 C                    -0.298528       0.890518
      4 O                    -0.271886       0.091631
      5 C                    -0.477801       0.000241
      6 C                    -0.471620       0.021519
      7 H                     0.183808      -0.008862
      8 H                     0.130846       0.068035
      9 H                     0.160892       0.006869
     10 H                     0.191697      -0.048515
     11 H                     0.257253      -0.002961
     12 H                     0.141303       0.000024
     13 H                     0.133104      -0.004293
     14 H                     0.141245       0.000111
     15 H                     0.144859      -0.003509
     16 H                     0.140411      -0.000095
     17 H                     0.144033      -0.006634
  --------------------------------------------------------
  Sum of atomic charges =     0.000000
  Sum of spin   charges =     1.000000

 -----------------------------------------------------------------
                    Cartesian Multipole Moments
 -----------------------------------------------------------------
    Charge (ESU x 10^10)
                 0.0000
    Dipole Moment (Debye)
         X       1.1682      Y       0.7608      Z       0.7423
       Tot       1.5794
    Quadrupole Moments (Debye-Ang)
        XX     -44.8169     XY      -1.7392     YY     -40.6440
        XZ      -3.1829     YZ       1.4795     ZZ     -37.1412
    Octopole Moments (Debye-Ang^2)
       XXX       7.5487    XXY       3.0804    XYY      -4.0408
       YYY       3.0174    XXZ       8.1113    XYZ      -3.5514
       YYZ      -0.8850    XZZ      -9.7933    YZZ       0.9234
       ZZZ       2.8594
    Hexadecapole Moments (Debye-Ang^3)
      XXXX    -817.1739   XXXY     -18.5690   XXYY    -167.0333
      XYYY      -2.2702   YYYY    -235.0881   XXXZ     -35.6879
      XXYZ      10.8969   XYYZ      -3.1325   YYYZ      -0.1027
      XXZZ    -126.0879   XYZZ      -2.3073   YYZZ     -54.9622
      XZZZ      -6.7958   YZZZ       3.5812   ZZZZ     -88.9930
 -----------------------------------------------------------------
 Calculating analytic gradient of the SCF energy
 Gradient of Coulomb and Exchange Energy
            1           2           3           4           5           6
    1  -3.9529894   1.9099936   0.7450397  11.8114896  -3.8785436  -2.3095129
    2   0.0974352  -0.4326285   1.4141334   0.2094496  -2.2989318   3.5377157
    3   1.1511450  -0.9033879   1.6643203   0.5541261  -0.2726562  -0.6260428
            7           8           9          10          11          12
    1  -0.1407831   0.6177931   0.0892304   0.4637707   0.8475185  -0.9391971
    2   0.3090504  -4.3712959  -0.8145006   2.1827111  -2.0451658  -0.8693895
    3   4.8408102   1.2395610  -4.3329891   4.1603765  -3.9443004  -3.8075801
           13          14          15          16          17
    1  -0.1688915  -3.7778473  -0.4437759  -3.4552468   2.5819520
    2  -3.8440782   0.9057692   0.7096568   2.1215096   3.1885591
    3   1.3260750   1.1015795  -3.9835029   1.0002550   0.8322108
 Gradient of SCF Energy
            1           2           3           4           5           6
    1   0.0000234  -0.0002649   0.0014248  -0.0008867  -0.0006086  -0.0001113
    2   0.0003348   0.0004157  -0.0014022   0.0008447  -0.0002043   0.0000447
    3   0.0001625  -0.0007242   0.0012731  -0.0006462   0.0001823  -0.0001819
            7           8           9          10          11          12
    1   0.0002442  -0.0000089   0.0000075  -0.0003548   0.0002503   0.0001517
    2  -0.0001277   0.0000034   0.0001314   0.0003881  -0.0004382  -0.0001591
    3  -0.0000662   0.0000137   0.0000990  -0.0002286   0.0002482   0.0000277
           13          14          15          16          17
    1   0.0000600  -0.0000379   0.0000583   0.0000112   0.0000417
    2   0.0000449  -0.0000158   0.0000712   0.0000365   0.0000321
    3  -0.0001526   0.0000387  -0.0000013  -0.0000042  -0.0000401
 Max gradient component =       1.425E-03
 RMS gradient           =       4.379E-04
 Gradient time:  CPU 7.71 s  wall 28.49 s
 Geometry Optimization Parameters
   NAtoms,    NIC,     NZ,  NCons,   NDum,   NFix, NCnnct, MaxDiis
       17     113       0       1       0       0       0       0

 Cartesian Hessian Update
 Hessian Updated using BFGS Update


** CONSTRAINED OPTIMIZATION IN DELOCALIZED INTERNAL COORDINATES **
   Searching for a Minimum

   Optimization Cycle:   2

                       Coordinates (Angstroms)
     ATOM                X               Y               Z
      1  C         0.9945851186   -0.0115669329   -0.3450533254
      2  C        -0.3420473244    0.5701431155    0.1203901894
      3  C        -1.5136929119   -0.2325056323   -0.3271682445
      4  O        -2.7584908491    0.1076335347    0.1206076675
      5  C         2.1407145354    0.9165902319    0.0430668324
      6  C         1.2200484204   -1.4100528132    0.2218533906
      7  H         0.9642363643   -0.0825129352   -1.4372913944
      8  H        -0.4320851648    1.6059225196   -0.2392497401
      9  H        -0.3328937606    0.6297598297    1.2179414201
     10  H        -1.5461013568   -0.6277762050   -1.3346777496
     11  H        -2.6892732791    0.4842875684    1.0018711197
     12  H         2.1993145878    1.0097821281    1.1300822406
     13  H         2.0073986567    1.9144203289   -0.3747240488
     14  H         3.0960348354    0.5257833549   -0.3071971564
     15  H         1.2489091301   -1.3729127090    1.3135386968
     16  H         2.1678652583   -1.8224020932   -0.1235825572
     17  H         0.4205769711   -2.0915432394   -0.0647041409
   Point Group: c1    Number of degrees of freedom:    45


   Energy is   -272.282403251

              Constraints and their Current Values
                                        Value     Constraint
   Dihedral:        7   1   5  12      180.000     -180.000
 GETINT wrote B to file, NVib is           45
 Hessian Updated using BFGS Update

 37 Hessian modes will be used to form the next step
  Hessian Eigenvalues:
     0.042461    0.045000    0.049438    0.055892    0.070577    0.071007
     0.077862    0.080484    0.082328    0.082446    0.082452    0.083771
     0.110908    0.136887    0.150587    0.159438    0.160394    0.178527
     0.179600    0.219192    0.224457    0.291090    0.294840    0.299205
     0.329792    0.331637    0.333783    0.337438    0.339787    0.340667
     0.342301    0.342542    0.343535    0.351634    0.357379    0.503967
     0.543085

 Minimum Search - Taking Simple RFO Step
 Searching for Lamda that Minimizes Along All modes
 Value Taken    Lamda =  -0.00003107
 Step Taken.  Stepsize is  0.024908

                             Maximum     Tolerance    Cnvgd?
         Gradient           0.000621      0.000300      NO
         Displacement       0.011782      0.003000      NO
         Energy change     -0.000285      0.000001      NO


 New Cartesian Coordinates Obtained by Inverse Iteration

 Displacement from previous Coordinates is:  0.020305
 ----------------------------------------------------------------
             Standard Nuclear Orientation (Angstroms)
    I     Atom           X                Y                Z
 ----------------------------------------------------------------
    1      C       0.9945157668    -0.0121647714    -0.3442759962
    2      C      -0.3420792629     0.5694087437     0.1217274368
    3      C      -1.5149071586    -0.2299350566    -0.3290996435
    4      O      -2.7590832474     0.1061437344     0.1209878983
    5      C       2.1411256649     0.9172261765     0.0424828998
    6      C       1.2209667276    -1.4109386184     0.2222107835
    7      H       0.9628019628    -0.0823921606    -1.4361506096
    8      H      -0.4308480154     1.6052629073    -0.2371185572
    9      H      -0.3338040842     0.6275023283     1.2189347337
   10      H      -1.5451484984    -0.6293846119    -1.3346889611
   11      H      -2.6918690192     0.4898867350     0.9987922895
   12      H       2.2010164935     1.0096903654     1.1292054271
   13      H       2.0057240433     1.9149462613    -0.3738508111
   14      H       3.0962419106     0.5279646646    -0.3093943911
   15      H       1.2506112359    -1.3746618780     1.3136353618
   16      H       2.1682808259    -1.8230094265    -0.1241280875
   17      H       0.4215538865    -2.0924953418    -0.0635665735
 ----------------------------------------------------------------
 Molecular Point Group                 C1    NOp =  1
 Largest Abelian Subgroup              C1    NOp =  1
 Nuclear Repulsion Energy =   245.2555106192 hartrees
 There are       25 alpha and       24 beta electrons
 Applying Cartesian multipole field
    Component          Value
    ---------          -----
     (2,0,0)        1.00000E-11
     (0,2,0)        2.00000E-11
     (0,0,2)       -3.00000E-11
 Nucleus-field energy     =     0.0000000069 hartrees
 Requested basis set is non-standard
 There are 138 shells and 314 basis functions
 A cutoff of  1.0D-10 yielded   8845 shell pairs
 There are     45213 function pairs (     54186 Cartesian)
 Smallest overlap matrix eigenvalue = 1.28E-05
 Guess MOs from core Hamiltonian diagonalization
 An unrestricted hybrid HF-DFT SCF calculation will be
 performed using Pulay DIIS + Geometric Direct Minimization
 Exchange:     0.5400 Hartree-Fock + 1.0000 M062X
 SCF converges when RMS gradient is below 1.0E-05
 ---------------------------------------
  Cycle       Energy         DIIS Error
 ---------------------------------------
    1    -191.4460710437      9.20E-02
    2    -166.9363938628      5.08E-02
    3    -163.9978846682      6.73E-02
    4    -244.5728718255      3.56E-02
    5    -269.3659411026      1.55E-02
    6    -271.8613122492      6.31E-03 Done DIIS. Switching to GDM
    7    -272.1974866242      1.23E-01 Descent step
    8    -272.2726193602      4.25E-02 Normal BFGS step
    9    -272.2818211445      3.67E-03 Normal BFGS step
   10    -272.2822138010      2.31E-03 Normal BFGS step
   11    -272.2824060338      8.87E-04 Normal BFGS step
   12    -272.2824248337      3.50E-04 Normal BFGS step
   13    -272.2824271296      9.07E-05 Normal BFGS step
   14    -272.2824274308      4.06E-05 Normal BFGS step
   15    -272.2824275007      8.95E-06 Convergence criterion met
 ---------------------------------------
 <S^2> = 0.7544
 SCF time:  CPU 61.33 s  wall 184.79 s
 SCF   energy in the final basis set = -272.2824275007
 Total energy in the final basis set = -272.2824275007
 Analysis of SCF Wavefunction
 
 --------------------------------------------------------------
                    Orbital Energies (a.u.)
 --------------------------------------------------------------
 
 Alpha MOs
 -- Occupied --
-19.649 -10.578 -10.543 -10.539 -10.524 -10.521  -1.179  -0.920
 -0.822  -0.777  -0.721  -0.653  -0.579  -0.545  -0.540  -0.504
 -0.479  -0.476  -0.451  -0.439  -0.424  -0.393  -0.388  -0.383
 -0.224
 -- Virtual --
 -0.003   0.006   0.015   0.016   0.032   0.039   0.040   0.047
  0.052   0.067   0.075   0.086   0.096   0.102   0.108   0.116
  0.121   0.125   0.137   0.147   0.149   0.150   0.158   0.160
  0.162   0.169   0.177   0.183   0.190   0.204   0.207   0.217
  0.222   0.234   0.238   0.257   0.261   0.272   0.281   0.284
  0.290   0.298   0.312   0.323   0.335   0.337   0.350   0.353
  0.378   0.398   0.414   0.436   0.456   0.490   0.498   0.504
  0.510   0.528   0.552   0.563   0.577   0.584   0.591   0.602
  0.604   0.607   0.613   0.634   0.640   0.643   0.652   0.667
  0.679   0.684   0.706   0.708   0.730   0.732   0.747   0.761
  0.777   0.792   0.804   0.845   0.847   0.872   0.898   0.940
  0.943   0.953   0.971   0.977   1.018   1.045   1.059   1.077
  1.097   1.109   1.131   1.145   1.160   1.165   1.173   1.185
  1.198   1.211   1.221   1.233   1.255   1.286   1.297   1.306
  1.325   1.334   1.349   1.361   1.372   1.392   1.397   1.406
  1.413   1.431   1.450   1.455   1.487   1.499   1.516   1.530
  1.531   1.560   1.569   1.581   1.617   1.625   1.627   1.644
  1.670   1.676   1.691   1.717   1.744   1.756   1.793   1.826
  1.919   2.028   2.176   2.287   2.360   2.428   2.460   2.506
  2.562   2.568   2.612   2.650   2.690   2.713   2.728   2.757
  2.770   2.789   2.822   2.863   2.878   2.902   2.908   2.924
  2.947   2.965   2.990   2.993   3.013   3.015   3.053   3.087
  3.117   3.134   3.180   3.187   3.231   3.250   3.255   3.278
  3.295   3.310   3.339   3.347   3.375   3.383   3.398   3.420
  3.428   3.469   3.479   3.498   3.511   3.518   3.530   3.568
  3.603   3.611   3.635   3.662   3.680   3.705   3.720   3.739
  3.756   3.772   3.798   3.823   3.838   3.864   3.886   3.919
  3.964   3.970   3.997   4.011   4.019   4.023   4.051   4.070
  4.081   4.115   4.130   4.148   4.188   4.206   4.235   4.244
  4.253   4.256   4.276   4.286   4.297   4.332   4.352   4.381
  4.423   4.434   4.475   4.499   4.533   4.537   4.577   4.610
  4.623   4.625   4.665   4.716   4.734   4.763   4.797   4.853
  4.872   5.109   5.191   5.219   5.239   5.307   5.400   5.426
  5.461   5.536   5.578   5.586   5.601   5.647   5.665   5.677
  5.689   5.702   5.846   6.118   6.610   6.943   7.162   7.196
  7.236   7.526   7.625  24.283  24.354  24.418  24.479  24.540
 50.140
 
 Beta MOs
 -- Occupied --
-19.645 -10.571 -10.543 -10.540 -10.524 -10.521  -1.166  -0.917
 -0.811  -0.777  -0.705  -0.651  -0.569  -0.533  -0.532  -0.496
 -0.476  -0.454  -0.449  -0.425  -0.419  -0.390  -0.387  -0.378
 -- Virtual --
 -0.004   0.007   0.012   0.017   0.020   0.034   0.041   0.045
  0.050   0.053   0.068   0.078   0.087   0.094   0.101   0.108
  0.116   0.121   0.127   0.138   0.144   0.151   0.152   0.157
  0.160   0.162   0.169   0.176   0.183   0.186   0.203   0.207
  0.219   0.223   0.233   0.240   0.257   0.264   0.275   0.282
  0.286   0.292   0.297   0.314   0.326   0.336   0.341   0.350
  0.357   0.380   0.399   0.418   0.439   0.456   0.493   0.500
  0.505   0.514   0.532   0.554   0.565   0.580   0.582   0.592
  0.603   0.605   0.608   0.617   0.635   0.641   0.646   0.660
  0.669   0.682   0.687   0.708   0.711   0.731   0.734   0.749
  0.763   0.779   0.796   0.809   0.844   0.847   0.875   0.902
  0.940   0.945   0.955   0.974   0.977   1.018   1.047   1.059
  1.078   1.098   1.113   1.134   1.147   1.160   1.165   1.174
  1.189   1.202   1.213   1.224   1.236   1.257   1.288   1.298
  1.307   1.325   1.336   1.351   1.364   1.375   1.393   1.398
  1.406   1.414   1.432   1.452   1.456   1.488   1.500   1.518
  1.531   1.535   1.561   1.576   1.590   1.617   1.625   1.628
  1.643   1.671   1.676   1.693   1.717   1.745   1.758   1.795
  1.830   1.924   2.038   2.181   2.288   2.371   2.429   2.462
  2.515   2.566   2.572   2.620   2.652   2.695   2.727   2.736
  2.760   2.776   2.797   2.836   2.874   2.892   2.914   2.933
  2.946   2.954   2.979   2.993   2.997   3.015   3.025   3.062
  3.097   3.135   3.146   3.186   3.197   3.247   3.261   3.265
  3.292   3.314   3.322   3.350   3.368   3.387   3.396   3.409
  3.432   3.441   3.485   3.502   3.505   3.534   3.536   3.560
  3.572   3.608   3.626   3.646   3.667   3.688   3.716   3.725
  3.749   3.760   3.781   3.805   3.828   3.855   3.876   3.896
  3.929   3.965   3.978   4.006   4.014   4.022   4.033   4.056
  4.076   4.087   4.127   4.135   4.154   4.194   4.209   4.237
  4.246   4.255   4.259   4.279   4.289   4.323   4.336   4.364
  4.388   4.426   4.437   4.485   4.506   4.536   4.539   4.581
  4.615   4.625   4.630   4.675   4.719   4.745   4.769   4.799
  4.864   4.881   5.142   5.205   5.226   5.248   5.315   5.403
  5.434   5.464   5.559   5.584   5.594   5.635   5.651   5.665
  5.677   5.689   5.702   5.859   6.130   6.623   6.952   7.172
  7.205   7.238   7.532   7.624  24.284  24.359  24.418  24.482
 24.548  50.137
 --------------------------------------------------------------
 
          Ground-State Mulliken Net Atomic Charges

     Atom                 Charge (a.u.)    Spin (a.u.)
  --------------------------------------------------------
      1 C                    -0.088123       0.046584
      2 C                    -0.161407      -0.050826
      3 C                    -0.299202       0.891491
      4 O                    -0.271544       0.091624
      5 C                    -0.478403       0.000341
      6 C                    -0.471824       0.021015
      7 H                     0.183801      -0.008955
      8 H                     0.130680       0.068172
      9 H                     0.161023       0.007058
     10 H                     0.192317      -0.049093
     11 H                     0.257269      -0.002969
     12 H                     0.141401       0.000025
     13 H                     0.133198      -0.004341
     14 H                     0.141382       0.000109
     15 H                     0.144885      -0.003476
     16 H                     0.140465      -0.000096
     17 H                     0.144081      -0.006664
  --------------------------------------------------------
  Sum of atomic charges =     0.000000
  Sum of spin   charges =     1.000000

 -----------------------------------------------------------------
                    Cartesian Multipole Moments
 -----------------------------------------------------------------
    Charge (ESU x 10^10)
                 0.0000
    Dipole Moment (Debye)
         X       1.1626      Y       0.7690      Z       0.7419
       Tot       1.5790
    Quadrupole Moments (Debye-Ang)
        XX     -44.7888     XY      -1.7739     YY     -40.6255
        XZ      -3.1822     YZ       1.4919     ZZ     -37.1541
    Octopole Moments (Debye-Ang^2)
       XXX       7.4734    XXY       3.1979    XYY      -4.0844
       YYY       3.0148    XXZ       8.1199    XYZ      -3.5917
       YYZ      -0.8697    XZZ      -9.7575    YZZ       0.9198
       ZZZ       2.8516
    Hexadecapole Moments (Debye-Ang^3)
      XXXX    -817.1896   XXXY     -18.8423   XXYY    -166.9813
      XYYY      -2.2671   YYYY    -235.1742   XXXZ     -35.8054
      XXYZ      11.0114   XYYZ      -3.1690   YYYZ      -0.0807
      XXZZ    -126.2153   XYZZ      -2.3134   YYZZ     -54.9618
      XZZZ      -6.8053   YZZZ       3.6056   ZZZZ     -89.0421
 -----------------------------------------------------------------
 Calculating analytic gradient of the SCF energy
 Gradient of Coulomb and Exchange Energy
            1           2           3           4           5           6
    1  -3.9553733   1.9010548   0.7546010  11.7955381  -3.8814090  -2.3081690
    2   0.0956984  -0.4184868   1.3565096   0.2618673  -2.2939114   3.5327166
    3   1.1316935  -0.9321621   1.7244448   0.5152306  -0.2628054  -0.6198164
            7           8           9          10          11          12
    1  -0.1318298   0.6175434   0.0915930   0.4519913   0.8667712  -0.9422924
    2   0.3040550  -4.3661784  -0.8083651   2.2068848  -2.0812842  -0.8679228
    3   4.8392642   1.2400071  -4.3333862   4.1582703  -3.9313709  -3.8051955
           13          14          15          16          17
    1  -0.1615777  -3.7784423  -0.4453742  -3.4540907   2.5794657
    2  -3.8455696   0.9000194   0.7143823   2.1206836   3.1889013
    3   1.3201070   1.1074621  -3.9820731   1.0027535   0.8275763
 Gradient of SCF Energy
            1           2           3           4           5           6
    1  -0.0001394  -0.0000376   0.0005097  -0.0002130  -0.0001703  -0.0000292
    2   0.0002207   0.0004132  -0.0009094   0.0008008   0.0001954  -0.0001901
    3  -0.0000435  -0.0003144   0.0006724   0.0000597   0.0001419  -0.0000842
            7           8           9          10          11          12
    1   0.0001837  -0.0000950   0.0000366  -0.0001301  -0.0000564   0.0001181
    2  -0.0000321  -0.0002870   0.0001364   0.0002556  -0.0005109  -0.0001581
    3   0.0001571  -0.0000457  -0.0001253  -0.0001071  -0.0001853  -0.0001646
           13          14          15          16          17
    1   0.0000823  -0.0001161   0.0000281  -0.0001379   0.0001663
    2  -0.0001597   0.0000624  -0.0000118   0.0000830   0.0000914
    3  -0.0000033   0.0001037  -0.0001653   0.0000558   0.0000482
 Max gradient component =       9.094E-04
 RMS gradient           =       2.621E-04
 Gradient time:  CPU 7.06 s  wall 28.61 s
 Geometry Optimization Parameters
   NAtoms,    NIC,     NZ,  NCons,   NDum,   NFix, NCnnct, MaxDiis
       17     113       0       1       0       0       0       0

 Cartesian Hessian Update
 Hessian Updated using BFGS Update


** CONSTRAINED OPTIMIZATION IN DELOCALIZED INTERNAL COORDINATES **
   Searching for a Minimum

   Optimization Cycle:   3

                       Coordinates (Angstroms)
     ATOM                X               Y               Z
      1  C         0.9945157668   -0.0121647714   -0.3442759962
      2  C        -0.3420792629    0.5694087437    0.1217274368
      3  C        -1.5149071586   -0.2299350566   -0.3290996435
      4  O        -2.7590832474    0.1061437344    0.1209878983
      5  C         2.1411256649    0.9172261765    0.0424828998
      6  C         1.2209667276   -1.4109386184    0.2222107835
      7  H         0.9628019628   -0.0823921606   -1.4361506096
      8  H        -0.4308480154    1.6052629073   -0.2371185572
      9  H        -0.3338040842    0.6275023283    1.2189347337
     10  H        -1.5451484984   -0.6293846119   -1.3346889611
     11  H        -2.6918690192    0.4898867350    0.9987922895
     12  H         2.2010164935    1.0096903654    1.1292054271
     13  H         2.0057240433    1.9149462613   -0.3738508111
     14  H         3.0962419106    0.5279646646   -0.3093943911
     15  H         1.2506112359   -1.3746618780    1.3136353618
     16  H         2.1682808259   -1.8230094265   -0.1241280875
     17  H         0.4215538865   -2.0924953418   -0.0635665735
   Point Group: c1    Number of degrees of freedom:    45


   Energy is   -272.282427501

              Constraints and their Current Values
                                        Value     Constraint
   Dihedral:        7   1   5  12      180.000     -180.000
 GETINT wrote B to file, NVib is           45
 Hessian Updated using BFGS Update

 39 Hessian modes will be used to form the next step
  Hessian Eigenvalues:
     0.014423    0.045000    0.045039    0.049204    0.055787    0.070861
     0.072160    0.077867    0.080543    0.082341    0.082448    0.082551
     0.083748    0.111083    0.137436    0.151692    0.159702    0.160039
     0.171293    0.178708    0.179647    0.224170    0.225760    0.291112
     0.294790    0.308706    0.331405    0.333485    0.336738    0.338804
     0.339805    0.341060    0.342516    0.343397    0.343942    0.352537
     0.371321    0.501001    0.559660

 Minimum Search - Taking Simple RFO Step
 Searching for Lamda that Minimizes Along All modes
 Value Taken    Lamda =  -0.00004150
 Step Taken.  Stepsize is  0.052621

                             Maximum     Tolerance    Cnvgd?
         Gradient           0.000480      0.000300      NO
         Displacement       0.024860      0.003000      NO
         Energy change     -0.000024      0.000001      NO


 New Cartesian Coordinates Obtained by Inverse Iteration

 Displacement from previous Coordinates is:  0.043016
 ----------------------------------------------------------------
             Standard Nuclear Orientation (Angstroms)
    I     Atom           X                Y                Z
 ----------------------------------------------------------------
    1      C       0.9939667859    -0.0129535988    -0.3428831841
    2      C      -0.3419661456     0.5685106403     0.1251849425
    3      C      -1.5152943530    -0.2256921250    -0.3331042008
    4      O      -2.7592088355     0.1003490608     0.1207340982
    5      C       2.1410948162     0.9178612132     0.0410551366
    6      C       1.2216053696    -1.4116796947     0.2230364754
    7      H       0.9593616778    -0.0820165625    -1.4347438409
    8      H      -0.4273052099     1.6062709175    -0.2299591386
    9      H      -0.3358437137     0.6216460115     1.2224802581
   10      H      -1.5416622156    -0.6335201849    -1.3349267114
   11      H      -2.6926616079     0.5010329676     0.9909465646
   12      H       2.2038727306     1.0092340987     1.1278042366
   13      H       2.0013520590     1.9159171444    -0.3729795245
   14      H       3.0956261973     0.5307858894    -0.3149188360
   15      H       1.2529091668    -1.3757256741     1.3144889882
   16      H       2.1681566999    -1.8241545838    -0.1252034779
   17      H       0.4210958097    -2.0928154683    -0.0613085863
 ----------------------------------------------------------------
 Molecular Point Group                 C1    NOp =  1
 Largest Abelian Subgroup              C1    NOp =  1
 Nuclear Repulsion Energy =   245.2544102750 hartrees
 There are       25 alpha and       24 beta electrons
 Applying Cartesian multipole field
    Component          Value
    ---------          -----
     (2,0,0)        1.00000E-11
     (0,2,0)        2.00000E-11
     (0,0,2)       -3.00000E-11
 Nucleus-field energy     =     0.0000000069 hartrees
 Requested basis set is non-standard
 There are 138 shells and 314 basis functions
 A cutoff of  1.0D-10 yielded   8847 shell pairs
 There are     45229 function pairs (     54205 Cartesian)
 Smallest overlap matrix eigenvalue = 1.28E-05
 Guess MOs from core Hamiltonian diagonalization
 An unrestricted hybrid HF-DFT SCF calculation will be
 performed using Pulay DIIS + Geometric Direct Minimization
 Exchange:     0.5400 Hartree-Fock + 1.0000 M062X
 SCF converges when RMS gradient is below 1.0E-05
 ---------------------------------------
  Cycle       Energy         DIIS Error
 ---------------------------------------
    1    -191.4334194929      9.20E-02
    2    -166.9427614951      5.07E-02
    3    -163.9863460284      6.73E-02
    4    -244.5431026554      3.56E-02
    5    -269.3628557021      1.55E-02
    6    -271.8620258354      6.31E-03 Done DIIS. Switching to GDM
    7    -272.1978057321      1.24E-01 Descent step
    8    -272.2726711683      4.11E-02 Normal BFGS step
    9    -272.2818617659      3.63E-03 Normal BFGS step
   10    -272.2822444047      2.27E-03 Normal BFGS step
   11    -272.2824320471      8.59E-04 Normal BFGS step
   12    -272.2824503251      3.54E-04 Normal BFGS step
   13    -272.2824525838      9.21E-05 Normal BFGS step
   14    -272.2824528777      4.10E-05 Normal BFGS step
   15    -272.2824529465      9.26E-06 Convergence criterion met
 ---------------------------------------
 <S^2> = 0.7545
 SCF time:  CPU 62.10 s  wall 184.30 s
 SCF   energy in the final basis set = -272.2824529465
 Total energy in the final basis set = -272.2824529465
 Analysis of SCF Wavefunction
 
 --------------------------------------------------------------
                    Orbital Energies (a.u.)
 --------------------------------------------------------------
 
 Alpha MOs
 -- Occupied --
-19.649 -10.578 -10.543 -10.540 -10.524 -10.521  -1.180  -0.920
 -0.822  -0.777  -0.721  -0.653  -0.580  -0.544  -0.540  -0.504
 -0.479  -0.475  -0.451  -0.439  -0.425  -0.393  -0.388  -0.383
 -0.223
 -- Virtual --
 -0.003   0.006   0.015   0.016   0.032   0.039   0.040   0.047
  0.052   0.067   0.075   0.086   0.096   0.102   0.108   0.116
  0.120   0.125   0.137   0.147   0.149   0.150   0.158   0.160
  0.162   0.169   0.177   0.183   0.190   0.204   0.207   0.218
  0.222   0.234   0.238   0.257   0.261   0.273   0.280   0.284
  0.291   0.298   0.312   0.322   0.336   0.338   0.350   0.353
  0.378   0.398   0.414   0.437   0.456   0.490   0.498   0.504
  0.511   0.528   0.552   0.563   0.576   0.584   0.591   0.602
  0.604   0.608   0.613   0.633   0.641   0.644   0.652   0.667
  0.678   0.684   0.706   0.708   0.729   0.732   0.746   0.762
  0.778   0.792   0.806   0.845   0.846   0.871   0.899   0.940
  0.943   0.954   0.971   0.976   1.018   1.046   1.059   1.077
  1.097   1.110   1.130   1.145   1.160   1.165   1.172   1.186
  1.199   1.211   1.221   1.233   1.254   1.286   1.297   1.306
  1.325   1.334   1.349   1.361   1.373   1.392   1.397   1.405
  1.413   1.431   1.450   1.455   1.486   1.499   1.516   1.530
  1.532   1.561   1.570   1.582   1.617   1.625   1.626   1.643
  1.671   1.676   1.692   1.717   1.744   1.755   1.793   1.827
  1.919   2.026   2.181   2.286   2.362   2.428   2.460   2.507
  2.562   2.569   2.612   2.650   2.691   2.714   2.728   2.757
  2.770   2.790   2.822   2.866   2.878   2.901   2.908   2.922
  2.947   2.966   2.990   2.994   3.012   3.015   3.053   3.087
  3.116   3.134   3.179   3.187   3.231   3.250   3.256   3.277
  3.294   3.310   3.340   3.347   3.374   3.382   3.397   3.418
  3.428   3.468   3.479   3.498   3.511   3.519   3.530   3.568
  3.603   3.611   3.635   3.661   3.680   3.704   3.719   3.740
  3.755   3.771   3.798   3.823   3.839   3.864   3.887   3.921
  3.964   3.971   3.998   4.011   4.019   4.023   4.050   4.069
  4.082   4.114   4.131   4.148   4.189   4.206   4.235   4.244
  4.253   4.254   4.276   4.285   4.295   4.332   4.350   4.381
  4.423   4.433   4.475   4.499   4.532   4.538   4.578   4.610
  4.623   4.626   4.669   4.715   4.736   4.764   4.797   4.854
  4.873   5.108   5.189   5.218   5.239   5.306   5.400   5.426
  5.462   5.538   5.578   5.588   5.604   5.647   5.665   5.676
  5.689   5.702   5.845   6.128   6.613   6.943   7.161   7.197
  7.239   7.529   7.625  24.283  24.356  24.418  24.479  24.541
 50.141
 
 Beta MOs
 -- Occupied --
-19.645 -10.570 -10.543 -10.540 -10.524 -10.521  -1.167  -0.917
 -0.811  -0.777  -0.705  -0.651  -0.569  -0.533  -0.532  -0.496
 -0.476  -0.454  -0.449  -0.425  -0.420  -0.389  -0.387  -0.378
 -- Virtual --
 -0.004   0.007   0.012   0.017   0.020   0.034   0.041   0.045
  0.050   0.053   0.068   0.078   0.087   0.094   0.101   0.108
  0.116   0.120   0.127   0.138   0.144   0.151   0.152   0.157
  0.160   0.162   0.169   0.176   0.183   0.186   0.203   0.207
  0.219   0.223   0.234   0.240   0.257   0.264   0.275   0.282
  0.286   0.292   0.297   0.314   0.326   0.336   0.341   0.350
  0.357   0.380   0.399   0.418   0.440   0.456   0.493   0.500
  0.505   0.514   0.532   0.554   0.565   0.580   0.583   0.592
  0.604   0.605   0.608   0.617   0.635   0.641   0.647   0.660
  0.669   0.682   0.687   0.708   0.711   0.730   0.734   0.748
  0.764   0.779   0.796   0.811   0.844   0.848   0.874   0.902
  0.940   0.944   0.956   0.974   0.976   1.018   1.048   1.059
  1.078   1.098   1.113   1.133   1.146   1.161   1.166   1.173
  1.189   1.202   1.213   1.223   1.236   1.256   1.287   1.299
  1.307   1.325   1.336   1.351   1.363   1.376   1.393   1.398
  1.405   1.414   1.432   1.452   1.457   1.488   1.500   1.518
  1.530   1.536   1.562   1.577   1.591   1.617   1.625   1.627
  1.643   1.671   1.676   1.694   1.717   1.745   1.757   1.796
  1.831   1.924   2.036   2.186   2.288   2.374   2.430   2.462
  2.515   2.565   2.572   2.620   2.652   2.696   2.727   2.737
  2.759   2.777   2.797   2.837   2.876   2.893   2.914   2.933
  2.944   2.954   2.980   2.993   2.998   3.015   3.025   3.063
  3.098   3.135   3.146   3.186   3.196   3.247   3.262   3.265
  3.291   3.315   3.322   3.349   3.368   3.387   3.396   3.409
  3.432   3.439   3.484   3.501   3.505   3.534   3.538   3.560
  3.572   3.608   3.626   3.645   3.667   3.689   3.715   3.724
  3.750   3.759   3.780   3.805   3.828   3.856   3.875   3.897
  3.930   3.965   3.979   4.006   4.013   4.022   4.034   4.056
  4.075   4.089   4.127   4.134   4.155   4.196   4.209   4.237
  4.246   4.254   4.258   4.279   4.288   4.321   4.337   4.362
  4.389   4.426   4.436   4.484   4.507   4.535   4.540   4.582
  4.614   4.625   4.630   4.678   4.718   4.748   4.771   4.800
  4.865   4.882   5.142   5.203   5.226   5.247   5.314   5.403
  5.435   5.464   5.560   5.583   5.596   5.638   5.652   5.665
  5.677   5.688   5.702   5.859   6.140   6.627   6.951   7.170
  7.207   7.241   7.535   7.624  24.284  24.360  24.418  24.482
 24.550  50.138
 --------------------------------------------------------------
 
          Ground-State Mulliken Net Atomic Charges

     Atom                 Charge (a.u.)    Spin (a.u.)
  --------------------------------------------------------
      1 C                    -0.090037       0.049528
      2 C                    -0.158859      -0.054202
      3 C                    -0.301159       0.893087
      4 O                    -0.270919       0.091756
      5 C                    -0.478939       0.000576
      6 C                    -0.470771       0.020062
      7 H                     0.183504      -0.009099
      8 H                     0.130006       0.068455
      9 H                     0.161271       0.007594
     10 H                     0.193431      -0.050138
     11 H                     0.257337      -0.003026
     12 H                     0.141344       0.000027
     13 H                     0.133132      -0.004433
     14 H                     0.141481       0.000105
     15 H                     0.144630      -0.003437
     16 H                     0.140466      -0.000059
     17 H                     0.144080      -0.006796
  --------------------------------------------------------
  Sum of atomic charges =     0.000000
  Sum of spin   charges =     1.000000

 -----------------------------------------------------------------
                    Cartesian Multipole Moments
 -----------------------------------------------------------------
    Charge (ESU x 10^10)
                 0.0000
    Dipole Moment (Debye)
         X       1.1561      Y       0.7882      Z       0.7384
       Tot       1.5821
    Quadrupole Moments (Debye-Ang)
        XX     -44.7689     XY      -1.8518     YY     -40.5920
        XZ      -3.1669     YZ       1.5206     ZZ     -37.1926
    Octopole Moments (Debye-Ang^2)
       XXX       7.3762    XXY       3.4431    XYY      -4.1980
       YYY       3.0550    XXZ       8.0641    XYZ      -3.6646
       YYZ      -0.8439    XZZ      -9.6523    YZZ       0.9164
       ZZZ       2.8289
    Hexadecapole Moments (Debye-Ang^3)
      XXXX    -816.8921   XXXY     -19.6466   XXYY    -166.7376
      XYYY      -2.4382   YYYY    -235.2561   XXXZ     -35.8028
      XXYZ      11.2193   XYYZ      -3.2442   YYYZ      -0.0308
      XXZZ    -126.4714   XYZZ      -2.3575   YYZZ     -54.9683
      XZZZ      -6.7914   YZZZ       3.6446   ZZZZ     -89.2302
 -----------------------------------------------------------------
 Calculating analytic gradient of the SCF energy
 Gradient of Coulomb and Exchange Energy
            1           2           3           4           5           6
    1  -3.9597192   1.8971311   0.7522189  11.7911688  -3.8934863  -2.3074138
    2   0.0868888  -0.4155683   1.2486294   0.3910551  -2.2848866   3.5330013
    3   1.1105290  -0.9851370   1.8324574   0.4482702  -0.2576463  -0.6144955
            7           8           9          10          11          12
    1  -0.1163277   0.6089977   0.1005733   0.4380931   0.8793670  -0.9481987
    2   0.2973753  -4.3622497  -0.7897609   2.2522455  -2.1592384  -0.8662307
    3   4.8367292   1.2275840  -4.3360058   4.1535037  -3.8977032  -3.8021276
           13          14          15          16          17
    1  -0.1442362  -3.7772483  -0.4498284  -3.4519993   2.5809081
    2  -3.8472793   0.8940774   0.7155023   2.1213300   3.1851088
    3   1.3110781   1.1246156  -3.9817558   1.0088566   0.8212474
 Gradient of SCF Energy
            1           2           3           4           5           6
    1  -0.0002948   0.0003518  -0.0007155   0.0006508   0.0001639   0.0000456
    2  -0.0000399   0.0001133  -0.0000296   0.0002464   0.0003857  -0.0001197
    3  -0.0000931   0.0003902  -0.0000167   0.0001944   0.0000299  -0.0000294
            7           8           9          10          11          12
    1   0.0001055  -0.0001530   0.0000314   0.0000556  -0.0001547   0.0000421
    2   0.0000839  -0.0003007   0.0001650  -0.0000113  -0.0003181  -0.0001099
    3   0.0001548  -0.0002294  -0.0001812   0.0000595  -0.0002377  -0.0001189
           13          14          15          16          17
    1  -0.0000200  -0.0000781  -0.0000198  -0.0000794   0.0000687
    2  -0.0001418   0.0000129  -0.0000412   0.0000557   0.0000494
    3   0.0000714   0.0000590  -0.0001154   0.0000229   0.0000397
 Max gradient component =       7.155E-04
 RMS gradient           =       2.063E-04
 Gradient time:  CPU 7.41 s  wall 28.42 s
 Geometry Optimization Parameters
   NAtoms,    NIC,     NZ,  NCons,   NDum,   NFix, NCnnct, MaxDiis
       17     113       0       1       0       0       0       0

 Cartesian Hessian Update
 Hessian Updated using BFGS Update


** CONSTRAINED OPTIMIZATION IN DELOCALIZED INTERNAL COORDINATES **
   Searching for a Minimum

   Optimization Cycle:   4

                       Coordinates (Angstroms)
     ATOM                X               Y               Z
      1  C         0.9939667859   -0.0129535988   -0.3428831841
      2  C        -0.3419661456    0.5685106403    0.1251849425
      3  C        -1.5152943530   -0.2256921250   -0.3331042008
      4  O        -2.7592088355    0.1003490608    0.1207340982
      5  C         2.1410948162    0.9178612132    0.0410551366
      6  C         1.2216053696   -1.4116796947    0.2230364754
      7  H         0.9593616778   -0.0820165625   -1.4347438409
      8  H        -0.4273052099    1.6062709175   -0.2299591386
      9  H        -0.3358437137    0.6216460115    1.2224802581
     10  H        -1.5416622156   -0.6335201849   -1.3349267114
     11  H        -2.6926616079    0.5010329676    0.9909465646
     12  H         2.2038727306    1.0092340987    1.1278042366
     13  H         2.0013520590    1.9159171444   -0.3729795245
     14  H         3.0956261973    0.5307858894   -0.3149188360
     15  H         1.2529091668   -1.3757256741    1.3144889882
     16  H         2.1681566999   -1.8241545838   -0.1252034779
     17  H         0.4210958097   -2.0928154683   -0.0613085863
   Point Group: c1    Number of degrees of freedom:    45


   Energy is   -272.282452947

              Constraints and their Current Values
                                        Value     Constraint
   Dihedral:        7   1   5  12      180.000     -180.000
 GETINT wrote B to file, NVib is           45
 Hessian Updated using BFGS Update

 41 Hessian modes will be used to form the next step
  Hessian Eigenvalues:
     0.009976    0.045000    0.045001    0.045217    0.050931    0.055862
     0.070877    0.073937    0.077884    0.080591    0.082419    0.082448
     0.082769    0.083838    0.111107    0.137362    0.151597    0.159962
     0.160019    0.160366    0.172265    0.178679    0.179722    0.224036
     0.225541    0.291401    0.295107    0.309246    0.331446    0.333412
     0.337065    0.339670    0.339891    0.341169    0.342537    0.343451
     0.345525    0.352481    0.366399    0.516906    0.555348

 Minimum Search - Taking Simple RFO Step
 Searching for Lamda that Minimizes Along All modes
 Value Taken    Lamda =  -0.00000932
 Step Taken.  Stepsize is  0.025241

                             Maximum     Tolerance    Cnvgd?
         Gradient           0.000373      0.000300      NO
         Displacement       0.013374      0.003000      NO
         Energy change     -0.000025      0.000001      NO


 New Cartesian Coordinates Obtained by Inverse Iteration

 Displacement from previous Coordinates is:  0.023155
 ----------------------------------------------------------------
             Standard Nuclear Orientation (Angstroms)
    I     Atom           X                Y                Z
 ----------------------------------------------------------------
    1      C       0.9936906958    -0.0132831179    -0.3425636657
    2      C      -0.3422242635     0.5679621903     0.1266735940
    3      C      -1.5152203634    -0.2241301503    -0.3349988790
    4      O      -2.7598908099     0.0974211680     0.1203072470
    5      C       2.1408784340     0.9178424369     0.0400664386
    6      C       1.2219883403    -1.4117331798     0.2236587339
    7      H       0.9578339259    -0.0823315933    -1.4345755771
    8      H      -0.4255816998     1.6076131230    -0.2244399996
    9      H      -0.3368538100     0.6169360383     1.2243302262
   10      H      -1.5403634882    -0.6340812096    -1.3358767705
   11      H      -2.6929459340     0.5063412133     0.9869217130
   12      H       2.2050423817     1.0093263369     1.1268744482
   13      H       1.9997874816     1.9161100367    -0.3734620439
   14      H       3.0952432759     0.5316729270    -0.3175841013
   15      H       1.2542556649    -1.3750515031     1.3151957744
   16      H       2.1683222267    -1.8244991880    -0.1251852234
   17      H       0.4211371738    -2.0930654769    -0.0596387150
 ----------------------------------------------------------------
 Molecular Point Group                 C1    NOp =  1
 Largest Abelian Subgroup              C1    NOp =  1
 Nuclear Repulsion Energy =   245.2412906715 hartrees
 There are       25 alpha and       24 beta electrons
 Applying Cartesian multipole field
    Component          Value
    ---------          -----
     (2,0,0)        1.00000E-11
     (0,2,0)        2.00000E-11
     (0,0,2)       -3.00000E-11
 Nucleus-field energy     =     0.0000000069 hartrees
 Requested basis set is non-standard
 There are 138 shells and 314 basis functions
 A cutoff of  1.0D-10 yielded   8848 shell pairs
 There are     45230 function pairs (     54206 Cartesian)
 Smallest overlap matrix eigenvalue = 1.28E-05
 Guess MOs from core Hamiltonian diagonalization
 An unrestricted hybrid HF-DFT SCF calculation will be
 performed using Pulay DIIS + Geometric Direct Minimization
 Exchange:     0.5400 Hartree-Fock + 1.0000 M062X
 SCF converges when RMS gradient is below 1.0E-05
 ---------------------------------------
  Cycle       Energy         DIIS Error
 ---------------------------------------
    1    -191.4319278929      9.20E-02
    2    -166.9521294986      5.07E-02
    3    -163.9906947163      6.73E-02
    4    -244.5410816771      3.56E-02
    5    -269.3654762348      1.55E-02
    6    -271.8623870805      6.31E-03 Done DIIS. Switching to GDM
    7    -272.1979194942      1.25E-01 Descent step
    8    -272.2726803298      4.08E-02 Normal BFGS step
    9    -272.2818740341      3.63E-03 Normal BFGS step
   10    -272.2822526174      2.28E-03 Normal BFGS step
   11    -272.2824389580      8.44E-04 Normal BFGS step
   12    -272.2824570915      3.57E-04 Normal BFGS step
   13    -272.2824593502      9.21E-05 Normal BFGS step
   14    -272.2824596428      4.13E-05 Normal BFGS step
   15    -272.2824597113      9.31E-06 Convergence criterion met
 ---------------------------------------
 <S^2> = 0.7545
 SCF time:  CPU 61.72 s  wall 183.48 s
 SCF   energy in the final basis set = -272.2824597113
 Total energy in the final basis set = -272.2824597113
 Analysis of SCF Wavefunction
 
 --------------------------------------------------------------
                    Orbital Energies (a.u.)
 --------------------------------------------------------------
 
 Alpha MOs
 -- Occupied --
-19.649 -10.578 -10.543 -10.540 -10.525 -10.521  -1.180  -0.920
 -0.822  -0.777  -0.721  -0.653  -0.580  -0.544  -0.540  -0.504
 -0.480  -0.475  -0.451  -0.439  -0.425  -0.393  -0.388  -0.383
 -0.222
 -- Virtual --
 -0.003   0.006   0.015   0.016   0.032   0.039   0.040   0.047
  0.052   0.067   0.074   0.086   0.096   0.102   0.108   0.117
  0.120   0.125   0.137   0.147   0.149   0.150   0.158   0.160
  0.162   0.169   0.177   0.183   0.190   0.204   0.207   0.218
  0.222   0.234   0.238   0.257   0.261   0.273   0.280   0.284
  0.291   0.298   0.312   0.322   0.336   0.338   0.350   0.353
  0.378   0.398   0.414   0.437   0.456   0.490   0.498   0.504
  0.511   0.528   0.552   0.563   0.576   0.584   0.591   0.602
  0.604   0.608   0.613   0.633   0.640   0.644   0.652   0.667
  0.678   0.684   0.706   0.708   0.729   0.732   0.746   0.762
  0.778   0.792   0.807   0.845   0.846   0.871   0.899   0.940
  0.942   0.954   0.971   0.975   1.017   1.046   1.059   1.078
  1.097   1.110   1.130   1.145   1.161   1.165   1.172   1.186
  1.199   1.210   1.220   1.233   1.254   1.286   1.297   1.306
  1.325   1.334   1.349   1.360   1.373   1.392   1.397   1.405
  1.413   1.431   1.450   1.455   1.486   1.499   1.516   1.530
  1.532   1.561   1.571   1.582   1.617   1.625   1.625   1.643
  1.671   1.676   1.693   1.716   1.744   1.755   1.793   1.827
  1.919   2.025   2.183   2.286   2.363   2.428   2.460   2.507
  2.562   2.569   2.612   2.650   2.691   2.714   2.728   2.756
  2.771   2.790   2.822   2.867   2.878   2.901   2.908   2.921
  2.947   2.966   2.990   2.994   3.012   3.015   3.053   3.088
  3.116   3.134   3.179   3.187   3.230   3.250   3.256   3.277
  3.293   3.310   3.341   3.346   3.374   3.382   3.397   3.418
  3.428   3.467   3.479   3.498   3.511   3.520   3.530   3.567
  3.604   3.611   3.634   3.661   3.680   3.704   3.718   3.741
  3.755   3.771   3.799   3.822   3.839   3.864   3.887   3.921
  3.964   3.971   3.997   4.010   4.018   4.024   4.050   4.068
  4.083   4.114   4.130   4.148   4.189   4.205   4.235   4.243
  4.252   4.254   4.276   4.284   4.294   4.332   4.350   4.381
  4.423   4.433   4.474   4.499   4.532   4.537   4.578   4.610
  4.623   4.626   4.670   4.714   4.736   4.764   4.797   4.854
  4.873   5.107   5.188   5.218   5.239   5.306   5.400   5.427
  5.461   5.538   5.577   5.587   5.604   5.647   5.664   5.676
  5.688   5.701   5.844   6.131   6.613   6.942   7.160   7.197
  7.240   7.529   7.625  24.283  24.355  24.417  24.479  24.541
 50.141
 
 Beta MOs
 -- Occupied --
-19.645 -10.570 -10.543 -10.540 -10.525 -10.521  -1.167  -0.917
 -0.811  -0.777  -0.705  -0.651  -0.569  -0.533  -0.532  -0.496
 -0.476  -0.454  -0.449  -0.425  -0.420  -0.389  -0.387  -0.379
 -- Virtual --
 -0.004   0.007   0.013   0.017   0.020   0.034   0.041   0.045
  0.050   0.054   0.068   0.078   0.087   0.094   0.101   0.108
  0.116   0.120   0.128   0.139   0.144   0.151   0.152   0.157
  0.160   0.162   0.169   0.176   0.183   0.186   0.203   0.207
  0.219   0.223   0.234   0.240   0.257   0.264   0.275   0.282
  0.286   0.292   0.297   0.314   0.326   0.336   0.341   0.350
  0.357   0.380   0.399   0.418   0.440   0.456   0.492   0.500
  0.505   0.515   0.532   0.554   0.565   0.579   0.583   0.592
  0.604   0.605   0.608   0.617   0.635   0.641   0.647   0.660
  0.670   0.682   0.687   0.708   0.711   0.729   0.734   0.748
  0.764   0.779   0.795   0.812   0.844   0.848   0.874   0.902
[...]
 Value Taken    Lamda =  -0.00000117
 Step Taken.  Stepsize is  0.006571

                             Maximum     Tolerance    Cnvgd?
         Gradient           0.000102      0.000300     YES
         Displacement       0.003086      0.003000      NO
         Energy change     -0.000003      0.000001      NO


 New Cartesian Coordinates Obtained by Inverse Iteration

 Displacement from previous Coordinates is:  0.007843
 ----------------------------------------------------------------
             Standard Nuclear Orientation (Angstroms)
    I     Atom           X                Y                Z
 ----------------------------------------------------------------
    1      C       1.0366886517    -0.1965678877    -0.1569120716
    2      C      -0.2901178081     0.5631492836    -0.2607496159
    3      C      -1.4270806906    -0.3272998679    -0.6190965805
    4      O      -2.6981607322     0.1675841291    -0.6030122096
    5      C       2.2061143069     0.7744135816    -0.0286000618
    6      C       1.0195632706    -1.1698438580     1.0188069489
    7      H       1.1612024980    -0.7695759411    -1.0813707250
    8      H      -0.1873055705     1.3727250651    -0.9988116415
    9      H      -0.4928443713     1.0523480512     0.7019520971
   10      H      -1.3011362990    -1.0977487661    -1.3680185029
   11      H      -2.7513681837     0.9055581746     0.0095494513
   12      H       2.1121755159     1.3633727245     0.8861248312
   13      H       2.2501117118     1.4633933153    -0.8723281032
   14      H       3.1538282567     0.2389746828     0.0190881963
   15      H       0.9693805753    -0.6180724984     1.9597841409
   16      H       1.9255731239    -1.7745179085     1.0372833566
   17      H       0.1584749761    -1.8348422288     0.9720136892
 ----------------------------------------------------------------
 Molecular Point Group                 C1    NOp =  1
 Largest Abelian Subgroup              C1    NOp =  1
 Nuclear Repulsion Energy =   245.1874474650 hartrees
 There are       25 alpha and       24 beta electrons
 Applying Cartesian multipole field
    Component          Value
    ---------          -----
     (2,0,0)        1.00000E-11
     (0,2,0)        2.00000E-11
     (0,0,2)       -3.00000E-11
 Nucleus-field energy     =     0.0000000050 hartrees
 Requested basis set is non-standard
 There are 138 shells and 314 basis functions
 A cutoff of  1.0D-10 yielded   8850 shell pairs
 There are     45224 function pairs (     54197 Cartesian)
 Smallest overlap matrix eigenvalue = 1.28E-05
 Guess MOs from core Hamiltonian diagonalization
 An unrestricted hybrid HF-DFT SCF calculation will be
 performed using Pulay DIIS + Geometric Direct Minimization
 Exchange:     0.5400 Hartree-Fock + 1.0000 M062X
 SCF converges when RMS gradient is below 1.0E-05
 ---------------------------------------
  Cycle       Energy         DIIS Error
 ---------------------------------------
    1    -191.4102482981      9.20E-02
    2    -166.7888783210      5.07E-02
    3    -163.8831519476      6.73E-02
    4    -244.3154884431      3.58E-02
    5    -269.3855311159      1.55E-02
    6    -271.8615585450      6.32E-03 Done DIIS. Switching to GDM
    7    -272.1987850529      1.28E-01 Descent step
    8    -272.2722632287      4.34E-02 Normal BFGS step
    9    -272.2816280931      3.70E-03 Normal BFGS step
   10    -272.2819921910      2.30E-03 Normal BFGS step
   11    -272.2821757901      9.57E-04 Normal BFGS step
   12    -272.2821936837      3.93E-04 Normal BFGS step
   13    -272.2821959962      9.89E-05 Normal BFGS step
   14    -272.2821962913      4.55E-05 Normal BFGS step
   15    -272.2821963598      9.16E-06 Convergence criterion met
 ---------------------------------------
 <S^2> = 0.7545
 SCF time:  CPU 62.61 s  wall 182.65 s
 SCF   energy in the final basis set = -272.2821963598
 Total energy in the final basis set = -272.2821963598
 Analysis of SCF Wavefunction
 
 --------------------------------------------------------------
                    Orbital Energies (a.u.)
 --------------------------------------------------------------
 
 Alpha MOs
 -- Occupied --
-19.649 -10.578 -10.543 -10.540 -10.524 -10.520  -1.180  -0.920
 -0.822  -0.777  -0.721  -0.653  -0.581  -0.544  -0.539  -0.505
 -0.481  -0.474  -0.451  -0.438  -0.425  -0.392  -0.389  -0.383
 -0.223
 -- Virtual --
 -0.003   0.006   0.015   0.016   0.032   0.039   0.040   0.047
  0.052   0.067   0.074   0.085   0.096   0.102   0.108   0.117
  0.119   0.126   0.138   0.147   0.149   0.151   0.158   0.158
  0.162   0.167   0.178   0.184   0.191   0.204   0.205   0.215
  0.222   0.235   0.239   0.258   0.266   0.272   0.278   0.287
  0.291   0.297   0.310   0.323   0.336   0.339   0.350   0.354
  0.377   0.400   0.412   0.440   0.454   0.487   0.496   0.505
  0.514   0.529   0.552   0.562   0.573   0.585   0.591   0.601
  0.605   0.610   0.614   0.631   0.639   0.644   0.654   0.667
  0.678   0.682   0.703   0.714   0.727   0.734   0.745   0.760
  0.783   0.785   0.812   0.844   0.850   0.869   0.906   0.937
  0.943   0.956   0.970   0.978   1.011   1.048   1.063   1.078
  1.099   1.110   1.126   1.146   1.156   1.164   1.170   1.195
  1.201   1.207   1.218   1.239   1.251   1.285   1.299   1.307
  1.327   1.339   1.348   1.361   1.383   1.393   1.401   1.405
  1.412   1.426   1.446   1.454   1.485   1.494   1.509   1.524
  1.532   1.563   1.571   1.583   1.609   1.623   1.625   1.642
  1.671   1.676   1.700   1.710   1.742   1.753   1.793   1.835
  1.919   2.029   2.182   2.285   2.360   2.431   2.466   2.510
  2.561   2.573   2.602   2.654   2.694   2.712   2.729   2.763
  2.771   2.787   2.825   2.871   2.879   2.902   2.912   2.918
  2.951   2.967   2.991   2.998   3.011   3.017   3.054   3.090
  3.112   3.138   3.181   3.188   3.230   3.246   3.256   3.277
  3.297   3.316   3.338   3.349   3.368   3.377   3.396   3.421
  3.426   3.465   3.487   3.501   3.510   3.527   3.536   3.568
  3.608   3.614   3.633   3.661   3.686   3.703   3.716   3.747
  3.759   3.776   3.805   3.821   3.841   3.870   3.893   3.921
  3.970   3.973   3.997   4.016   4.025   4.031   4.049   4.063
  4.098   4.113   4.128   4.148   4.185   4.213   4.238   4.249
  4.253   4.261   4.279   4.290   4.298   4.347   4.351   4.388
  4.414   4.437   4.476   4.511   4.535   4.544   4.588   4.614
  4.632   4.640   4.666   4.714   4.734   4.760   4.798   4.856
  4.872   5.107   5.187   5.218   5.240   5.306   5.398   5.430
  5.463   5.538   5.573   5.587   5.604   5.646   5.665   5.678
  5.686   5.699   5.840   6.132   6.612   6.941   7.159   7.200
  7.242   7.529   7.624  24.280  24.355  24.418  24.479  24.541
 50.141
 
 Beta MOs
 -- Occupied --
-19.646 -10.570 -10.543 -10.540 -10.524 -10.520  -1.167  -0.917
 -0.811  -0.777  -0.705  -0.651  -0.570  -0.532  -0.530  -0.497
 -0.478  -0.453  -0.447  -0.424  -0.421  -0.389  -0.388  -0.379
 -- Virtual --
 -0.004   0.007   0.012   0.017   0.020   0.034   0.042   0.045
  0.050   0.054   0.068   0.079   0.086   0.094   0.102   0.109
  0.117   0.120   0.128   0.139   0.145   0.151   0.153   0.157
  0.160   0.162   0.167   0.175   0.183   0.187   0.203   0.205
  0.217   0.223   0.235   0.241   0.258   0.270   0.275   0.281
  0.286   0.292   0.297   0.312   0.326   0.336   0.342   0.351
  0.359   0.379   0.400   0.417   0.443   0.455   0.490   0.498
  0.507   0.517   0.534   0.554   0.565   0.576   0.583   0.592
  0.604   0.606   0.610   0.616   0.633   0.639   0.647   0.662
  0.668   0.680   0.686   0.707   0.716   0.729   0.735   0.746
  0.761   0.784   0.788   0.817   0.844   0.849   0.872   0.909
  0.938   0.945   0.957   0.972   0.977   1.011   1.050   1.063
  1.078   1.100   1.114   1.130   1.148   1.156   1.165   1.171
  1.198   1.204   1.212   1.220   1.242   1.253   1.286   1.300
  1.309   1.328   1.341   1.349   1.362   1.387   1.394   1.401
  1.407   1.412   1.426   1.448   1.456   1.486   1.495   1.511
  1.526   1.534   1.567   1.577   1.587   1.609   1.623   1.625
  1.642   1.672   1.677   1.701   1.712   1.744   1.755   1.794
  1.839   1.924   2.039   2.187   2.286   2.371   2.432   2.468
  2.518   2.565   2.575   2.609   2.657   2.698   2.721   2.740
  2.766   2.778   2.792   2.841   2.880   2.896   2.921   2.932
  2.939   2.957   2.981   2.994   3.002   3.013   3.027   3.063
  3.100   3.130   3.149   3.191   3.194   3.244   3.256   3.267
  3.291   3.317   3.328   3.348   3.362   3.379   3.395   3.404
  3.429   3.441   3.479   3.504   3.510   3.527   3.553   3.562
  3.573   3.614   3.628   3.641   3.665   3.690   3.713   3.723
  3.756   3.764   3.782   3.813   3.828   3.856   3.880   3.902
  3.928   3.971   3.979   4.007   4.020   4.027   4.037   4.051
  4.069   4.102   4.122   4.131   4.154   4.191   4.216   4.240
  4.250   4.255   4.264   4.280   4.293   4.322   4.349   4.357
  4.395   4.416   4.441   4.486   4.515   4.537   4.547   4.591
  4.617   4.636   4.643   4.674   4.717   4.747   4.763   4.800
  4.865   4.884   5.134   5.201   5.226   5.247   5.312   5.400
  5.436   5.465   5.560   5.577   5.598   5.625   5.647   5.664
  5.678   5.687   5.698   5.852   6.141   6.625   6.950   7.169
  7.209   7.244   7.536   7.623  24.281  24.360  24.418  24.481
 24.549  50.138
 --------------------------------------------------------------
 
          Ground-State Mulliken Net Atomic Charges

     Atom                 Charge (a.u.)    Spin (a.u.)
  --------------------------------------------------------
      1 C                    -0.058691       0.060425
      2 C                    -0.155071      -0.056452
      3 C                    -0.301321       0.893860
      4 O                    -0.268153       0.092313
      5 C                    -0.486732       0.002650
      6 C                    -0.471001       0.010220
      7 H                     0.171649      -0.009877
      8 H                     0.127607       0.069302
      9 H                     0.157341       0.007968
     10 H                     0.186659      -0.052738
     11 H                     0.256677      -0.003007
     12 H                     0.140383       0.000048
     13 H                     0.130820      -0.004216
     14 H                     0.141271      -0.000013
     15 H                     0.138452      -0.002760
     16 H                     0.143318      -0.000469
     17 H                     0.146791      -0.007257
  --------------------------------------------------------
  Sum of atomic charges =     0.000000
  Sum of spin   charges =     1.000000

 -----------------------------------------------------------------
                    Cartesian Multipole Moments
 -----------------------------------------------------------------
    Charge (ESU x 10^10)
                 0.0000
    Dipole Moment (Debye)
         X       1.0775      Y       1.0398      Z       0.5756
       Tot       1.6042
    Quadrupole Moments (Debye-Ang)
        XX     -43.7301     XY      -3.4297     YY     -38.7688
        XZ      -3.1345     YZ       1.5390     ZZ     -40.1590
    Octopole Moments (Debye-Ang^2)
       XXX       0.9985    XXY       8.3739    XYY      -8.2015
       YYY       3.7162    XXZ      12.0701    XYZ      -2.7752
       YYZ       1.1872    XZZ      -2.4168    YZZ       0.9090
       ZZZ       7.1043
    Hexadecapole Moments (Debye-Ang^3)
      XXXX    -769.1061   XXXY     -39.2801   XXYY    -143.4982
      XYYY      -9.0522   YYYY    -201.3302   XXXZ     -97.6744
      XXYZ      14.9211   XYYZ     -22.2210   YYYZ      28.8871
      XXZZ    -156.5007   XYZZ       2.6757   YYZZ     -57.6684
      XZZZ     -68.1474   YZZZ      31.8201   ZZZZ    -159.6794
 -----------------------------------------------------------------
 Calculating analytic gradient of the SCF energy
 Gradient of Coulomb and Exchange Energy
            1           2           3           4           5           6
    1  -3.8617226   1.8794315   0.4820245  11.5017204  -4.1249711  -1.6276299
    2   0.5666458  -0.9082187   1.9087117   0.4654161  -1.9277689   2.8892953
    3   0.3520959  -0.3799095   1.3050758   2.7058273  -0.0790528  -2.6769261
            7           8           9          10          11          12
    1  -0.8341200  -0.1345179   0.8937543  -0.1502339   1.3621699  -0.4377068
    2   2.5578870  -3.5248096  -2.4696300   3.6935846  -3.6529157  -2.5266953
    3   4.0240597   2.8906444  -3.5477299   2.9705944  -2.3512612  -3.0945191
           13          14          15          16          17
    1  -0.8072852  -3.7737576  -0.0659336  -3.2073217   2.9060995
    2  -2.7706153   1.4145685  -1.2522844   2.6177598   2.9190689
    3   2.8828425  -0.1478299  -3.8555359  -0.5788945  -0.4194812
 Gradient of SCF Energy
            1           2           3           4           5           6
    1  -0.0000406  -0.0000785   0.0000327   0.0000022  -0.0000410  -0.0000146
    2   0.0000229   0.0000406  -0.0000057  -0.0000353   0.0001772   0.0000674
    3   0.0000112  -0.0000200  -0.0000698  -0.0000540  -0.0000209  -0.0001165
            7           8           9          10          11          12
    1   0.0001859   0.0000232  -0.0000764   0.0000313  -0.0000078   0.0000746
    2  -0.0001363   0.0000196  -0.0000378   0.0000034  -0.0000306  -0.0001688
    3   0.0001364   0.0000376  -0.0000005  -0.0000499  -0.0000517   0.0001410
           13          14          15          16          17
    1   0.0000029  -0.0000878   0.0000410  -0.0000212  -0.0000260
    2   0.0000588   0.0000482  -0.0000011  -0.0000531   0.0000306
    3  -0.0000175   0.0000709  -0.0000155   0.0000042   0.0000150
 Max gradient component =       1.859E-04
 RMS gradient           =       6.871E-05
 Gradient time:  CPU 6.90 s  wall 28.52 s
 Geometry Optimization Parameters
   NAtoms,    NIC,     NZ,  NCons,   NDum,   NFix, NCnnct, MaxDiis
       17     113       0       1       0       0       0       0

 Cartesian Hessian Update
 Hessian Updated using BFGS Update


** CONSTRAINED OPTIMIZATION IN DELOCALIZED INTERNAL COORDINATES **
   Searching for a Minimum

   Optimization Cycle:   8

                       Coordinates (Angstroms)
     ATOM                X               Y               Z
      1  C         1.0366886517   -0.1965678877   -0.1569120716
      2  C        -0.2901178081    0.5631492836   -0.2607496159
      3  C        -1.4270806906   -0.3272998679   -0.6190965805
      4  O        -2.6981607322    0.1675841291   -0.6030122096
      5  C         2.2061143069    0.7744135816   -0.0286000618
      6  C         1.0195632706   -1.1698438580    1.0188069489
      7  H         1.1612024980   -0.7695759411   -1.0813707250
      8  H        -0.1873055705    1.3727250651   -0.9988116415
      9  H        -0.4928443713    1.0523480512    0.7019520971
     10  H        -1.3011362990   -1.0977487661   -1.3680185029
     11  H        -2.7513681837    0.9055581746    0.0095494513
     12  H         2.1121755159    1.3633727245    0.8861248312
     13  H         2.2501117118    1.4633933153   -0.8723281032
     14  H         3.1538282567    0.2389746828    0.0190881963
     15  H         0.9693805753   -0.6180724984    1.9597841409
     16  H         1.9255731239   -1.7745179085    1.0372833566
     17  H         0.1584749761   -1.8348422288    0.9720136892
   Point Group: c1    Number of degrees of freedom:    45


   Energy is   -272.282196360

              Constraints and their Current Values
                                        Value     Constraint
   Dihedral:        7   1   5  12      180.000      180.000
 GETINT wrote B to file, NVib is           45
 Hessian Updated using BFGS Update

 44 Hessian modes will be used to form the next step
  Hessian Eigenvalues:
     0.007459    0.017908    0.045000    0.045010    0.045037    0.050505
     0.071323    0.072888    0.078081    0.081852    0.082392    0.083109
     0.083885    0.086661    0.111962    0.137971    0.152201    0.158873
     0.159834    0.159999    0.160107    0.160527    0.160630    0.168152
     0.178266    0.181113    0.217596    0.225194    0.294318    0.304105
     0.327580    0.336028    0.337322    0.338405    0.343300    0.345692
     0.346876    0.348879    0.349299    0.350302    0.357872    0.387774
     0.521370    0.553553

 Minimum Search - Taking Simple RFO Step
 Searching for Lamda that Minimizes Along All modes
 Value Taken    Lamda =  -0.00000243
 Step Taken.  Stepsize is  0.017177

                             Maximum     Tolerance    Cnvgd?
         Gradient           0.000096      0.000300     YES
         Displacement       0.009021      0.003000      NO
         Energy change     -0.000001      0.000001     YES

 Final energy is   -272.282196359786     


 ******************************
 **  OPTIMIZATION CONVERGED  **
 ******************************

Z-matrix Print:
$molecule
0 2
C 
H  1 1.094745
C  1 1.525394 2 108.482542
H  3 1.089555 1 110.959054 2 60.762393 0
H  3 1.090186 1 111.600013 2 -59.764316 0
H  3 1.091979 1 110.354805 2 -180.000000 0
C  1 1.526393 2 108.540562 3 120.065907 0
H  7 1.088984 1 111.416786 2 64.348432 0
H  7 1.089415 1 110.955742 2 -56.822848 0
H  7 1.091974 1 110.003127 2 -175.895795 0
C  1 1.532439 2 107.502278 3 -119.779234 0
H  11 1.098730 1 108.730153 2 -173.484064 0
H  11 1.100327 1 109.226839 2 71.147420 0
C  11 1.487951 1 112.409136 2 -51.874113 0
H  14 1.081821 11 120.262446 1 41.388126 0
O  14 1.364116 11 119.475593 1 -172.665271 0
H  16 0.960556 14 109.746250 11 25.869149 0
$end

PES scan, value:  180.0000 energy: -272.2821963598
------- Summary of potential scan: ------ 
 -180.0000      -272.2824695195
 -165.0000      -272.2816675769
 -150.0000      -272.2799085002
 -135.0000      -272.2779315349
 -120.0000      -272.2771643634
 -105.0000      -272.2781688876
  -90.0000      -272.2801975610
  -75.0000      -272.2818919709
  -60.0000      -272.2823550890
  -45.0000      -272.2815586628
  -30.0000      -272.2796726229
  -15.0000      -272.2777626442
    0.0000      -272.2769203115
   15.0000      -272.2780142463
   30.0000      -272.2800172601
   45.0000      -272.2816465213
   60.0000      -272.2823148052
   75.0000      -272.2815885202
   90.0000      -272.2798235598
  105.0000      -272.2778271021
  120.0000      -272.2769377183
  135.0000      -272.2779172944
  150.0000      -272.2799877647
  165.0000      -272.2816750990
  180.0000      -272.2821963598
----------------------------------------- 
Archival summary:
1\1\node52\JobtypUnspecified\ProcedureUnspecified\BasisUnspecified\1511(2)\edames\ThuJun2623:59:182014ThuJun2623:59:182014\0\\#,JobtypUnspecified,ProcedureUnspecified,BasisUnspecified,\\0,2\C\H,1,1.09474\C,1,1.52539,2,108.483\H,3,1.08956,1,110.959,2,60.7624,0\H,3,1.09019,1,111.6,2,-59.7643,0\H,3,1.09198,1,110.355,2,-180,0\C,1,1.52639,2,108.541,3,120.066,0\H,7,1.08898,1,111.417,2,64.3484,0\H,7,1.08942,1,110.956,2,-56.8228,0\H,7,1.09197,1,110.003,2,-175.896,0\C,1,1.53244,2,107.502,3,-119.779,0\H,11,1.09873,1,108.73,2,-173.484,0\H,11,1.10033,1,109.227,2,71.1474,0\C,11,1.48795,1,112.409,2,-51.8741,0\H,14,1.08182,11,120.262,1,41.3881,0\O,14,1.36412,11,119.476,1,-172.665,0\H,16,0.960556,14,109.746,11,25.8691,0\\\@

 Total job time:  51227.95s(wall), 16694.67s(cpu) 
 Thu Jun 26 23:59:18 2014

        *************************************************************
        *                                                           *
        *  Thank you very much for using Q-Chem.  Have a nice day.  *
        *                                                           *
        *************************************************************


0 sent ACK to 0 
now end server 0 ... 
cleanup process ... done
remove work dirs /scratch/edames/qchem7130.0 -- /scratch/edames/qchem7130.7
rm -rf /scratch/edames/qchem7130.0
rm -rf /scratch/edames/qchem7130.1
rm -rf /scratch/edames/qchem7130.2
rm -rf /scratch/edames/qchem7130.3
rm -rf /scratch/edames/qchem7130.4
rm -rf /scratch/edames/qchem7130.5
rm -rf /scratch/edames/qchem7130.6
rm -rf /scratch/edames/qchem7130.7
rm -rf /scratch/edames/qchem7130
