
Running Job 1 of 1 c5h11o5scan4.in
qchem c5h11o5scan4.in_8811.0 /tmp/qchem8811/ 8
/opt/qchem/bin/mpi/mpirun_qchem -machinefile /tmp/317430.1.normal1/hostfile -np 8 /opt/qchem/exe/qcprog.exe c5h11o5scan4.in_8811.0 /tmp/qchem8811/

Process 0 of 8 is on node28.cluster - thread support 0
Process 2 of 8 is on node28.cluster - thread support 0
Process 1 of 8 is on node28.cluster - thread support 0
Process 5 of 8 is on node28.cluster - thread support 0
Process 4 of 8 is on node28.cluster - thread support 0
Process 6 of 8 is on node28.cluster - thread support 0
Process 3 of 8 is on node28.cluster - thread support 0
Process 7 of 8 is on node28.cluster - thread support 0
initial socket setup ...start
initial socket setup ...done 
now start server 0 ... 
set process cleaner
set process cleaner
set process cleaner
set process cleaner
set process cleaner
                  Welcome to Q-Chem
     A Quantum Leap Into The Future Of Chemistry


 Q-Chem 4.2, Q-Chem, Inc., Pleasanton, CA (2014).

 Y. Shao,  Z. Gan,  E. Epifanovsky,  A. T. B. Gilbert,  M. Wormit,  
 J. Kussmann,  A. W. Lange,  A. Behn,  J. Deng,  X. Feng,  D. Ghosh,  
 M. Goldey,  P. R. Horn,  L. D. Jacobson,  I. Kaliman,  R. Z. Khaliullin,  
 T. Kus,  A. Landau,  J. Liu,  E. I. Proynov,  Y. M. Rhee,  R. M. Richard,  
 M. A. Rohrdanz,  R. P. Steele,  E. J. Sundstrom,  H. L. Woodcock III,  
 P. M. Zimmerman,  D. Zuev,  B. Albrecht,  E. Alguire,  B. Austin,  
 G. J. O. Beran,  Y. A. Bernard,  E. Berquist,  K. Brandhorst,  
 K. B. Bravaya,  S. T. Brown,  D. Casanova,  C.-M. Chang,  Y. Chen,  
 S. H. Chien,  K. D. Closser,  D. L. Crittenden,  M. Diedenhofen,  
 R. A. DiStasio Jr.,  H. Do,  A. D. Dutoi,  R. G. Edgar,  S. Fatehi,  
 L. Fusti-Molnar,  A. Ghysels,  A. Golubeva-Zadorozhnaya,  J. Gomes,  
 M. W. D. Hanson-Heine,  P. H. P. Harbach,  A. W. Hauser,  E. G. Hohenstein,  
 Z. C. Holden,  T.-C. Jagau,  H. Ji,  B. Kaduk,  K. Khistyaev,  Jaehoon Kim,  
 Jihan Kim,  R. A. King,  P. Klunzinger,  D. Kosenkov,  T. Kowalczyk,  
 C. M. Krauter,  K. U. Lao,  A. Laurent,  K. V. Lawler,  S. V. Levchenko,  
 C. Y. Lin,  F. Liu,  E. Livshits,  R. C. Lochan,  A. Luenser,  P. Manohar,  
 S. F. Manzer,  S.-P. Mao,  N. Mardirossian,  A. V. Marenich,  S. A. Maurer,  
 N. J. Mayhall,  C. M. Oana,  R. Olivares-Amaya,  D. P. O'Neill,  
 J. A. Parkhill,  T. M. Perrine,  R. Peverati,  P. A. Pieniazek,  A. Prociuk,  
 D. R. Rehn,  E. Rosta,  N. J. Russ,  N. Sergueev,  S. M. Sharada,  
 S. Sharma,  D. W. Small,  A. Sodt,  T. Stein,  D. Stuck,  Y.-C. Su,  
 A. J. W. Thom,  T. Tsuchimochi,  L. Vogt,  O. Vydrov,  T. Wang,  
 M. A. Watson,  J. Wenzel,  A. White,  C. F. Williams,  V. Vanovschi,  
 S. Yeganeh,  S. R. Yost,  Z.-Q. You,  I. Y. Zhang,  X. Zhang,  Y. Zhao,  
 B. R. Brooks,  G. K. L. Chan,  D. M. Chipman,  C. J. Cramer,  
 W. A. Goddard III,  M. S. Gordon,  W. J. Hehre,  A. Klamt,  
 H. F. Schaefer III,  M. W. Schmidt,  C. D. Sherrill,  D. G. Truhlar,  
 A. Warshel,  X. Xu,  A. Aspuru-Guzik,  R. Baer,  A. T. Bell,  N. A. Besley,  
 J.-D. Chai,  A. Dreuw,  B. D. Dunietz,  T. R. Furlani,  S. R. Gwaltney,  
 C.-P. Hsu,  Y. Jung,  J. Kong,  D. S. Lambrecht,  W. Liang,  C. Ochsenfeld,  
 V. A. Rassolov,  L. V. Slipchenko,  J. E. Subotnik,  T. Van Voorhis,  
 J. M. Herbert,  A. I. Krylov,  P. M. W. Gill,  M. Head-Gordon

 Contributors to earlier versions of Q-Chem not listed above: 
 R. D. Adamson,  J. Baker,  E. F. C. Byrd,  A. K. Chakraborty,  C.-L. Cheng,  
 H. Dachsel,  R. J. Doerksen,  G. Hawkins,  A. Heyden,  S. Hirata,  
 G. Kedziora,  F. J. Keil,  C. Kelley,  P. P. Korambath,  W. Kurlancheek,  
 A. M. Lee,  M. S. Lee,  D. Liotard,  I. Lotan,  P. E. Maslen,  N. Nair,  
 D. Neuhauser,  R. Olson,  B. Peters,  J. Ritchie,  N. E. Schultz,  
 N. Shenvi,  A. C. Simmonett,  K. S. Thanthiriwatte,  Q. Wu,  W. Zhang

 Q-Chem 4.2.0 for Intel X86 Linux

 Parts of Q-Chem use Armadillo 4.100.2 (Dirt Cruiser).
 http://arma.sourceforge.net/

 Q-Chem begins on Thu Jun 19 17:04:08 2014  

Host: 
0

     Scratch files written to /tmp/qchem8811.0//
 May2514 8580_ilyak 4150   
 Parallel job on  8  processors
Processing $rem in /opt/qchem/config/preferences.
 MEM_TOTAL  2000 

 Q-Chem warning in module /home/scratch/svnadmin/8580_ilyak/qchem/forms1/BasisType.C, line 1209:

 Setting pure/cartesian flag to 2111 for general basis


Finally everything over in PARseQInput

--------------------------------------------------------------
User input:
--------------------------------------------------------------
$rem
SCF_ALGORITHM DIIS_GDM
max_scf_cycles = 100
incdft false
varthresh false
SCF_CONVERGENCE =  5
THRESH = 10
JOBTYPE pes_scan
EXCHANGE M062X
BASIS gen
GUI=2
UNRESTRICTED TRUE
CORRELATION NONE
$end

$scan
tors 14 13 16 17 -180 180 15
$end

$comment
c5h11o-1
$end

$molecule
READ c5h11o-5MG3S.out
$end

$basis
H  0
S  3 1.00
3.386500000000E+01 2.549380000000E-02
5.094790000000E+00 1.903730000000E-01
1.158790000000E+00 8.521610000000E-01
S  1 1.00
3.258400000000E-01 1.000000000000E+00
S  1 1.00
1.027410000000E-01 1.000000000000E+00
S  1 1.00
3.600000000000E-02 1.000000000000E+00
P  1 1.00
1.500000000000E+00 1.000000000000E+00
P  1 1.00
3.750000000000E-01 1.000000000000E+00
****
C 0
S  6 1.00
4.563240000000E+03 1.966650000000E-03
6.820240000000E+02 1.523060000000E-02
1.549730000000E+02 7.612690000000E-02
4.445530000000E+01 2.608010000000E-01
1.302900000000E+01 6.164620000000E-01
1.827730000000E+00 2.210060000000E-01
S  3 1.00
2.096420000000E+01 1.146600000000E-01
4.803310000000E+00 9.199990000000E-01
1.459330000000E+00 -3.030680000000E-03
S  1 1.00
4.834560000000E-01 1.000000000000E+00
S  1 1.00
1.455850000000E-01 1.000000000000E+00
S  1 1.00
4.380000000000E-02 1.000000000000E+00
P  3 1.00
2.096420000000E+01 4.024870000000E-02
4.803310000000E+00 2.375940000000E-01
1.459330000000E+00 8.158540000000E-01
P  1 1.00
4.834560000000E-01 1.000000000000E+00
P  1 1.00
1.455850000000E-01 1.000000000000E+00
P  1 1.00
4.380000000000E-02 1.000000000000E+00
D  1 1.00
1.252000000000E+00 1.000000000000E+00
D  1 1.00
3.130000000000E-01 1.000000000000E+00
F  1 1.00
8.000000000000E-01 1.000000000000E+00
****
O  0
S  6 1.00
8.588500000000E+03 1.895150000000E-03
1.297230000000E+03 1.438590000000E-02
2.992960000000E+02 7.073200000000E-02
8.737710000000E+01 2.400010000000E-01
2.567890000000E+01 5.947970000000E-01
3.740040000000E+00 2.808020000000E-01
S  3 1.00
4.211750000000E+01 1.138890000000E-01
9.628370000000E+00 9.208110000000E-01
2.853320000000E+00 -3.274470000000E-03
S  1 1.00
9.056610000000E-01 1.000000000000E+00
S  1 1.00
2.556110000000E-01 1.000000000000E+00
S  1 1.00
8.450000000000E-02 1.000000000000E+00
P  3 1.00
4.211750000000E+01 3.651140000000E-02
9.628370000000E+00 2.371530000000E-01
2.853320000000E+00 8.197020000000E-01
P  1 1.00
9.056610000000E-01 1.000000000000E+00
P  1 1.00
2.556110000000E-01 1.000000000000E+00
P  1 1.00
8.450000000000E-02 1.000000000000E+00
D  1 1.00
2.584000000000E+00 1.000000000000E+00
D  1 1.00
6.460000000000E-01 1.000000000000E+00
F  1 1.00
1.400000000000E+00 1.000000000000E+00
****
$end

--------------------------------------------------------------
 ----------------------------------------------------------------
             Standard Nuclear Orientation (Angstroms)
    I     Atom           X                Y                Z
 ----------------------------------------------------------------
    1      C      -1.0836761590     0.0611205592    -0.3452182995
    2      H      -1.0059301477     0.0254715967    -1.4431479360
    3      C      -2.1353204005     1.0586955172     0.0216215034
    4      H      -2.1848553656     2.0168763191    -0.4833701328
    5      H      -2.6562159356     0.9651051371     0.9698775707
    6      C      -1.4572609885    -1.3357040872     0.1642646890
    7      H      -0.7457706542    -2.0995801572    -0.1643145648
    8      H      -2.4494069664    -1.6254866840    -0.1966470113
    9      H      -1.4811462370    -1.3471374558     1.2611440892
   10      C       0.2908082111     0.5201687245     0.1906350840
   11      H       0.4843576225     1.5475037710    -0.1392995879
   12      H       0.2542045106     0.5379006492     1.2904432771
   13      C       1.4591493343    -0.3446013889    -0.2740688563
   14      H       1.4610468033    -0.4117826078    -1.3670905537
   15      H       1.3785327202    -1.3652993915     0.1232144238
   16      O       2.7144277566     0.2189092375     0.0712263031
   17      H       2.7875616125     0.2470789742     1.0359752769
 ----------------------------------------------------------------
 Molecular Point Group                 C1    NOp =  1
 Largest Abelian Subgroup              C1    NOp =  1
 Nuclear Repulsion Energy =   244.2160962168 hartrees
 There are       25 alpha and       24 beta electrons
 Requested basis set is non-standard
 There are 138 shells and 314 basis functions

Total QAlloc Memory Limit   2000 MB
Mega-Array Size        61 MB
MEM_STATIC part        62 MB
A total of 1 constraints
  
            1
    1   3.0100000
    2  14.0100000
    3  13.0100000
    4  16.0100000
    5  17.0100000
    6-180.0000000
    7 180.0000000
    8  15.0000000
    9   0.0000000
   10   0.0000000
 A cutoff of  1.0D-10 yielded   8848 shell pairs
 There are     45294 function pairs (     54289 Cartesian)
 Smallest overlap matrix eigenvalue = 1.50E-05

  Scale SEOQF with 1.000000e-01/1.000000e-01/1.000000e-01

 Standard Electronic Orientation quadrupole field applied
 Nucleus-field energy     =     0.0000000070 hartrees
 Guess MOs from core Hamiltonian diagonalization
 An unrestricted hybrid HF-DFT SCF calculation will be
 performed using Pulay DIIS + Geometric Direct Minimization
 Exchange:     0.5400 Hartree-Fock + 1.0000 M062X
 SCF converges when RMS gradient is below 1.0E-05
 ---------------------------------------
  Cycle       Energy         DIIS Error
 ---------------------------------------
    1    -194.4162440943      9.21E-02
 Inaccurate integrated density:
   Number of electrons =    49
   Numerical integral  =    49.008399754368
   Relative error      =     0.0171423559 %
    2    -170.8011504614      4.53E-02
    3    -166.9578413237      6.81E-02
    4    -231.4671655140      3.94E-02
    5    -266.3822505320      2.05E-02
    6    -266.7823850863      1.44E-02
    7    -271.2834305676      7.23E-03 Done DIIS. Switching to GDM
    8    -272.1226263200      1.93E-01 Descent step
    9    -272.2537437265      8.06E-02 Normal BFGS step
   10    -272.2668499028      2.21E-02 Normal BFGS step
   11    -272.2680729247      4.59E-03 Normal BFGS step
   12    -272.2684191337      1.51E-03 Normal BFGS step
   13    -272.2684494324      4.79E-04 Normal BFGS step
   14    -272.2684554976      1.99E-04 Normal BFGS step
   15    -272.2684568754      1.10E-04 Normal BFGS step
   16    -272.2684570371      2.58E-05 Normal BFGS step
   17    -272.2684570560      1.57E-05 Normal BFGS step
   18    -272.2684570645      3.73E-06 Convergence criterion met
 ---------------------------------------
 <S^2> = 0.7551
 SCF time:  CPU 172.98 s  wall 177.53 s
 SCF   energy in the final basis set = -272.2684570645
 Total energy in the final basis set = -272.2684570645
 Analysis of SCF Wavefunction
 
 --------------------------------------------------------------
                    Orbital Energies (a.u.)
 --------------------------------------------------------------
 
 Alpha MOs
 -- Occupied --
-19.622 -10.583 -10.551 -10.544 -10.537 -10.530  -1.143  -0.920
 -0.823  -0.775  -0.715  -0.649  -0.586  -0.552  -0.521  -0.510
 -0.491  -0.466  -0.451  -0.422  -0.406  -0.404  -0.388  -0.352
 -0.264
 -- Virtual --
 -0.003   0.007   0.013   0.015   0.035   0.038   0.039   0.043
  0.050   0.068   0.070   0.086   0.102   0.106   0.107   0.114
  0.122   0.128   0.137   0.144   0.148   0.153   0.154   0.161
  0.165   0.167   0.179   0.184   0.187   0.199   0.207   0.210
  0.219   0.231   0.235   0.250   0.263   0.268   0.269   0.275
  0.290   0.305   0.317   0.319   0.332   0.341   0.355   0.360
  0.373   0.394   0.411   0.447   0.456   0.471   0.482   0.496
  0.519   0.543   0.553   0.565   0.566   0.582   0.585   0.594
  0.601   0.610   0.621   0.623   0.633   0.639   0.654   0.657
  0.661   0.683   0.700   0.709   0.712   0.724   0.740   0.756
  0.769   0.786   0.797   0.815   0.850   0.870   0.895   0.912
  0.924   0.942   0.964   0.996   1.023   1.029   1.057   1.068
  1.088   1.105   1.116   1.134   1.157   1.171   1.183   1.206
  1.213   1.219   1.224   1.250   1.257   1.276   1.284   1.295
  1.313   1.326   1.334   1.361   1.371   1.379   1.391   1.404
  1.417   1.435   1.460   1.473   1.482   1.490   1.502   1.510
  1.519   1.544   1.550   1.565   1.585   1.607   1.617   1.625
  1.662   1.678   1.678   1.706   1.744   1.763   1.804   1.824
  1.946   2.077   2.124   2.306   2.320   2.435   2.494   2.498
  2.540   2.599   2.625   2.630   2.670   2.689   2.709   2.726
  2.769   2.793   2.819   2.824   2.852   2.880   2.923   2.928
  2.949   2.957   2.980   2.987   3.007   3.014   3.038   3.059
  3.099   3.127   3.152   3.172   3.201   3.225   3.237   3.253
  3.263   3.274   3.297   3.324   3.326   3.368   3.382   3.407
  3.418   3.425   3.447   3.452   3.491   3.527   3.541   3.562
  3.596   3.616   3.645   3.654   3.663   3.719   3.725   3.731
  3.744   3.775   3.802   3.818   3.841   3.856   3.877   3.884
  3.916   3.962   3.968   4.006   4.011   4.036   4.048   4.060
  4.080   4.087   4.141   4.142   4.166   4.175   4.196   4.219
  4.230   4.248   4.249   4.281   4.302   4.344   4.362   4.373
  4.399   4.415   4.441   4.447   4.505   4.530   4.540   4.559
  4.580   4.618   4.634   4.693   4.705   4.746   4.799   4.925
  4.930   5.090   5.216   5.244   5.266   5.298   5.382   5.435
  5.459   5.480   5.508   5.521   5.570   5.593   5.611   5.648
  5.670   5.690   5.843   5.941   6.520   6.981   7.161   7.198
  7.242   7.512   7.645  24.208  24.336  24.362  24.457  24.483
 50.137
 
 Beta MOs
 -- Occupied --
-19.622 -10.583 -10.551 -10.536 -10.536 -10.530  -1.143  -0.913
 -0.817  -0.758  -0.704  -0.639  -0.585  -0.547  -0.517  -0.504
 -0.488  -0.464  -0.446  -0.417  -0.402  -0.398  -0.387  -0.347
 -- Virtual --
 -0.032  -0.003   0.010   0.014   0.017   0.038   0.041   0.044
  0.047   0.054   0.069   0.073   0.086   0.097   0.104   0.106
  0.116   0.116   0.125   0.136   0.144   0.148   0.151   0.153
  0.161   0.162   0.166   0.177   0.180   0.184   0.198   0.208
  0.208   0.220   0.231   0.237   0.249   0.263   0.268   0.272
  0.274   0.292   0.305   0.321   0.324   0.335   0.339   0.358
  0.361   0.373   0.393   0.411   0.448   0.457   0.472   0.481
  0.497   0.519   0.549   0.556   0.568   0.571   0.584   0.586
  0.596   0.603   0.611   0.628   0.630   0.635   0.645   0.657
  0.659   0.667   0.683   0.705   0.710   0.714   0.720   0.743
  0.756   0.771   0.783   0.796   0.815   0.848   0.872   0.894
  0.913   0.922   0.940   0.961   0.993   1.022   1.028   1.053
  1.064   1.090   1.106   1.117   1.135   1.158   1.172   1.183
  1.207   1.213   1.220   1.226   1.251   1.258   1.277   1.284
  1.296   1.316   1.324   1.337   1.363   1.377   1.380   1.394
  1.405   1.418   1.437   1.461   1.477   1.483   1.493   1.504
  1.513   1.520   1.546   1.551   1.580   1.590   1.608   1.618
  1.626   1.665   1.679   1.681   1.710   1.750   1.765   1.805
  1.826   1.946   2.077   2.125   2.307   2.321   2.440   2.498
  2.504   2.546   2.604   2.627   2.643   2.682   2.697   2.719
  2.738   2.777   2.803   2.828   2.844   2.871   2.896   2.932
  2.938   2.962   2.971   2.996   3.002   3.020   3.034   3.073
  3.094   3.120   3.135   3.162   3.183   3.207   3.234   3.256
  3.272   3.281   3.300   3.321   3.334   3.340   3.378   3.396
  3.423   3.444   3.448   3.462   3.471   3.515   3.540   3.552
  3.568   3.622   3.624   3.657   3.671   3.680   3.721   3.735
  3.738   3.754   3.780   3.807   3.825   3.849   3.865   3.886
  3.893   3.926   3.965   3.972   4.010   4.021   4.043   4.053
  4.072   4.095   4.103   4.144   4.155   4.181   4.192   4.207
  4.235   4.246   4.256   4.267   4.307   4.312   4.350   4.371
  4.377   4.411   4.426   4.445   4.457   4.508   4.536   4.544
  4.575   4.583   4.625   4.641   4.699   4.710   4.750   4.802
  4.952   4.961   5.122   5.222   5.247   5.271   5.307   5.381
  5.436   5.479   5.491   5.510   5.571   5.588   5.602   5.634
  5.652   5.678   5.700   5.843   5.941   6.520   6.981   7.161
  7.198   7.242   7.512   7.645  24.215  24.336  24.368  24.459
 24.486  50.136
 --------------------------------------------------------------
 
          Ground-State Mulliken Net Atomic Charges

     Atom                 Charge (a.u.)    Spin (a.u.)
  --------------------------------------------------------
      1 C                     0.058471      -0.039333
      2 H                     0.174333       0.015998
      3 C                    -0.496492       1.042073
      4 H                     0.175226      -0.036793
      5 H                     0.167011      -0.033333
      6 C                    -0.529233       0.035306
      7 H                     0.137338       0.001593
      8 H                     0.151142      -0.007290
      9 H                     0.152532      -0.003266
     10 C                    -0.293778       0.021177
     11 H                     0.183211      -0.005759
     12 H                     0.167700       0.006033
     13 C                    -0.307267       0.004867
     14 H                     0.167277      -0.000060
     15 H                     0.160835      -0.002893
     16 O                    -0.319910       0.002327
     17 H                     0.251604      -0.000646
  --------------------------------------------------------
  Sum of atomic charges =     0.000000
  Sum of spin   charges =     1.000000

 -----------------------------------------------------------------
                    Cartesian Multipole Moments
 -----------------------------------------------------------------
    Charge (ESU x 10^10)
                 0.0000
    Dipole Moment (Debye)
         X      -0.9925      Y      -0.5090      Z       1.0421
       Tot       1.5265
    Quadrupole Moments (Debye-Ang)
        XX     -47.1614     XY      -1.1126     YY     -39.9820
        XZ       3.1305     YZ       0.0548     ZZ     -37.0576
    Octopole Moments (Debye-Ang^2)
       XXX      -0.7375    XXY      -2.9142    XYY       3.1378
       YYY       0.8927    XXZ      14.4849    XYZ       1.2294
       YYZ      -1.6448    XZZ      10.4020    YZZ       0.4227
       ZZZ       2.5523
    Hexadecapole Moments (Debye-Ang^3)
      XXXX    -854.4687   XXXY       4.8323   XXYY    -168.4824
      XYYY      -2.7296   YYYY    -236.0773   XXXZ      30.6051
      XXYZ       6.2244   XYYZ       4.2062   YYYZ      -3.7517
      XXZZ    -123.9873   XYZZ       2.0759   YYZZ     -56.5764
      XZZZ       5.8666   YZZZ       0.3238   ZZZZ     -86.6727
 -----------------------------------------------------------------
 Calculating analytic gradient of the SCF energy
 Gradient of Coulomb and Exchange Energy
            1           2           3           4           5           6
    1   3.9361404  -0.0051102   4.5770415   0.6338362   2.4881381   2.7111116
    2  -0.4558484   0.0399927  -2.7097940  -3.8385255  -0.0773422   3.6247456
    3   1.2243277   4.8768367  -0.1348006   1.7768121  -3.4035225  -0.4708548
            7           8           9          10          11          12
    1  -2.0978752   3.7279025   0.4236555  -1.4693717  -0.8137628   0.1014883
    2   3.3402653   1.5772567   0.8124358   0.4120908  -4.5447352  -0.5612280
    3   0.9984714   1.0682438  -3.9474458  -0.0281214   1.0967482  -4.5587872
           13          14          15          16          17
    1  -1.8761945  -0.2612946  -0.1623315 -10.5260608  -1.3873127
    2   0.3673888   0.5943192   4.1801177  -2.4741582  -0.2869812
    3   0.6369961   4.5433104  -1.3616278   1.8440080  -4.1605942
 Gradient of SCF Energy
            1           2           3           4           5           6
    1   0.0010736   0.0001364  -0.0010721  -0.0001670  -0.0011707   0.0005265
    2  -0.0001483  -0.0001471  -0.0006248   0.0026013   0.0000320   0.0016694
    3   0.0015114  -0.0033053  -0.0007642  -0.0010702   0.0025651  -0.0006891
            7           8           9          10          11          12
    1   0.0018837  -0.0029322  -0.0001071  -0.0008301   0.0007275  -0.0002665
    2  -0.0023722  -0.0010143  -0.0003003  -0.0013707   0.0027835   0.0001699
    3  -0.0009537  -0.0010591   0.0032952  -0.0011819  -0.0008794   0.0033577
           13          14          15          16          17
    1  -0.0007132   0.0007241   0.0001807   0.0013142   0.0006922
    2   0.0006889  -0.0000210  -0.0027109   0.0006986   0.0000658
    3   0.0004996  -0.0025603   0.0012405  -0.0083963   0.0083899
 Max gradient component =       8.396E-03
 RMS gradient           =       2.227E-03
 Gradient time:  CPU 25.70 s  wall 25.74 s
 Geometry Optimization Parameters
   NAtoms,    NIC,     NZ,  NCons,   NDum,   NFix, NCnnct, MaxDiis
       17     114      17       1       0       0       0       0


** CONSTRAINED OPTIMIZATION IN DELOCALIZED INTERNAL COORDINATES **
   Searching for a Minimum

   Optimization Cycle:   1

                       Coordinates (Angstroms)
     ATOM                X               Y               Z
      1  C        -1.0836761590    0.0611205592   -0.3452182995
      2  H        -1.0059301477    0.0254715967   -1.4431479360
      3  C        -2.1353204005    1.0586955172    0.0216215034
      4  H        -2.1848553656    2.0168763191   -0.4833701328
      5  H        -2.6562159356    0.9651051371    0.9698775707
      6  C        -1.4572609885   -1.3357040872    0.1642646890
      7  H        -0.7457706542   -2.0995801572   -0.1643145648
      8  H        -2.4494069664   -1.6254866840   -0.1966470113
      9  H        -1.4811462370   -1.3471374558    1.2611440892
     10  C         0.2908082111    0.5201687245    0.1906350840
     11  H         0.4843576225    1.5475037710   -0.1392995879
     12  H         0.2542045106    0.5379006492    1.2904432771
     13  C         1.4591493343   -0.3446013889   -0.2740688563
     14  H         1.4610468033   -0.4117826078   -1.3670905537
     15  H         1.3785327202   -1.3652993915    0.1232144238
     16  O         2.7144277566    0.2189092375    0.0712263031
     17  H         2.7875616125    0.2470789742    1.0359752769
   Point Group: c1    Number of degrees of freedom:    45


   Energy is   -272.268457064

              Constraints and their Current Values
                                        Value     Constraint
   Dihedral:       14  13  16  17     -176.364     -180.000

 Attempting to Generate Delocalized Internal Coordinates
 GETINT wrote B to file, NVib is           45
 GETINT wrote B to file, NVib is           45
 calling HSSCONV
 HCONV 3*NATOMS:           51
 wrote HINT to file
  writing hessian 

   Using Lagrange Multiplier Algorithm


 46 Hessian modes will be used to form the next step
  Hessian Eigenvalues:
    -0.977753    0.045000    0.045000    0.045000    0.045000    0.046861
     0.067499    0.072801    0.074145    0.077842    0.078183    0.080663
     0.082142    0.083582    0.084995    0.105140    0.105980    0.133193
     0.143056    0.160000    0.160000    0.160000    0.160000    0.160000
     0.160000    0.180705    0.189338    0.219835    0.220023    0.280793
     0.291431    0.297922    0.328840    0.335436    0.336203    0.338762
     0.339938    0.341017    0.342314    0.342639    0.343102    0.352852
     0.354866    0.426681    0.538027    1.022753

 Minimum Search - Taking P-RFO Step
 Searching for Lamda that Maximizes Along the Constraint modes Only
 Value Taken    Lamda =   0.00205957
 Searching for Lamda that Minimizes Along All other modes
 Value Taken    Lamda =  -0.00247947
 Step Taken.  Stepsize is  0.074530

                             Maximum     Tolerance    Cnvgd?
         Gradient           0.063464      0.000300      NO
         Displacement       0.063321      0.001200      NO
         Energy change     *********      0.000001      NO


 New Cartesian Coordinates Obtained by Inverse Iteration

 Displacement from previous Coordinates is:  0.121836
 ----------------------------------------------------------------
             Standard Nuclear Orientation (Angstroms)
    I     Atom           X                Y                Z
 ----------------------------------------------------------------
    1      C      -1.0772461900     0.0593753702    -0.3444352104
    2      H      -0.9984543729     0.0246356704    -1.4371106292
    3      C      -2.1235764115     1.0554873723     0.0207724730
    4      H      -2.1710748327     2.0095503098    -0.4832777624
    5      H      -2.6457037448     0.9611817682     0.9635313735
    6      C      -1.4516812207    -1.3333125510     0.1639013638
    7      H      -0.7428043316    -2.0936322411    -0.1624663837
    8      H      -2.4395195195    -1.6203357431    -0.1958348741
    9      H      -1.4756200135    -1.3420685041     1.2556978203
   10      C       0.2944697733     0.5144396538     0.1916902361
   11      H       0.4896718078     1.5373789988    -0.1355781422
   12      H       0.2588889400     0.5302763138     1.2862995734
   13      C       1.4544858383    -0.3531252871    -0.2733923865
   14      H       1.4288063438    -0.3953442781    -1.3634514340
   15      H       1.3627598485    -1.3681528618     0.1233366295
   16      O       2.7040916177     0.2148654697     0.0745883278
   17      H       2.7630121846     0.2680192525     1.0309743001
 ----------------------------------------------------------------
 Molecular Point Group                 C1    NOp =  1
 Largest Abelian Subgroup              C1    NOp =  1
 Nuclear Repulsion Energy =   245.1542818080 hartrees
 There are       25 alpha and       24 beta electrons
 Applying Cartesian multipole field
    Component          Value
    ---------          -----
     (2,0,0)        1.00000E-11
     (0,2,0)        2.00000E-11
     (0,0,2)       -3.00000E-11
 Nucleus-field energy     =     0.0000000070 hartrees
 Requested basis set is non-standard
 There are 138 shells and 314 basis functions
 A cutoff of  1.0D-10 yielded   8859 shell pairs
 There are     45343 function pairs (     54347 Cartesian)
 Smallest overlap matrix eigenvalue = 1.47E-05
 Guess MOs from core Hamiltonian diagonalization
 An unrestricted hybrid HF-DFT SCF calculation will be
 performed using Pulay DIIS + Geometric Direct Minimization
 Exchange:     0.5400 Hartree-Fock + 1.0000 M062X
 SCF converges when RMS gradient is below 1.0E-05
 ---------------------------------------
  Cycle       Energy         DIIS Error
 ---------------------------------------
    1    -194.3219478554      9.22E-02
 Inaccurate integrated density:
   Number of electrons =    49
   Numerical integral  =    49.008592776363
   Relative error      =     0.0175362783 %
    2    -170.6092125781      4.54E-02
    3    -166.8636072833      6.82E-02
    4    -231.4988861245      3.96E-02
    5    -266.4475040660      2.05E-02
    6    -266.9732733705      1.42E-02
    7    -271.2917994171      7.21E-03 Done DIIS. Switching to GDM
    8    -272.1312011318      1.75E-01 Descent step
    9    -272.2551387474      7.40E-02 Normal BFGS step
   10    -272.2671337294      2.03E-02 Normal BFGS step
   11    -272.2682566577      3.78E-03 Normal BFGS step
   12    -272.2685400117      1.41E-03 Normal BFGS step
   13    -272.2685689018      4.18E-04 Normal BFGS step
   14    -272.2685734173      1.74E-04 Normal BFGS step
   15    -272.2685745883      8.61E-05 Normal BFGS step
   16    -272.2685747157      2.88E-05 Normal BFGS step
   17    -272.2685747348      1.34E-05 Normal BFGS step
   18    -272.2685747435      3.71E-06 Convergence criterion met
 ---------------------------------------
 <S^2> = 0.7550
 SCF time:  CPU 172.97 s  wall 176.43 s
 SCF   energy in the final basis set = -272.2685747435
 Total energy in the final basis set = -272.2685747435
 Analysis of SCF Wavefunction
 
 --------------------------------------------------------------
                    Orbital Energies (a.u.)
 --------------------------------------------------------------
 
 Alpha MOs
 -- Occupied --
-19.621 -10.581 -10.549 -10.542 -10.535 -10.528  -1.146  -0.923
 -0.825  -0.776  -0.716  -0.650  -0.588  -0.554  -0.523  -0.513
 -0.491  -0.468  -0.451  -0.423  -0.406  -0.404  -0.389  -0.352
 -0.263
 -- Virtual --
 -0.003   0.007   0.013   0.015   0.035   0.038   0.039   0.043
  0.050   0.069   0.071   0.086   0.102   0.106   0.107   0.114
  0.123   0.129   0.138   0.144   0.148   0.153   0.154   0.162
  0.165   0.167   0.179   0.184   0.188   0.200   0.208   0.210
  0.220   0.232   0.237   0.252   0.263   0.269   0.270   0.276
  0.291   0.306   0.318   0.321   0.333   0.342   0.356   0.361
  0.373   0.395   0.411   0.448   0.457   0.470   0.482   0.496
  0.520   0.545   0.554   0.566   0.566   0.583   0.585   0.595
  0.602   0.613   0.623   0.626   0.633   0.641   0.656   0.659
  0.663   0.685   0.702   0.710   0.715   0.723   0.742   0.757
  0.772   0.784   0.799   0.818   0.852   0.873   0.898   0.916
  0.925   0.943   0.967   0.996   1.026   1.030   1.060   1.071
  1.090   1.107   1.121   1.138   1.158   1.174   1.185   1.205
  1.216   1.221   1.224   1.251   1.260   1.282   1.288   1.299
  1.315   1.327   1.338   1.364   1.373   1.380   1.394   1.409
  1.420   1.440   1.462   1.475   1.484   1.492   1.504   1.513
  1.520   1.546   1.547   1.569   1.588   1.614   1.620   1.631
  1.666   1.679   1.683   1.710   1.750   1.772   1.810   1.829
  1.947   2.076   2.134   2.309   2.319   2.434   2.494   2.498
  2.538   2.600   2.628   2.631   2.672   2.691   2.712   2.731
  2.772   2.797   2.824   2.827   2.856   2.885   2.924   2.935
  2.953   2.959   2.982   2.988   3.009   3.014   3.040   3.062
  3.104   3.128   3.158   3.174   3.201   3.225   3.237   3.255
  3.265   3.274   3.302   3.327   3.331   3.372   3.385   3.411
  3.419   3.433   3.451   3.452   3.495   3.530   3.548   3.568
  3.600   3.620   3.649   3.658   3.670   3.723   3.730   3.736
  3.749   3.779   3.807   3.825   3.852   3.865   3.886   3.893
  3.931   3.972   3.978   4.015   4.025   4.049   4.056   4.075
  4.091   4.097   4.150   4.152   4.173   4.184   4.209   4.225
  4.239   4.256   4.259   4.289   4.308   4.351   4.375   4.385
  4.403   4.425   4.447   4.463   4.521   4.541   4.552   4.571
  4.593   4.631   4.645   4.705   4.717   4.755   4.803   4.937
  4.942   5.098   5.221   5.246   5.272   5.312   5.400   5.439
  5.477   5.501   5.529   5.538   5.587   5.609   5.622   5.667
  5.691   5.710   5.852   5.952   6.527   6.982   7.202   7.208
  7.247   7.517   7.645  24.224  24.359  24.385  24.483  24.510
 50.145
 
 Beta MOs
 -- Occupied --
-19.621 -10.581 -10.549 -10.535 -10.534 -10.528  -1.145  -0.915
 -0.819  -0.760  -0.705  -0.641  -0.587  -0.549  -0.518  -0.506
 -0.488  -0.465  -0.447  -0.418  -0.402  -0.399  -0.387  -0.347
 -- Virtual --
 -0.032  -0.003   0.010   0.015   0.017   0.038   0.041   0.044
  0.047   0.054   0.069   0.074   0.086   0.097   0.105   0.106
  0.116   0.117   0.125   0.137   0.144   0.148   0.151   0.153
  0.161   0.162   0.166   0.177   0.180   0.184   0.199   0.208
  0.209   0.221   0.232   0.239   0.251   0.264   0.268   0.273
  0.275   0.293   0.306   0.322   0.326   0.336   0.341   0.360
  0.362   0.373   0.394   0.412   0.449   0.458   0.471   0.481
  0.497   0.520   0.549   0.557   0.567   0.571   0.584   0.586
  0.597   0.604   0.614   0.629   0.632   0.635   0.647   0.659
  0.661   0.668   0.685   0.706   0.711   0.717   0.720   0.744
  0.758   0.774   0.782   0.798   0.817   0.850   0.874   0.898
  0.915   0.924   0.942   0.964   0.993   1.026   1.030   1.057
  1.066   1.092   1.109   1.122   1.139   1.160   1.175   1.186
  1.205   1.216   1.222   1.225   1.252   1.261   1.283   1.288
  1.300   1.318   1.325   1.341   1.365   1.379   1.382   1.398
  1.410   1.420   1.442   1.463   1.477   1.485   1.494   1.507
  1.515   1.522   1.547   1.549   1.585   1.593   1.615   1.621
  1.632   1.669   1.682   1.684   1.713   1.756   1.774   1.811
  1.831   1.947   2.076   2.134   2.310   2.320   2.438   2.497
  2.504   2.544   2.605   2.630   2.646   2.685   2.698   2.722
  2.742   2.779   2.807   2.834   2.848   2.874   2.901   2.936
  2.941   2.965   2.975   2.999   3.005   3.017   3.038   3.075
  3.096   3.125   3.137   3.167   3.186   3.208   3.234   3.257
  3.274   3.284   3.302   3.324   3.337   3.344   3.383   3.401
  3.425   3.447   3.451   3.464   3.472   3.519   3.543   3.558
  3.573   3.623   3.627   3.660   3.679   3.686   3.725   3.739
  3.743   3.761   3.784   3.812   3.832   3.860   3.874   3.896
  3.900   3.943   3.975   3.983   4.018   4.037   4.056   4.061
  4.086   4.105   4.112   4.155   4.164   4.188   4.199   4.219
  4.243   4.253   4.266   4.274   4.314   4.318   4.358   4.383
  4.393   4.410   4.436   4.457   4.468   4.524   4.546   4.558
  4.586   4.597   4.638   4.652   4.710   4.723   4.758   4.806
  4.960   4.978   5.130   5.227   5.249   5.276   5.322   5.399
  5.440   5.499   5.511   5.530   5.587   5.605   5.611   5.651
  5.673   5.699   5.719   5.852   5.952   6.527   6.982   7.202
  7.208   7.247   7.517   7.646  24.231  24.359  24.391  24.485
 24.513  50.145
 --------------------------------------------------------------
 
          Ground-State Mulliken Net Atomic Charges

     Atom                 Charge (a.u.)    Spin (a.u.)
  --------------------------------------------------------
      1 C                     0.054630      -0.040127
      2 H                     0.175609       0.016175
      3 C                    -0.500132       1.041822
      4 H                     0.176650      -0.036862
      5 H                     0.168242      -0.033361
      6 C                    -0.530527       0.035817
      7 H                     0.138215       0.001626
      8 H                     0.152379      -0.007357
      9 H                     0.154885      -0.003228
     10 C                    -0.306137       0.021369
     11 H                     0.186400      -0.005785
     12 H                     0.168760       0.006045
     13 C                    -0.299190       0.005373
     14 H                     0.166922      -0.000126
     15 H                     0.161448      -0.002998
     16 O                    -0.318255       0.002250
     17 H                     0.250102      -0.000632
  --------------------------------------------------------
  Sum of atomic charges =     0.000000
  Sum of spin   charges =     1.000000

 -----------------------------------------------------------------
                    Cartesian Multipole Moments
 -----------------------------------------------------------------
    Charge (ESU x 10^10)
                 0.0000
    Dipole Moment (Debye)
         X      -1.0115      Y      -0.4738      Z       1.0315
       Tot       1.5204
    Quadrupole Moments (Debye-Ang)
        XX     -47.2416     XY      -0.9501     YY     -39.9209
        XZ       3.0970     YZ       0.0682     ZZ     -37.0349
    Octopole Moments (Debye-Ang^2)
       XXX      -1.4349    XXY      -2.4384    XYY       3.2050
       YYY       1.1395    XXZ      14.1992    XYZ       1.3128
       YYZ      -1.5853    XZZ      10.2236    YZZ       0.5898
       ZZZ       2.4534
    Hexadecapole Moments (Debye-Ang^3)
      XXXX    -848.0350   XXXY       5.9911   XXYY    -166.8213
      XYYY      -2.5338   YYYY    -234.6503   XXXZ      29.2126
      XXYZ       6.4827   XYYZ       4.2171   YYYZ      -3.7339
      XXZZ    -123.1795   XYZZ       2.3084   YYZZ     -56.2217
      XZZZ       5.6297   YZZZ       0.2673   ZZZZ     -86.2530
 -----------------------------------------------------------------
 Calculating analytic gradient of the SCF energy
 Gradient of Coulomb and Exchange Energy
            1           2           3           4           5           6
    1   3.9437597   0.0012331   4.5609351   0.6273624   2.5093913   2.7070174
    2  -0.4719578   0.0335098  -2.7109228  -3.8491888  -0.0731752   3.6096002
    3   1.2020680   4.8970669  -0.1463080   1.7863448  -3.4032982  -0.4481207
            7           8           9          10          11          12
    1  -2.1031275   3.7397406   0.4262560  -1.4694587  -0.8108278   0.0721544
    2   3.3490594   1.5769431   0.8085573   0.4693460  -4.5566732  -0.5552630
    3   0.9920382   1.0689803  -3.9526938   0.0076701   1.0875155  -4.5521465
           13          14          15          16          17
    1  -2.0895889  -0.0640159  -0.0893343 -10.6089389  -1.3525579
    2   0.5789931   0.4359190   4.2003038  -2.4156484  -0.4294025
    3   0.7049417   4.5665183  -1.4254433   1.7894230  -4.1745564
 Gradient of SCF Energy
            1           2           3           4           5           6
    1   0.0006894  -0.0000667  -0.0003837   0.0000885   0.0002486   0.0001127
    2  -0.0000561   0.0000051  -0.0003324  -0.0000114   0.0001218   0.0005778
    3   0.0002020  -0.0000538  -0.0003137   0.0001765   0.0001386  -0.0000606
            7           8           9          10          11          12
    1   0.0001150  -0.0001081   0.0000114   0.0007697   0.0000734   0.0002408
    2  -0.0000372  -0.0000396  -0.0000492  -0.0002584   0.0001246  -0.0001083
    3  -0.0001068  -0.0000323   0.0000349  -0.0017709   0.0001344  -0.0000614
           13          14          15          16          17
    1   0.0020190  -0.0026387  -0.0011245  -0.0000701   0.0000231
    2  -0.0044519   0.0025700  -0.0000609   0.0019797   0.0000262
    3  -0.0002750  -0.0003268   0.0014500   0.0007863   0.0000789
 Max gradient component =       4.452E-03
 RMS gradient           =       9.989E-04
 Gradient time:  CPU 25.90 s  wall 25.88 s
 Geometry Optimization Parameters
   NAtoms,    NIC,     NZ,  NCons,   NDum,   NFix, NCnnct, MaxDiis
       17     114      17       1       0       0       0       0

 Cartesian Hessian Update
 Hessian Updated using BFGS Update


** CONSTRAINED OPTIMIZATION IN DELOCALIZED INTERNAL COORDINATES **
   Searching for a Minimum

   Optimization Cycle:   2

                       Coordinates (Angstroms)
     ATOM                X               Y               Z
      1  C        -1.0772461900    0.0593753702   -0.3444352104
      2  H        -0.9984543729    0.0246356704   -1.4371106292
      3  C        -2.1235764115    1.0554873723    0.0207724730
      4  H        -2.1710748327    2.0095503098   -0.4832777624
      5  H        -2.6457037448    0.9611817682    0.9635313735
      6  C        -1.4516812207   -1.3333125510    0.1639013638
      7  H        -0.7428043316   -2.0936322411   -0.1624663837
      8  H        -2.4395195195   -1.6203357431   -0.1958348741
      9  H        -1.4756200135   -1.3420685041    1.2556978203
     10  C         0.2944697733    0.5144396538    0.1916902361
     11  H         0.4896718078    1.5373789988   -0.1355781422
     12  H         0.2588889400    0.5302763138    1.2862995734
     13  C         1.4544858383   -0.3531252871   -0.2733923865
     14  H         1.4288063438   -0.3953442781   -1.3634514340
     15  H         1.3627598485   -1.3681528618    0.1233366295
     16  O         2.7040916177    0.2148654697    0.0745883278
     17  H         2.7630121846    0.2680192525    1.0309743001
   Point Group: c1    Number of degrees of freedom:    45


   Energy is   -272.268574744

              Constraints and their Current Values
                                        Value     Constraint
   Dihedral:       14  13  16  17     -179.992     -180.000
 GETINT wrote B to file, NVib is           45
 Hessian Updated using BFGS Update

   Using Lagrange Multiplier Algorithm


 40 Hessian modes will be used to form the next step
  Hessian Eigenvalues:
    -0.968583    0.044816    0.045001    0.046601    0.067498    0.072614
     0.073099    0.077843    0.078164    0.079960    0.082146    0.083579
     0.084942    0.105124    0.113762    0.133481    0.143082    0.159896
     0.160197    0.180702    0.189428    0.217336    0.221337    0.282092
     0.289671    0.296675    0.328978    0.330795    0.335766    0.337789
     0.340472    0.341652    0.342078    0.342910    0.345159    0.353288
     0.356182    0.423723    0.524815    1.034674

 Minimum Search - Taking P-RFO Step
 Searching for Lamda that Maximizes Along the Constraint modes Only
 Value Taken    Lamda =   0.00000304
 Searching for Lamda that Minimizes Along All other modes
 Value Taken    Lamda =  -0.00021039
 Step Taken.  Stepsize is  0.043671

                             Maximum     Tolerance    Cnvgd?
         Gradient           0.002476      0.000300      NO
         Displacement       0.019844      0.001200      NO
         Energy change     -0.000118      0.000001      NO


 New Cartesian Coordinates Obtained by Inverse Iteration

 Displacement from previous Coordinates is:  0.046383
 ----------------------------------------------------------------
             Standard Nuclear Orientation (Angstroms)
    I     Atom           X                Y                Z
 ----------------------------------------------------------------
    1      C      -1.0790278205     0.0602053143    -0.3431346813
    2      H      -0.9998264475     0.0266324242    -1.4343428233
    3      C      -2.1244495401     1.0554414178     0.0222705207
    4      H      -2.1730386518     2.0081854477    -0.4820199446
    5      H      -2.6493269774     0.9592324195     0.9620878125
    6      C      -1.4531736626    -1.3325691637     0.1644308099
    7      H      -0.7451261784    -2.0918637584    -0.1612031393
    8      H      -2.4396712469    -1.6188813932    -0.1949912794
    9      H      -1.4771510245    -1.3406742215     1.2548141969
   10      C       0.2927307641     0.5157218237     0.1928820340
   11      H       0.4862371126     1.5379398309    -0.1331010921
   12      H       0.2558743465     0.5303426488     1.2861595596
   13      C       1.4553364522    -0.3503966200    -0.2744357042
   14      H       1.4451263932    -0.4026842581    -1.3628929776
   15      H       1.3664155413    -1.3649148785     0.1182049202
   16      O       2.7080738722     0.2062433606     0.0734243493
   17      H       2.7615027843     0.2712783190     1.0270927138
 ----------------------------------------------------------------
 Molecular Point Group                 C1    NOp =  1
 Largest Abelian Subgroup              C1    NOp =  1
 Nuclear Repulsion Energy =   245.1604895957 hartrees
 There are       25 alpha and       24 beta electrons
 Applying Cartesian multipole field
    Component          Value
    ---------          -----
     (2,0,0)        1.00000E-11
     (0,2,0)        2.00000E-11
     (0,0,2)       -3.00000E-11
 Nucleus-field energy     =     0.0000000070 hartrees
 Requested basis set is non-standard
 There are 138 shells and 314 basis functions
 A cutoff of  1.0D-10 yielded   8860 shell pairs
 There are     45352 function pairs (     54356 Cartesian)
 Smallest overlap matrix eigenvalue = 1.47E-05
 Guess MOs from core Hamiltonian diagonalization
 An unrestricted hybrid HF-DFT SCF calculation will be
 performed using Pulay DIIS + Geometric Direct Minimization
 Exchange:     0.5400 Hartree-Fock + 1.0000 M062X
 SCF converges when RMS gradient is below 1.0E-05
 ---------------------------------------
  Cycle       Energy         DIIS Error
 ---------------------------------------
    1    -194.3489206037      9.22E-02
 Inaccurate integrated density:
   Number of electrons =    49
   Numerical integral  =    49.008702665573
   Relative error      =     0.0177605420 %
    2    -170.5901817636      4.54E-02
    3    -166.7647103838      6.83E-02
    4    -231.4515487107      3.95E-02
    5    -266.4658623044      2.04E-02
    6    -266.9634298084      1.42E-02
    7    -271.3106804864      7.15E-03 Done DIIS. Switching to GDM
    8    -272.1354269938      1.64E-01 Descent step
    9    -272.2558348320      7.04E-02 Normal BFGS step
   10    -272.2673387046      1.90E-02 Normal BFGS step
   11    -272.2684087865      3.25E-03 Normal BFGS step
   12    -272.2686565156      1.34E-03 Normal BFGS step
   13    -272.2686843989      3.92E-04 Normal BFGS step
   14    -272.2686880295      1.52E-04 Normal BFGS step
   15    -272.2686889709      7.08E-05 Normal BFGS step
   16    -272.2686890832      2.92E-05 Normal BFGS step
   17    -272.2686891023      1.19E-05 Normal BFGS step
   18    -272.2686891103      3.47E-06 Convergence criterion met
 ---------------------------------------
 <S^2> = 0.7550
 SCF time:  CPU 172.98 s  wall 175.84 s
 SCF   energy in the final basis set = -272.2686891103
 Total energy in the final basis set = -272.2686891103
 Analysis of SCF Wavefunction
 
 --------------------------------------------------------------
                    Orbital Energies (a.u.)
 --------------------------------------------------------------
 
 Alpha MOs
 -- Occupied --
-19.621 -10.581 -10.549 -10.542 -10.535 -10.528  -1.146  -0.923
 -0.825  -0.777  -0.717  -0.651  -0.588  -0.554  -0.523  -0.513
 -0.492  -0.468  -0.452  -0.424  -0.407  -0.404  -0.389  -0.352
 -0.263
 -- Virtual --
 -0.003   0.007   0.013   0.015   0.035   0.038   0.039   0.043
  0.050   0.069   0.070   0.086   0.102   0.106   0.107   0.115
  0.123   0.129   0.137   0.144   0.148   0.153   0.155   0.162
  0.165   0.167   0.180   0.184   0.187   0.200   0.208   0.210
  0.220   0.232   0.237   0.252   0.263   0.270   0.270   0.276
  0.291   0.306   0.319   0.321   0.334   0.342   0.355   0.361
  0.373   0.395   0.411   0.448   0.457   0.470   0.482   0.496
  0.519   0.545   0.554   0.566   0.567   0.583   0.585   0.595
  0.602   0.614   0.623   0.626   0.634   0.640   0.657   0.660
  0.663   0.685   0.702   0.711   0.715   0.724   0.742   0.757
  0.773   0.784   0.800   0.817   0.853   0.874   0.899   0.916
  0.926   0.944   0.967   0.996   1.026   1.031   1.058   1.071
  1.090   1.108   1.121   1.138   1.158   1.175   1.186   1.205
  1.215   1.220   1.224   1.252   1.260   1.280   1.289   1.299
  1.316   1.328   1.338   1.365   1.374   1.383   1.395   1.408
  1.422   1.441   1.463   1.476   1.484   1.494   1.505   1.513
  1.521   1.547   1.549   1.570   1.590   1.613   1.621   1.630
  1.667   1.680   1.683   1.711   1.749   1.770   1.812   1.830
  1.945   2.080   2.134   2.309   2.318   2.434   2.492   2.498
  2.537   2.598   2.627   2.630   2.672   2.690   2.710   2.732
  2.772   2.796   2.824   2.828   2.856   2.884   2.925   2.933
  2.953   2.961   2.983   2.990   3.010   3.016   3.041   3.062
  3.104   3.129   3.158   3.174   3.203   3.227   3.239   3.255
  3.268   3.273   3.303   3.327   3.331   3.373   3.385   3.410
  3.420   3.433   3.452   3.454   3.496   3.531   3.546   3.565
  3.600   3.619   3.648   3.658   3.669   3.724   3.730   3.736
  3.751   3.778   3.807   3.826   3.851   3.865   3.887   3.895
  3.928   3.973   3.980   4.019   4.023   4.051   4.057   4.074
  4.093   4.097   4.153   4.154   4.175   4.186   4.212   4.227
  4.241   4.259   4.262   4.291   4.312   4.355   4.376   4.387
  4.406   4.424   4.450   4.460   4.521   4.543   4.553   4.572
  4.595   4.632   4.647   4.707   4.718   4.755   4.804   4.938
  4.947   5.099   5.223   5.247   5.273   5.313   5.399   5.440
  5.481   5.504   5.530   5.542   5.592   5.616   5.628   5.673
  5.696   5.715   5.857   5.959   6.534   6.983   7.203   7.221
  7.247   7.519   7.646  24.228  24.364  24.391  24.487  24.514
 50.147
 
 Beta MOs
 -- Occupied --
-19.621 -10.581 -10.549 -10.535 -10.534 -10.528  -1.146  -0.915
 -0.819  -0.760  -0.706  -0.641  -0.587  -0.549  -0.518  -0.507
 -0.489  -0.466  -0.447  -0.419  -0.402  -0.399  -0.388  -0.347
 -- Virtual --
 -0.032  -0.003   0.010   0.015   0.017   0.038   0.041   0.044
  0.047   0.054   0.069   0.073   0.086   0.097   0.105   0.106
  0.116   0.117   0.125   0.137   0.144   0.148   0.151   0.153
  0.161   0.162   0.166   0.177   0.180   0.184   0.199   0.208
  0.210   0.222   0.232   0.239   0.251   0.264   0.269   0.273
  0.276   0.293   0.306   0.322   0.325   0.336   0.341   0.359
  0.362   0.373   0.394   0.412   0.449   0.457   0.471   0.482
  0.498   0.520   0.550   0.557   0.568   0.572   0.584   0.587
  0.597   0.604   0.615   0.629   0.632   0.636   0.647   0.659
  0.662   0.669   0.685   0.707   0.712   0.718   0.721   0.744
  0.758   0.775   0.782   0.799   0.816   0.851   0.875   0.898
  0.916   0.924   0.942   0.964   0.993   1.025   1.031   1.055
  1.066   1.092   1.109   1.122   1.139   1.159   1.176   1.187
  1.206   1.216   1.222   1.226   1.253   1.261   1.282   1.289
  1.300   1.319   1.326   1.341   1.366   1.380   1.384   1.398
  1.410   1.423   1.443   1.464   1.478   1.486   1.496   1.507
  1.516   1.523   1.549   1.551   1.586   1.595   1.614   1.622
  1.631   1.670   1.683   1.684   1.714   1.755   1.772   1.814
  1.832   1.945   2.080   2.134   2.309   2.318   2.438   2.495
  2.504   2.542   2.603   2.628   2.645   2.685   2.698   2.721
  2.742   2.780   2.806   2.834   2.848   2.874   2.901   2.937
  2.940   2.966   2.975   3.000   3.006   3.020   3.038   3.075
  3.096   3.124   3.137   3.168   3.185   3.210   3.237   3.259
  3.275   3.287   3.301   3.325   3.336   3.344   3.383   3.401
  3.424   3.448   3.451   3.466   3.473   3.520   3.544   3.556
  3.571   3.624   3.626   3.659   3.679   3.685   3.727   3.739
  3.742   3.763   3.784   3.812   3.833   3.859   3.875   3.897
  3.901   3.939   3.977   3.985   4.022   4.035   4.057   4.062
  4.086   4.105   4.115   4.157   4.167   4.189   4.203   4.222
  4.245   4.256   4.269   4.277   4.316   4.321   4.362   4.384
  4.393   4.416   4.435   4.459   4.466   4.524   4.548   4.557
  4.588   4.599   4.640   4.654   4.713   4.724   4.759   4.806
  4.960   4.983   5.131   5.229   5.249   5.277   5.323   5.398
  5.440   5.501   5.515   5.532   5.593   5.609   5.618   5.656
  5.678   5.704   5.724   5.857   5.959   6.534   6.983   7.203
  7.221   7.247   7.519   7.646  24.235  24.364  24.397  24.488
 24.517  50.147
 --------------------------------------------------------------
 
          Ground-State Mulliken Net Atomic Charges

     Atom                 Charge (a.u.)    Spin (a.u.)
  --------------------------------------------------------
      1 C                     0.052255      -0.040500
      2 H                     0.176574       0.016321
      3 C                    -0.500165       1.041929
      4 H                     0.177306      -0.036922
      5 H                     0.168945      -0.033418
      6 C                    -0.533810       0.035674
      7 H                     0.139024       0.001631
      8 H                     0.152733      -0.007344
      9 H                     0.155008      -0.003200
     10 C                    -0.297635       0.021620
     11 H                     0.185988      -0.005938
     12 H                     0.169787       0.006167
     13 C                    -0.307990       0.005473
     14 H                     0.167424      -0.000095
     15 H                     0.162795      -0.003004
     16 O                    -0.318007       0.002234
     17 H                     0.249769      -0.000627
  --------------------------------------------------------
  Sum of atomic charges =     0.000000
  Sum of spin   charges =     1.000000

 -----------------------------------------------------------------
                    Cartesian Multipole Moments
 -----------------------------------------------------------------
    Charge (ESU x 10^10)
                 0.0000
    Dipole Moment (Debye)
         X      -1.0288      Y      -0.4501      Z       1.0256
       Tot       1.5208
    Quadrupole Moments (Debye-Ang)
        XX     -47.2556     XY      -0.8951     YY     -39.8955
        XZ       3.0617     YZ       0.1012     ZZ     -37.0323
    Octopole Moments (Debye-Ang^2)
       XXX      -1.7546    XXY      -2.2694    XYY       3.2376
       YYY       1.1809    XXZ      14.0522    XYZ       1.3942
       YYZ      -1.6180    XZZ      10.2070    YZZ       0.5891
       ZZZ       2.3969
    Hexadecapole Moments (Debye-Ang^3)
      XXXX    -849.9856   XXXY       6.7120   XXYY    -166.8622
      XYYY      -2.0826   YYYY    -234.1967   XXXZ      29.0965
      XXYZ       6.6043   XYYZ       4.2999   YYYZ      -3.7418
      XXZZ    -123.3977   XYZZ       2.4148   YYZZ     -56.0963
      XZZZ       5.7818   YZZZ       0.2708   ZZZZ     -86.0978
 -----------------------------------------------------------------
 Calculating analytic gradient of the SCF energy
 Gradient of Coulomb and Exchange Energy
            1           2           3           4           5           6
    1   3.9703951  -0.0046397   4.5265456   0.6301274   2.5209353   2.7076191
    2  -0.4841935   0.0260440  -2.7064264  -3.8498856  -0.0645730   3.6118154
    3   1.1893407   4.8959584  -0.1529407   1.7898482  -3.3968614  -0.4526225
            7           8           9          10          11          12
    1  -2.1023706   3.7394835   0.4269885  -1.4734621  -0.8121544   0.0933989
    2   3.3513263   1.5785220   0.8066233   0.4700921  -4.5583789  -0.5593084
    3   0.9911219   1.0674908  -3.9508628  -0.0429819   1.0818804  -4.5556981
           13          14          15          16          17
    1  -1.9386847  -0.1849056  -0.1272929 -10.6457337  -1.3262496
    2   0.4083039   0.5130599   4.1995636  -2.2644114  -0.4781734
    3   0.7350770   4.5519511  -1.3806698   1.8071247  -4.1771562
 Gradient of SCF Energy
            1           2           3           4           5           6
    1   0.0001584  -0.0001069  -0.0002567   0.0001172   0.0005836  -0.0001763
    2   0.0002411   0.0000936  -0.0002012  -0.0006408   0.0001568  -0.0002156
    3  -0.0000846   0.0008222  -0.0001658   0.0004586  -0.0004880   0.0001040
            7           8           9          10          11          12
    1  -0.0005322   0.0007628   0.0000535  -0.0004355  -0.0000207  -0.0001092
    2   0.0005762   0.0002070   0.0000298   0.0006618  -0.0007759   0.0000565
    3   0.0001777   0.0002932  -0.0008885  -0.0000744   0.0003511  -0.0008017
           13          14          15          16          17
    1   0.0014265  -0.0005834  -0.0000487  -0.0004604  -0.0003719
    2  -0.0028245   0.0012972   0.0012561   0.0002532  -0.0001715
    3  -0.0002244   0.0006413   0.0003532   0.0019434  -0.0024173
 Max gradient component =       2.824E-03
 RMS gradient           =       7.756E-04
 Gradient time:  CPU 25.83 s  wall 25.95 s
 Geometry Optimization Parameters
   NAtoms,    NIC,     NZ,  NCons,   NDum,   NFix, NCnnct, MaxDiis
       17     114      17       1       0       0       0       0

 Cartesian Hessian Update
 Hessian Updated using BFGS Update


** CONSTRAINED OPTIMIZATION IN DELOCALIZED INTERNAL COORDINATES **
   Searching for a Minimum

   Optimization Cycle:   3

                       Coordinates (Angstroms)
     ATOM                X               Y               Z
      1  C        -1.0790278205    0.0602053143   -0.3431346813
      2  H        -0.9998264475    0.0266324242   -1.4343428233
      3  C        -2.1244495401    1.0554414178    0.0222705207
      4  H        -2.1730386518    2.0081854477   -0.4820199446
      5  H        -2.6493269774    0.9592324195    0.9620878125
      6  C        -1.4531736626   -1.3325691637    0.1644308099
      7  H        -0.7451261784   -2.0918637584   -0.1612031393
      8  H        -2.4396712469   -1.6188813932   -0.1949912794
      9  H        -1.4771510245   -1.3406742215    1.2548141969
     10  C         0.2927307641    0.5157218237    0.1928820340
     11  H         0.4862371126    1.5379398309   -0.1331010921
     12  H         0.2558743465    0.5303426488    1.2861595596
     13  C         1.4553364522   -0.3503966200   -0.2744357042
     14  H         1.4451263932   -0.4026842581   -1.3628929776
     15  H         1.3664155413   -1.3649148785    0.1182049202
     16  O         2.7080738722    0.2062433606    0.0734243493
     17  H         2.7615027843    0.2712783190    1.0270927138
   Point Group: c1    Number of degrees of freedom:    45


   Energy is   -272.268689110

              Constraints and their Current Values
                                        Value     Constraint
   Dihedral:       14  13  16  17      180.000     -180.000
 GETINT wrote B to file, NVib is           45
 Hessian Updated using BFGS Update

 40 Hessian modes will be used to form the next step
  Hessian Eigenvalues:
     0.042095    0.045000    0.045001    0.045974    0.061079    0.067629
     0.072808    0.077845    0.078088    0.078496    0.082141    0.083581
     0.084945    0.105011    0.107462    0.134205    0.142927    0.159905
     0.160015    0.161174    0.180708    0.189464    0.219507    0.226329
     0.280905    0.291680    0.308233    0.329154    0.335487    0.336080
     0.339609    0.340569    0.341645    0.342473    0.342952    0.351193
     0.354035    0.362188    0.437359    0.552603

 Minimum Search - Taking Simple RFO Step
 Searching for Lamda that Minimizes Along All modes
 Value Taken    Lamda =  -0.00006918
 Step Taken.  Stepsize is  0.026229

                             Maximum     Tolerance    Cnvgd?
         Gradient           0.001852      0.000300      NO
         Displacement       0.012986      0.001200      NO
         Energy change     -0.000114      0.000001      NO


 New Cartesian Coordinates Obtained by Inverse Iteration

 Displacement from previous Coordinates is:  0.026955
 ----------------------------------------------------------------
             Standard Nuclear Orientation (Angstroms)
    I     Atom           X                Y                Z
 ----------------------------------------------------------------
    1      C      -1.0798836623     0.0607806509    -0.3429251208
    2      H      -1.0006009915     0.0275299321    -1.4352238043
    3      C      -2.1257369502     1.0570088202     0.0232903106
    4      H      -2.1757649823     2.0101227964    -0.4823255796
    5      H      -2.6542107860     0.9593098133     0.9620477792
    6      C      -1.4537238137    -1.3332047810     0.1651167964
    7      H      -0.7448828304    -2.0931780928    -0.1606629810
    8      H      -2.4412334558    -1.6198241300    -0.1945822677
    9      H      -1.4776885642    -1.3414046783     1.2566899860
   10      C       0.2932280535     0.5167131788     0.1928879646
   11      H       0.4858703824     1.5403576550    -0.1328670616
   12      H       0.2576390455     0.5298081957     1.2872769248
   13      C       1.4556623419    -0.3488703021    -0.2760330514
   14      H       1.4517667613    -0.4071263838    -1.3651540927
   15      H       1.3662105116    -1.3659778044     0.1136130828
   16      O       2.7108812559     0.2027050314     0.0743726139
   17      H       2.7629734010     0.2744888120     1.0297237757
 ----------------------------------------------------------------
 Molecular Point Group                 C1    NOp =  1
 Largest Abelian Subgroup              C1    NOp =  1
 Nuclear Repulsion Energy =   244.9581861434 hartrees
 There are       25 alpha and       24 beta electrons
 Applying Cartesian multipole field
    Component          Value
    ---------          -----
     (2,0,0)        1.00000E-11
     (0,2,0)        2.00000E-11
     (0,0,2)       -3.00000E-11
 Nucleus-field energy     =     0.0000000070 hartrees
 Requested basis set is non-standard
 There are 138 shells and 314 basis functions
 A cutoff of  1.0D-10 yielded   8858 shell pairs
 There are     45340 function pairs (     54344 Cartesian)
 Smallest overlap matrix eigenvalue = 1.47E-05
 Guess MOs from core Hamiltonian diagonalization
 An unrestricted hybrid HF-DFT SCF calculation will be
 performed using Pulay DIIS + Geometric Direct Minimization
 Exchange:     0.5400 Hartree-Fock + 1.0000 M062X
 SCF converges when RMS gradient is below 1.0E-05
 ---------------------------------------
  Cycle       Energy         DIIS Error
 ---------------------------------------
    1    -194.3645127678      9.21E-02
 Inaccurate integrated density:
   Number of electrons =    49
   Numerical integral  =    49.008734485135
   Relative error      =     0.0178254799 %
    2    -170.6290643794      4.54E-02
    3    -166.7967866746      6.82E-02
    4    -231.4479981788      3.95E-02
    5    -266.4454583903      2.05E-02
    6    -266.9267716556      1.43E-02
    7    -271.3032540373      7.17E-03 Done DIIS. Switching to GDM
    8    -272.1329903142      1.69E-01 Descent step
    9    -272.2555565279      7.22E-02 Normal BFGS step
   10    -272.2673352860      1.94E-02 Normal BFGS step
   11    -272.2684324253      3.48E-03 Normal BFGS step
   12    -272.2686956492      1.37E-03 Normal BFGS step
   13    -272.2687239393      3.99E-04 Normal BFGS step
   14    -272.2687279379      1.61E-04 Normal BFGS step
   15    -272.2687289841      7.76E-05 Normal BFGS step
   16    -272.2687291050      2.76E-05 Normal BFGS step
   17    -272.2687291243      1.25E-05 Normal BFGS step
   18    -272.2687291324      3.39E-06 Convergence criterion met
 ---------------------------------------
 <S^2> = 0.7551
 SCF time:  CPU 172.60 s  wall 175.87 s
 SCF   energy in the final basis set = -272.2687291324
 Total energy in the final basis set = -272.2687291324
 Analysis of SCF Wavefunction
 
 --------------------------------------------------------------
                    Orbital Energies (a.u.)
 --------------------------------------------------------------
 
 Alpha MOs
 -- Occupied --
-19.621 -10.581 -10.549 -10.542 -10.536 -10.528  -1.146  -0.922
 -0.824  -0.776  -0.717  -0.650  -0.587  -0.554  -0.522  -0.513
 -0.491  -0.468  -0.451  -0.424  -0.407  -0.404  -0.389  -0.351
 -0.263
 -- Virtual --
 -0.003   0.007   0.013   0.015   0.035   0.038   0.039   0.043
  0.050   0.069   0.070   0.086   0.102   0.106   0.107   0.115
  0.123   0.128   0.137   0.144   0.148   0.153   0.154   0.162
  0.165   0.167   0.180   0.184   0.187   0.200   0.208   0.210
  0.220   0.232   0.236   0.252   0.263   0.270   0.270   0.276
  0.291   0.306   0.319   0.320   0.334   0.342   0.355   0.361
  0.373   0.394   0.411   0.448   0.456   0.470   0.482   0.497
  0.519   0.545   0.553   0.566   0.566   0.583   0.585   0.595
  0.601   0.614   0.622   0.625   0.634   0.640   0.656   0.659
  0.663   0.684   0.701   0.711   0.715   0.725   0.741   0.757
  0.773   0.784   0.799   0.816   0.852   0.873   0.898   0.915
  0.926   0.943   0.967   0.996   1.025   1.031   1.057   1.070
  1.090   1.108   1.121   1.138   1.157   1.174   1.185   1.205
  1.214   1.220   1.224   1.252   1.259   1.279   1.288   1.298
  1.315   1.327   1.337   1.365   1.374   1.383   1.394   1.407
  1.421   1.440   1.463   1.475   1.483   1.493   1.505   1.512
  1.521   1.547   1.550   1.569   1.589   1.612   1.620   1.629
  1.666   1.680   1.682   1.710   1.747   1.768   1.813   1.829
  1.943   2.081   2.132   2.309   2.317   2.434   2.491   2.498
  2.537   2.598   2.626   2.629   2.672   2.690   2.709   2.731
  2.771   2.795   2.823   2.827   2.855   2.883   2.924   2.932
  2.951   2.960   2.983   2.990   3.009   3.016   3.040   3.061
  3.103   3.128   3.157   3.174   3.203   3.227   3.239   3.254
  3.269   3.272   3.303   3.325   3.330   3.372   3.385   3.409
  3.419   3.431   3.451   3.454   3.495   3.531   3.546   3.564
  3.599   3.619   3.647   3.657   3.666   3.724   3.729   3.735
  3.750   3.777   3.805   3.824   3.849   3.863   3.885   3.893
  3.924   3.971   3.977   4.017   4.019   4.048   4.056   4.071
  4.090   4.095   4.151   4.152   4.173   4.184   4.209   4.225
  4.239   4.258   4.260   4.288   4.310   4.354   4.373   4.385
  4.405   4.422   4.449   4.456   4.517   4.541   4.550   4.569
  4.592   4.629   4.643   4.704   4.716   4.753   4.803   4.936
  4.945   5.096   5.222   5.246   5.271   5.310   5.395   5.438
  5.476   5.502   5.525   5.537   5.588   5.612   5.623   5.668
  5.692   5.710   5.855   5.958   6.531   6.982   7.202   7.210
  7.245   7.519   7.645  24.225  24.359  24.385  24.481  24.508
 50.145
 
 Beta MOs
 -- Occupied --
-19.621 -10.581 -10.550 -10.535 -10.535 -10.528  -1.145  -0.915
 -0.819  -0.760  -0.706  -0.641  -0.586  -0.549  -0.518  -0.506
 -0.488  -0.465  -0.447  -0.419  -0.402  -0.399  -0.387  -0.347
 -- Virtual --
 -0.032  -0.003   0.010   0.014   0.017   0.038   0.041   0.044
  0.047   0.054   0.069   0.073   0.086   0.097   0.105   0.106
  0.116   0.117   0.125   0.137   0.144   0.148   0.151   0.153
  0.161   0.162   0.166   0.177   0.180   0.184   0.199   0.208
  0.209   0.221   0.232   0.239   0.251   0.264   0.269   0.273
  0.276   0.293   0.306   0.322   0.325   0.336   0.340   0.359
  0.361   0.373   0.393   0.412   0.448   0.457   0.471   0.481
  0.498   0.519   0.550   0.556   0.568   0.571   0.584   0.587
  0.597   0.604   0.615   0.629   0.631   0.636   0.646   0.659
  0.662   0.668   0.684   0.706   0.712   0.717   0.721   0.744
  0.757   0.774   0.781   0.798   0.815   0.850   0.875   0.898
  0.915   0.924   0.942   0.963   0.993   1.025   1.031   1.054
  1.066   1.092   1.109   1.122   1.139   1.159   1.175   1.186
  1.205   1.215   1.221   1.226   1.252   1.261   1.280   1.288
  1.299   1.318   1.326   1.340   1.366   1.379   1.384   1.397
  1.409   1.422   1.442   1.463   1.478   1.485   1.495   1.507
  1.515   1.522   1.548   1.552   1.585   1.594   1.613   1.621
  1.630   1.669   1.682   1.683   1.712   1.753   1.771   1.814
  1.831   1.943   2.081   2.133   2.309   2.318   2.438   2.494
  2.504   2.542   2.602   2.628   2.644   2.685   2.697   2.719
  2.742   2.779   2.805   2.832   2.848   2.873   2.899   2.936
  2.939   2.966   2.974   3.000   3.005   3.020   3.038   3.074
  3.096   3.123   3.137   3.167   3.184   3.210   3.237   3.259
  3.274   3.288   3.300   3.324   3.335   3.343   3.382   3.400
  3.424   3.447   3.451   3.465   3.473   3.519   3.544   3.555
  3.570   3.624   3.626   3.658   3.677   3.683   3.726   3.738
  3.741   3.761   3.782   3.811   3.831   3.856   3.873   3.895
  3.899   3.934   3.974   3.982   4.019   4.031   4.054   4.061
  4.083   4.103   4.113   4.154   4.166   4.188   4.201   4.218
  4.243   4.253   4.267   4.276   4.314   4.319   4.361   4.381
  4.390   4.417   4.432   4.456   4.463   4.520   4.547   4.554
  4.585   4.595   4.637   4.650   4.710   4.721   4.757   4.806
  4.958   4.980   5.128   5.228   5.247   5.276   5.320   5.394
  5.438   5.498   5.511   5.527   5.589   5.604   5.614   5.652
  5.673   5.699   5.720   5.855   5.958   6.532   6.982   7.202
  7.210   7.246   7.519   7.646  24.232  24.359  24.391  24.483
 24.511  50.145
 --------------------------------------------------------------
 
          Ground-State Mulliken Net Atomic Charges

     Atom                 Charge (a.u.)    Spin (a.u.)
  --------------------------------------------------------
      1 C                     0.054541      -0.040301
      2 H                     0.176504       0.016416
      3 C                    -0.501323       1.042209
      4 H                     0.177264      -0.036996
      5 H                     0.169069      -0.033512
      6 C                    -0.533787       0.035384
      7 H                     0.138878       0.001610
      8 H                     0.152473      -0.007291
      9 H                     0.154429      -0.003199
     10 C                    -0.294017       0.021375
     11 H                     0.185088      -0.005947
     12 H                     0.169489       0.006298
     13 C                    -0.310058       0.005432
     14 H                     0.167409      -0.000078
     15 H                     0.162913      -0.003006
     16 O                    -0.319145       0.002234
     17 H                     0.250273      -0.000627
  --------------------------------------------------------
  Sum of atomic charges =     0.000000
  Sum of spin   charges =     1.000000

 -----------------------------------------------------------------
                    Cartesian Multipole Moments
 -----------------------------------------------------------------
    Charge (ESU x 10^10)
                 0.0000
    Dipole Moment (Debye)
         X      -1.0415      Y      -0.4381      Z       1.0221
       Tot       1.5236
    Quadrupole Moments (Debye-Ang)
        XX     -47.2775     XY      -0.8653     YY     -39.8984
        XZ       3.0535     YZ       0.1211     ZZ     -37.0343
    Octopole Moments (Debye-Ang^2)
       XXX      -1.9823    XXY      -2.1545    XYY       3.2403
       YYY       1.1868    XXZ      14.0311    XYZ       1.4582
       YYZ      -1.6478    XZZ      10.2306    YZZ       0.5863
       ZZZ       2.3863
    Hexadecapole Moments (Debye-Ang^3)
      XXXX    -851.6287   XXXY       7.1048   XXYY    -167.0989
      XYYY      -1.8986   YYYY    -234.5361   XXXZ      29.1042
      XXYZ       6.7189   XYYZ       4.3317   YYYZ      -3.7692
      XXZZ    -123.5474   XYZZ       2.4886   YYZZ     -56.1848
      XZZZ       5.8683   YZZZ       0.2840   ZZZZ     -86.2242
 -----------------------------------------------------------------
 Calculating analytic gradient of the SCF energy
 Gradient of Coulomb and Exchange Energy
            1           2           3           4           5           6
    1   3.9867781  -0.0075603   4.5065849   0.6336012   2.5299823   2.7005136
    2  -0.4858200   0.0243117  -2.7151395  -3.8467430  -0.0579159   3.6208507
    3   1.1907510   4.8898087  -0.1619118   1.7923143  -3.3885042  -0.4587835
            7           8           9          10          11          12
    1  -2.1035813   3.7376597   0.4270318  -1.4811316  -0.8120687   0.0936067
    2   3.3497405   1.5760783   0.8052816   0.4487045  -4.5573274  -0.5514314
    3   0.9906064   1.0672677  -3.9503413  -0.0657827   1.0818991  -4.5568168
           13          14          15          16          17
    1  -1.8739232  -0.2268712  -0.1357121 -10.6552657  -1.3196444
    2   0.3245238   0.5635040   4.1984161  -2.1889328  -0.5081012
    3   0.7543899   4.5434923  -1.3437563   1.7888752  -4.1735080
 Gradient of SCF Energy
            1           2           3           4           5           6
    1   0.0000849  -0.0000139  -0.0002846   0.0000218   0.0001793  -0.0000497
    2   0.0001569   0.0000988  -0.0002009   0.0000034   0.0001297  -0.0002090
    3  -0.0000763   0.0001155  -0.0001557   0.0000924   0.0000897  -0.0000232
            7           8           9          10          11          12
    1  -0.0000878   0.0001182   0.0000358  -0.0004126   0.0001194  -0.0001275
    2   0.0000598   0.0000339  -0.0000117   0.0002907  -0.0001310   0.0000538
    3   0.0000080   0.0000572  -0.0001004   0.0002608   0.0000697  -0.0000795
           13          14          15          16          17
    1   0.0003984  -0.0000282   0.0001368  -0.0001471   0.0000567
    2  -0.0009923   0.0003420   0.0004262  -0.0001726   0.0001224
    3  -0.0004120   0.0001311   0.0001518   0.0001548  -0.0002838
 Max gradient component =       9.923E-04
 RMS gradient           =       2.254E-04
 Gradient time:  CPU 25.69 s  wall 25.85 s
 Geometry Optimization Parameters
   NAtoms,    NIC,     NZ,  NCons,   NDum,   NFix, NCnnct, MaxDiis
       17     114      17       1       0       0       0       0

 Cartesian Hessian Update
 Hessian Updated using BFGS Update


** CONSTRAINED OPTIMIZATION IN DELOCALIZED INTERNAL COORDINATES **
   Searching for a Minimum

   Optimization Cycle:   4

                       Coordinates (Angstroms)
     ATOM                X               Y               Z
      1  C        -1.0798836623    0.0607806509   -0.3429251208
      2  H        -1.0006009915    0.0275299321   -1.4352238043
      3  C        -2.1257369502    1.0570088202    0.0232903106
      4  H        -2.1757649823    2.0101227964   -0.4823255796
      5  H        -2.6542107860    0.9593098133    0.9620477792
      6  C        -1.4537238137   -1.3332047810    0.1651167964
      7  H        -0.7448828304   -2.0931780928   -0.1606629810
      8  H        -2.4412334558   -1.6198241300   -0.1945822677
      9  H        -1.4776885642   -1.3414046783    1.2566899860
     10  C         0.2932280535    0.5167131788    0.1928879646
     11  H         0.4858703824    1.5403576550   -0.1328670616
     12  H         0.2576390455    0.5298081957    1.2872769248
     13  C         1.4556623419   -0.3488703021   -0.2760330514
     14  H         1.4517667613   -0.4071263838   -1.3651540927
     15  H         1.3662105116   -1.3659778044    0.1136130828
     16  O         2.7108812559    0.2027050314    0.0743726139
     17  H         2.7629734010    0.2744888120    1.0297237757
   Point Group: c1    Number of degrees of freedom:    45


   Energy is   -272.268729132

              Constraints and their Current Values
                                        Value     Constraint
   Dihedral:       14  13  16  17      180.000     -180.000
 GETINT wrote B to file, NVib is           45
 Hessian Updated using BFGS Update

 42 Hessian modes will be used to form the next step
  Hessian Eigenvalues:
     0.034497    0.045000    0.045001    0.045005    0.045980    0.060332
     0.067784    0.072830    0.077718    0.077888    0.078321    0.082137
     0.083581    0.084948    0.105145    0.109529    0.134545    0.143071
     0.159867    0.159970    0.160112    0.163096    0.180745    0.189428
     0.219347    0.227008    0.281178    0.293164    0.319701    0.330591
     0.334871    0.336003    0.339503    0.340621    0.341694    0.342091
     0.342920    0.345775    0.353590    0.360213    0.434126    0.547185

 Minimum Search - Taking Simple RFO Step
 Searching for Lamda that Minimizes Along All modes
 Value Taken    Lamda =  -0.00000782
 Step Taken.  Stepsize is  0.012796

                             Maximum     Tolerance    Cnvgd?
         Gradient           0.000380      0.000300      NO
         Displacement       0.005506      0.001200      NO
         Energy change     -0.000040      0.000001      NO


 New Cartesian Coordinates Obtained by Inverse Iteration

 Displacement from previous Coordinates is:  0.013443
 ----------------------------------------------------------------
             Standard Nuclear Orientation (Angstroms)
    I     Atom           X                Y                Z
 ----------------------------------------------------------------
    1      C      -1.0794706981     0.0608094729    -0.3427156418
    2      H      -1.0003519469     0.0272782637    -1.4352373910
    3      C      -2.1250601507     1.0572609427     0.0237451599
    4      H      -2.1760243396     2.0100466644    -0.4825718765
    5      H      -2.6560442726     0.9581177580     0.9610463273
    6      C      -1.4533983548    -1.3328059808     0.1659649622
    7      H      -0.7444344346    -2.0930692299    -0.1595243533
    8      H      -2.4412048281    -1.6194867011    -0.1936412078
    9      H      -1.4773762810    -1.3404657810     1.2577528335
   10      C       0.2939514098     0.5169185998     0.1924458978
   11      H       0.4855120576     1.5411507054    -0.1329194623
   12      H       0.2595652471     0.5289045812     1.2870415977
   13      C       1.4554763594    -0.3478017772    -0.2769901190
   14      H       1.4531790969    -0.4071685746    -1.3663597560
   15      H       1.3649661660    -1.3664384893     0.1102045317
   16      O       2.7110524397     0.2019916767     0.0755848958
   17      H       2.7601682468     0.2739965824     1.0314188769
 ----------------------------------------------------------------
 Molecular Point Group                 C1    NOp =  1
 Largest Abelian Subgroup              C1    NOp =  1
 Nuclear Repulsion Energy =   244.9649629956 hartrees
 There are       25 alpha and       24 beta electrons
 Applying Cartesian multipole field
    Component          Value
    ---------          -----
     (2,0,0)        1.00000E-11
     (0,2,0)        2.00000E-11
     (0,0,2)       -3.00000E-11
 Nucleus-field energy     =     0.0000000070 hartrees
 Requested basis set is non-standard
 There are 138 shells and 314 basis functions
 A cutoff of  1.0D-10 yielded   8858 shell pairs
 There are     45340 function pairs (     54344 Cartesian)
 Smallest overlap matrix eigenvalue = 1.47E-05
 Guess MOs from core Hamiltonian diagonalization
 An unrestricted hybrid HF-DFT SCF calculation will be
 performed using Pulay DIIS + Geometric Direct Minimization
 Exchange:     0.5400 Hartree-Fock + 1.0000 M062X
 SCF converges when RMS gradient is below 1.0E-05
 ---------------------------------------
  Cycle       Energy         DIIS Error
 ---------------------------------------
    1    -194.3527930956      9.21E-02
 Inaccurate integrated density:
   Number of electrons =    49
   Numerical integral  =    49.008770521988
   Relative error      =     0.0178990245 %
    2    -170.6196183850      4.54E-02
    3    -166.8015860257      6.82E-02
    4    -231.4410441908      3.95E-02
    5    -266.4460889248      2.05E-02
    6    -266.9269311021      1.43E-02
    7    -271.3024268910      7.17E-03 Done DIIS. Switching to GDM
    8    -272.1330148476      1.69E-01 Descent step
    9    -272.2555759805      7.21E-02 Normal BFGS step
   10    -272.2673434525      1.94E-02 Normal BFGS step
   11    -272.2684386378      3.47E-03 Normal BFGS step
   12    -272.2687009670      1.37E-03 Normal BFGS step
   13    -272.2687291808      3.97E-04 Normal BFGS step
   14    -272.2687331695      1.60E-04 Normal BFGS step
   15    -272.2687342147      7.72E-05 Normal BFGS step
   16    -272.2687343350      2.74E-05 Normal BFGS step
   17    -272.2687343544      1.24E-05 Normal BFGS step
   18    -272.2687343625      3.37E-06 Convergence criterion met
 ---------------------------------------
 <S^2> = 0.7551
 SCF time:  CPU 172.28 s  wall 175.99 s
 SCF   energy in the final basis set = -272.2687343625
 Total energy in the final basis set = -272.2687343625
 Analysis of SCF Wavefunction
 
 --------------------------------------------------------------
                    Orbital Energies (a.u.)
 --------------------------------------------------------------
 
 Alpha MOs
 -- Occupied --
-19.621 -10.581 -10.549 -10.542 -10.536 -10.528  -1.146  -0.922
 -0.825  -0.776  -0.717  -0.650  -0.586  -0.554  -0.522  -0.513
 -0.492  -0.468  -0.451  -0.424  -0.407  -0.404  -0.389  -0.351
 -0.263
 -- Virtual --
 -0.003   0.007   0.013   0.015   0.035   0.038   0.039   0.043
  0.050   0.069   0.070   0.086   0.102   0.106   0.107   0.115
  0.123   0.128   0.137   0.144   0.148   0.153   0.154   0.162
  0.165   0.167   0.179   0.184   0.187   0.200   0.208   0.210
  0.220   0.232   0.236   0.252   0.262   0.270   0.270   0.276
  0.291   0.306   0.319   0.320   0.334   0.342   0.355   0.360
  0.373   0.394   0.411   0.448   0.456   0.470   0.482   0.497
  0.519   0.545   0.553   0.566   0.566   0.582   0.585   0.595
  0.601   0.614   0.622   0.625   0.634   0.640   0.656   0.659
  0.663   0.684   0.701   0.711   0.715   0.725   0.741   0.757
  0.773   0.784   0.800   0.816   0.852   0.873   0.898   0.915
  0.926   0.943   0.967   0.996   1.025   1.031   1.057   1.070
  1.090   1.108   1.121   1.138   1.157   1.174   1.185   1.205
  1.214   1.220   1.224   1.252   1.259   1.278   1.288   1.298
  1.315   1.328   1.337   1.365   1.374   1.383   1.393   1.407
  1.422   1.440   1.462   1.474   1.483   1.493   1.505   1.512
  1.521   1.547   1.550   1.569   1.589   1.612   1.620   1.629
  1.667   1.680   1.682   1.709   1.747   1.768   1.813   1.830
  1.942   2.081   2.132   2.309   2.317   2.434   2.491   2.498
  2.536   2.598   2.626   2.629   2.672   2.690   2.709   2.731
  2.771   2.794   2.824   2.827   2.855   2.883   2.923   2.932
  2.952   2.960   2.983   2.991   3.009   3.016   3.040   3.061
  3.103   3.128   3.157   3.174   3.203   3.227   3.239   3.254
  3.269   3.271   3.303   3.325   3.330   3.372   3.384   3.409
  3.419   3.431   3.451   3.455   3.495   3.531   3.546   3.564
  3.600   3.619   3.647   3.656   3.666   3.724   3.729   3.735
[...]
 Step Taken.  Stepsize is  0.004980

                             Maximum     Tolerance    Cnvgd?
         Gradient           0.000090      0.000300     YES
         Displacement       0.002334      0.001200      NO
         Energy change     -0.000004      0.000001      NO


 New Cartesian Coordinates Obtained by Inverse Iteration

 Displacement from previous Coordinates is:  0.008237
 ----------------------------------------------------------------
             Standard Nuclear Orientation (Angstroms)
    I     Atom           X                Y                Z
 ----------------------------------------------------------------
    1      C      -1.0637943799     0.0469443213    -0.3572497502
    2      H      -0.9762451947    -0.0898022924    -1.4436066468
    3      C      -2.0975005781     1.0880514194    -0.0935607502
    4      H      -2.0256262839     2.0655395306    -0.5475386644
    5      H      -2.8750786080     0.9200824330     0.6373400811
    6      C      -1.4665068489    -1.2882560707     0.2689485735
    7      H      -0.7717118457    -2.0875760915     0.0172325518
    8      H      -2.4579301017    -1.5870858285    -0.0713328693
    9      H      -1.4970057404    -1.1978705452     1.3571017340
   10      C       0.3130429062     0.5286130677     0.1380571722
   11      H       0.5332035192     1.5036081303    -0.3000542198
   12      H       0.2662360870     0.6677800402     1.2239458815
   13      C       1.4558939036    -0.4135634389    -0.2111179419
   14      H       1.4519347590    -0.6143466976    -1.2837174356
   15      H       1.3461832585    -1.3719222329     0.3037122790
   16      O       2.7224115442     0.1521632774     0.0694938152
   17      H       2.7729993207     0.3468796914     1.0075914648
 ----------------------------------------------------------------
 Molecular Point Group                 C1    NOp =  1
 Largest Abelian Subgroup              C1    NOp =  1
 Nuclear Repulsion Energy =   245.0388019985 hartrees
 There are       25 alpha and       24 beta electrons
 Applying Cartesian multipole field
    Component          Value
    ---------          -----
     (2,0,0)        1.00000E-11
     (0,2,0)        2.00000E-11
     (0,0,2)       -3.00000E-11
 Nucleus-field energy     =     0.0000000071 hartrees
 Requested basis set is non-standard
 There are 138 shells and 314 basis functions
 A cutoff of  1.0D-10 yielded   8855 shell pairs
 There are     45323 function pairs (     54324 Cartesian)
 Smallest overlap matrix eigenvalue = 1.48E-05
 Guess MOs from core Hamiltonian diagonalization
 An unrestricted hybrid HF-DFT SCF calculation will be
 performed using Pulay DIIS + Geometric Direct Minimization
 Exchange:     0.5400 Hartree-Fock + 1.0000 M062X
 SCF converges when RMS gradient is below 1.0E-05
 ---------------------------------------
  Cycle       Energy         DIIS Error
 ---------------------------------------
    1    -194.2836618556      9.21E-02
    2    -169.7620129791      4.57E-02
    3    -167.0656170761      6.81E-02
    4    -231.9778589972      3.95E-02
    5    -266.3589684325      2.06E-02
    6    -267.3977147847      1.37E-02
    7    -271.1895513729      7.40E-03 Done DIIS. Switching to GDM
    8    -272.1252876630      1.92E-01 Descent step
    9    -272.2546994032      8.34E-02 Normal BFGS step
   10    -272.2673805076      2.28E-02 Normal BFGS step
   11    -272.2685687269      5.06E-03 Normal BFGS step
   12    -272.2689351532      1.79E-03 Normal BFGS step
   13    -272.2689650224      4.44E-04 Normal BFGS step
   14    -272.2689732193      1.57E-04 Normal BFGS step
   15    -272.2689745020      1.33E-04 Normal BFGS step
   16    -272.2689746696      2.54E-05 Normal BFGS step
   17    -272.2689746842      1.56E-05 Normal BFGS step
   18    -272.2689746907      3.86E-06 Convergence criterion met
 ---------------------------------------
 <S^2> = 0.7552
 SCF time:  CPU 173.00 s  wall 175.93 s
 SCF   energy in the final basis set = -272.2689746907
 Total energy in the final basis set = -272.2689746907
 Analysis of SCF Wavefunction
 
 --------------------------------------------------------------
                    Orbital Energies (a.u.)
 --------------------------------------------------------------
 
 Alpha MOs
 -- Occupied --
-19.621 -10.581 -10.550 -10.542 -10.535 -10.529  -1.145  -0.923
 -0.825  -0.776  -0.718  -0.650  -0.586  -0.552  -0.524  -0.515
 -0.491  -0.469  -0.447  -0.425  -0.410  -0.403  -0.388  -0.350
 -0.261
 -- Virtual --
 -0.003   0.007   0.013   0.014   0.034   0.038   0.040   0.044
  0.051   0.068   0.071   0.086   0.102   0.105   0.110   0.115
  0.123   0.128   0.136   0.144   0.149   0.151   0.153   0.161
  0.167   0.168   0.180   0.184   0.186   0.199   0.210   0.214
  0.220   0.227   0.237   0.250   0.258   0.269   0.272   0.279
  0.289   0.312   0.320   0.324   0.331   0.341   0.358   0.362
  0.373   0.387   0.411   0.442   0.459   0.473   0.480   0.496
  0.521   0.537   0.551   0.564   0.574   0.579   0.587   0.596
  0.600   0.612   0.615   0.624   0.634   0.641   0.658   0.659
  0.668   0.686   0.694   0.715   0.725   0.727   0.735   0.763
  0.778   0.786   0.802   0.809   0.853   0.870   0.905   0.910
  0.931   0.940   0.969   0.997   1.026   1.027   1.054   1.065
  1.086   1.105   1.114   1.131   1.163   1.175   1.190   1.203
  1.205   1.221   1.229   1.243   1.263   1.278   1.288   1.307
  1.313   1.330   1.344   1.354   1.375   1.388   1.400   1.414
  1.425   1.437   1.466   1.474   1.483   1.496   1.510   1.517
  1.526   1.539   1.549   1.573   1.583   1.613   1.622   1.635
  1.667   1.673   1.683   1.713   1.742   1.769   1.800   1.848
  1.943   2.080   2.129   2.308   2.317   2.439   2.479   2.489
  2.524   2.599   2.631   2.652   2.675   2.679   2.720   2.735
  2.765   2.780   2.821   2.842   2.847   2.881   2.910   2.930
  2.951   2.969   2.980   2.998   2.999   3.023   3.049   3.081
  3.107   3.126   3.167   3.179   3.203   3.225   3.229   3.242
  3.268   3.274   3.295   3.324   3.349   3.373   3.387   3.400
  3.409   3.434   3.458   3.471   3.490   3.535   3.559   3.566
  3.597   3.623   3.631   3.649   3.661   3.714   3.725   3.735
  3.753   3.781   3.812   3.814   3.841   3.852   3.882   3.887
  3.919   3.971   3.974   4.022   4.031   4.041   4.057   4.066
  4.087   4.116   4.152   4.168   4.177   4.194   4.213   4.220
  4.224   4.254   4.270   4.277   4.314   4.366   4.375   4.385
  4.405   4.417   4.451   4.456   4.517   4.541   4.552   4.570
  4.590   4.625   4.637   4.698   4.720   4.747   4.804   4.934
  4.995   5.098   5.226   5.246   5.271   5.307   5.395   5.437
  5.492   5.501   5.525   5.533   5.589   5.612   5.623   5.660
  5.693   5.711   5.857   5.957   6.533   6.982   7.203   7.209
  7.245   7.518   7.647  24.241  24.363  24.376  24.485  24.509
 50.146
 
 Beta MOs
 -- Occupied --
-19.621 -10.581 -10.550 -10.535 -10.534 -10.528  -1.145  -0.915
 -0.819  -0.760  -0.706  -0.640  -0.586  -0.547  -0.518  -0.510
 -0.488  -0.467  -0.444  -0.420  -0.403  -0.399  -0.386  -0.347
 -- Virtual --
 -0.031  -0.002   0.009   0.015   0.016   0.038   0.042   0.043
  0.047   0.057   0.069   0.074   0.084   0.095   0.106   0.109
  0.115   0.117   0.126   0.136   0.144   0.149   0.151   0.152
  0.159   0.162   0.167   0.175   0.177   0.186   0.197   0.208
  0.211   0.221   0.228   0.240   0.249   0.259   0.268   0.276
  0.279   0.291   0.313   0.323   0.326   0.332   0.340   0.360
  0.364   0.374   0.387   0.411   0.444   0.459   0.473   0.481
  0.498   0.522   0.542   0.553   0.565   0.577   0.581   0.590
  0.599   0.606   0.617   0.617   0.628   0.635   0.647   0.659
  0.661   0.674   0.684   0.698   0.716   0.723   0.728   0.738
  0.762   0.777   0.784   0.799   0.809   0.852   0.869   0.901
  0.911   0.931   0.938   0.967   0.986   1.025   1.027   1.050
  1.065   1.090   1.104   1.116   1.131   1.165   1.175   1.191
  1.203   1.206   1.222   1.230   1.245   1.263   1.278   1.290
  1.308   1.316   1.329   1.343   1.355   1.381   1.392   1.400
  1.416   1.426   1.439   1.470   1.476   1.484   1.497   1.512
  1.520   1.528   1.545   1.550   1.584   1.585   1.614   1.624
  1.636   1.671   1.675   1.683   1.717   1.747   1.771   1.802
  1.850   1.943   2.081   2.130   2.309   2.318   2.442   2.485
  2.491   2.527   2.604   2.633   2.664   2.687   2.693   2.725
  2.740   2.770   2.800   2.840   2.850   2.869   2.891   2.923
  2.937   2.965   2.981   3.002   3.003   3.031   3.043   3.073
  3.110   3.122   3.142   3.173   3.195   3.210   3.232   3.249
  3.270   3.281   3.293   3.315   3.337   3.362   3.387   3.398
  3.411   3.428   3.456   3.472   3.498   3.509   3.546   3.564
  3.581   3.620   3.631   3.650   3.665   3.671   3.720   3.727
  3.739   3.767   3.787   3.812   3.825   3.851   3.862   3.886
  3.894   3.925   3.973   3.978   4.026   4.039   4.049   4.063
  4.079   4.101   4.125   4.155   4.174   4.184   4.210   4.226
  4.235   4.238   4.266   4.285   4.295   4.320   4.368   4.382
  4.397   4.417   4.426   4.459   4.462   4.521   4.548   4.556
  4.581   4.593   4.635   4.647   4.701   4.723   4.750   4.807
  4.957   5.024   5.129   5.232   5.248   5.277   5.319   5.395
  5.438   5.502   5.512   5.525   5.590   5.602   5.615   5.657
  5.667   5.698   5.720   5.857   5.957   6.533   6.983   7.203
  7.209   7.245   7.518   7.647  24.248  24.364  24.382  24.487
 24.512  50.145
 --------------------------------------------------------------
 
          Ground-State Mulliken Net Atomic Charges

     Atom                 Charge (a.u.)    Spin (a.u.)
  --------------------------------------------------------
      1 C                     0.139804      -0.034052
      2 H                     0.174634       0.028362
      3 C                    -0.554738       1.036540
      4 H                     0.181330      -0.034899
      5 H                     0.187235      -0.036159
      6 C                    -0.601910       0.020153
      7 H                     0.143483      -0.000259
      8 H                     0.153676      -0.003658
      9 H                     0.158914      -0.002199
     10 C                    -0.278475       0.025888
     11 H                     0.184083      -0.004980
     12 H                     0.166910       0.004603
     13 C                    -0.313399       0.003408
     14 H                     0.166440      -0.000514
     15 H                     0.163013      -0.003252
     16 O                    -0.321338       0.001576
     17 H                     0.250339      -0.000557
  --------------------------------------------------------
  Sum of atomic charges =     0.000000
  Sum of spin   charges =     1.000000

 -----------------------------------------------------------------
                    Cartesian Multipole Moments
 -----------------------------------------------------------------
    Charge (ESU x 10^10)
                 0.0000
    Dipole Moment (Debye)
         X      -1.1575      Y      -0.3354      Z       1.0173
       Tot       1.5771
    Quadrupole Moments (Debye-Ang)
        XX     -46.6268     XY      -0.0714     YY     -39.7566
        XZ       3.1027     YZ       0.3020     ZZ     -37.5708
    Octopole Moments (Debye-Ang^2)
       XXX      -7.1125    XXY      -0.3564    XYY       3.9098
       YYY       1.7959    XXZ      14.6526    XYZ       2.0954
       YYZ      -1.5788    XZZ      10.7752    YZZ       0.4619
       ZZZ       2.4621
    Hexadecapole Moments (Debye-Ang^3)
      XXXX    -837.8388   XXXY      17.3658   XXYY    -167.4983
      XYYY       4.0952   YYYY    -233.1795   XXXZ      22.7907
      XXYZ      11.0815   XYYZ       3.5118   YYYZ       2.3892
      XXZZ    -127.5791   XYZZ       5.3646   YYZZ     -55.9820
      XZZZ       2.8019   YZZZ       7.9198   ZZZZ     -86.2496
 -----------------------------------------------------------------
 Calculating analytic gradient of the SCF energy
 Gradient of Coulomb and Exchange Energy
            1           2           3           4           5           6
    1   4.3565938  -0.0246058   3.9046097   0.1845748   3.3575776   2.6007001
    2  -0.5297584   0.4591383  -3.1556628  -3.9652811   0.2655566   3.4732247
    3   0.9772462   4.7772150   0.1949545   1.5961633  -2.5739593  -0.6669241
            7           8           9          10          11          12
    1  -2.0831792   3.7457144   0.4793995  -1.5789564  -0.9324139   0.0958369
    2   3.4732925   1.5795896   0.4364868   0.5325124  -4.4042770  -1.0589411
    3   0.6559613   0.9377089  -3.9896378  -0.0671374   1.5737756  -4.4561684
           13          14          15          16          17
    1  -1.8103765  -0.2285667  -0.0310773 -10.7217571  -1.3140740
    2   0.4514912   1.1670000   4.0049910  -1.7101559  -1.0192071
    3   0.5633105   4.4122496  -1.8477808   1.9869247  -4.0739018
 Gradient of SCF Energy
            1           2           3           4           5           6
    1  -0.0000198  -0.0000015   0.0000173   0.0000030   0.0000300   0.0000155
    2  -0.0000410   0.0000615   0.0000195   0.0000086   0.0000428   0.0000128
    3   0.0000341  -0.0000043   0.0000394  -0.0000139   0.0000385  -0.0000143
            7           8           9          10          11          12
    1  -0.0000438  -0.0000335   0.0000194  -0.0000345   0.0000393   0.0000003
    2  -0.0000035   0.0000428   0.0000106   0.0000202  -0.0000316   0.0000569
    3  -0.0000166   0.0000454   0.0000177   0.0000053  -0.0000327  -0.0000071
           13          14          15          16          17
    1   0.0000889  -0.0000294  -0.0000150  -0.0000232  -0.0000131
    2  -0.0002019   0.0001010   0.0000126  -0.0001753   0.0000641
    3   0.0000488  -0.0000392  -0.0000114  -0.0000226  -0.0000669
 Max gradient component =       2.019E-04
 RMS gradient           =       5.156E-05
 Gradient time:  CPU 25.86 s  wall 25.85 s
 Geometry Optimization Parameters
   NAtoms,    NIC,     NZ,  NCons,   NDum,   NFix, NCnnct, MaxDiis
       17     114      17       1       0       0       0       0

 Cartesian Hessian Update
 Hessian Updated using BFGS Update


** CONSTRAINED OPTIMIZATION IN DELOCALIZED INTERNAL COORDINATES **
   Searching for a Minimum

   Optimization Cycle:   7

                       Coordinates (Angstroms)
     ATOM                X               Y               Z
      1  C        -1.0637943799    0.0469443213   -0.3572497502
      2  H        -0.9762451947   -0.0898022924   -1.4436066468
      3  C        -2.0975005781    1.0880514194   -0.0935607502
      4  H        -2.0256262839    2.0655395306   -0.5475386644
      5  H        -2.8750786080    0.9200824330    0.6373400811
      6  C        -1.4665068489   -1.2882560707    0.2689485735
      7  H        -0.7717118457   -2.0875760915    0.0172325518
      8  H        -2.4579301017   -1.5870858285   -0.0713328693
      9  H        -1.4970057404   -1.1978705452    1.3571017340
     10  C         0.3130429062    0.5286130677    0.1380571722
     11  H         0.5332035192    1.5036081303   -0.3000542198
     12  H         0.2662360870    0.6677800402    1.2239458815
     13  C         1.4558939036   -0.4135634389   -0.2111179419
     14  H         1.4519347590   -0.6143466976   -1.2837174356
     15  H         1.3461832585   -1.3719222329    0.3037122790
     16  O         2.7224115442    0.1521632774    0.0694938152
     17  H         2.7729993207    0.3468796914    1.0075914648
   Point Group: c1    Number of degrees of freedom:    45


   Energy is   -272.268974691

              Constraints and their Current Values
                                        Value     Constraint
   Dihedral:       14  13  16  17      180.000      180.000
 GETINT wrote B to file, NVib is           45
 Hessian Updated using BFGS Update

 44 Hessian modes will be used to form the next step
  Hessian Eigenvalues:
     0.015928    0.044846    0.045002    0.045019    0.045238    0.048565
     0.067870    0.072489    0.077878    0.078164    0.078349    0.082080
     0.083799    0.085027    0.105591    0.121566    0.134701    0.143150
     0.159775    0.160000    0.160000    0.160018    0.160130    0.167567
     0.181127    0.192574    0.223127    0.240197    0.291054    0.297463
     0.320841    0.333767    0.338786    0.341610    0.345585    0.345636
     0.346445    0.348258    0.349422    0.350284    0.359653    0.359765
     0.459517    0.562853

 Minimum Search - Taking Simple RFO Step
 Searching for Lamda that Minimizes Along All modes
 Value Taken    Lamda =   0.00000000
 Step Taken.  Stepsize is  0.006408

                             Maximum     Tolerance    Cnvgd?
         Gradient           0.000054      0.000300     YES
         Displacement       0.003118      0.001200      NO
         Energy change     -0.000001      0.000001     YES

 Final energy is   -272.268974690660     


 ******************************
 **  OPTIMIZATION CONVERGED  **
 ******************************

Z-matrix Print:
$molecule
0 2
C 
H  1 1.098424
C  1 1.490632 2 108.492277
H  3 1.080160 1 120.767405 2 54.727592 0
H  3 1.080304 1 120.679241 2 -131.957717 0
C  1 1.528745 2 108.504551 3 -120.432719 0
H  6 1.088583 1 112.238518 2 -55.979860 0
H  6 1.089959 1 110.559942 2 64.527872 0
H  6 1.092326 1 110.068060 2 -176.291095 0
C  1 1.540459 2 106.599956 3 118.607605 0
H  10 1.091342 1 109.303616 2 -64.010705 0
H  10 1.095770 1 108.672905 2 179.498746 0
C  10 1.521752 1 113.820426 2 56.861576 0
H  13 1.091237 10 109.677857 1 -53.463934 0
H  13 1.093407 10 111.055641 1 65.248300 0
O  13 1.415223 10 112.278153 1 -170.743255 0
H  16 0.959427 13 108.795286 10 -60.410888 0
$end

PES scan, value:  180.0000 energy: -272.2689746907
------- Summary of potential scan: ------ 
 -180.0000      -272.2689615675
 -165.0000      -272.2687675987
 -150.0000      -272.2682443875
 -135.0000      -272.2676948482
 -120.0000      -272.2674725609
 -105.0000      -272.2677608579
  -90.0000      -272.2683521987
  -75.0000      -272.2688285169
  -60.0000      -272.2689660256
  -45.0000      -272.2686847040
  -30.0000      -272.2680724670
  -15.0000      -272.2674575073
    0.0000      -272.2671669654
   15.0000      -272.2673439556
   30.0000      -272.2679246639
   45.0000      -272.2686730719
   60.0000      -272.2691322477
   75.0000      -272.2690645361
   90.0000      -272.2684887936
  105.0000      -272.2677881110
  120.0000      -272.2673510833
  135.0000      -272.2675168052
  150.0000      -272.2680798014
  165.0000      -272.2687036452
  180.0000      -272.2689746907
----------------------------------------- 
Archival summary:
1\1\node28\JobtypUnspecified\ProcedureUnspecified\BasisUnspecified\1511(2)\edames\FriJun2004:57:312014FriJun2004:57:312014\0\\#,JobtypUnspecified,ProcedureUnspecified,BasisUnspecified,\\0,2\C\H,1,1.09842\C,1,1.49063,2,108.492\H,3,1.08016,1,120.767,2,54.7276,0\H,3,1.0803,1,120.679,2,-131.958,0\C,1,1.52875,2,108.505,3,-120.433,0\H,6,1.08858,1,112.239,2,-55.9799,0\H,6,1.08996,1,110.56,2,64.5279,0\H,6,1.09233,1,110.068,2,-176.291,0\C,1,1.54046,2,106.6,3,118.608,0\H,10,1.09134,1,109.304,2,-64.0107,0\H,10,1.09577,1,108.673,2,179.499,0\C,10,1.52175,1,113.82,2,56.8616,0\H,13,1.09124,10,109.678,1,-53.4639,0\H,13,1.09341,10,111.056,1,65.2483,0\O,13,1.41522,10,112.278,1,-170.743,0\H,16,0.959427,13,108.795,10,-60.4109,0\\\@

 Total job time:  42802.66s(wall), 42028.00s(cpu) 
 Fri Jun 20 04:57:31 2014

        *************************************************************
        *                                                           *
        *  Thank you very much for using Q-Chem.  Have a nice day.  *
        *                                                           *
        *************************************************************


0 sent ACK to 0 
now end server 0 ... 
cleanup process ... done
remove work dirs /tmp/qchem8811.0 -- /tmp/qchem8811.7
rm -rf /tmp/qchem8811.0
rm -rf /tmp/qchem8811.1
rm -rf /tmp/qchem8811.2
rm -rf /tmp/qchem8811.3
rm -rf /tmp/qchem8811.4
rm -rf /tmp/qchem8811.5
rm -rf /tmp/qchem8811.6
rm -rf /tmp/qchem8811.7
rm -rf /tmp/qchem8811
