
Running Job 1 of 2 iC5H11O-5_betasc_CH3m08.in
qchem iC5H11O-5_betasc_CH3m08.in_6613.0 /scratch/edames/qchem6613/ 8
/opt/qchem/bin/mpi/mpirun_qchem -machinefile /tmp/318636.1.normal3/hostfile -np 8 /opt/qchem/exe/qcprog.exe iC5H11O-5_betasc_CH3m08.in_6613.0 /scratch/edames/qchem6613/

Process 0 of 8 is on node64.cluster - thread support 0
Process 6 of 8 is on node64.cluster - thread support 0
Process 2 of 8 is on node64.cluster - thread support 0
Process 5 of 8 is on node64.cluster - thread support 0
Process 1 of 8 is on node64.cluster - thread support 0
Process 3 of 8 is on node64.cluster - thread support 0
Process 4 of 8 is on node64.cluster - thread support 0
Process 7 of 8 is on node64.cluster - thread support 0
initial socket setup ...start
initial socket setup ...done 
now start server 0 ... 
set process cleaner
set process cleaner
set process cleaner
set process cleaner
set process cleaner
                  Welcome to Q-Chem
     A Quantum Leap Into The Future Of Chemistry


 Q-Chem 4.2, Q-Chem, Inc., Pleasanton, CA (2014).

 Y. Shao,  Z. Gan,  E. Epifanovsky,  A. T. B. Gilbert,  M. Wormit,  
 J. Kussmann,  A. W. Lange,  A. Behn,  J. Deng,  X. Feng,  D. Ghosh,  
 M. Goldey,  P. R. Horn,  L. D. Jacobson,  I. Kaliman,  R. Z. Khaliullin,  
 T. Kus,  A. Landau,  J. Liu,  E. I. Proynov,  Y. M. Rhee,  R. M. Richard,  
 M. A. Rohrdanz,  R. P. Steele,  E. J. Sundstrom,  H. L. Woodcock III,  
 P. M. Zimmerman,  D. Zuev,  B. Albrecht,  E. Alguire,  B. Austin,  
 G. J. O. Beran,  Y. A. Bernard,  E. Berquist,  K. Brandhorst,  
 K. B. Bravaya,  S. T. Brown,  D. Casanova,  C.-M. Chang,  Y. Chen,  
 S. H. Chien,  K. D. Closser,  D. L. Crittenden,  M. Diedenhofen,  
 R. A. DiStasio Jr.,  H. Do,  A. D. Dutoi,  R. G. Edgar,  S. Fatehi,  
 L. Fusti-Molnar,  A. Ghysels,  A. Golubeva-Zadorozhnaya,  J. Gomes,  
 M. W. D. Hanson-Heine,  P. H. P. Harbach,  A. W. Hauser,  E. G. Hohenstein,  
 Z. C. Holden,  T.-C. Jagau,  H. Ji,  B. Kaduk,  K. Khistyaev,  Jaehoon Kim,  
 Jihan Kim,  R. A. King,  P. Klunzinger,  D. Kosenkov,  T. Kowalczyk,  
 C. M. Krauter,  K. U. Lao,  A. Laurent,  K. V. Lawler,  S. V. Levchenko,  
 C. Y. Lin,  F. Liu,  E. Livshits,  R. C. Lochan,  A. Luenser,  P. Manohar,  
 S. F. Manzer,  S.-P. Mao,  N. Mardirossian,  A. V. Marenich,  S. A. Maurer,  
 N. J. Mayhall,  C. M. Oana,  R. Olivares-Amaya,  D. P. O'Neill,  
 J. A. Parkhill,  T. M. Perrine,  R. Peverati,  P. A. Pieniazek,  A. Prociuk,  
 D. R. Rehn,  E. Rosta,  N. J. Russ,  N. Sergueev,  S. M. Sharada,  
 S. Sharma,  D. W. Small,  A. Sodt,  T. Stein,  D. Stuck,  Y.-C. Su,  
 A. J. W. Thom,  T. Tsuchimochi,  L. Vogt,  O. Vydrov,  T. Wang,  
 M. A. Watson,  J. Wenzel,  A. White,  C. F. Williams,  V. Vanovschi,  
 S. Yeganeh,  S. R. Yost,  Z.-Q. You,  I. Y. Zhang,  X. Zhang,  Y. Zhao,  
 B. R. Brooks,  G. K. L. Chan,  D. M. Chipman,  C. J. Cramer,  
 W. A. Goddard III,  M. S. Gordon,  W. J. Hehre,  A. Klamt,  
 H. F. Schaefer III,  M. W. Schmidt,  C. D. Sherrill,  D. G. Truhlar,  
 A. Warshel,  X. Xu,  A. Aspuru-Guzik,  R. Baer,  A. T. Bell,  N. A. Besley,  
 J.-D. Chai,  A. Dreuw,  B. D. Dunietz,  T. R. Furlani,  S. R. Gwaltney,  
 C.-P. Hsu,  Y. Jung,  J. Kong,  D. S. Lambrecht,  W. Liang,  C. Ochsenfeld,  
 V. A. Rassolov,  L. V. Slipchenko,  J. E. Subotnik,  T. Van Voorhis,  
 J. M. Herbert,  A. I. Krylov,  P. M. W. Gill,  M. Head-Gordon

 Contributors to earlier versions of Q-Chem not listed above: 
 R. D. Adamson,  J. Baker,  E. F. C. Byrd,  A. K. Chakraborty,  C.-L. Cheng,  
 H. Dachsel,  R. J. Doerksen,  G. Hawkins,  A. Heyden,  S. Hirata,  
 G. Kedziora,  F. J. Keil,  C. Kelley,  P. P. Korambath,  W. Kurlancheek,  
 A. M. Lee,  M. S. Lee,  D. Liotard,  I. Lotan,  P. E. Maslen,  N. Nair,  
 D. Neuhauser,  R. Olson,  B. Peters,  J. Ritchie,  N. E. Schultz,  
 N. Shenvi,  A. C. Simmonett,  K. S. Thanthiriwatte,  Q. Wu,  W. Zhang

 Q-Chem 4.2.0 for Intel X86 Linux

 Parts of Q-Chem use Armadillo 4.100.2 (Dirt Cruiser).
 http://arma.sourceforge.net/

 Q-Chem begins on Tue Jul  1 14:28:51 2014  

Host: 
0

     Scratch files written to /scratch/edames/qchem6613.0//
 May2514 8580_ilyak 4150   
 Parallel job on  8  processors
Processing $rem in /opt/qchem/config/preferences.
 MEM_TOTAL  2000 
Warning: disabling incdft.
 Q-Chem warning in module /home/scratch/svnadmin/8580_ilyak/qchem/forms1/BasisType.C, line 1209:

 Setting pure/cartesian flag to 2111 for general basis


Finally everything over in PARseQInput

--------------------------------------------------------------
User input:
--------------------------------------------------------------
$rem
XC_GRID 000075000434
JOBTYPE ts
EXCHANGE M08SO
BASIS gen
GEOM_OPT_MAX_CYCLES 60
!GEOM_OPT_TOL_DISPLACEMENT 3000
!GEOM_OPT_TOL_ENERGY 10
SCF_ALGORITHM DIIS_GDM
!   incdft false
!   varthresh false
GUI=2
UNRESTRICTED TRUE
CORRELATION NONE
$end

$comment
c5h11o-2
$end

$molecule
0 2
C       -0.89027        0.40256        0.35908
H       -1.09737        0.24900        1.41516
C       -1.38583        1.52581       -0.22873
H       -1.10920        1.79860       -1.24239
H       -2.13826        2.13631        0.25664
C        0.31678       -0.32598       -0.18865
H        0.30388       -0.31531       -1.28263
H        0.32122       -1.37293        0.12369
C        1.62487        0.30526        0.28594
H        1.63697        0.34917        1.38529
H        1.69468        1.33499       -0.09055
O        2.69261       -0.50124       -0.20678
H        3.52141       -0.10848        0.08123
C       -2.47423       -1.23069       -0.02812
H       -2.32450       -1.38734       -1.08902
H       -2.10840       -2.00520        0.63633
H       -3.38913       -0.73066        0.26338
$end

$basis
H  0
S  3 1.00
3.386500000000E+01 2.549380000000E-02
5.094790000000E+00 1.903730000000E-01
1.158790000000E+00 8.521610000000E-01
S  1 1.00
3.258400000000E-01 1.000000000000E+00
S  1 1.00
1.027410000000E-01 1.000000000000E+00
S  1 1.00
3.600000000000E-02 1.000000000000E+00
P  1 1.00
1.500000000000E+00 1.000000000000E+00
P  1 1.00
3.750000000000E-01 1.000000000000E+00
****
C 0
S  6 1.00
4.563240000000E+03 1.966650000000E-03
6.820240000000E+02 1.523060000000E-02
1.549730000000E+02 7.612690000000E-02
4.445530000000E+01 2.608010000000E-01
1.302900000000E+01 6.164620000000E-01
1.827730000000E+00 2.210060000000E-01
S  3 1.00
2.096420000000E+01 1.146600000000E-01
4.803310000000E+00 9.199990000000E-01
1.459330000000E+00 -3.030680000000E-03
S  1 1.00
4.834560000000E-01 1.000000000000E+00
S  1 1.00
1.455850000000E-01 1.000000000000E+00
S  1 1.00
4.380000000000E-02 1.000000000000E+00
P  3 1.00
2.096420000000E+01 4.024870000000E-02
4.803310000000E+00 2.375940000000E-01
1.459330000000E+00 8.158540000000E-01
P  1 1.00
4.834560000000E-01 1.000000000000E+00
P  1 1.00
1.455850000000E-01 1.000000000000E+00
P  1 1.00
4.380000000000E-02 1.000000000000E+00
D  1 1.00
1.252000000000E+00 1.000000000000E+00
D  1 1.00
3.130000000000E-01 1.000000000000E+00
F  1 1.00
8.000000000000E-01 1.000000000000E+00
****
O  0
S  6 1.00
8.588500000000E+03 1.895150000000E-03
1.297230000000E+03 1.438590000000E-02
2.992960000000E+02 7.073200000000E-02
8.737710000000E+01 2.400010000000E-01
2.567890000000E+01 5.947970000000E-01
3.740040000000E+00 2.808020000000E-01
S  3 1.00
4.211750000000E+01 1.138890000000E-01
9.628370000000E+00 9.208110000000E-01
2.853320000000E+00 -3.274470000000E-03
S  1 1.00
9.056610000000E-01 1.000000000000E+00
S  1 1.00
2.556110000000E-01 1.000000000000E+00
S  1 1.00
8.450000000000E-02 1.000000000000E+00
P  3 1.00
4.211750000000E+01 3.651140000000E-02
9.628370000000E+00 2.371530000000E-01
2.853320000000E+00 8.197020000000E-01
P  1 1.00
9.056610000000E-01 1.000000000000E+00
P  1 1.00
2.556110000000E-01 1.000000000000E+00
P  1 1.00
8.450000000000E-02 1.000000000000E+00
D  1 1.00
2.584000000000E+00 1.000000000000E+00
D  1 1.00
6.460000000000E-01 1.000000000000E+00
F  1 1.00
1.400000000000E+00 1.000000000000E+00
****
$end

--------------------------------------------------------------
 ----------------------------------------------------------------
             Standard Nuclear Orientation (Angstroms)
    I     Atom           X                Y                Z
 ----------------------------------------------------------------
    1      C      -0.8902728643    -0.4025582259    -0.3590799720
    2      H      -1.0973732035    -0.2489961626    -1.4151596054
    3      C      -1.3858342913    -1.5258084233     0.2287284477
    4      H      -1.1092041609    -1.7986005251     1.2423878466
    5      H      -2.1382655077    -2.1363064516    -0.2566421466
    6      C       0.3167785701     0.3259789917     0.1886505680
    7      H       0.3038791525     0.3153072084     1.2826305574
    8      H       0.3212200292     1.3729294997    -0.1236877086
    9      C       1.6248673273    -0.3052622627    -0.2859411890
   10      H       1.6369666569    -0.3491704693    -1.3852912680
   11      H       1.6946759301    -1.3349929920     0.0905470753
   12      O       2.6926088529     0.5012352625     0.2067795558
   13      H       3.5214080836     0.1084744468    -0.0812315455
   14      C      -2.4742301092     1.2306936021     0.0281235878
   15      H      -2.3244992843     1.3873416200     1.0890237641
   16      H      -2.1083992671     2.0052041278    -0.6363253358
   17      H      -3.3891310474     0.7306655071    -0.2633767354
 ----------------------------------------------------------------
 Molecular Point Group                 C1    NOp =  1
 Largest Abelian Subgroup              C1    NOp =  1
 Nuclear Repulsion Energy =   234.5862752403 hartrees
 There are       25 alpha and       24 beta electrons
 Requested basis set is non-standard
 There are 138 shells and 314 basis functions

Total QAlloc Memory Limit   2000 MB
Mega-Array Size        61 MB
MEM_STATIC part        62 MB
 A cutoff of  1.0D-12 yielded   8881 shell pairs
 There are     45489 function pairs (     54546 Cartesian)
 Smallest overlap matrix eigenvalue = 2.10E-05

  Scale SEOQF with 1.000000e-01/1.000000e-01/1.000000e-01

 Standard Electronic Orientation quadrupole field applied
 Nucleus-field energy     =     0.0000000083 hartrees
 Guess MOs from core Hamiltonian diagonalization
 An unrestricted hybrid HF-DFT SCF calculation will be
 performed using Pulay DIIS + Geometric Direct Minimization
 Exchange:     0.5679 Hartree-Fock + 1.0000 M08SO
 SCF converges when RMS gradient is below 1.0E-08
 ---------------------------------------
  Cycle       Energy         DIIS Error
 ---------------------------------------
    1    -185.6758954393      9.28E-02
    2     -93.4846586012      8.14E-02
    3    -217.3387002052      4.39E-02
    4    -196.5940635351      5.11E-02
    5    -265.6811847571      2.02E-02
    6    -268.7289318501      1.31E-02
    7    -271.7572664652      5.38E-03 Done DIIS. Switching to GDM
    8    -272.0940870111      6.73E-02 Descent step
    9    -272.1289507628      5.33E-02 Normal BFGS step
   10    -272.1469357777      5.20E-03 Normal BFGS step
   11    -272.1474884295      5.23E-03 Normal BFGS step
   12    -272.1478211915      1.54E-03 Normal BFGS step
   13    -272.1478651132      6.87E-04 Normal BFGS step
   14    -272.1478759152      6.70E-04 Normal BFGS step
   15    -272.1478772966      1.16E-04 Normal BFGS step
   16    -272.1478778634      6.21E-05 Normal BFGS step
   17    -272.1478779110      8.62E-05 Normal BFGS step
   18    -272.1478779402      4.53E-05 Normal BFGS step
   19    -272.1478779522      1.63E-05 Normal BFGS step
   20    -272.1478779554      7.77E-06 Normal BFGS step
   21    -272.1478779560      2.50E-06 Normal BFGS step
   22    -272.1478779561      4.91E-07 Normal BFGS step
   23    -272.1478779561      1.29E-07 Normal BFGS step
   GDM::WARNING energy changes are now smaller than effective accuracy.
   GDM::        calculation will continue, but THRESH should be increased
   GDM::        or SCF_CONVERGENCE decreased.
   GDM::        effective_thresh =   3.699624351663489E-009
   24    -272.1478779560      1.13E-07 Normal BFGS step
   25    -272.1478779561      1.43E-08 Normal BFGS step
   GDM::WARNING energy changes are now smaller than effective accuracy.
   GDM::        calculation will continue, but THRESH should be increased
   GDM::        or SCF_CONVERGENCE decreased.
   GDM::        effective_thresh =   3.699624351663489E-009
   26    -272.1478779559      5.57E-09 Convergence criterion met
 ---------------------------------------
 <S^2> = 0.7739
 SCF time:  CPU 2084.43 s  wall 2120.74 s
 SCF   energy in the final basis set = -272.1478779559
 Total energy in the final basis set = -272.1478779559
 Analysis of SCF Wavefunction
 
 --------------------------------------------------------------
                    Orbital Energies (a.u.)
 --------------------------------------------------------------
 
 Alpha MOs
 -- Occupied --
-19.566 -10.545 -10.513 -10.502 -10.496 -10.492  -1.137  -0.905
 -0.818  -0.770  -0.713  -0.645  -0.598  -0.562  -0.524  -0.498
 -0.491  -0.479  -0.474  -0.429  -0.422  -0.413  -0.363  -0.359
 -0.247
 -- Virtual --
 -0.027  -0.018  -0.010  -0.005   0.007   0.015   0.020   0.022
  0.030   0.035   0.042   0.054   0.068   0.072   0.082   0.092
  0.098   0.105   0.111   0.117   0.128   0.131   0.133   0.134
  0.138   0.138   0.155   0.161   0.168   0.179   0.181   0.197
  0.207   0.213   0.216   0.223   0.232   0.239   0.249   0.253
  0.270   0.278   0.281   0.315   0.317   0.324   0.337   0.353
  0.369   0.380   0.402   0.429   0.442   0.462   0.467   0.473
  0.504   0.511   0.523   0.537   0.545   0.562   0.566   0.576
  0.583   0.594   0.595   0.599   0.603   0.617   0.625   0.632
  0.648   0.665   0.669   0.677   0.690   0.713   0.720   0.730
  0.741   0.757   0.770   0.791   0.803   0.814   0.847   0.873
  0.883   0.905   0.913   0.940   0.969   0.983   0.990   1.001
  1.028   1.038   1.063   1.081   1.088   1.100   1.108   1.134
  1.146   1.175   1.182   1.194   1.204   1.215   1.226   1.244
  1.248   1.267   1.299   1.300   1.316   1.332   1.342   1.359
  1.368   1.380   1.406   1.408   1.429   1.433   1.445   1.449
  1.450   1.483   1.496   1.507   1.517   1.545   1.549   1.573
  1.582   1.615   1.654   1.695   1.710   1.754   1.767   1.871
  1.934   2.064   2.095   2.257   2.330   2.362   2.422   2.447
  2.466   2.494   2.531   2.584   2.599   2.622   2.701   2.716
  2.733   2.768   2.780   2.796   2.816   2.829   2.844   2.859
  2.889   2.899   2.908   2.913   2.941   2.957   2.971   3.024
  3.033   3.056   3.067   3.072   3.086   3.105   3.124   3.136
  3.148   3.162   3.188   3.204   3.222   3.258   3.264   3.288
  3.312   3.316   3.344   3.352   3.384   3.389   3.421   3.446
  3.461   3.487   3.506   3.535   3.540   3.560   3.604   3.645
  3.660   3.675   3.705   3.724   3.740   3.748   3.785   3.798
  3.830   3.845   3.869   3.878   3.921   3.945   3.945   3.961
  3.990   4.010   4.061   4.067   4.069   4.083   4.116   4.129
  4.151   4.172   4.188   4.197   4.211   4.237   4.258   4.272
  4.278   4.304   4.344   4.350   4.409   4.415   4.452   4.490
  4.539   4.566   4.608   4.637   4.641   4.714   4.716   4.953
  5.048   5.061   5.134   5.159   5.190   5.221   5.276   5.347
  5.438   5.440   5.469   5.494   5.500   5.506   5.532   5.597
  5.678   5.771   5.838   5.877   6.445   6.951   7.130   7.156
  7.187   7.479   7.600  23.943  24.066  24.140  24.267  24.572
 49.794
 
 Beta MOs
 -- Occupied --
-19.566 -10.545 -10.516 -10.496 -10.486 -10.486  -1.137  -0.902
 -0.815  -0.747  -0.710  -0.643  -0.597  -0.561  -0.523  -0.497
 -0.488  -0.473  -0.469  -0.429  -0.419  -0.412  -0.363  -0.323
 -- Virtual --
 -0.047  -0.028  -0.017  -0.012  -0.005   0.003   0.009   0.016
  0.019   0.026   0.035   0.040   0.049   0.066   0.073   0.079
  0.087   0.098   0.102   0.108   0.115   0.124   0.126   0.128
  0.132   0.135   0.136   0.151   0.158   0.166   0.177   0.179
  0.198   0.207   0.213   0.216   0.225   0.234   0.244   0.248
  0.252   0.271   0.279   0.279   0.315   0.316   0.324   0.338
  0.354   0.368   0.382   0.402   0.430   0.442   0.463   0.468
  0.474   0.508   0.513   0.528   0.547   0.559   0.567   0.573
  0.580   0.586   0.600   0.603   0.608   0.614   0.628   0.630
  0.640   0.652   0.669   0.676   0.685   0.698   0.717   0.721
  0.736   0.744   0.759   0.773   0.793   0.809   0.818   0.854
  0.876   0.886   0.908   0.916   0.945   0.971   0.988   0.994
  1.007   1.031   1.044   1.070   1.087   1.093   1.104   1.111
  1.140   1.147   1.178   1.190   1.197   1.209   1.217   1.234
  1.252   1.254   1.271   1.301   1.307   1.324   1.334   1.355
  1.367   1.373   1.386   1.411   1.415   1.433   1.436   1.453
  1.455   1.466   1.485   1.498   1.509   1.527   1.548   1.552
  1.573   1.583   1.633   1.656   1.701   1.727   1.754   1.766
  1.870   1.933   2.064   2.095   2.258   2.331   2.384   2.435
  2.474   2.494   2.512   2.548   2.589   2.603   2.641   2.703
  2.722   2.756   2.764   2.788   2.813   2.835   2.854   2.864
  2.892   2.906   2.910   2.949   2.968   2.973   2.995   3.012
  3.042   3.060   3.074   3.095   3.104   3.118   3.129   3.145
  3.151   3.159   3.196   3.211   3.246   3.255   3.286   3.295
  3.307   3.333   3.346   3.358   3.378   3.390   3.419   3.440
  3.475   3.482   3.528   3.543   3.553   3.569   3.580   3.620
  3.652   3.663   3.678   3.705   3.727   3.744   3.753   3.788
  3.808   3.836   3.846   3.881   3.903   3.924   3.943   3.953
  3.967   3.994   4.011   4.064   4.073   4.088   4.096   4.120
  4.129   4.163   4.174   4.205   4.218   4.243   4.261   4.275
  4.281   4.286   4.310   4.350   4.365   4.407   4.415   4.455
  4.498   4.542   4.557   4.634   4.647   4.659   4.716   4.721
  4.946   5.086   5.134   5.159   5.173   5.198   5.222   5.285
  5.347   5.452   5.494   5.500   5.527   5.532   5.561   5.564
  5.606   5.679   5.772   5.842   5.882   6.445   6.951   7.130
  7.156   7.187   7.478   7.600  23.943  24.081  24.140  24.267
 24.576  49.794
 --------------------------------------------------------------
 
          Ground-State Mulliken Net Atomic Charges

     Atom                 Charge (a.u.)    Spin (a.u.)
  --------------------------------------------------------
      1 C                     0.137241      -0.270359
      2 H                     0.356259       0.017366
      3 C                    -0.712116       0.439261
      4 H                     0.213161      -0.022954
      5 H                     0.180960      -0.019808
      6 C                    -0.425003       0.034370
      7 H                     0.254086       0.003248
      8 H                     0.214225       0.000017
      9 C                    -0.616988       0.001121
     10 H                     0.206866       0.001562
     11 H                     0.212537      -0.002602
     12 O                    -0.319301      -0.000986
     13 H                     0.272625      -0.000131
     14 C                    -0.490320       0.907095
     15 H                     0.178492      -0.029716
     16 H                     0.158694      -0.025720
     17 H                     0.178582      -0.031766
  --------------------------------------------------------
  Sum of atomic charges =     0.000000
  Sum of spin   charges =     1.000000

 -----------------------------------------------------------------
                    Cartesian Multipole Moments
 -----------------------------------------------------------------
    Charge (ESU x 10^10)
                 0.0000
    Dipole Moment (Debye)
         X       0.2375      Y      -1.0776      Z      -0.9856
       Tot       1.4795
    Quadrupole Moments (Debye-Ang)
        XX     -37.4792     XY      -2.6173     YY     -42.3077
        XZ      -1.8981     YZ      -1.1750     ZZ     -39.4644
    Octopole Moments (Debye-Ang^2)
       XXX      42.7608    XXY     -15.7668    XYY       2.6857
       YYY       1.1832    XXZ     -10.8019    XYZ      -1.0406
       YYZ       0.5582    XZZ       2.7184    YZZ       0.4771
       ZZZ       0.3849
    Hexadecapole Moments (Debye-Ang^3)
      XXXX    -745.6747   XXXY       0.4914   XXYY    -205.8568
      XYYY      14.8044   YYYY    -288.3863   XXXZ     -11.5274
      XXYZ      -0.7274   XYYZ       2.8574   YYYZ      -6.3289
      XXZZ    -164.6763   XYZZ       0.8979   YYZZ     -61.4511
      XZZZ      -0.8461   YZZZ      -1.1134   ZZZZ     -91.2173
 -----------------------------------------------------------------
 Calculating analytic gradient of the SCF energy
 Gradient of Coulomb and Exchange Energy
            1           2           3           4           5           6
    1   0.2658093   1.1096072   4.6871309  -0.8865881   3.1631044   0.1347521
    2  -0.9243227  -0.7835169   5.8876531   1.4977159   2.7013288   0.4078674
    3   2.3286923   4.5311567  -2.9522306  -3.8308502   1.7582425   1.2097840
            7           8           9          10          11          12
    1   0.1036111   0.0241691  -2.3023848  -0.3114026  -0.5872571  -6.4893514
    2  -0.3682430  -4.5736551  -0.5349922   0.5269330   4.1526492  -5.3977701
    3  -4.5065214   0.7853518   0.0087204   4.2786584  -1.1730112  -3.2386227
           13          14          15          16          17
    1  -4.4917033   2.9441947   0.0078893  -0.7312132   3.3596324
    2   1.2452709  -1.3210700  -0.9600743  -2.8743775   1.3186035
    3   0.9986863   0.2697987  -3.5548154   2.1751917   0.9117686
 Gradient of SCF Energy
            1           2           3           4           5           6
    1  -0.0054445   0.0021437  -0.0021612  -0.0015644   0.0016297   0.0018052
    2   0.0141961  -0.0016520  -0.0089433   0.0003271   0.0013625  -0.0001730
    3  -0.0018434   0.0027767   0.0031401  -0.0028295   0.0016754  -0.0006827
            7           8           9          10          11          12
    1   0.0003795   0.0004555   0.0013855  -0.0005758  -0.0003601   0.0034619
    2   0.0002829  -0.0035521  -0.0035316  -0.0004173   0.0016660   0.0049042
    3  -0.0032093   0.0008941  -0.0020472   0.0018237  -0.0012020   0.0032898
           13          14          15          16          17
    1  -0.0023615   0.0037009  -0.0018253  -0.0022059   0.0015366
    2  -0.0015054  -0.0048721   0.0006844  -0.0013492   0.0025728
    3  -0.0010006  -0.0010059  -0.0030760   0.0022400   0.0010568
 Max gradient component =       1.420E-02
 RMS gradient           =       3.272E-03
 Gradient time:  CPU 92.67 s  wall 92.59 s
 Geometry Optimization Parameters
   NAtoms,    NIC,     NZ,  NCons,   NDum,   NFix, NCnnct, MaxDiis
       17     127       0       0       0       0       0       0


** GEOMETRY OPTIMIZATION IN DELOCALIZED INTERNAL COORDINATES **
   Searching for a Transition State

   Optimization Cycle:   1

                       Coordinates (Angstroms)
     ATOM                X               Y               Z
      1  C        -0.8902728643   -0.4025582259   -0.3590799720
      2  H        -1.0973732035   -0.2489961626   -1.4151596054
      3  C        -1.3858342913   -1.5258084233    0.2287284477
      4  H        -1.1092041609   -1.7986005251    1.2423878466
      5  H        -2.1382655077   -2.1363064516   -0.2566421466
      6  C         0.3167785701    0.3259789917    0.1886505680
      7  H         0.3038791525    0.3153072084    1.2826305574
      8  H         0.3212200292    1.3729294997   -0.1236877086
      9  C         1.6248673273   -0.3052622627   -0.2859411890
     10  H         1.6369666569   -0.3491704693   -1.3852912680
     11  H         1.6946759301   -1.3349929920    0.0905470753
     12  O         2.6926088529    0.5012352625    0.2067795558
     13  H         3.5214080836    0.1084744468   -0.0812315455
     14  C        -2.4742301092    1.2306936021    0.0281235878
     15  H        -2.3244992843    1.3873416200    1.0890237641
     16  H        -2.1083992671    2.0052041278   -0.6363253358
     17  H        -3.3891310474    0.7306655071   -0.2633767354
   Point Group: c1    Number of degrees of freedom:    45


   Energy is   -272.147877956


 Attempting to Generate Delocalized Internal Coordinates
 GETINT wrote B to file, NVib is           45
 calling HSSCONV
 HCONV 3*NATOMS:           51
 wrote HINT to file
  writing hessian 

 45 Hessian modes will be used to form the next step
  Hessian Eigenvalues:
     0.003915    0.005474    0.007521    0.012215    0.027543    0.027731
     0.031171    0.036646    0.038576    0.044845    0.050602    0.054406
     0.058291    0.060746    0.063492    0.066650    0.083302    0.095241
     0.109369    0.118398    0.121544    0.135701    0.151183    0.153926
     0.159483    0.160000    0.160000    0.160000    0.219103    0.219620
     0.296084    0.310975    0.320911    0.336497    0.338354    0.343422
     0.345188    0.353306    0.355079    0.355488    0.356575    0.356808
     0.415793    0.527112    0.551923
**WARNING** Hessian does not have the Desired Local Structure

 Transition State Search - Taking P-RFO Step
 Searching for Lamda that Maximizes Along the Lowest mode
 Value Taken    Lamda =   0.00391617
 Searching for Lamda that Minimizes Along All other modes
 Value Taken    Lamda =  -0.00125182
 Calculated Step too Large.  Step scaled by  0.004316
 Step Taken.  Stepsize is  0.300000

                             Maximum     Tolerance    Cnvgd?
         Gradient           0.005902      0.000300      NO
         Displacement       0.114940      0.001200      NO
         Energy change     *********      0.000001      NO


 New Cartesian Coordinates Obtained by Inverse Iteration

 Displacement from previous Coordinates is:  0.291559
 ----------------------------------------------------------------
             Standard Nuclear Orientation (Angstroms)
    I     Atom           X                Y                Z
 ----------------------------------------------------------------
    1      C      -0.8913614672    -0.4061102831    -0.3545868043
    2      H      -1.0994911190    -0.2575385509    -1.4112993770
    3      C      -1.3835679387    -1.5258366690     0.2426124901
    4      H      -1.1035053568    -1.7910595919     1.2573590568
    5      H      -2.1365644423    -2.1408289884    -0.2362013055
    6      C       0.3164230121     0.3277430348     0.1843307816
    7      H       0.3070589178     0.3244120826     1.2784150295
    8      H       0.3184272722     1.3725926353    -0.1350722275
    9      C       1.6237859731    -0.3049923764    -0.2902564683
   10      H       1.6323900195    -0.3562923985    -1.3893316130
   11      H       1.6961763028    -1.3320763481     0.0929532444
   12      O       2.6920582204     0.5061675825     0.1935230388
   13      H       3.5204968759     0.1126195054    -0.0944662466
   14      C      -2.4761077085     1.2279773654     0.0266268778
   15      H      -2.3831800664     1.3258851727     1.1010054893
   16      H      -2.0504945156     2.0217710108    -0.5766798525
   17      H      -3.3873491124     0.7717015705    -0.3387962172
 ----------------------------------------------------------------
 Molecular Point Group                 C1    NOp =  1
 Largest Abelian Subgroup              C1    NOp =  1
 Nuclear Repulsion Energy =   234.5961897314 hartrees
 There are       25 alpha and       24 beta electrons
 Applying Cartesian multipole field
    Component          Value
    ---------          -----
     (2,0,0)        1.00000E-11
     (0,2,0)        2.00000E-11
     (0,0,2)       -3.00000E-11
 Nucleus-field energy     =     0.0000000083 hartrees
 Requested basis set is non-standard
 There are 138 shells and 314 basis functions
 A cutoff of  1.0D-12 yielded   8889 shell pairs
 There are     45523 function pairs (     54580 Cartesian)
 Smallest overlap matrix eigenvalue = 2.08E-05
 Guess MOs from SCF MO coefficient file
Reading MOs from coefficient file
Reading MOs from coefficient file
 An unrestricted hybrid HF-DFT SCF calculation will be
 performed using Pulay DIIS + Geometric Direct Minimization
 Exchange:     0.5679 Hartree-Fock + 1.0000 M08SO
 SCF converges when RMS gradient is below 1.0E-08
Geometry optimization detected.  Setting ReadMinima to 0
Setting SaveMinima to 0
 Inaccurate integrated density:
   Number of electrons =    49
   Numerical integral  =    48.993083933139
   Relative error      =    -0.0141144222 %
 ---------------------------------------
  Cycle       Energy        RMS Gradient
 ---------------------------------------
    1    -272.1437353104      3.21E-04 Done DIIS. Switching to GDM
    2    -272.1477604018      1.89E-03 Normal BFGS step
    3    -272.1478259276      1.06E-03 Normal BFGS step
    4    -272.1478330241      7.70E-04 Normal BFGS step
    5    -272.1478367092      1.22E-04 Normal BFGS step
    6    -272.1478367934      9.00E-05 Normal BFGS step
    7    -272.1478369285      3.08E-05 Normal BFGS step
    8    -272.1478369325      1.15E-05 Normal BFGS step
    9    -272.1478369338      2.07E-06 Normal BFGS step
   10    -272.1478369339      1.54E-06 Normal BFGS step
   11    -272.1478369339      1.23E-06 Normal BFGS step
   12    -272.1478369339      7.63E-07 Normal BFGS step
   GDM::WARNING energy changes are now smaller than effective accuracy.
   GDM::        calculation will continue, but THRESH should be increased
   GDM::        or SCF_CONVERGENCE decreased.
   GDM::        effective_thresh =   1.368171649107977E-009
   13    -272.1478369339      3.24E-07 Normal BFGS step
   GDM::WARNING energy changes are now smaller than effective accuracy.
   GDM::        calculation will continue, but THRESH should be increased
   GDM::        or SCF_CONVERGENCE decreased.
   GDM::        effective_thresh =   1.368171649107977E-009
   14    -272.1478369338      1.03E-07 Normal BFGS step
   GDM::WARNING energy changes are now smaller than effective accuracy.
   GDM::        calculation will continue, but THRESH should be increased
   GDM::        or SCF_CONVERGENCE decreased.
   GDM::        effective_thresh =   1.368171649107977E-009
   15    -272.1478369338      3.37E-08 Normal BFGS step
   16    -272.1478369339      1.40E-08 Normal BFGS step
   GDM::WARNING energy changes are now smaller than effective accuracy.
   GDM::        calculation will continue, but THRESH should be increased
   GDM::        or SCF_CONVERGENCE decreased.
   GDM::        effective_thresh =   1.368171649107977E-009
   17    -272.1478369338      7.58E-09 Convergence criterion met
 ---------------------------------------
 <S^2> = 0.7739
 SCF time:  CPU 1414.37 s  wall 1432.43 s
 SCF   energy in the final basis set = -272.1478369338
 Total energy in the final basis set = -272.1478369338
 Analysis of SCF Wavefunction
 
 --------------------------------------------------------------
                    Orbital Energies (a.u.)
 --------------------------------------------------------------
 
 Alpha MOs
 -- Occupied --
-19.566 -10.545 -10.513 -10.502 -10.496 -10.492  -1.137  -0.905
 -0.817  -0.770  -0.713  -0.645  -0.598  -0.562  -0.524  -0.498
 -0.491  -0.478  -0.474  -0.429  -0.422  -0.412  -0.363  -0.359
 -0.246
 -- Virtual --
 -0.027  -0.018  -0.010  -0.005   0.007   0.015   0.019   0.022
  0.031   0.035   0.042   0.054   0.068   0.072   0.082   0.092
  0.099   0.106   0.111   0.118   0.128   0.130   0.133   0.134
  0.137   0.138   0.155   0.161   0.168   0.179   0.181   0.198
  0.207   0.213   0.216   0.222   0.232   0.239   0.249   0.253
  0.271   0.279   0.281   0.315   0.317   0.325   0.337   0.352
  0.369   0.380   0.402   0.429   0.441   0.462   0.468   0.474
  0.506   0.511   0.523   0.539   0.547   0.561   0.565   0.576
  0.583   0.594   0.595   0.599   0.602   0.618   0.626   0.633
  0.648   0.663   0.668   0.678   0.691   0.713   0.720   0.729
  0.740   0.757   0.771   0.792   0.800   0.811   0.850   0.876
  0.883   0.900   0.913   0.939   0.972   0.984   0.989   1.002
  1.030   1.038   1.060   1.081   1.091   1.096   1.111   1.133
  1.146   1.170   1.185   1.194   1.203   1.217   1.225   1.244
  1.251   1.268   1.298   1.301   1.314   1.334   1.340   1.356
  1.368   1.380   1.408   1.408   1.429   1.434   1.444   1.448
  1.451   1.482   1.497   1.508   1.517   1.546   1.549   1.573
  1.581   1.618   1.653   1.696   1.710   1.754   1.768   1.871
  1.934   2.064   2.095   2.258   2.330   2.362   2.422   2.448
  2.468   2.496   2.530   2.584   2.598   2.625   2.702   2.719
  2.733   2.769   2.778   2.799   2.818   2.829   2.839   2.857
  2.888   2.897   2.907   2.917   2.941   2.956   2.973   3.025
  3.033   3.056   3.066   3.073   3.086   3.106   3.122   3.136
  3.148   3.161   3.186   3.202   3.222   3.257   3.261   3.288
  3.313   3.316   3.344   3.351   3.383   3.392   3.418   3.447
  3.458   3.482   3.508   3.536   3.541   3.560   3.604   3.647
  3.659   3.675   3.705   3.724   3.737   3.746   3.786   3.798
  3.831   3.845   3.869   3.874   3.923   3.944   3.947   3.961
  3.990   4.014   4.062   4.066   4.067   4.084   4.118   4.130
  4.150   4.173   4.190   4.196   4.209   4.236   4.259   4.272
  4.278   4.303   4.347   4.352   4.409   4.415   4.451   4.490
  4.536   4.571   4.605   4.637   4.641   4.710   4.714   4.953
  5.048   5.061   5.135   5.159   5.190   5.221   5.276   5.347
  5.436   5.439   5.469   5.494   5.501   5.506   5.532   5.597
  5.678   5.771   5.838   5.877   6.445   6.951   7.130   7.156
  7.187   7.479   7.600  23.942  24.067  24.139  24.267  24.573
 49.794
 
 Beta MOs
 -- Occupied --
-19.566 -10.545 -10.516 -10.496 -10.486 -10.486  -1.137  -0.902
 -0.815  -0.747  -0.710  -0.643  -0.597  -0.561  -0.523  -0.497
 -0.488  -0.473  -0.469  -0.429  -0.419  -0.412  -0.363  -0.324
 -- Virtual --
 -0.047  -0.028  -0.017  -0.012  -0.005   0.003   0.009   0.015
  0.019   0.027   0.035   0.040   0.048   0.066   0.073   0.079
  0.088   0.098   0.103   0.107   0.115   0.123   0.126   0.128
  0.132   0.135   0.136   0.152   0.158   0.166   0.177   0.178
  0.198   0.206   0.213   0.216   0.224   0.234   0.243   0.248
  0.253   0.271   0.279   0.280   0.315   0.316   0.325   0.338
  0.353   0.369   0.382   0.402   0.430   0.440   0.463   0.469
  0.474   0.510   0.513   0.529   0.550   0.560   0.567   0.571
  0.580   0.586   0.600   0.603   0.607   0.613   0.628   0.630
  0.641   0.653   0.668   0.675   0.687   0.698   0.717   0.721
  0.736   0.743   0.758   0.774   0.794   0.808   0.814   0.857
  0.878   0.887   0.904   0.916   0.943   0.975   0.988   0.994
  1.007   1.033   1.044   1.066   1.087   1.095   1.100   1.114
  1.140   1.147   1.173   1.193   1.197   1.208   1.218   1.233
  1.251   1.257   1.272   1.301   1.308   1.322   1.337   1.353
  1.364   1.372   1.385   1.410   1.417   1.434   1.437   1.452
  1.455   1.466   1.484   1.499   1.509   1.526   1.549   1.552
  1.573   1.582   1.636   1.656   1.702   1.726   1.754   1.767
  1.870   1.933   2.064   2.095   2.258   2.331   2.384   2.435
  2.474   2.495   2.516   2.548   2.589   2.604   2.644   2.704
  2.725   2.757   2.765   2.783   2.815   2.833   2.854   2.863
  2.890   2.905   2.911   2.946   2.968   2.973   2.995   3.016
  3.042   3.061   3.075   3.097   3.102   3.118   3.129   3.146
  3.150   3.159   3.194   3.211   3.248   3.253   3.286   3.293
  3.307   3.331   3.345   3.358   3.377   3.389   3.420   3.440
  3.474   3.481   3.527   3.544   3.551   3.567   3.581   3.621
  3.654   3.662   3.678   3.706   3.726   3.741   3.751   3.788
  3.808   3.837   3.846   3.881   3.899   3.927   3.943   3.953
  3.968   3.993   4.012   4.065   4.072   4.090   4.099   4.118
  4.130   4.163   4.176   4.206   4.215   4.241   4.262   4.277
  4.281   4.286   4.310   4.352   4.369   4.407   4.414   4.454
  4.498   4.540   4.562   4.634   4.649   4.653   4.713   4.720
  4.945   5.086   5.135   5.159   5.174   5.197   5.222   5.285
  5.347   5.452   5.494   5.500   5.527   5.532   5.560   5.563
  5.605   5.679   5.772   5.842   5.882   6.445   6.951   7.130
  7.156   7.187   7.478   7.600  23.942  24.081  24.139  24.267
 24.577  49.794
 --------------------------------------------------------------
 
          Ground-State Mulliken Net Atomic Charges

     Atom                 Charge (a.u.)    Spin (a.u.)
  --------------------------------------------------------
      1 C                     0.120523      -0.269926
      2 H                     0.356560       0.017585
      3 C                    -0.706573       0.438678
      4 H                     0.213009      -0.023006
      5 H                     0.180748      -0.019935
      6 C                    -0.411502       0.034908
      7 H                     0.253506       0.003344
      8 H                     0.210910      -0.000009
      9 C                    -0.620033       0.000688
     10 H                     0.207359       0.001565
     11 H                     0.212329      -0.002585
     12 O                    -0.319101      -0.000978
     13 H                     0.272632      -0.000136
     14 C                    -0.482229       0.907118
     15 H                     0.176708      -0.030060
     16 H                     0.156200      -0.025875
     17 H                     0.178952      -0.031376
  --------------------------------------------------------
  Sum of atomic charges =     0.000000
  Sum of spin   charges =     1.000000

 -----------------------------------------------------------------
                    Cartesian Multipole Moments
 -----------------------------------------------------------------
    Charge (ESU x 10^10)
                 0.0000
    Dipole Moment (Debye)
         X       0.2402      Y      -1.0872      Z      -0.9777
       Tot       1.4818
    Quadrupole Moments (Debye-Ang)
        XX     -37.4693     XY      -2.6206     YY     -42.3598
        XZ      -1.8951     YZ      -1.1620     ZZ     -39.4336
    Octopole Moments (Debye-Ang^2)
       XXX      42.6286    XXY     -15.7151    XYY       2.7947
       YYY       1.1083    XXZ     -10.8237    XYZ      -1.0210
       YYZ       0.5616    XZZ       2.7141    YZZ       0.3322
       ZZZ       0.5697
    Hexadecapole Moments (Debye-Ang^3)
      XXXX    -745.0525   XXXY      -0.4361   XXYY    -206.2211
      XYYY      14.9181   YYYY    -288.3975   XXXZ     -10.0926
      XXYZ      -0.3601   XYYZ       3.1754   YYYZ      -5.7124
      XXZZ    -163.9790   XYZZ       0.9456   YYZZ     -61.8122
      XZZZ       0.1611   YZZZ      -0.3930   ZZZZ     -91.1551
 -----------------------------------------------------------------
 Calculating analytic gradient of the SCF energy
 Gradient of Coulomb and Exchange Energy
            1           2           3           4           5           6
    1   0.1945586   1.1154352   4.7270493  -0.8900013   3.1552737   0.2014877
    2  -0.8351571  -0.7777274   5.8312277   1.4661103   2.7304995   0.3765732
    3   2.4000002   4.5328727  -3.0276872  -3.8354618   1.7290676   1.1637247
            7           8           9          10          11          12
    1   0.0737526   0.0142461  -2.2917423  -0.2968584  -0.5976627  -6.4949489
    2  -0.3849578  -4.5608078  -0.5320620   0.5554402   4.1437984  -5.4249337
    3  -4.5060735   0.8206190   0.0193608   4.2725088  -1.1989441  -3.1842199
           13          14          15          16          17
    1  -4.4903449   2.9268180   0.2195940  -0.9202249   3.3535682
    2   1.2452457  -1.3170811  -0.7484487  -2.9408070   1.1730876
    3   1.0051153   0.2858010  -3.6101820   1.9846788   1.1488193
 Gradient of SCF Energy
            1           2           3           4           5           6
    1  -0.0055940   0.0023760  -0.0020439  -0.0015821   0.0016202   0.0018474
    2   0.0139956  -0.0013669  -0.0088494   0.0002657   0.0013667  -0.0001896
    3  -0.0017597   0.0027043   0.0034590  -0.0028082   0.0016429  -0.0009366
            7           8           9          10          11          12
    1   0.0003311   0.0003740   0.0013798  -0.0005670  -0.0003609   0.0034673
    2   0.0002333  -0.0034656  -0.0035161  -0.0004021   0.0016483   0.0049145
    3  -0.0032141   0.0009037  -0.0020353   0.0018257  -0.0012009   0.0032362
           13          14          15          16          17
    1  -0.0023507   0.0034523  -0.0016848  -0.0021032   0.0014386
    2  -0.0015094  -0.0050938   0.0006184  -0.0014155   0.0027659
    3  -0.0009769  -0.0013009  -0.0029484   0.0019319   0.0014773
 Max gradient component =       1.400E-02
 RMS gradient           =       3.255E-03
 Gradient time:  CPU 111.87 s  wall 111.93 s
 Geometry Optimization Parameters
   NAtoms,    NIC,     NZ,  NCons,   NDum,   NFix, NCnnct, MaxDiis
       17     127       0       0       0       0       0       0

 Cartesian Hessian Update
 Hessian Updated using Powell/Murtagh-Sargent Update
  Mixing factors:     0.000011 Powell
                      0.999989 Murtagh-Sargent


** GEOMETRY OPTIMIZATION IN DELOCALIZED INTERNAL COORDINATES **
   Searching for a Transition State

   Optimization Cycle:   2

                       Coordinates (Angstroms)
     ATOM                X               Y               Z
      1  C        -0.8913614672   -0.4061102831   -0.3545868043
      2  H        -1.0994911190   -0.2575385509   -1.4112993770
      3  C        -1.3835679387   -1.5258366690    0.2426124901
      4  H        -1.1035053568   -1.7910595919    1.2573590568
      5  H        -2.1365644423   -2.1408289884   -0.2362013055
      6  C         0.3164230121    0.3277430348    0.1843307816
      7  H         0.3070589178    0.3244120826    1.2784150295
      8  H         0.3184272722    1.3725926353   -0.1350722275
      9  C         1.6237859731   -0.3049923764   -0.2902564683
     10  H         1.6323900195   -0.3562923985   -1.3893316130
     11  H         1.6961763028   -1.3320763481    0.0929532444
     12  O         2.6920582204    0.5061675825    0.1935230388
     13  H         3.5204968759    0.1126195054   -0.0944662466
     14  C        -2.4761077085    1.2279773654    0.0266268778
     15  H        -2.3831800664    1.3258851727    1.1010054893
     16  H        -2.0504945156    2.0217710108   -0.5766798525
     17  H        -3.3873491124    0.7717015705   -0.3387962172
   Point Group: c1    Number of degrees of freedom:    45


   Energy is   -272.147836934

 GETINT wrote B to file, NVib is           45
 Hessian Updated using Powell/Murtagh-Sargent Update
  Mixing factors:     0.412169 Powell
                      0.587831 Murtagh-Sargent

 44 Hessian modes will be used to form the next step
  Hessian Eigenvalues:
     0.000564    0.005474    0.007521    0.012215    0.027543    0.027730
     0.031168    0.036645    0.038576    0.044697    0.050602    0.054406
     0.058283    0.060745    0.063492    0.066640    0.083282    0.095238
     0.109369    0.118379    0.121543    0.135701    0.150661    0.153660
     0.159402    0.159992    0.160000    0.219072    0.219620    0.296084
     0.310950    0.320896    0.336497    0.338354    0.343421    0.345180
     0.353305    0.355044    0.355488    0.356535    0.356787    0.415792
     0.527095    0.551923
**WARNING** Hessian does not have the Desired Local Structure

 Transition State Search - Taking P-RFO Step
 Searching for Lamda that Maximizes Along the Lowest mode
 Value Taken    Lamda =   0.00064460
 Searching for Lamda that Minimizes Along All other modes
 Value Taken    Lamda =  -0.00124598
 Calculated Step too Large.  Step scaled by  0.105873
 Step Taken.  Stepsize is  0.300000

                             Maximum     Tolerance    Cnvgd?
         Gradient           0.005883      0.000300      NO
         Displacement       0.116898      0.001200      NO
         Energy change      0.000041      0.000001      NO


 New Cartesian Coordinates Obtained by Inverse Iteration

 Displacement from previous Coordinates is:  0.285965
 ----------------------------------------------------------------
             Standard Nuclear Orientation (Angstroms)
    I     Atom           X                Y                Z
 ----------------------------------------------------------------
    1      C      -0.8911504912    -0.4100372403    -0.3518834373
    2      H      -1.1042167630    -0.2671302270    -1.4091957115
    3      C      -1.3790932256    -1.5253639781     0.2549011766
    4      H      -1.0936585424    -1.7823844717     1.2707681079
    5      H      -2.1329906355    -2.1455101629    -0.2166875353
    6      C       0.3156969226     0.3304551188     0.1798876702
    7      H       0.3089651629     0.3345637565     1.2745344951
    8      H       0.3160421301     1.3734462614    -0.1471444463
    9      C       1.6216349635    -0.3054160225    -0.2939979298
   10      H       1.6273528882    -0.3646542173    -1.3930039296
   11      H       1.6955974847    -1.3298092447     0.0969529366
   12      O       2.6910186060     0.5090791945     0.1801504354
   13      H       3.5202380523     0.1155883923    -0.1060405086
   14      C      -2.4788170000     1.2264743472     0.0262078924
   15      H      -2.4433270352     1.2678263622     1.1079258284
   16      H      -1.9979446693     2.0352328523    -0.5127505125
   17      H      -3.3801529814     0.8137740327    -0.4104886353
 ----------------------------------------------------------------
 Molecular Point Group                 C1    NOp =  1
 Largest Abelian Subgroup              C1    NOp =  1
 Nuclear Repulsion Energy =   234.6182008360 hartrees
 There are       25 alpha and       24 beta electrons
 Applying Cartesian multipole field
    Component          Value
    ---------          -----
     (2,0,0)        1.00000E-11
     (0,2,0)        2.00000E-11
     (0,0,2)       -3.00000E-11
 Nucleus-field energy     =     0.0000000083 hartrees
 Requested basis set is non-standard
 There are 138 shells and 314 basis functions
 A cutoff of  1.0D-12 yielded   8886 shell pairs
 There are     45520 function pairs (     54579 Cartesian)
 Smallest overlap matrix eigenvalue = 2.06E-05
 Guess MOs from SCF MO coefficient file
Reading MOs from coefficient file
Reading MOs from coefficient file
 An unrestricted hybrid HF-DFT SCF calculation will be
 performed using Pulay DIIS + Geometric Direct Minimization
 Exchange:     0.5679 Hartree-Fock + 1.0000 M08SO
 SCF converges when RMS gradient is below 1.0E-08
Geometry optimization detected.  Setting ReadMinima to 0
Setting SaveMinima to 0
 Inaccurate integrated density:
   Number of electrons =    49
   Numerical integral  =    48.991340357174
   Relative error      =    -0.0176727405 %
 ---------------------------------------
  Cycle       Energy        RMS Gradient
 ---------------------------------------
    1    -272.1428193968      3.19E-04 Done DIIS. Switching to GDM
    2    -272.1477980384      2.00E-03 Normal BFGS step
    3    -272.1478619050      8.63E-04 Normal BFGS step
    4    -272.1478699122      8.91E-04 Normal BFGS step
    5    -272.1478731476      1.96E-04 Normal BFGS step
    6    -272.1478733716      1.91E-04 Normal BFGS step
    7    -272.1478735913      1.25E-04 Normal BFGS step
    8    -272.1478736815      4.25E-05 Normal BFGS step
    9    -272.1478737030      2.30E-05 Normal BFGS step
   10    -272.1478737094      1.16E-05 Normal BFGS step
   11    -272.1478737101      3.60E-06 Normal BFGS step
   12    -272.1478737104      1.40E-06 Normal BFGS step
   13    -272.1478737104      2.25E-07 Normal BFGS step
   GDM::WARNING energy changes are now smaller than effective accuracy.
   GDM::        calculation will continue, but THRESH should be increased
   GDM::        or SCF_CONVERGENCE decreased.
   GDM::        effective_thresh =   1.658068403062596E-009
   14    -272.1478737104      1.78E-07 Normal BFGS step
   15    -272.1478737104      6.67E-08 Normal BFGS step
   16    -272.1478737105      3.07E-08 Normal BFGS step
   17    -272.1478737106      1.02E-08 Normal BFGS step
   18    -272.1478737108      3.11E-09 Convergence criterion met
 ---------------------------------------
 <S^2> = 0.7734
 SCF time:  CPU 1360.71 s  wall 1380.99 s
 SCF   energy in the final basis set = -272.1478737108
 Total energy in the final basis set = -272.1478737108
 Analysis of SCF Wavefunction
 
 --------------------------------------------------------------
                    Orbital Energies (a.u.)
 --------------------------------------------------------------
 
 Alpha MOs
 -- Occupied --
-19.566 -10.545 -10.513 -10.502 -10.496 -10.492  -1.137  -0.905
 -0.817  -0.769  -0.712  -0.645  -0.598  -0.562  -0.524  -0.498
 -0.491  -0.478  -0.474  -0.429  -0.421  -0.412  -0.363  -0.359
 -0.247
 -- Virtual --
 -0.027  -0.018  -0.010  -0.005   0.007   0.016   0.019   0.022
  0.031   0.035   0.042   0.054   0.067   0.072   0.081   0.093
  0.100   0.107   0.111   0.118   0.128   0.130   0.133   0.134
  0.137   0.138   0.155   0.161   0.168   0.179   0.181   0.198
  0.206   0.213   0.216   0.221   0.232   0.239   0.249   0.255
  0.271   0.279   0.281   0.314   0.318   0.325   0.336   0.351
  0.370   0.380   0.402   0.429   0.439   0.462   0.469   0.474
  0.507   0.512   0.522   0.540   0.550   0.561   0.564   0.575
  0.583   0.594   0.595   0.599   0.602   0.618   0.626   0.634
  0.648   0.662   0.667   0.678   0.692   0.713   0.721   0.728
  0.739   0.757   0.773   0.793   0.799   0.809   0.852   0.877
  0.883   0.896   0.913   0.937   0.974   0.985   0.989   1.001
  1.031   1.039   1.057   1.083   1.091   1.092   1.113   1.133
  1.147   1.166   1.188   1.195   1.203   1.219   1.224   1.244
  1.255   1.269   1.297   1.301   1.313   1.337   1.338   1.354
  1.366   1.382   1.407   1.411   1.429   1.434   1.443   1.447
  1.452   1.482   1.497   1.508   1.516   1.545   1.550   1.573
  1.581   1.621   1.653   1.696   1.711   1.754   1.770   1.872
  1.934   2.064   2.095   2.258   2.330   2.363   2.422   2.449
  2.469   2.499   2.529   2.584   2.598   2.629   2.704   2.721
  2.735   2.768   2.774   2.802   2.820   2.829   2.836   2.857
  2.887   2.897   2.905   2.920   2.941   2.956   2.975   3.025
  3.034   3.053   3.067   3.074   3.087   3.107   3.121   3.136
  3.149   3.160   3.185   3.200   3.224   3.255   3.257   3.289
  3.314   3.316   3.344   3.350   3.380   3.396   3.415   3.446
  3.456   3.478   3.510   3.536   3.542   3.560   3.604   3.646
  3.658   3.676   3.705   3.724   3.736   3.745   3.786   3.797
  3.832   3.845   3.869   3.870   3.925   3.942   3.948   3.961
  3.989   4.016   4.059   4.066   4.069   4.085   4.117   4.130
  4.148   4.173   4.191   4.195   4.207   4.236   4.261   4.271
  4.279   4.302   4.344   4.361   4.409   4.413   4.452   4.490
  4.532   4.575   4.602   4.638   4.643   4.705   4.715   4.953
  5.048   5.060   5.135   5.158   5.189   5.221   5.277   5.346
  5.432   5.436   5.469   5.492   5.499   5.504   5.532   5.596
  5.676   5.771   5.840   5.878   6.446   6.951   7.130   7.155
  7.187   7.480   7.600  23.939  24.065  24.137  24.267  24.575
 49.794
 
 Beta MOs
 -- Occupied --
-19.566 -10.545 -10.516 -10.496 -10.486 -10.486  -1.137  -0.903
 -0.815  -0.747  -0.710  -0.643  -0.597  -0.561  -0.523  -0.497
 -0.488  -0.473  -0.469  -0.429  -0.419  -0.411  -0.363  -0.324
 -- Virtual --
 -0.047  -0.028  -0.017  -0.012  -0.004   0.003   0.009   0.015
  0.018   0.027   0.035   0.040   0.048   0.065   0.073   0.079
  0.089   0.099   0.103   0.107   0.115   0.122   0.126   0.127
  0.133   0.134   0.136   0.152   0.159   0.165   0.177   0.178
  0.199   0.206   0.213   0.216   0.223   0.234   0.243   0.248
  0.255   0.271   0.278   0.281   0.314   0.317   0.325   0.337
  0.351   0.369   0.382   0.402   0.430   0.439   0.462   0.470
  0.475   0.510   0.514   0.529   0.553   0.560   0.566   0.570
  0.581   0.585   0.601   0.603   0.607   0.612   0.629   0.630
  0.642   0.654   0.668   0.674   0.687   0.700   0.717   0.722
  0.735   0.742   0.758   0.776   0.796   0.807   0.811   0.860
  0.878   0.888   0.899   0.915   0.941   0.977   0.989   0.994
  1.006   1.034   1.044   1.063   1.088   1.096   1.097   1.116
  1.140   1.148   1.169   1.195   1.198   1.206   1.220   1.232
  1.250   1.260   1.274   1.300   1.308   1.320   1.339   1.351
  1.362   1.370   1.386   1.409   1.420   1.434   1.438   1.450
  1.454   1.466   1.483   1.499   1.510   1.525   1.549   1.551
  1.573   1.581   1.640   1.656   1.703   1.725   1.754   1.769
  1.871   1.933   2.064   2.095   2.258   2.331   2.386   2.436
  2.472   2.494   2.523   2.544   2.589   2.608   2.648   2.705
  2.727   2.759   2.765   2.777   2.817   2.833   2.855   2.862
  2.889   2.905   2.911   2.944   2.968   2.973   2.995   3.019
  3.041   3.062   3.076   3.096   3.104   3.116   3.130   3.146
  3.150   3.159   3.192   3.212   3.247   3.253   3.285   3.289
  3.308   3.329   3.345   3.360   3.377   3.387   3.420   3.441
  3.470   3.480   3.525   3.544   3.551   3.567   3.581   3.622
  3.655   3.660   3.677   3.706   3.725   3.741   3.749   3.789
  3.807   3.838   3.846   3.881   3.893   3.930   3.943   3.953
  3.968   3.992   4.014   4.063   4.072   4.092   4.104   4.116
  4.130   4.162   4.177   4.206   4.213   4.240   4.263   4.277
  4.281   4.286   4.308   4.352   4.374   4.407   4.412   4.455
  4.498   4.536   4.567   4.632   4.649   4.653   4.709   4.720
  4.945   5.086   5.135   5.158   5.173   5.197   5.221   5.285
  5.346   5.451   5.492   5.498   5.524   5.532   5.557   5.561
  5.604   5.677   5.772   5.844   5.882   6.447   6.951   7.130
  7.155   7.187   7.480   7.600  23.940  24.080  24.138  24.267
 24.579  49.794
 --------------------------------------------------------------
 
          Ground-State Mulliken Net Atomic Charges

     Atom                 Charge (a.u.)    Spin (a.u.)
  --------------------------------------------------------
      1 C                     0.110270      -0.267639
      2 H                     0.356230       0.017706
      3 C                    -0.702848       0.430228
      4 H                     0.212778      -0.022625
      5 H                     0.181314      -0.019632
      6 C                    -0.404094       0.034961
      7 H                     0.253625       0.003466
      8 H                     0.208369       0.000123
      9 C                    -0.621939       0.000298
     10 H                     0.208110       0.001589
     11 H                     0.211796      -0.002545
     12 O                    -0.319242      -0.000967
     13 H                     0.272789      -0.000143
     14 C                    -0.474402       0.913447
     15 H                     0.174727      -0.030666
     16 H                     0.153942      -0.026343
     17 H                     0.178577      -0.031259
  --------------------------------------------------------
  Sum of atomic charges =     0.000000
  Sum of spin   charges =     1.000000

 -----------------------------------------------------------------
                    Cartesian Multipole Moments
 -----------------------------------------------------------------
    Charge (ESU x 10^10)
                 0.0000
    Dipole Moment (Debye)
         X       0.2446      Y      -1.0933      Z      -0.9664
       Tot       1.4796
    Quadrupole Moments (Debye-Ang)
        XX     -37.4523     XY      -2.6144     YY     -42.4087
        XZ      -1.8719     YZ      -1.1459     ZZ     -39.4055
    Octopole Moments (Debye-Ang^2)
       XXX      42.6207    XXY     -15.6684    XYY       2.9184
       YYY       1.0530    XXZ     -10.8100    XYZ      -0.9826
       YYZ       0.5969    XZZ       2.6846    YZZ       0.1923
       ZZZ       0.7433
    Hexadecapole Moments (Debye-Ang^3)
      XXXX    -744.1163   XXXY      -0.9682   XXYY    -206.5283
      XYYY      15.3402   YYYY    -288.4898   XXXZ      -8.6513
      XXYZ      -0.1204   XYYZ       3.5045   YYYZ      -5.1121
      XXZZ    -163.1362   XYZZ       1.0673   YYZZ     -62.2146
      XZZZ       1.2192   YZZZ       0.1928   ZZZZ     -91.1622
 -----------------------------------------------------------------
 Calculating analytic gradient of the SCF energy
 Gradient of Coulomb and Exchange Energy
            1           2           3           4           5           6
    1   0.1191411   1.1419092   4.7849780  -0.9037281   3.1469886   0.2644255
    2  -0.8363592  -0.7566558   5.8085436   1.4286044   2.7588528   0.3575886
    3   2.4993028   4.5340325  -3.1135831  -3.8401241   1.6987343   1.1033986
            7           8           9          10          11          12
    1   0.0492646   0.0041008  -2.2710441  -0.2860780  -0.6077905  -6.5011328
    2  -0.4074212  -4.5533522  -0.5163389   0.5830042   4.1349288  -5.4343407
    3  -4.5022936   0.8591791   0.0195917   4.2673894  -1.2311643  -3.1163782
           13          14          15          16          17
    1  -4.4974115   2.9011005   0.4266855  -1.0948759   3.3234672
    2   1.2378139  -1.2994140  -0.5422239  -2.9929480   1.0297177
    3   1.0008864   0.3044554  -3.6419758   1.7778782   1.3806708
 Gradient of SCF Energy
            1           2           3           4           5           6
    1  -0.0059037   0.0023051  -0.0018231  -0.0014430   0.0014116   0.0018449
    2   0.0142449  -0.0013272  -0.0084442   0.0002167   0.0012647  -0.0003338
    3  -0.0013329   0.0021585   0.0034696  -0.0025215   0.0014667  -0.0009969
            7           8           9          10          11          12
    1   0.0003438   0.0002857   0.0010426  -0.0004639  -0.0002840   0.0031516
    2   0.0001986  -0.0030742  -0.0032587  -0.0003262   0.0014813   0.0045367
    3  -0.0028547   0.0008264  -0.0018525   0.0016448  -0.0010784   0.0029257
           13          14          15          16          17
    1  -0.0020618   0.0039984  -0.0015501  -0.0018801   0.0010261
    2  -0.0013918  -0.0058397   0.0006639  -0.0013348   0.0027238
    3  -0.0008840  -0.0015410  -0.0027422   0.0016480   0.0016644
 Max gradient component =       1.424E-02
 RMS gradient           =       3.208E-03
 Gradient time:  CPU 87.40 s  wall 87.47 s
 Geometry Optimization Parameters
   NAtoms,    NIC,     NZ,  NCons,   NDum,   NFix, NCnnct, MaxDiis
       17     127       0       0       0       0       0       0

 Cartesian Hessian Update
 Hessian Updated using Powell/Murtagh-Sargent Update
  Mixing factors:     0.991692 Powell
                      0.008308 Murtagh-Sargent


** GEOMETRY OPTIMIZATION IN DELOCALIZED INTERNAL COORDINATES **
   Searching for a Transition State

   Optimization Cycle:   3

                       Coordinates (Angstroms)
     ATOM                X               Y               Z
      1  C        -0.8911504912   -0.4100372403   -0.3518834373
      2  H        -1.1042167630   -0.2671302270   -1.4091957115
      3  C        -1.3790932256   -1.5253639781    0.2549011766
      4  H        -1.0936585424   -1.7823844717    1.2707681079
      5  H        -2.1329906355   -2.1455101629   -0.2166875353
      6  C         0.3156969226    0.3304551188    0.1798876702
      7  H         0.3089651629    0.3345637565    1.2745344951
      8  H         0.3160421301    1.3734462614   -0.1471444463
      9  C         1.6216349635   -0.3054160225   -0.2939979298
     10  H         1.6273528882   -0.3646542173   -1.3930039296
     11  H         1.6955974847   -1.3298092447    0.0969529366
     12  O         2.6910186060    0.5090791945    0.1801504354
     13  H         3.5202380523    0.1155883923   -0.1060405086
     14  C        -2.4788170000    1.2264743472    0.0262078924
     15  H        -2.4433270352    1.2678263622    1.1079258284
     16  H        -1.9979446693    2.0352328523   -0.5127505125
     17  H        -3.3801529814    0.8137740327   -0.4104886353
   Point Group: c1    Number of degrees of freedom:    45


   Energy is   -272.147873711

 GETINT wrote B to file, NVib is           45
 Hessian Updated using Powell/Murtagh-Sargent Update
  Mixing factors:     0.999660 Powell
                      0.000340 Murtagh-Sargent

 45 Hessian modes will be used to form the next step
  Hessian Eigenvalues:
     0.000407    0.005474    0.007525    0.012215    0.027543    0.027730
     0.031189    0.036627    0.038576    0.044698    0.050601    0.054406
     0.058283    0.060747    0.063518    0.066641    0.083282    0.095230
     0.109370    0.118383    0.121543    0.135701    0.150648    0.153664
     0.159398    0.159991    0.159999    0.160000    0.219067    0.219619
     0.296084    0.310949    0.320901    0.336497    0.338354    0.343422
     0.345181    0.353305    0.355044    0.355488    0.356534    0.356787
     0.415790    0.527066    0.551923
**WARNING** Hessian does not have the Desired Local Structure

 Transition State Search - Taking P-RFO Step
 Searching for Lamda that Maximizes Along the Lowest mode
 Value Taken    Lamda =   0.00040776
 Searching for Lamda that Minimizes Along All other modes
 Value Taken    Lamda =  -0.00120209
 Calculated Step too Large.  Step scaled by  0.014455
 Step Taken.  Stepsize is  0.300000

                             Maximum     Tolerance    Cnvgd?
         Gradient           0.005322      0.000300      NO
         Displacement       0.117535      0.001200      NO
         Energy change     -0.000037      0.000001      NO


 New Cartesian Coordinates Obtained by Inverse Iteration

 Displacement from previous Coordinates is:  0.284749
 ----------------------------------------------------------------
             Standard Nuclear Orientation (Angstroms)
    I     Atom           X                Y                Z
 ----------------------------------------------------------------
    1      C      -0.8899616478    -0.4143266871    -0.3494393371
    2      H      -1.1094721151    -0.2766463669    -1.4064856526
    3      C      -1.3729544882    -1.5259802107     0.2661887998
    4      H      -1.0820442970    -1.7757321465     1.2823900543
    5      H      -2.1272576698    -2.1511174857    -0.1981600359
    6      C       0.3166973770     0.3326408030     0.1739640336
    7      H       0.3120460390     0.3457637218     1.2686038852
    8      H       0.3164771459     1.3727825033    -0.1618258651
    9      C       1.6218601251    -0.3068698236    -0.2972027534
   10      H       1.6248724412    -0.3757498928    -1.3957182109
   11      H       1.6965159522    -1.3279229690     0.1023919193
   12      O       2.6920217060     0.5116803613     0.1673679096
   13      H       3.5208610458     0.1162119626    -0.1170675485
   14      C      -2.4865265460     1.2282758443     0.0273441920
   15      H      -2.5109753779     1.2156963859     1.1100359233
   16      H      -1.9559180128     2.0478980628    -0.4440768345
   17      H      -3.3710468108     0.8595306908    -0.4781745825
 ----------------------------------------------------------------
 Molecular Point Group                 C1    NOp =  1
 Largest Abelian Subgroup              C1    NOp =  1
 Nuclear Repulsion Energy =   234.5192080481 hartrees
 There are       25 alpha and       24 beta electrons
 Applying Cartesian multipole field
    Component          Value
    ---------          -----
     (2,0,0)        1.00000E-11
     (0,2,0)        2.00000E-11
     (0,0,2)       -3.00000E-11
 Nucleus-field energy     =     0.0000000083 hartrees
 Requested basis set is non-standard
 There are 138 shells and 314 basis functions
 A cutoff of  1.0D-12 yielded   8884 shell pairs
 There are     45508 function pairs (     54571 Cartesian)
 Smallest overlap matrix eigenvalue = 2.05E-05
 Guess MOs from SCF MO coefficient file
Reading MOs from coefficient file
Reading MOs from coefficient file
 An unrestricted hybrid HF-DFT SCF calculation will be
 performed using Pulay DIIS + Geometric Direct Minimization
 Exchange:     0.5679 Hartree-Fock + 1.0000 M08SO
 SCF converges when RMS gradient is below 1.0E-08
Geometry optimization detected.  Setting ReadMinima to 0
Setting SaveMinima to 0
 Inaccurate integrated density:
   Number of electrons =    49
   Numerical integral  =    48.994906897511
   Relative error      =    -0.0103940867 %
 ---------------------------------------
  Cycle       Energy        RMS Gradient
 ---------------------------------------
    1    -272.1435089539      3.17E-04 Done DIIS. Switching to GDM
    2    -272.1477993831      2.15E-03 Normal BFGS step
    3    -272.1478652842      1.14E-03 Normal BFGS step
    4    -272.1478738945      1.19E-03 Normal BFGS step
    5    -272.1478780577      3.52E-04 Normal BFGS step
    6    -272.1478790286      3.03E-04 Normal BFGS step
    7    -272.1478798089      1.11E-04 Normal BFGS step
    8    -272.1478799505      3.30E-05 Normal BFGS step
    9    -272.1478799665      1.87E-05 Normal BFGS step
   10    -272.1478799718      6.30E-06 Normal BFGS step
   11    -272.1478799724      3.46E-06 Normal BFGS step
   12    -272.1478799727      8.55E-07 Normal BFGS step
   GDM::WARNING energy changes are now smaller than effective accuracy.
   GDM::        calculation will continue, but THRESH should be increased
   GDM::        or SCF_CONVERGENCE decreased.
   GDM::        effective_thresh =   3.303830098388971E-009
   13    -272.1478799727      4.17E-07 Normal BFGS step
   GDM::WARNING energy changes are now smaller than effective accuracy.
   GDM::        calculation will continue, but THRESH should be increased
   GDM::        or SCF_CONVERGENCE decreased.
   GDM::        effective_thresh =   3.303830098388971E-009
   14    -272.1478799727      2.47E-07 Normal BFGS step
   GDM::WARNING energy changes are now smaller than effective accuracy.
   GDM::        calculation will continue, but THRESH should be increased
   GDM::        or SCF_CONVERGENCE decreased.
   GDM::        effective_thresh =   3.303830098388971E-009
   15    -272.1478799726      6.69E-08 Normal BFGS step
   16    -272.1478799727      2.64E-08 Normal BFGS step
   17    -272.1478799727      9.26E-09 Convergence criterion met
 ---------------------------------------
 <S^2> = 0.7724
 SCF time:  CPU 1469.21 s  wall 1491.62 s
 SCF   energy in the final basis set = -272.1478799727
 Total energy in the final basis set = -272.1478799727
 Analysis of SCF Wavefunction
 
 --------------------------------------------------------------
                    Orbital Energies (a.u.)
 --------------------------------------------------------------
 
 Alpha MOs
 -- Occupied --
-19.566 -10.545 -10.513 -10.501 -10.496 -10.491  -1.137  -0.905
 -0.817  -0.769  -0.712  -0.645  -0.598  -0.562  -0.524  -0.499
 -0.490  -0.478  -0.474  -0.429  -0.421  -0.412  -0.363  -0.359
 -0.247
 -- Virtual --
 -0.027  -0.018  -0.010  -0.005   0.007   0.015   0.019   0.022
  0.031   0.035   0.043   0.054   0.067   0.072   0.081   0.093
  0.100   0.107   0.111   0.118   0.127   0.129   0.133   0.134
  0.136   0.139   0.156   0.161   0.167   0.180   0.180   0.198
  0.206   0.213   0.217   0.220   0.232   0.238   0.248   0.256
  0.271   0.279   0.281   0.312   0.318   0.326   0.336   0.350
  0.371   0.381   0.402   0.430   0.438   0.462   0.470   0.474
  0.508   0.512   0.521   0.541   0.552   0.559   0.563   0.575
  0.583   0.593   0.595   0.598   0.601   0.618   0.625   0.635
  0.649   0.660   0.667   0.678   0.694   0.713   0.722   0.728
  0.738   0.757   0.774   0.793   0.799   0.808   0.854   0.877
  0.884   0.893   0.912   0.936   0.974   0.986   0.988   1.000
  1.031   1.042   1.055   1.082   1.089   1.090   1.115   1.134
  1.147   1.162   1.188   1.194   1.203   1.221   1.223   1.243
  1.258   1.271   1.297   1.300   1.313   1.335   1.340   1.350
  1.364   1.384   1.406   1.413   1.429   1.434   1.441   1.447
  1.452   1.481   1.497   1.508   1.516   1.544   1.551   1.573
  1.582   1.624   1.653   1.696   1.711   1.754   1.771   1.873
  1.935   2.064   2.095   2.259   2.330   2.363   2.423   2.447
  2.468   2.499   2.528   2.584   2.599   2.633   2.704   2.721
  2.738   2.765   2.773   2.803   2.821   2.829   2.836   2.858
  2.886   2.896   2.903   2.922   2.941   2.955   2.974   3.025
  3.033   3.046   3.069   3.072   3.090   3.106   3.121   3.135
  3.150   3.159   3.184   3.199   3.225   3.251   3.252   3.290
  3.312   3.317   3.343   3.350   3.377   3.397   3.412   3.444
  3.453   3.472   3.510   3.537   3.543   3.560   3.603   3.644
  3.658   3.676   3.705   3.724   3.735   3.743   3.786   3.796
  3.833   3.845   3.863   3.870   3.924   3.942   3.948   3.962
  3.988   4.017   4.056   4.065   4.071   4.086   4.116   4.130
  4.147   4.173   4.191   4.196   4.206   4.236   4.262   4.271
  4.280   4.301   4.338   4.366   4.408   4.411   4.453   4.492
  4.528   4.578   4.601   4.638   4.645   4.701   4.716   4.953
  5.049   5.058   5.135   5.158   5.188   5.221   5.279   5.346
  5.428   5.433   5.468   5.492   5.499   5.505   5.533   5.595
  5.676   5.771   5.840   5.878   6.447   6.951   7.130   7.154
  7.187   7.481   7.600  23.938  24.065  24.137  24.268  24.578
 49.795
 
 Beta MOs
 -- Occupied --
-19.566 -10.545 -10.516 -10.496 -10.486 -10.485  -1.137  -0.903
 -0.815  -0.746  -0.710  -0.643  -0.598  -0.562  -0.523  -0.498
 -0.487  -0.473  -0.469  -0.429  -0.419  -0.411  -0.363  -0.324
 -- Virtual --
 -0.046  -0.028  -0.017  -0.012  -0.004   0.003   0.009   0.015
  0.018   0.027   0.036   0.040   0.048   0.065   0.073   0.078
  0.090   0.100   0.103   0.107   0.116   0.122   0.126   0.128
  0.133   0.134   0.137   0.152   0.158   0.165   0.176   0.178
  0.199   0.205   0.213   0.217   0.222   0.235   0.242   0.248
  0.256   0.271   0.278   0.282   0.313   0.317   0.326   0.336
  0.350   0.370   0.383   0.401   0.431   0.438   0.462   0.470
  0.475   0.509   0.515   0.529   0.555   0.559   0.566   0.568
  0.581   0.585   0.601   0.603   0.607   0.611   0.629   0.629
  0.642   0.655   0.667   0.673   0.687   0.701   0.717   0.724
  0.735   0.741   0.759   0.777   0.797   0.806   0.810   0.861
  0.879   0.889   0.896   0.914   0.940   0.978   0.989   0.994
  1.005   1.034   1.047   1.061   1.088   1.094   1.096   1.118
  1.141   1.148   1.165   1.195   1.198   1.205   1.224   1.230
  1.248   1.263   1.276   1.301   1.307   1.319   1.340   1.351
  1.359   1.368   1.389   1.407   1.421   1.434   1.439   1.449
  1.454   1.466   1.482   1.499   1.510   1.525   1.548   1.552
  1.573   1.583   1.643   1.655   1.703   1.724   1.754   1.770
  1.872   1.934   2.064   2.095   2.259   2.331   2.386   2.438
  2.469   2.492   2.530   2.539   2.588   2.612   2.651   2.705
  2.727   2.761   2.765   2.770   2.817   2.834   2.858   2.860
  2.888   2.905   2.908   2.942   2.969   2.974   2.993   3.022
  3.040   3.063   3.077   3.093   3.106   3.112   3.129   3.144
  3.150   3.159   3.189   3.211   3.245   3.252   3.282   3.283
  3.308   3.327   3.346   3.361   3.374   3.386   3.419   3.440
  3.465   3.477   3.523   3.541   3.552   3.566   3.580   3.622
  3.655   3.657   3.676   3.706   3.725   3.741   3.747   3.789
  3.805   3.839   3.846   3.881   3.887   3.931   3.943   3.952
  3.968   3.991   4.014   4.060   4.072   4.093   4.107   4.114
  4.130   4.161   4.178   4.207   4.210   4.239   4.264   4.276
  4.281   4.287   4.307   4.348   4.376   4.406   4.410   4.457
  4.499   4.532   4.569   4.630   4.649   4.657   4.705   4.720
  4.945   5.085   5.135   5.158   5.172   5.196   5.221   5.286
  5.345   5.450   5.492   5.498   5.522   5.532   5.555   5.559
  5.603   5.677   5.772   5.844   5.882   6.447   6.951   7.130
  7.154   7.187   7.480   7.600  23.938  24.080  24.137  24.267
 24.581  49.795
 --------------------------------------------------------------
 
          Ground-State Mulliken Net Atomic Charges

     Atom                 Charge (a.u.)    Spin (a.u.)
  --------------------------------------------------------
      1 C                     0.099292      -0.263770
      2 H                     0.355448       0.017677
      3 C                    -0.696975       0.411964
      4 H                     0.212578      -0.021687
      5 H                     0.182319      -0.018758
      6 C                    -0.399829       0.034301
      7 H                     0.254140       0.003595
      8 H                     0.206674       0.000511
      9 C                    -0.622509       0.000115
     10 H                     0.208908       0.001634
     11 H                     0.211167      -0.002469
     12 O                    -0.319140      -0.000939
     13 H                     0.272846      -0.000149
     14 C                    -0.467229       0.928609
     15 H                     0.172824      -0.031549
     16 H                     0.152140      -0.027425
     17 H                     0.177344      -0.031660
  --------------------------------------------------------
  Sum of atomic charges =     0.000000
  Sum of spin   charges =     1.000000

 -----------------------------------------------------------------
                    Cartesian Multipole Moments
 -----------------------------------------------------------------
    Charge (ESU x 10^10)
                 0.0000
    Dipole Moment (Debye)
         X       0.2458      Y      -1.1021      Z      -0.9531
       Tot       1.4777
    Quadrupole Moments (Debye-Ang)
        XX     -37.4400     XY      -2.6242     YY     -42.4348
        XZ      -1.8511     YZ      -1.1299     ZZ     -39.3781
    Octopole Moments (Debye-Ang^2)
       XXX      42.5287    XXY     -15.6720    XYY       2.9880
       YYY       0.9779    XXZ     -10.7677    XYZ      -0.9195
       YYZ       0.6661    XZZ       2.6141    YZZ       0.0605
       ZZZ       0.8818
    Hexadecapole Moments (Debye-Ang^3)
      XXXX    -745.2438   XXXY      -1.3066   XXYY    -207.1306
      XYYY      16.1991   YYYY    -288.9619   XXXZ      -7.3988
      XXYZ       0.0070   XYYZ       3.8479   YYYZ      -4.5379
      XXZZ    -162.4623   XYZZ       1.2836   YYZZ     -62.6540
      XZZZ       2.3658   YZZZ       0.6609   ZZZZ     -91.1148
 -----------------------------------------------------------------
 Calculating analytic gradient of the SCF energy
 Gradient of Coulomb and Exchange Energy
            1           2           3           4           5           6
    1   0.0802897   1.1717139   4.8472447  -0.9191139   3.1349607   0.3189207
    2  -0.9331974  -0.7344236   5.8214853   1.3941652   2.7852826   0.3681670
    3   2.5769336   4.5309733  -3.1963806  -3.8431383   1.6688492   1.0603602
            7           8           9          10          11          12
    1   0.0344430  -0.0046491  -2.2673904  -0.2731587  -0.6134950  -6.5057323
    2  -0.4429520  -4.5447620  -0.4993928   0.6197064   4.1257742  -5.4622336
    3  -4.4911374   0.9059632   0.0095407   4.2609095  -1.2650219  -3.0561319
           13          14          15          16          17
    1  -4.4981086   2.8399085   0.6367091  -1.2490026   3.2664604
    2   1.2434674  -1.2524347  -0.3417636  -3.0309451   0.8840566
    3   0.9987630   0.3286361  -3.6488387   1.5560338   1.6036864
 Gradient of SCF Energy
            1           2           3           4           5           6
    1  -0.0070105   0.0024444  -0.0019501  -0.0014318   0.0014045   0.0020287
    2   0.0162135  -0.0015030  -0.0091258   0.0002145   0.0012595  -0.0003260
    3  -0.0011900   0.0018049   0.0038789  -0.0024846   0.0014407  -0.0010921
            7           8           9          10          11          12
    1   0.0003261   0.0002752   0.0010779  -0.0004767  -0.0002942   0.0031151
    2   0.0001484  -0.0030274  -0.0031363  -0.0003123   0.0014336   0.0044433
    3  -0.0028214   0.0008673  -0.0017506   0.0016200  -0.0010768   0.0028015
           13          14          15          16          17
    1  -0.0020698   0.0051931  -0.0015306  -0.0018274   0.0007261
    2  -0.0013658  -0.0072490   0.0008305  -0.0013068   0.0028091
    3  -0.0008324  -0.0017649  -0.0027146   0.0014500   0.0018641
 Max gradient component =       1.621E-02
 RMS gradient           =       3.545E-03
 Gradient time:  CPU 103.91 s  wall 104.00 s
 Geometry Optimization Parameters
   NAtoms,    NIC,     NZ,  NCons,   NDum,   NFix, NCnnct, MaxDiis
       17     127       0       0       0       0       0       0

 Cartesian Hessian Update
 Hessian Updated using Powell/Murtagh-Sargent Update
  Mixing factors:     0.982533 Powell
                      0.017467 Murtagh-Sargent


** GEOMETRY OPTIMIZATION IN DELOCALIZED INTERNAL COORDINATES **
   Searching for a Transition State

   Optimization Cycle:   4

                       Coordinates (Angstroms)
     ATOM                X               Y               Z
      1  C        -0.8899616478   -0.4143266871   -0.3494393371
      2  H        -1.1094721151   -0.2766463669   -1.4064856526
      3  C        -1.3729544882   -1.5259802107    0.2661887998
      4  H        -1.0820442970   -1.7757321465    1.2823900543
      5  H        -2.1272576698   -2.1511174857   -0.1981600359
      6  C         0.3166973770    0.3326408030    0.1739640336
      7  H         0.3120460390    0.3457637218    1.2686038852
      8  H         0.3164771459    1.3727825033   -0.1618258651
      9  C         1.6218601251   -0.3068698236   -0.2972027534
     10  H         1.6248724412   -0.3757498928   -1.3957182109
     11  H         1.6965159522   -1.3279229690    0.1023919193
     12  O         2.6920217060    0.5116803613    0.1673679096
     13  H         3.5208610458    0.1162119626   -0.1170675485
     14  C        -2.4865265460    1.2282758443    0.0273441920
     15  H        -2.5109753779    1.2156963859    1.1100359233
     16  H        -1.9559180128    2.0478980628   -0.4440768345
     17  H        -3.3710468108    0.8595306908   -0.4781745825
   Point Group: c1    Number of degrees of freedom:    45


   Energy is   -272.147879973

 GETINT wrote B to file, NVib is           45
 Hessian Updated using Powell/Murtagh-Sargent Update
  Mixing factors:     0.997036 Powell
                      0.002964 Murtagh-Sargent

 45 Hessian modes will be used to form the next step
  Hessian Eigenvalues:
    -0.000345    0.005474    0.007527    0.012215    0.027543    0.027730
     0.031203    0.036764    0.038576    0.044699    0.050601    0.054406
     0.058283    0.060747    0.063571    0.066641    0.083282    0.095230
     0.109370    0.118381    0.121543    0.135701    0.150640    0.153664
     0.159396    0.159991    0.159999    0.160000    0.219067    0.219619
     0.296084    0.310948    0.320894    0.336497    0.338354    0.343422
     0.345181    0.353305    0.355044    0.355488    0.356534    0.356786
     0.415789    0.526996    0.551923

 Transition State Search - Taking P-RFO Step
 Searching for Lamda that Maximizes Along the Lowest mode
 Value Taken    Lamda =   0.00037085
 Searching for Lamda that Minimizes Along All other modes
 Value Taken    Lamda =  -0.00144667
 Calculated Step too Large.  Step scaled by  0.408470
 Step Taken.  Stepsize is  0.300000

                             Maximum     Tolerance    Cnvgd?
         Gradient           0.005210      0.000300      NO
         Displacement       0.111154      0.001200      NO
         Energy change     -0.000006      0.000001      NO


 New Cartesian Coordinates Obtained by Inverse Iteration

 Displacement from previous Coordinates is:  0.294752
 ----------------------------------------------------------------
             Standard Nuclear Orientation (Angstroms)
    I     Atom           X                Y                Z
 ----------------------------------------------------------------
    1      C      -0.8884392569    -0.4148206247    -0.3567027920
    2      H      -1.1074440395    -0.2701260830    -1.4145581337
    3      C      -1.3755858078    -1.5252706467     0.2538470318
    4      H      -1.0852635088    -1.7786285742     1.2710996667
    5      H      -2.1303215699    -2.1485276247    -0.2156023148
    6      C       0.3117136030     0.3315498508     0.1798734028
    7      H       0.3016888864     0.3328957604     1.2763236421
    8      H       0.3093908071     1.3768617845    -0.1464766938
    9      C       1.6166957963    -0.3051842724    -0.2941535444
   10      H       1.6240841617    -0.3631558856    -1.3942884727
   11      H       1.6896009831    -1.3306077519     0.0975877590
   12      O       2.6865086188     0.5057201262     0.1798206748
   13      H       3.5208034647     0.1179274859    -0.1005215707
   14      C      -2.4752692330     1.2290919921     0.0269442375
[...]
  4.119   4.129   4.144   4.150   4.156   4.183   4.197   4.205
  4.223   4.265   4.279   4.288   4.322   4.377   4.426   4.432
  4.483   4.508   4.538   4.585   4.625   4.717   4.739   4.766
  4.940   5.071   5.135   5.156   5.180   5.188   5.213   5.332
  5.371   5.461   5.467   5.471   5.481   5.484   5.492   5.537
  5.606   5.637   5.776   5.879   5.930   6.463   6.952   7.124
  7.143   7.190   7.492   7.595  23.897  24.026  24.138  24.266
 24.654  49.795
 --------------------------------------------------------------
 
          Ground-State Mulliken Net Atomic Charges

     Atom                 Charge (a.u.)    Spin (a.u.)
  --------------------------------------------------------
      1 C                     0.273555      -0.054963
      2 H                     0.317618       0.013316
      3 C                    -0.769314       0.034719
      4 H                     0.203756      -0.001105
      5 H                     0.172260      -0.000683
      6 C                    -0.391422       0.016012
      7 H                     0.218272       0.000651
      8 H                     0.173503       0.001558
      9 C                    -0.554039      -0.000274
     10 H                     0.208011       0.000429
     11 H                     0.192171      -0.000019
     12 O                    -0.321560      -0.000183
     13 H                     0.278228       0.000133
     14 C                    -0.434737       1.122116
     15 H                     0.149176      -0.043488
     16 H                     0.144314      -0.044957
     17 H                     0.140206      -0.043262
  --------------------------------------------------------
  Sum of atomic charges =     0.000000
  Sum of spin   charges =     1.000000

 -----------------------------------------------------------------
                    Cartesian Multipole Moments
 -----------------------------------------------------------------
    Charge (ESU x 10^10)
                 0.0000
    Dipole Moment (Debye)
         X       0.3888      Y      -0.9648      Z      -1.1470
       Tot       1.5484
    Quadrupole Moments (Debye-Ang)
        XX     -37.2170     XY      -0.4979     YY     -42.9200
        XZ      -3.5343     YZ      -1.0686     ZZ     -38.6848
    Octopole Moments (Debye-Ang^2)
       XXX      43.9727    XXY     -12.6986    XYY       4.8505
       YYY       2.7623    XXZ     -14.0480    XYZ      -1.8194
       YYZ       2.3218    XZZ       2.8939    YZZ       0.7322
       ZZZ      -1.5678
    Hexadecapole Moments (Debye-Ang^3)
      XXXX    -862.8639   XXXY      73.0359   XXYY    -255.5766
      XYYY      65.8310   YYYY    -421.9407   XXXZ     -32.9798
      XXYZ       4.5238   XYYZ       3.0406   YYYZ      19.1065
      XXZZ    -174.8708   XYZZ      13.9907   YYZZ     -84.4738
      XZZZ      19.0057   YZZZ      13.9436   ZZZZ    -105.2014
 -----------------------------------------------------------------
 Calculating analytic gradient of the SCF energy
 Gradient of Coulomb and Exchange Energy
            1           2           3           4           5           6
    1  -1.0394634   1.4242975   5.9969175  -0.7683874   3.2778896   0.3603861
    2  -1.2810122  -0.7149015   6.4338645   1.1217428   2.3891006   0.4764202
    3   2.9514008   4.0553389  -3.8624390  -3.8850179   1.5022077  -0.0614106
            7           8           9          10          11          12
    1  -0.5664439   0.7330604  -1.7073710   0.4096211  -1.4402091  -5.9681866
    2   0.6042220  -4.4027328  -0.0360864  -0.3425029   4.1375235  -5.4545432
    3  -4.3315436  -0.0898325   0.8288744   4.2292484  -0.1359508  -3.2583251
           13          14          15          16          17
    1  -4.4244456   2.8404815   2.2364530  -2.1217918   0.7571920
    2   0.1483958  -2.3018634   1.1571203  -2.3679045   0.4331573
    3   1.7684218   0.2553320  -2.2615629  -0.9161707   3.2114289
 Gradient of SCF Energy
            1           2           3           4           5           6
    1   0.0001886   0.0000601  -0.0001223   0.0000131  -0.0000084   0.0000852
    2  -0.0001442   0.0001578   0.0001570  -0.0000166   0.0000107  -0.0001041
    3  -0.0000691   0.0000012   0.0000612  -0.0000065   0.0000030  -0.0000487
            7           8           9          10          11          12
    1  -0.0000002  -0.0000069  -0.0000031   0.0000018   0.0000018   0.0000003
    2   0.0000033   0.0000043   0.0000019   0.0000003   0.0000012   0.0000033
    3   0.0000007  -0.0000027   0.0000047   0.0000018   0.0000013   0.0000041
           13          14          15          16          17
    1   0.0000010   0.0000257  -0.0001905  -0.0000048  -0.0000413
    2  -0.0000000  -0.0002904   0.0002479  -0.0000098  -0.0000226
    3   0.0000027   0.0000010  -0.0000011   0.0000280   0.0000185
 Max gradient component =       2.904E-04
 RMS gradient           =       8.171E-05
 Gradient time:  CPU 73.74 s  wall 73.58 s
 Geometry Optimization Parameters
   NAtoms,    NIC,     NZ,  NCons,   NDum,   NFix, NCnnct, MaxDiis
       17     127       0       0       0       0       0       0

 Cartesian Hessian Update
 Hessian Updated using Powell/Murtagh-Sargent Update
  Mixing factors:     0.427580 Powell
                      0.572420 Murtagh-Sargent


** GEOMETRY OPTIMIZATION IN DELOCALIZED INTERNAL COORDINATES **
   Searching for a Transition State

   Optimization Cycle:  60

                       Coordinates (Angstroms)
     ATOM                X               Y               Z
      1  C        -0.6909024943   -0.8227979303   -0.1863256143
      2  H        -0.9852528527   -0.6297830732   -1.2215631734
      3  C        -1.3536381858   -1.7376045845    0.5163145128
      4  H        -1.0888825771   -1.9525411796    1.5517440076
      5  H        -2.1830339729   -2.2964942467    0.0885931045
      6  C         0.4655352227   -0.0170485366    0.3369192728
      7  H         0.6398262001   -0.2391520570    1.3981034775
      8  H         0.2452568140    1.0581225909    0.2557581354
      9  C         1.7433719423   -0.2908850303   -0.4515883193
     10  H         1.5601234874   -0.1155791467   -1.5256940936
     11  H         2.0354411560   -1.3462466287   -0.3261998803
     12  O         2.7506590882    0.5797367839    0.0377810175
     13  H         3.5788915883    0.4186033798   -0.4238157192
     14  C        -2.8812187330    1.8180074066   -0.1250310011
     15  H        -3.5159821143    1.3552348434    0.6216438430
     16  H        -2.0930342557    2.4976312615    0.1792190845
     17  H        -3.0319654464    1.5969309009   -1.1757227579
   Point Group: c1    Number of degrees of freedom:    45


   Energy is   -272.161076221

 GETINT wrote B to file, NVib is           45
 Hessian Updated using Powell/Murtagh-Sargent Update
  Mixing factors:     0.762095 Powell
                      0.237905 Murtagh-Sargent

 45 Hessian modes will be used to form the next step
  Hessian Eigenvalues:
     0.000320    0.001871    0.005487    0.008425    0.012208    0.026927
     0.027581    0.028891    0.038541    0.044463    0.050572    0.054400
     0.056078    0.058217    0.060730    0.064120    0.066897    0.083279
     0.109361    0.115544    0.121497    0.134403    0.135678    0.148232
     0.152320    0.159905    0.159964    0.160007    0.218675    0.219564
     0.296043    0.310816    0.320290    0.336488    0.338344    0.343422
     0.345138    0.353299    0.355031    0.355488    0.356522    0.356788
     0.415597    0.521069    0.551916
**WARNING** Hessian does not have the Desired Local Structure

 Transition State Search - Taking P-RFO Step
 Searching for Lamda that Maximizes Along the Lowest mode
 Value Taken    Lamda =   0.00033786
 Searching for Lamda that Minimizes Along All other modes
 Value Taken    Lamda =  -0.00004547
 Calculated Step too Large.  Step scaled by  0.069245
 Step Taken.  Stepsize is  0.300000

                             Maximum     Tolerance    Cnvgd?
         Gradient           0.000292      0.000300     YES
         Displacement       0.093108      0.001200      NO
         Energy change     -0.000004      0.000001      NO


 New Cartesian Coordinates Obtained by Inverse Iteration

 Displacement from previous Coordinates is:  0.386248
 ----------------------------------------------------------------
             Standard Nuclear Orientation (Angstroms)
    I     Atom           X                Y                Z
 ----------------------------------------------------------------
    1      C      -0.6914020516    -0.7985238466    -0.1963482692
    2      H      -0.9961939666    -0.6047530360    -1.2284415717
    3      C      -1.3468353197    -1.7138900340     0.5124037905
    4      H      -1.0731829065    -1.9276028391     1.5458004794
    5      H      -2.1786329176    -2.2746807427     0.0918914704
    6      C       0.4694591204     0.0076343420     0.3166557716
    7      H       0.6298056639    -0.1863432382     1.3855523375
    8      H       0.2647963655     1.0826825776     0.2019793356
    9      C       1.7520573976    -0.3066927110    -0.4490205271
   10      H       1.5836554935    -0.1605424430    -1.5298508562
   11      H       2.0269083634    -1.3620097325    -0.2892705257
   12      O       2.7663032129     0.5634710824     0.0266329369
   13      H       3.5971419129     0.3770976757    -0.4205719877
   14      C      -2.8979094161     1.7900912688    -0.1041762450
   15      H      -3.5796006965     1.3056054450     0.5852702492
   16      H      -2.1372802498     2.4649240640     0.2721933893
   17      H      -2.9938951387     1.6196669209    -1.1705638812
 ----------------------------------------------------------------
 Molecular Point Group                 C1    NOp =  1
 Largest Abelian Subgroup              C1    NOp =  1
 Nuclear Repulsion Energy =   223.3433853902 hartrees
 There are       25 alpha and       24 beta electrons


 *******************************************
 **  MAXIMUM OPTIMIZATION CYCLES REACHED  **
 *******************************************

 Q-Chem fatal error occurred in module OPTMAIN.F, line  440, PE  0:

 Maximum optimization cycles reached

p0_6796:  p4_error: interrupt SIGx: 6
cleanup process ... done

Running Job 2 of 2 iC5H11O-5_betasc_CH3m08.in
qchem iC5H11O-5_betasc_CH3m08.in_6613.1 /scratch/edames/qchem6613/ 8
/opt/qchem/bin/mpi/mpirun_qchem -machinefile /tmp/318636.1.normal3/hostfile -np 8 /opt/qchem/exe/qcprog.exe iC5H11O-5_betasc_CH3m08.in_6613.1 /scratch/edames/qchem6613/

Process 0 of 8 is on node64.cluster - thread support 0
Process 1 of 8 is on node64.cluster - thread support 0
Process 3 of 8 is on node64.cluster - thread support 0
Process 5 of 8 is on node64.cluster - thread support 0
Process 4 of 8 is on node64.cluster - thread support 0
Process 6 of 8 is on node64.cluster - thread support 0
Process 7 of 8 is on node64.cluster - thread support 0
Process 2 of 8 is on node64.cluster - thread support 0
initial socket setup ...start
initial socket setup ...done 
now start server 0 ... 
set process cleaner
set process cleaner
set process cleaner
set process cleaner
set process cleaner
set process cleaner
set process cleaner
                  Welcome to Q-Chem
     A Quantum Leap Into The Future Of Chemistry


 Q-Chem 4.2, Q-Chem, Inc., Pleasanton, CA (2014).

 Y. Shao,  Z. Gan,  E. Epifanovsky,  A. T. B. Gilbert,  M. Wormit,  
 J. Kussmann,  A. W. Lange,  A. Behn,  J. Deng,  X. Feng,  D. Ghosh,  
 M. Goldey,  P. R. Horn,  L. D. Jacobson,  I. Kaliman,  R. Z. Khaliullin,  
 T. Kus,  A. Landau,  J. Liu,  E. I. Proynov,  Y. M. Rhee,  R. M. Richard,  
 M. A. Rohrdanz,  R. P. Steele,  E. J. Sundstrom,  H. L. Woodcock III,  
 P. M. Zimmerman,  D. Zuev,  B. Albrecht,  E. Alguire,  B. Austin,  
 G. J. O. Beran,  Y. A. Bernard,  E. Berquist,  K. Brandhorst,  
 K. B. Bravaya,  S. T. Brown,  D. Casanova,  C.-M. Chang,  Y. Chen,  
 S. H. Chien,  K. D. Closser,  D. L. Crittenden,  M. Diedenhofen,  
 R. A. DiStasio Jr.,  H. Do,  A. D. Dutoi,  R. G. Edgar,  S. Fatehi,  
 L. Fusti-Molnar,  A. Ghysels,  A. Golubeva-Zadorozhnaya,  J. Gomes,  
 M. W. D. Hanson-Heine,  P. H. P. Harbach,  A. W. Hauser,  E. G. Hohenstein,  
 Z. C. Holden,  T.-C. Jagau,  H. Ji,  B. Kaduk,  K. Khistyaev,  Jaehoon Kim,  
 Jihan Kim,  R. A. King,  P. Klunzinger,  D. Kosenkov,  T. Kowalczyk,  
 C. M. Krauter,  K. U. Lao,  A. Laurent,  K. V. Lawler,  S. V. Levchenko,  
 C. Y. Lin,  F. Liu,  E. Livshits,  R. C. Lochan,  A. Luenser,  P. Manohar,  
 S. F. Manzer,  S.-P. Mao,  N. Mardirossian,  A. V. Marenich,  S. A. Maurer,  
 N. J. Mayhall,  C. M. Oana,  R. Olivares-Amaya,  D. P. O'Neill,  
 J. A. Parkhill,  T. M. Perrine,  R. Peverati,  P. A. Pieniazek,  A. Prociuk,  
 D. R. Rehn,  E. Rosta,  N. J. Russ,  N. Sergueev,  S. M. Sharada,  
 S. Sharma,  D. W. Small,  A. Sodt,  T. Stein,  D. Stuck,  Y.-C. Su,  
 A. J. W. Thom,  T. Tsuchimochi,  L. Vogt,  O. Vydrov,  T. Wang,  
 M. A. Watson,  J. Wenzel,  A. White,  C. F. Williams,  V. Vanovschi,  
 S. Yeganeh,  S. R. Yost,  Z.-Q. You,  I. Y. Zhang,  X. Zhang,  Y. Zhao,  
 B. R. Brooks,  G. K. L. Chan,  D. M. Chipman,  C. J. Cramer,  
 W. A. Goddard III,  M. S. Gordon,  W. J. Hehre,  A. Klamt,  
 H. F. Schaefer III,  M. W. Schmidt,  C. D. Sherrill,  D. G. Truhlar,  
 A. Warshel,  X. Xu,  A. Aspuru-Guzik,  R. Baer,  A. T. Bell,  N. A. Besley,  
 J.-D. Chai,  A. Dreuw,  B. D. Dunietz,  T. R. Furlani,  S. R. Gwaltney,  
 C.-P. Hsu,  Y. Jung,  J. Kong,  D. S. Lambrecht,  W. Liang,  C. Ochsenfeld,  
 V. A. Rassolov,  L. V. Slipchenko,  J. E. Subotnik,  T. Van Voorhis,  
 J. M. Herbert,  A. I. Krylov,  P. M. W. Gill,  M. Head-Gordon

 Contributors to earlier versions of Q-Chem not listed above: 
 R. D. Adamson,  J. Baker,  E. F. C. Byrd,  A. K. Chakraborty,  C.-L. Cheng,  
 H. Dachsel,  R. J. Doerksen,  G. Hawkins,  A. Heyden,  S. Hirata,  
 G. Kedziora,  F. J. Keil,  C. Kelley,  P. P. Korambath,  W. Kurlancheek,  
 A. M. Lee,  M. S. Lee,  D. Liotard,  I. Lotan,  P. E. Maslen,  N. Nair,  
 D. Neuhauser,  R. Olson,  B. Peters,  J. Ritchie,  N. E. Schultz,  
 N. Shenvi,  A. C. Simmonett,  K. S. Thanthiriwatte,  Q. Wu,  W. Zhang

 Q-Chem 4.2.0 for Intel X86 Linux

 Parts of Q-Chem use Armadillo 4.100.2 (Dirt Cruiser).
 http://arma.sourceforge.net/

 Q-Chem begins on Wed Jul  2 10:07:10 2014  

Host: 
0

     Scratch files written to /scratch/edames/qchem6613.0//
 May2514 8580_ilyak 4150   
 Parallel job on  8  processors
Processing $rem in /opt/qchem/config/preferences.
 MEM_TOTAL  2000 

 Q-Chem warning in module /home/scratch/svnadmin/8580_ilyak/qchem/libgen/rem.C, line 2637:

 !!Desired Analytical derivatives not available.

 2-order derivative to be evaluated numerically with 1-order analytical derivatives

 Q-Chem warning in module /home/scratch/svnadmin/8580_ilyak/qchem/libgen/rem.C, line 2644:

 !!Parallel diagonalization not available.

Warning: disabling incdft.
 Q-Chem warning in module /home/scratch/svnadmin/8580_ilyak/qchem/forms1/BasisType.C, line 1209:

 Setting pure/cartesian flag to 2111 for general basis


Finally everything over in PARseQInput

--------------------------------------------------------------
User input:
--------------------------------------------------------------

$molecule
READ
$end

$rem
JOBTYPE Freq
XC_GRID 000075000434
EXCHANGE M08SO
BASIS gen
GUI=2
SCF_GUESS READ
$end

$basis
H  0
S  3 1.00
3.386500000000E+01 2.549380000000E-02
5.094790000000E+00 1.903730000000E-01
1.158790000000E+00 8.521610000000E-01
S  1 1.00
3.258400000000E-01 1.000000000000E+00
S  1 1.00
1.027410000000E-01 1.000000000000E+00
S  1 1.00
3.600000000000E-02 1.000000000000E+00
P  1 1.00
1.500000000000E+00 1.000000000000E+00
P  1 1.00
3.750000000000E-01 1.000000000000E+00
****
C 0
S  6 1.00
4.563240000000E+03 1.966650000000E-03
6.820240000000E+02 1.523060000000E-02
1.549730000000E+02 7.612690000000E-02
4.445530000000E+01 2.608010000000E-01
1.302900000000E+01 6.164620000000E-01
1.827730000000E+00 2.210060000000E-01
S  3 1.00
2.096420000000E+01 1.146600000000E-01
4.803310000000E+00 9.199990000000E-01
1.459330000000E+00 -3.030680000000E-03
S  1 1.00
4.834560000000E-01 1.000000000000E+00
S  1 1.00
1.455850000000E-01 1.000000000000E+00
S  1 1.00
4.380000000000E-02 1.000000000000E+00
P  3 1.00
2.096420000000E+01 4.024870000000E-02
4.803310000000E+00 2.375940000000E-01
1.459330000000E+00 8.158540000000E-01
P  1 1.00
4.834560000000E-01 1.000000000000E+00
P  1 1.00
1.455850000000E-01 1.000000000000E+00
P  1 1.00
4.380000000000E-02 1.000000000000E+00
D  1 1.00
1.252000000000E+00 1.000000000000E+00
D  1 1.00
3.130000000000E-01 1.000000000000E+00
F  1 1.00
8.000000000000E-01 1.000000000000E+00
****
O  0
S  6 1.00
8.588500000000E+03 1.895150000000E-03
1.297230000000E+03 1.438590000000E-02
2.992960000000E+02 7.073200000000E-02
8.737710000000E+01 2.400010000000E-01
2.567890000000E+01 5.947970000000E-01
3.740040000000E+00 2.808020000000E-01
S  3 1.00
4.211750000000E+01 1.138890000000E-01
9.628370000000E+00 9.208110000000E-01
2.853320000000E+00 -3.274470000000E-03
S  1 1.00
9.056610000000E-01 1.000000000000E+00
S  1 1.00
2.556110000000E-01 1.000000000000E+00
S  1 1.00
8.450000000000E-02 1.000000000000E+00
P  3 1.00
4.211750000000E+01 3.651140000000E-02
9.628370000000E+00 2.371530000000E-01
2.853320000000E+00 8.197020000000E-01
P  1 1.00
9.056610000000E-01 1.000000000000E+00
P  1 1.00
2.556110000000E-01 1.000000000000E+00
P  1 1.00
8.450000000000E-02 1.000000000000E+00
D  1 1.00
2.584000000000E+00 1.000000000000E+00
D  1 1.00
6.460000000000E-01 1.000000000000E+00
F  1 1.00
1.400000000000E+00 1.000000000000E+00
****
--------------------------------------------------------------
 ----------------------------------------------------------------
             Standard Nuclear Orientation (Angstroms)
    I     Atom           X                Y                Z
 ----------------------------------------------------------------
    1      C      -0.6244920972     0.7966318117     0.3430660982
    2      H      -0.9051729401     0.4841499426     1.3526378735
    3      C      -1.2155821704     1.8603837026    -0.1943926890
    4      H      -0.9639802210     2.1955243494    -1.2007945614
    5      H      -1.9713956735     2.4275290980     0.3443986651
    6      C       0.4309912979    -0.0287254643    -0.3391384174
    7      H       0.5665764215     0.3023628609    -1.3773461903
    8      H       0.1274662531    -1.0860559026    -0.3654277365
    9      C       1.7676712469     0.0541619629     0.3933480464
   10      H       1.6292053968    -0.2307948693     1.4504857453
   11      H       2.1372733016     1.0922066866     0.3685568207
   12      O       2.6726194805    -0.8263805200    -0.2530569732
   13      H       3.5348631524    -0.7826257796     0.1707845179
   14      C      -3.0742725174    -1.5408661339     0.0072418972
   15      H      -3.7326199982    -0.9020925900    -0.5700907089
   16      H      -2.3985618038    -2.2203156414    -0.5000780510
   17      H      -3.1105042912    -1.5183592687     1.0905797981
 ----------------------------------------------------------------
 Molecular Point Group                 C1    NOp =  1
 Largest Abelian Subgroup              C1    NOp =  1
 Nuclear Repulsion Energy =   223.3433853902 hartrees
 There are       25 alpha and       24 beta electrons
 Requested basis set is non-standard
 There are 138 shells and 314 basis functions

Total QAlloc Memory Limit   2000 MB
Mega-Array Size        77 MB
MEM_STATIC part        62 MB
 A cutoff of  1.0D-11 yielded   8504 shell pairs
 There are     42890 function pairs (     51349 Cartesian)
p0_3698:  p4_error: : 17
cleanup process ... done
remove work dirs /scratch/edames/qchem6613.0 -- /scratch/edames/qchem6613.7
rm -rf /scratch/edames/qchem6613.0
rm -rf /scratch/edames/qchem6613.1
rm -rf /scratch/edames/qchem6613.2
rm -rf /scratch/edames/qchem6613.3
rm -rf /scratch/edames/qchem6613.4
rm -rf /scratch/edames/qchem6613.5
rm -rf /scratch/edames/qchem6613.6
rm -rf /scratch/edames/qchem6613.7
rm -rf /scratch/edames/qchem6613
