
Running Job 1 of 2 iC5H11O-4_betasc_CH2OH.in
qchem iC5H11O-4_betasc_CH2OH.in_15776.0 /scratch/edames/qchem15776/ 8
/opt/qchem/bin/mpi/mpirun_qchem -machinefile /tmp/317488.1.normal1/hostfile -np 8 /opt/qchem/exe/qcprog.exe iC5H11O-4_betasc_CH2OH.in_15776.0 /scratch/edames/qchem15776/

Process 0 of 8 is on node28.cluster - thread support 0
Process 1 of 8 is on node28.cluster - thread support 0
Process 3 of 8 is on node28.cluster - thread support 0
Process 4 of 8 is on node28.cluster - thread support 0
Process 5 of 8 is on node28.cluster - thread support 0
Process 6 of 8 is on node28.cluster - thread support 0
Process 2 of 8 is on node28.cluster - thread support 0
Process 7 of 8 is on node28.cluster - thread support 0
initial socket setup ...start
initial socket setup ...done 
now start server 0 ... 
set process cleaner
set process cleaner
set process cleaner
set process cleaner
set process cleaner
set process cleaner
                  Welcome to Q-Chem
     A Quantum Leap Into The Future Of Chemistry


 Q-Chem 4.2, Q-Chem, Inc., Pleasanton, CA (2014).

 Y. Shao,  Z. Gan,  E. Epifanovsky,  A. T. B. Gilbert,  M. Wormit,  
 J. Kussmann,  A. W. Lange,  A. Behn,  J. Deng,  X. Feng,  D. Ghosh,  
 M. Goldey,  P. R. Horn,  L. D. Jacobson,  I. Kaliman,  R. Z. Khaliullin,  
 T. Kus,  A. Landau,  J. Liu,  E. I. Proynov,  Y. M. Rhee,  R. M. Richard,  
 M. A. Rohrdanz,  R. P. Steele,  E. J. Sundstrom,  H. L. Woodcock III,  
 P. M. Zimmerman,  D. Zuev,  B. Albrecht,  E. Alguire,  B. Austin,  
 G. J. O. Beran,  Y. A. Bernard,  E. Berquist,  K. Brandhorst,  
 K. B. Bravaya,  S. T. Brown,  D. Casanova,  C.-M. Chang,  Y. Chen,  
 S. H. Chien,  K. D. Closser,  D. L. Crittenden,  M. Diedenhofen,  
 R. A. DiStasio Jr.,  H. Do,  A. D. Dutoi,  R. G. Edgar,  S. Fatehi,  
 L. Fusti-Molnar,  A. Ghysels,  A. Golubeva-Zadorozhnaya,  J. Gomes,  
 M. W. D. Hanson-Heine,  P. H. P. Harbach,  A. W. Hauser,  E. G. Hohenstein,  
 Z. C. Holden,  T.-C. Jagau,  H. Ji,  B. Kaduk,  K. Khistyaev,  Jaehoon Kim,  
 Jihan Kim,  R. A. King,  P. Klunzinger,  D. Kosenkov,  T. Kowalczyk,  
 C. M. Krauter,  K. U. Lao,  A. Laurent,  K. V. Lawler,  S. V. Levchenko,  
 C. Y. Lin,  F. Liu,  E. Livshits,  R. C. Lochan,  A. Luenser,  P. Manohar,  
 S. F. Manzer,  S.-P. Mao,  N. Mardirossian,  A. V. Marenich,  S. A. Maurer,  
 N. J. Mayhall,  C. M. Oana,  R. Olivares-Amaya,  D. P. O'Neill,  
 J. A. Parkhill,  T. M. Perrine,  R. Peverati,  P. A. Pieniazek,  A. Prociuk,  
 D. R. Rehn,  E. Rosta,  N. J. Russ,  N. Sergueev,  S. M. Sharada,  
 S. Sharma,  D. W. Small,  A. Sodt,  T. Stein,  D. Stuck,  Y.-C. Su,  
 A. J. W. Thom,  T. Tsuchimochi,  L. Vogt,  O. Vydrov,  T. Wang,  
 M. A. Watson,  J. Wenzel,  A. White,  C. F. Williams,  V. Vanovschi,  
 S. Yeganeh,  S. R. Yost,  Z.-Q. You,  I. Y. Zhang,  X. Zhang,  Y. Zhao,  
 B. R. Brooks,  G. K. L. Chan,  D. M. Chipman,  C. J. Cramer,  
 W. A. Goddard III,  M. S. Gordon,  W. J. Hehre,  A. Klamt,  
 H. F. Schaefer III,  M. W. Schmidt,  C. D. Sherrill,  D. G. Truhlar,  
 A. Warshel,  X. Xu,  A. Aspuru-Guzik,  R. Baer,  A. T. Bell,  N. A. Besley,  
 J.-D. Chai,  A. Dreuw,  B. D. Dunietz,  T. R. Furlani,  S. R. Gwaltney,  
 C.-P. Hsu,  Y. Jung,  J. Kong,  D. S. Lambrecht,  W. Liang,  C. Ochsenfeld,  
 V. A. Rassolov,  L. V. Slipchenko,  J. E. Subotnik,  T. Van Voorhis,  
 J. M. Herbert,  A. I. Krylov,  P. M. W. Gill,  M. Head-Gordon

 Contributors to earlier versions of Q-Chem not listed above: 
 R. D. Adamson,  J. Baker,  E. F. C. Byrd,  A. K. Chakraborty,  C.-L. Cheng,  
 H. Dachsel,  R. J. Doerksen,  G. Hawkins,  A. Heyden,  S. Hirata,  
 G. Kedziora,  F. J. Keil,  C. Kelley,  P. P. Korambath,  W. Kurlancheek,  
 A. M. Lee,  M. S. Lee,  D. Liotard,  I. Lotan,  P. E. Maslen,  N. Nair,  
 D. Neuhauser,  R. Olson,  B. Peters,  J. Ritchie,  N. E. Schultz,  
 N. Shenvi,  A. C. Simmonett,  K. S. Thanthiriwatte,  Q. Wu,  W. Zhang

 Q-Chem 4.2.0 for Intel X86 Linux

 Parts of Q-Chem use Armadillo 4.100.2 (Dirt Cruiser).
 http://arma.sourceforge.net/

 Q-Chem begins on Fri Jun 20 05:02:49 2014  

Host: 
0

     Scratch files written to /scratch/edames/qchem15776.0//
 May2514 8580_ilyak 4150   
 Parallel job on  8  processors
Processing $rem in /opt/qchem/config/preferences.
 MEM_TOTAL  2000 
Warning: disabling incdft.
 Q-Chem warning in module /home/scratch/svnadmin/8580_ilyak/qchem/forms1/BasisType.C, line 1209:

 Setting pure/cartesian flag to 2111 for general basis


Finally everything over in PARseQInput

--------------------------------------------------------------
User input:
--------------------------------------------------------------
$rem
XC_GRID 000075000434
JOBTYPE ts
EXCHANGE M08SO
BASIS gen
GEOM_OPT_MAX_CYCLES 150
GEOM_OPT_TOL_DISPLACEMENT 3000
GEOM_OPT_TOL_ENERGY 10
SCF_ALGORITHM DIIS_GDM
!   incdft false
!   varthresh false
GUI=2
UNRESTRICTED TRUE
CORRELATION NONE
$end

$comment
c5h11o-2
$end

$molecule
0 2
C          1.03943       -0.04076        0.24374
C          1.21792        1.45068        0.15851
H          2.24306        1.74513        0.41884
H          1.05096        1.82073       -0.86359
H          0.53309        1.97960        0.82381
C          1.90654       -0.86839       -0.66479
H          2.97084       -0.66621       -0.48957
H          1.73974       -1.93844       -0.52279
H          1.72369       -0.63655       -1.72383
C          0.07233       -0.60185        1.02700
H         -0.42575       -0.00392        1.78171
H          0.05552       -1.67576        1.18337
C         -1.91959       -0.65712       -0.08797
H         -2.58816       -1.04751        0.67168
H         -1.66843       -1.32568       -0.90999
O         -2.23581        0.64018       -0.41387
H         -1.64795        0.93182       -1.11762
$end

$basis
H  0
S  3 1.00
3.386500000000E+01 2.549380000000E-02
5.094790000000E+00 1.903730000000E-01
1.158790000000E+00 8.521610000000E-01
S  1 1.00
3.258400000000E-01 1.000000000000E+00
S  1 1.00
1.027410000000E-01 1.000000000000E+00
S  1 1.00
3.600000000000E-02 1.000000000000E+00
P  1 1.00
1.500000000000E+00 1.000000000000E+00
P  1 1.00
3.750000000000E-01 1.000000000000E+00
****
C 0
S  6 1.00
4.563240000000E+03 1.966650000000E-03
6.820240000000E+02 1.523060000000E-02
1.549730000000E+02 7.612690000000E-02
4.445530000000E+01 2.608010000000E-01
1.302900000000E+01 6.164620000000E-01
1.827730000000E+00 2.210060000000E-01
S  3 1.00
2.096420000000E+01 1.146600000000E-01
4.803310000000E+00 9.199990000000E-01
1.459330000000E+00 -3.030680000000E-03
S  1 1.00
4.834560000000E-01 1.000000000000E+00
S  1 1.00
1.455850000000E-01 1.000000000000E+00
S  1 1.00
4.380000000000E-02 1.000000000000E+00
P  3 1.00
2.096420000000E+01 4.024870000000E-02
4.803310000000E+00 2.375940000000E-01
1.459330000000E+00 8.158540000000E-01
P  1 1.00
4.834560000000E-01 1.000000000000E+00
P  1 1.00
1.455850000000E-01 1.000000000000E+00
P  1 1.00
4.380000000000E-02 1.000000000000E+00
D  1 1.00
1.252000000000E+00 1.000000000000E+00
D  1 1.00
3.130000000000E-01 1.000000000000E+00
F  1 1.00
8.000000000000E-01 1.000000000000E+00
****
O  0
S  6 1.00
8.588500000000E+03 1.895150000000E-03
1.297230000000E+03 1.438590000000E-02
2.992960000000E+02 7.073200000000E-02
8.737710000000E+01 2.400010000000E-01
2.567890000000E+01 5.947970000000E-01
3.740040000000E+00 2.808020000000E-01
S  3 1.00
4.211750000000E+01 1.138890000000E-01
9.628370000000E+00 9.208110000000E-01
2.853320000000E+00 -3.274470000000E-03
S  1 1.00
9.056610000000E-01 1.000000000000E+00
S  1 1.00
2.556110000000E-01 1.000000000000E+00
S  1 1.00
8.450000000000E-02 1.000000000000E+00
P  3 1.00
4.211750000000E+01 3.651140000000E-02
9.628370000000E+00 2.371530000000E-01
2.853320000000E+00 8.197020000000E-01
P  1 1.00
9.056610000000E-01 1.000000000000E+00
P  1 1.00
2.556110000000E-01 1.000000000000E+00
P  1 1.00
8.450000000000E-02 1.000000000000E+00
D  1 1.00
2.584000000000E+00 1.000000000000E+00
D  1 1.00
6.460000000000E-01 1.000000000000E+00
F  1 1.00
1.400000000000E+00 1.000000000000E+00
****
$end

--------------------------------------------------------------
 ----------------------------------------------------------------
             Standard Nuclear Orientation (Angstroms)
    I     Atom           X                Y                Z
 ----------------------------------------------------------------
    1      C       1.0394314015    -0.0407599473     0.2437418991
    2      C       1.2179217822     1.4506798791     0.1585096580
    3      H       2.2430613696     1.7451301665     0.4188409577
    4      H       1.0509636382     1.8207281538    -0.8635912698
    5      H       0.5330906932     1.9796011248     0.8238075466
    6      C       1.9065428723    -0.8683916380    -0.6647851569
    7      H       2.9708425953    -0.6662115024    -0.4895636302
    8      H       1.7397424569    -1.9384413689    -0.5227836172
    9      H       1.7236947720    -0.6365534241    -1.7238258759
   10      C       0.0723299362    -0.6018484558     1.0270011584
   11      H      -0.4257512995    -0.0039170857     1.7817092574
   12      H       0.0555194949    -1.6757581852     1.1833729687
   13      C      -1.9195881101    -0.6571200578    -0.0879722525
   14      H      -2.5881595074    -1.0475086529     0.6716772398
   15      H      -1.6684267669    -1.3256815050    -0.9099906650
   16      O      -2.2358073359     0.6401794327    -0.4138750316
   17      H      -1.6479460522     0.9318181361    -1.1176244967
 ----------------------------------------------------------------
 Molecular Point Group                 C1    NOp =  1
 Largest Abelian Subgroup              C1    NOp =  1
 Nuclear Repulsion Energy =   237.5650089238 hartrees
 There are       25 alpha and       24 beta electrons
 Requested basis set is non-standard
 There are 138 shells and 314 basis functions

Total QAlloc Memory Limit   2000 MB
Mega-Array Size        61 MB
MEM_STATIC part        62 MB
 A cutoff of  1.0D-12 yielded   9001 shell pairs
 There are     46535 function pairs (     55986 Cartesian)
 Smallest overlap matrix eigenvalue = 1.06E-05

  Scale SEOQF with 1.000000e-01/1.000000e-01/1.000000e-01

 Standard Electronic Orientation quadrupole field applied
 Nucleus-field energy     =     0.0000000056 hartrees
 Guess MOs from core Hamiltonian diagonalization
 An unrestricted hybrid HF-DFT SCF calculation will be
 performed using Pulay DIIS + Geometric Direct Minimization
 Exchange:     0.5679 Hartree-Fock + 1.0000 M08SO
 SCF converges when RMS gradient is below 1.0E-08
 ---------------------------------------
  Cycle       Energy         DIIS Error
 ---------------------------------------
    1    -196.9333475881      8.99E-02
    2    -169.1768403544      4.75E-02
    3    -177.9119542340      6.21E-02
    4    -245.8373953012      3.60E-02
    5    -268.5446008626      1.60E-02
    6    -271.5854102950      5.97E-03 Done DIIS. Switching to GDM
    7    -272.1124470542      5.35E-02 Descent step
    8    -272.1450970189      4.41E-02 Normal BFGS step
    9    -272.1612521683      1.95E-02 Normal BFGS step
   10    -272.1620110329      6.38E-03 Normal BFGS step
   11    -272.1625181127      2.20E-03 Normal BFGS step
   12    -272.1625544543      9.96E-04 Normal BFGS step
   13    -272.1625622151      4.59E-04 Normal BFGS step
   14    -272.1625635246      3.49E-04 Normal BFGS step
   15    -272.1625642692      1.56E-04 Normal BFGS step
   16    -272.1625644662      8.65E-05 Normal BFGS step
   17    -272.1625645319      3.06E-05 Normal BFGS step
   18    -272.1625645406      7.95E-06 Normal BFGS step
   19    -272.1625645417      3.62E-06 Normal BFGS step
   20    -272.1625645419      1.14E-06 Normal BFGS step
   21    -272.1625645419      6.00E-07 Normal BFGS step
   GDM::WARNING energy changes are now smaller than effective accuracy.
   GDM::        calculation will continue, but THRESH should be increased
   GDM::        or SCF_CONVERGENCE decreased.
   GDM::        effective_thresh =   9.036973114273650E-009
   22    -272.1625645419      1.59E-07 Normal BFGS step
   GDM::WARNING energy changes are now smaller than effective accuracy.
   GDM::        calculation will continue, but THRESH should be increased
   GDM::        or SCF_CONVERGENCE decreased.
   GDM::        effective_thresh =   9.036973114273650E-009
   23    -272.1625645419      3.91E-08 Normal BFGS step
   GDM::WARNING energy changes are now smaller than effective accuracy.
   GDM::        calculation will continue, but THRESH should be increased
   GDM::        or SCF_CONVERGENCE decreased.
   GDM::        effective_thresh =   9.036973114273650E-009
   24    -272.1625645419      1.20E-08 Normal BFGS step
   GDM::WARNING energy changes are now smaller than effective accuracy.
   GDM::        calculation will continue, but THRESH should be increased
   GDM::        or SCF_CONVERGENCE decreased.
   GDM::        effective_thresh =   9.036973114273650E-009
   25    -272.1625645418      5.63E-09 Convergence criterion met
 ---------------------------------------
 <S^2> = 0.7744
 SCF time:  CPU 1557.17 s  wall 1569.43 s
 SCF   energy in the final basis set = -272.1625645418
 Total energy in the final basis set = -272.1625645418
 Analysis of SCF Wavefunction
 
 --------------------------------------------------------------
                    Orbital Energies (a.u.)
 --------------------------------------------------------------
 
 Alpha MOs
 -- Occupied --
-19.590 -10.548 -10.502 -10.488 -10.488 -10.488  -1.165  -0.906
 -0.786  -0.783  -0.753  -0.611  -0.603  -0.532  -0.530  -0.517
 -0.512  -0.487  -0.457  -0.441  -0.429  -0.425  -0.405  -0.331
 -0.212
 -- Virtual --
 -0.031  -0.014  -0.010  -0.006   0.013   0.015   0.018   0.020
  0.023   0.050   0.054   0.059   0.064   0.068   0.073   0.079
  0.095   0.103   0.109   0.118   0.121   0.125   0.127   0.131
  0.136   0.141   0.146   0.152   0.159   0.181   0.183   0.188
  0.205   0.209   0.211   0.221   0.226   0.247   0.252   0.261
  0.266   0.276   0.295   0.298   0.305   0.307   0.321   0.335
  0.369   0.389   0.403   0.435   0.447   0.473   0.487   0.497
  0.501   0.510   0.519   0.536   0.537   0.555   0.563   0.575
  0.581   0.584   0.593   0.600   0.610   0.625   0.629   0.632
  0.644   0.662   0.669   0.685   0.697   0.711   0.726   0.735
  0.744   0.765   0.784   0.795   0.807   0.837   0.850   0.875
  0.894   0.901   0.914   0.949   0.958   0.990   1.008   1.012
  1.024   1.048   1.066   1.078   1.098   1.109   1.129   1.141
  1.143   1.164   1.172   1.175   1.198   1.200   1.230   1.239
  1.255   1.267   1.269   1.280   1.296   1.317   1.333   1.351
  1.358   1.361   1.375   1.399   1.420   1.440   1.445   1.449
  1.453   1.474   1.493   1.514   1.528   1.552   1.569   1.588
  1.592   1.599   1.612   1.643   1.645   1.757   1.808   1.876
  1.910   1.976   2.108   2.255   2.288   2.315   2.406   2.424
  2.469   2.490   2.526   2.538   2.604   2.640   2.681   2.732
  2.740   2.753   2.766   2.834   2.862   2.868   2.894   2.905
  2.920   2.933   2.938   2.947   2.971   2.987   3.031   3.045
  3.067   3.076   3.084   3.116   3.124   3.148   3.156   3.160
  3.186   3.190   3.194   3.219   3.224   3.248   3.266   3.290
  3.306   3.328   3.342   3.357   3.376   3.411   3.434   3.453
  3.472   3.493   3.500   3.522   3.560   3.572   3.582   3.617
  3.635   3.652   3.703   3.716   3.761   3.770   3.788   3.827
  3.835   3.853   3.856   3.885   3.891   3.907   3.920   3.980
  3.987   4.026   4.033   4.041   4.077   4.095   4.110   4.131
  4.148   4.172   4.181   4.208   4.212   4.227   4.267   4.294
  4.301   4.315   4.330   4.353   4.386   4.397   4.431   4.493
  4.521   4.539   4.541   4.564   4.641   4.657   4.685   4.879
  4.980   5.036   5.125   5.150   5.208   5.232   5.268   5.305
  5.432   5.447   5.504   5.554   5.589   5.603   5.641   5.648
  5.659   5.747   5.862   5.923   6.523   6.923   7.111   7.126
  7.163   7.434   7.571  23.938  24.179  24.215  24.241  24.580
 49.772
 
 Beta MOs
 -- Occupied --
-19.587 -10.533 -10.496 -10.492 -10.489 -10.489  -1.156  -0.903
 -0.785  -0.778  -0.740  -0.606  -0.598  -0.528  -0.524  -0.512
 -0.501  -0.461  -0.452  -0.440  -0.430  -0.419  -0.406  -0.303
 -- Virtual --
 -0.036  -0.026  -0.016  -0.013  -0.006   0.009   0.010   0.015
  0.017   0.021   0.044   0.051   0.057   0.061   0.065   0.070
  0.090   0.094   0.105   0.107   0.115   0.120   0.124   0.125
  0.127   0.133   0.138   0.145   0.151   0.158   0.180   0.185
  0.189   0.206   0.209   0.211   0.221   0.226   0.248   0.253
  0.265   0.270   0.279   0.298   0.301   0.304   0.307   0.324
  0.336   0.372   0.393   0.408   0.436   0.449   0.477   0.490
  0.499   0.502   0.515   0.519   0.537   0.547   0.557   0.566
  0.576   0.582   0.590   0.596   0.608   0.618   0.631   0.635
  0.643   0.650   0.672   0.676   0.687   0.704   0.714   0.732
  0.735   0.745   0.777   0.791   0.798   0.814   0.845   0.852
  0.878   0.898   0.903   0.918   0.952   0.962   0.994   1.013
  1.018   1.029   1.055   1.067   1.082   1.102   1.113   1.131
  1.143   1.147   1.168   1.173   1.181   1.205   1.211   1.232
  1.245   1.260   1.271   1.276   1.287   1.310   1.326   1.340
  1.363   1.365   1.370   1.382   1.405   1.426   1.443   1.447
  1.452   1.457   1.482   1.499   1.525   1.534   1.553   1.574
  1.590   1.592   1.605   1.622   1.649   1.651   1.763   1.821
  1.889   1.919   1.992   2.113   2.258   2.297   2.324   2.410
  2.445   2.491   2.495   2.540   2.548   2.609   2.644   2.708
  2.740   2.783   2.793   2.801   2.868   2.878   2.902   2.912
  2.923   2.930   2.935   2.951   2.982   2.985   3.013   3.052
  3.068   3.074   3.083   3.105   3.129   3.137   3.157   3.165
  3.168   3.198   3.205   3.216   3.235   3.239   3.277   3.296
  3.309   3.332   3.357   3.368   3.376   3.384   3.424   3.470
  3.494   3.504   3.514   3.534   3.544   3.585   3.592   3.610
  3.625   3.645   3.672   3.721   3.749   3.771   3.783   3.805
  3.826   3.848   3.859   3.874   3.891   3.911   3.926   3.940
  3.985   4.005   4.035   4.050   4.052   4.085   4.096   4.117
  4.138   4.156   4.176   4.184   4.212   4.225   4.260   4.274
  4.296   4.315   4.325   4.344   4.369   4.397   4.402   4.457
  4.520   4.537   4.546   4.571   4.591   4.659   4.663   4.714
  4.939   5.020   5.076   5.135   5.157   5.217   5.234   5.299
  5.304   5.456   5.507   5.511   5.569   5.579   5.599   5.635
  5.644   5.658   5.751   5.895   5.916   6.524   6.924   7.118
  7.128   7.163   7.427   7.557  23.940  24.189  24.219  24.244
 24.589  49.776
 --------------------------------------------------------------
 
          Ground-State Mulliken Net Atomic Charges

     Atom                 Charge (a.u.)    Spin (a.u.)
  --------------------------------------------------------
      1 C                     1.025424       0.396859
      2 C                    -0.965793      -0.034091
      3 H                     0.202070       0.019600
      4 H                     0.204652       0.019202
      5 H                     0.227610       0.000572
      6 C                    -0.855523      -0.025995
      7 H                     0.198561       0.014307
      8 H                     0.190825       0.000284
      9 H                     0.185266       0.017585
     10 C                    -0.993669      -0.214449
     11 H                     0.304268       0.013853
     12 H                     0.243141       0.016715
     13 C                    -0.423108       0.753042
     14 H                     0.197678      -0.018645
     15 H                     0.200878      -0.008141
     16 O                    -0.228862       0.049915
     17 H                     0.286582      -0.000614
  --------------------------------------------------------
  Sum of atomic charges =     0.000000
  Sum of spin   charges =     1.000000

 -----------------------------------------------------------------
                    Cartesian Multipole Moments
 -----------------------------------------------------------------
    Charge (ESU x 10^10)
                 0.0000
    Dipole Moment (Debye)
         X       0.9274      Y      -0.4429      Z      -1.0024
       Tot       1.4357
    Quadrupole Moments (Debye-Ang)
        XX     -44.7665     XY       2.4539     YY     -39.1626
        XZ      -0.8355     YZ      -1.0258     ZZ     -38.6337
    Octopole Moments (Debye-Ang^2)
       XXX       7.8614    XXY      -4.6229    XYY      -2.6910
       YYY       0.8933    XXZ       1.9001    XYZ       2.5803
       YYZ      -1.1790    XZZ      -8.9063    YZZ       3.7958
       ZZZ      -6.3613
    Hexadecapole Moments (Debye-Ang^3)
      XXXX    -722.0249   XXXY      14.6350   XXYY    -164.9428
      XYYY      -8.8257   YYYY    -271.9767   XXXZ      -9.5095
      XXYZ      -3.1108   XYYZ       3.2826   YYYZ      -4.6763
      XXZZ    -140.8991   XYZZ      -3.2103   YYZZ     -69.1368
      XZZZ       2.5668   YZZZ      -3.4064   ZZZZ    -155.0106
 -----------------------------------------------------------------
 Calculating analytic gradient of the SCF energy
 Gradient of Coulomb and Exchange Energy
            1           2           3           4           5           6
    1  -5.4286406  -2.7162454  -3.5147470   0.2538307   2.0516059  -2.7125161
    2  -1.6561411  -1.7066471  -1.7026893  -2.0072352  -2.5501549   0.2007056
    3   0.1369924   0.6824336  -0.8445613   3.1698882  -2.2700872   1.2105060
            7           8           9          10          11          12
    1  -3.8141108  -0.0281560  -0.1013567   2.8880969   2.3334823   0.1253616
    2  -0.1830703   3.9658510  -0.2858300   3.9764739  -2.5667958   4.8118592
    3   0.0033333  -0.1259266   3.7614744  -4.4109021  -3.3219390  -0.6847660
           13          14          15          16          17
    1   2.0041479   2.7657864  -0.6569208   8.7018759  -2.1514942
    2   3.0647710   1.8509763   2.9417516  -5.9410791  -2.2127458
    3  -0.5995704  -3.1553356   3.1249957  -0.2659512   3.5894158
 Gradient of SCF Energy
            1           2           3           4           5           6
    1   0.0051443  -0.0002807  -0.0021508   0.0004132   0.0021720   0.0003330
    2   0.0016934   0.0009222   0.0000661  -0.0000458  -0.0009000  -0.0005564
    3  -0.0009265   0.0001437  -0.0005414   0.0022211  -0.0020139  -0.0002820
            7           8           9          10          11          12
    1  -0.0018924   0.0009063   0.0008714  -0.0079608   0.0026749   0.0008020
    2  -0.0008843   0.0025160  -0.0010308  -0.0032661  -0.0027615   0.0034602
    3  -0.0008309  -0.0008052   0.0016306   0.0019601  -0.0013203   0.0009681
           13          14          15          16          17
    1   0.0049240   0.0006137  -0.0015937  -0.0047338  -0.0002427
    2  -0.0038648   0.0014689   0.0005930   0.0054552  -0.0028654
    3   0.0004329  -0.0028439   0.0018167  -0.0005829   0.0009738
 Max gradient component =       7.961E-03
 RMS gradient           =       2.403E-03
 Gradient time:  CPU 68.60 s  wall 68.55 s
 Geometry Optimization Parameters
   NAtoms,    NIC,     NZ,  NCons,   NDum,   NFix, NCnnct, MaxDiis
       17     122       0       0       0       0       0       0


** GEOMETRY OPTIMIZATION IN DELOCALIZED INTERNAL COORDINATES **
   Searching for a Transition State

   Optimization Cycle:   1

                       Coordinates (Angstroms)
     ATOM                X               Y               Z
      1  C         1.0394314015   -0.0407599473    0.2437418991
      2  C         1.2179217822    1.4506798791    0.1585096580
      3  H         2.2430613696    1.7451301665    0.4188409577
      4  H         1.0509636382    1.8207281538   -0.8635912698
      5  H         0.5330906932    1.9796011248    0.8238075466
      6  C         1.9065428723   -0.8683916380   -0.6647851569
      7  H         2.9708425953   -0.6662115024   -0.4895636302
      8  H         1.7397424569   -1.9384413689   -0.5227836172
      9  H         1.7236947720   -0.6365534241   -1.7238258759
     10  C         0.0723299362   -0.6018484558    1.0270011584
     11  H        -0.4257512995   -0.0039170857    1.7817092574
     12  H         0.0555194949   -1.6757581852    1.1833729687
     13  C        -1.9195881101   -0.6571200578   -0.0879722525
     14  H        -2.5881595074   -1.0475086529    0.6716772398
     15  H        -1.6684267669   -1.3256815050   -0.9099906650
     16  O        -2.2358073359    0.6401794327   -0.4138750316
     17  H        -1.6479460522    0.9318181361   -1.1176244967
   Point Group: c1    Number of degrees of freedom:    45


   Energy is   -272.162564542


 Attempting to Generate Delocalized Internal Coordinates
 GETINT wrote B to file, NVib is           45
 calling HSSCONV
 HCONV 3*NATOMS:           51
 wrote HINT to file
  writing hessian 

 45 Hessian modes will be used to form the next step
  Hessian Eigenvalues:
     0.004019    0.008584    0.008638    0.015287    0.019021    0.027018
     0.034771    0.041409    0.045009    0.053185    0.062981    0.066014
     0.070908    0.070939    0.072586    0.072622    0.087332    0.111996
     0.115394    0.132795    0.160000    0.160000    0.160000    0.160000
     0.160000    0.160000    0.160000    0.186152    0.248991    0.249230
     0.319099    0.319523    0.322155    0.337072    0.337451    0.339154
     0.339699    0.345548    0.346398    0.349365    0.353538    0.354387
     0.501254    0.519225    0.549953
**WARNING** Hessian does not have the Desired Local Structure

 Transition State Search - Taking P-RFO Step
 Searching for Lamda that Maximizes Along the Lowest mode
 Value Taken    Lamda =   0.00404290
 Searching for Lamda that Minimizes Along All other modes
 Value Taken    Lamda =  -0.00084201
 Calculated Step too Large.  Step scaled by  0.023205
 Step Taken.  Stepsize is  0.300000

                             Maximum     Tolerance    Cnvgd?
         Gradient           0.005830      0.000300      NO
         Displacement       0.137466      0.003000      NO
         Energy change     *********      0.000000      NO


 New Cartesian Coordinates Obtained by Inverse Iteration

 Displacement from previous Coordinates is:  0.404407
 ----------------------------------------------------------------
             Standard Nuclear Orientation (Angstroms)
    I     Atom           X                Y                Z
 ----------------------------------------------------------------
    1      C       1.0435019469    -0.0423320482     0.2418987704
    2      C       1.2254228524     1.4476044232     0.1394209198
    3      H       2.2493411679     1.7433387158     0.4034003895
    4      H       1.0664132222     1.8051213504    -0.8884749323
    5      H       0.5367760256     1.9859766586     0.7932764064
    6      C       1.9154375615    -0.8827886613    -0.6500696228
    7      H       2.9789035934    -0.6803360449    -0.4696956993
    8      H       1.7454580318    -1.9507564114    -0.4959434357
    9      H       1.7404773538    -0.6636492019    -1.7132115968
   10      C       0.0698829781    -0.5918146532     1.0250875844
   11      H      -0.4339578295     0.0133402251     1.7704713462
   12      H       0.0501300925    -1.6637828108     1.1946721258
   13      C      -1.9133760551    -0.6587093468    -0.1044849767
   14      H      -2.5562360060    -1.1246509589     0.6346396874
   15      H      -1.6307299373    -1.2646278392    -0.9640808521
   16      O      -2.2945608732     0.6373435315    -0.3572761094
   17      H      -1.7254221845     0.9966681417    -1.0449813148
 ----------------------------------------------------------------
 Molecular Point Group                 C1    NOp =  1
 Largest Abelian Subgroup              C1    NOp =  1
 Nuclear Repulsion Energy =   237.1392344670 hartrees
 There are       25 alpha and       24 beta electrons
 Applying Cartesian multipole field
    Component          Value
    ---------          -----
     (2,0,0)        1.00000E-11
     (0,2,0)        2.00000E-11
     (0,0,2)       -3.00000E-11
 Nucleus-field energy     =     0.0000000058 hartrees
 Requested basis set is non-standard
 There are 138 shells and 314 basis functions
 A cutoff of  1.0D-12 yielded   8996 shell pairs
 There are     46478 function pairs (     55907 Cartesian)
 Smallest overlap matrix eigenvalue = 1.05E-05
 Guess MOs from SCF MO coefficient file
Reading MOs from coefficient file
Reading MOs from coefficient file
 An unrestricted hybrid HF-DFT SCF calculation will be
 performed using Pulay DIIS + Geometric Direct Minimization
 Exchange:     0.5679 Hartree-Fock + 1.0000 M08SO
 SCF converges when RMS gradient is below 1.0E-08
Geometry optimization detected.  Setting ReadMinima to 0
Setting SaveMinima to 0
 Inaccurate integrated density:
   Number of electrons =    49
   Numerical integral  =    48.985418021562
   Relative error      =    -0.0297591397 %
 ---------------------------------------
  Cycle       Energy        RMS Gradient
 ---------------------------------------
    1    -272.1526132404      7.08E-04 Done DIIS. Switching to GDM
    2    -272.1622689239      2.14E-03 Normal BFGS step
    3    -272.1624162823      1.80E-03 Normal BFGS step
    4    -272.1624541064      6.20E-04 Normal BFGS step
    5    -272.1624604852      1.64E-04 Normal BFGS step
    6    -272.1624612872      8.42E-05 Normal BFGS step
    7    -272.1624615054      2.66E-05 Normal BFGS step
    8    -272.1624615152      1.46E-05 Normal BFGS step
    9    -272.1624615176      7.18E-06 Normal BFGS step
   10    -272.1624615181      2.77E-06 Normal BFGS step
   11    -272.1624615182      2.05E-06 Normal BFGS step
   12    -272.1624615182      1.22E-06 Normal BFGS step
   GDM::WARNING energy changes are now smaller than effective accuracy.
   GDM::        calculation will continue, but THRESH should be increased
   GDM::        or SCF_CONVERGENCE decreased.
   GDM::        effective_thresh =   2.804909724624105E-009
   13    -272.1624615182      5.34E-07 Normal BFGS step
   14    -272.1624615182      2.12E-07 Normal BFGS step
   GDM::WARNING energy changes are now smaller than effective accuracy.
   GDM::        calculation will continue, but THRESH should be increased
   GDM::        or SCF_CONVERGENCE decreased.
   GDM::        effective_thresh =   2.804909724624105E-009
   15    -272.1624615182      7.45E-08 Normal BFGS step
   16    -272.1624615182      1.74E-08 Normal BFGS step
   GDM::WARNING energy changes are now smaller than effective accuracy.
   GDM::        calculation will continue, but THRESH should be increased
   GDM::        or SCF_CONVERGENCE decreased.
   GDM::        effective_thresh =   2.804909724624105E-009
   17    -272.1624615181      7.18E-09 Convergence criterion met
 ---------------------------------------
 <S^2> = 0.7745
 SCF time:  CPU 1037.89 s  wall 1040.10 s
 SCF   energy in the final basis set = -272.1624615181
 Total energy in the final basis set = -272.1624615181
 Analysis of SCF Wavefunction
 
 --------------------------------------------------------------
                    Orbital Energies (a.u.)
 --------------------------------------------------------------
 
 Alpha MOs
 -- Occupied --
-19.591 -10.548 -10.502 -10.489 -10.488 -10.488  -1.165  -0.906
 -0.786  -0.783  -0.752  -0.611  -0.604  -0.533  -0.529  -0.517
 -0.512  -0.487  -0.457  -0.441  -0.430  -0.425  -0.405  -0.332
 -0.211
 -- Virtual --
 -0.031  -0.015  -0.010  -0.006   0.014   0.014   0.018   0.020
  0.023   0.050   0.054   0.059   0.063   0.068   0.074   0.078
  0.094   0.104   0.110   0.117   0.122   0.125   0.127   0.131
  0.136   0.141   0.147   0.152   0.160   0.180   0.183   0.188
  0.203   0.208   0.212   0.220   0.226   0.248   0.251   0.260
  0.266   0.276   0.293   0.298   0.304   0.308   0.320   0.335
  0.371   0.389   0.402   0.436   0.447   0.473   0.487   0.495
  0.500   0.509   0.520   0.537   0.539   0.554   0.563   0.574
  0.580   0.584   0.593   0.601   0.609   0.623   0.628   0.633
  0.643   0.661   0.670   0.686   0.697   0.711   0.728   0.734
  0.744   0.764   0.782   0.797   0.802   0.838   0.848   0.875
  0.891   0.903   0.911   0.945   0.954   0.990   1.006   1.010
  1.026   1.049   1.065   1.079   1.097   1.109   1.130   1.139
  1.144   1.161   1.174   1.177   1.198   1.203   1.230   1.238
  1.254   1.264   1.269   1.282   1.297   1.317   1.333   1.351
  1.358   1.361   1.374   1.397   1.418   1.439   1.447   1.448
  1.454   1.475   1.491   1.512   1.528   1.555   1.566   1.587
  1.591   1.600   1.614   1.641   1.644   1.758   1.808   1.876
  1.908   1.976   2.107   2.256   2.289   2.313   2.405   2.426
  2.468   2.490   2.525   2.537   2.604   2.642   2.676   2.729
  2.739   2.753   2.764   2.834   2.861   2.865   2.894   2.903
  2.921   2.931   2.939   2.947   2.971   2.987   3.032   3.046
  3.067   3.075   3.083   3.115   3.125   3.145   3.154   3.160
  3.186   3.189   3.195   3.222   3.225   3.248   3.265   3.293
  3.302   3.329   3.342   3.356   3.376   3.410   3.437   3.452
  3.473   3.493   3.498   3.523   3.558   3.571   3.584   3.616
  3.635   3.649   3.704   3.716   3.760   3.767   3.785   3.825
  3.837   3.852   3.856   3.888   3.892   3.907   3.921   3.976
  3.986   4.025   4.032   4.039   4.076   4.095   4.111   4.127
  4.149   4.171   4.181   4.209   4.213   4.226   4.267   4.294
  4.301   4.315   4.331   4.351   4.387   4.399   4.431   4.493
  4.522   4.538   4.542   4.565   4.640   4.656   4.685   4.877
  4.980   5.036   5.123   5.149   5.206   5.231   5.269   5.303
  5.430   5.446   5.503   5.553   5.589   5.602   5.641   5.647
  5.659   5.746   5.863   5.924   6.523   6.923   7.111   7.124
  7.163   7.434   7.570  23.937  24.179  24.215  24.241  24.579
 49.771
 
 Beta MOs
 -- Occupied --
-19.587 -10.533 -10.496 -10.492 -10.489 -10.488  -1.156  -0.903
 -0.785  -0.778  -0.740  -0.606  -0.598  -0.528  -0.524  -0.512
 -0.501  -0.461  -0.452  -0.440  -0.430  -0.419  -0.406  -0.303
 -- Virtual --
 -0.036  -0.026  -0.016  -0.013  -0.006   0.009   0.010   0.014
  0.017   0.021   0.045   0.051   0.056   0.061   0.065   0.070
  0.089   0.092   0.105   0.109   0.114   0.120   0.124   0.125
  0.127   0.133   0.139   0.145   0.151   0.159   0.180   0.185
  0.190   0.204   0.208   0.212   0.221   0.226   0.248   0.252
  0.265   0.270   0.278   0.297   0.299   0.303   0.308   0.324
  0.335   0.374   0.394   0.408   0.437   0.448   0.478   0.490
  0.496   0.501   0.514   0.520   0.539   0.549   0.556   0.565
  0.576   0.581   0.591   0.596   0.608   0.618   0.629   0.634
  0.643   0.649   0.671   0.675   0.689   0.704   0.714   0.732
  0.734   0.747   0.776   0.789   0.801   0.809   0.845   0.851
  0.878   0.894   0.905   0.915   0.948   0.958   0.993   1.011
  1.017   1.031   1.055   1.066   1.083   1.101   1.113   1.133
  1.141   1.147   1.164   1.175   1.183   1.207   1.213   1.233
  1.245   1.259   1.267   1.276   1.289   1.311   1.326   1.340
  1.363   1.365   1.369   1.382   1.403   1.424   1.442   1.449
  1.451   1.459   1.483   1.497   1.523   1.534   1.556   1.572
  1.589   1.591   1.605   1.623   1.645   1.651   1.763   1.821
  1.889   1.917   1.993   2.112   2.258   2.299   2.321   2.409
  2.447   2.489   2.496   2.539   2.546   2.608   2.646   2.704
  2.736   2.782   2.792   2.801   2.869   2.877   2.900   2.914
  2.922   2.929   2.934   2.952   2.979   2.986   3.012   3.051
  3.069   3.074   3.083   3.103   3.128   3.137   3.156   3.165
  3.168   3.196   3.207   3.216   3.237   3.240   3.275   3.298
  3.313   3.330   3.357   3.370   3.377   3.382   3.422   3.468
  3.497   3.504   3.513   3.536   3.542   3.581   3.591   3.615
  3.624   3.645   3.667   3.721   3.749   3.770   3.781   3.802
  3.825   3.849   3.858   3.872   3.892   3.912   3.928   3.942
  3.982   4.002   4.034   4.047   4.053   4.085   4.094   4.120
  4.134   4.156   4.175   4.185   4.212   4.224   4.259   4.274
  4.296   4.315   4.324   4.344   4.368   4.399   4.403   4.457
  4.521   4.538   4.545   4.570   4.592   4.659   4.662   4.714
  4.938   5.020   5.076   5.133   5.156   5.216   5.233   5.300
  5.302   5.454   5.507   5.510   5.569   5.579   5.599   5.635
  5.643   5.657   5.750   5.896   5.917   6.523   6.924   7.118
  7.127   7.163   7.427   7.556  23.939  24.189  24.219  24.243
 24.589  49.775
 --------------------------------------------------------------
 
          Ground-State Mulliken Net Atomic Charges

     Atom                 Charge (a.u.)    Spin (a.u.)
  --------------------------------------------------------
      1 C                     1.029718       0.396917
      2 C                    -0.960662      -0.034528
      3 H                     0.202753       0.019115
      4 H                     0.203794       0.019460
      5 H                     0.224184       0.000455
      6 C                    -0.864180      -0.026678
      7 H                     0.197911       0.014372
      8 H                     0.191199       0.000246
      9 H                     0.186292       0.017631
     10 C                    -0.986544      -0.213219
     11 H                     0.307148       0.014199
     12 H                     0.240650       0.016686
     13 C                    -0.427239       0.753258
     14 H                     0.199053      -0.018587
     15 H                     0.201066      -0.008744
     16 O                    -0.232333       0.050214
     17 H                     0.287191      -0.000797
  --------------------------------------------------------
  Sum of atomic charges =     0.000000
  Sum of spin   charges =     1.000000

 -----------------------------------------------------------------
                    Cartesian Multipole Moments
 -----------------------------------------------------------------
    Charge (ESU x 10^10)
                 0.0000
    Dipole Moment (Debye)
         X       0.9517      Y      -0.3466      Z      -1.0383
       Tot       1.4505
    Quadrupole Moments (Debye-Ang)
        XX     -45.0249     XY       2.2495     YY     -38.9023
        XZ      -0.5907     YZ      -1.2228     ZZ     -38.8101
    Octopole Moments (Debye-Ang^2)
       XXX       9.7790    XXY      -4.3950    XYY      -3.1204
       YYY       1.5805    XXZ       0.9994    XYZ       3.1051
       YYZ      -1.4026    XZZ      -8.6162    YZZ       3.7170
       ZZZ      -6.5348
    Hexadecapole Moments (Debye-Ang^3)
      XXXX    -738.2034   XXXY      16.7387   XXYY    -165.6186
      XYYY      -8.1750   YYYY    -272.2741   XXXZ      -6.4328
      XXYZ      -4.5953   XYYZ       3.9801   YYYZ      -5.6622
      XXZZ    -142.0694   XYZZ      -2.8492   YYZZ     -68.7006
      XZZZ       3.2488   YZZZ      -3.4519   ZZZZ    -152.6189
 -----------------------------------------------------------------
 Calculating analytic gradient of the SCF energy
 Gradient of Coulomb and Exchange Energy
            1           2           3           4           5           6
    1  -5.3083360  -2.6925937  -3.5040124   0.2281672   2.0452572  -2.7665510
    2  -1.7273913  -1.6862647  -1.6974279  -1.9730772  -2.5872413   0.2596667
    3   0.2573007   0.6896323  -0.8351667   3.1853111  -2.2161826   1.2109115
            7           8           9          10          11          12
    1  -3.8100483  -0.0138919  -0.1230681   2.8570796   2.3710159   0.1074062
    2  -0.1761939   3.9565952  -0.2437301   3.9294856  -2.5846035   4.8039406
    3  -0.0217688  -0.1740014   3.7578376  -4.4442299  -3.2593440  -0.7497279
           13          14          15          16          17
    1   1.9161584   2.6411306  -0.7935930   8.8815022  -2.0356228
    2   3.0324160   2.1458852   2.6903886  -5.6101844  -2.5322637
    3  -0.4724045  -3.0685017   3.3057172  -0.6006454   3.4352625
 Gradient of SCF Energy
            1           2           3           4           5           6
    1   0.0047861  -0.0002646  -0.0020494   0.0003745   0.0021130   0.0003936
    2   0.0015690   0.0009230   0.0000133   0.0000386  -0.0009382  -0.0006022
    3  -0.0011823   0.0002467  -0.0005589   0.0022242  -0.0020951  -0.0002772
            7           8           9          10          11          12
    1  -0.0018531   0.0009039   0.0008827  -0.0077004   0.0026152   0.0007649
    2  -0.0008767   0.0024323  -0.0010015  -0.0030949  -0.0029844   0.0034915
    3  -0.0008255  -0.0008256   0.0015995   0.0019618  -0.0010658   0.0011407
           13          14          15          16          17
    1   0.0048347   0.0007655  -0.0014959  -0.0051000   0.0000293
    2  -0.0031777   0.0015131   0.0006805   0.0048255  -0.0028110
    3   0.0001214  -0.0024166   0.0016372  -0.0005115   0.0008272
 Max gradient component =       7.700E-03
 RMS gradient           =       2.317E-03
 Gradient time:  CPU 70.16 s  wall 70.22 s
 Geometry Optimization Parameters
   NAtoms,    NIC,     NZ,  NCons,   NDum,   NFix, NCnnct, MaxDiis
       17     122       0       0       0       0       0       0

 Cartesian Hessian Update
 Hessian Updated using Powell/Murtagh-Sargent Update
  Mixing factors:     0.000012 Powell
                      0.999988 Murtagh-Sargent


** GEOMETRY OPTIMIZATION IN DELOCALIZED INTERNAL COORDINATES **
   Searching for a Transition State

   Optimization Cycle:   2

                       Coordinates (Angstroms)
     ATOM                X               Y               Z
      1  C         1.0435019469   -0.0423320482    0.2418987704
      2  C         1.2254228524    1.4476044232    0.1394209198
      3  H         2.2493411679    1.7433387158    0.4034003895
      4  H         1.0664132222    1.8051213504   -0.8884749323
      5  H         0.5367760256    1.9859766586    0.7932764064
      6  C         1.9154375615   -0.8827886613   -0.6500696228
      7  H         2.9789035934   -0.6803360449   -0.4696956993
      8  H         1.7454580318   -1.9507564114   -0.4959434357
      9  H         1.7404773538   -0.6636492019   -1.7132115968
     10  C         0.0698829781   -0.5918146532    1.0250875844
     11  H        -0.4339578295    0.0133402251    1.7704713462
     12  H         0.0501300925   -1.6637828108    1.1946721258
     13  C        -1.9133760551   -0.6587093468   -0.1044849767
     14  H        -2.5562360060   -1.1246509589    0.6346396874
     15  H        -1.6307299373   -1.2646278392   -0.9640808521
     16  O        -2.2945608732    0.6373435315   -0.3572761094
     17  H        -1.7254221845    0.9966681417   -1.0449813148
   Point Group: c1    Number of degrees of freedom:    45


   Energy is   -272.162461518

 GETINT wrote B to file, NVib is           45
 Hessian Updated using Powell/Murtagh-Sargent Update
  Mixing factors:     0.438519 Powell
                      0.561481 Murtagh-Sargent

 40 Hessian modes will be used to form the next step
  Hessian Eigenvalues:
     0.000490    0.008583    0.008638    0.015278    0.019009    0.027016
     0.034757    0.041343    0.044998    0.053140    0.062969    0.065995
     0.070897    0.070939    0.072586    0.072622    0.087206    0.111916
     0.115267    0.132608    0.159944    0.160000    0.185671    0.248981
     0.249229    0.319099    0.319487    0.322155    0.337071    0.337451
     0.339153    0.339699    0.345548    0.346382    0.349365    0.353531
     0.354376    0.501205    0.519221    0.549945
**WARNING** Hessian does not have the Desired Local Structure

 Transition State Search - Taking P-RFO Step
 Searching for Lamda that Maximizes Along the Lowest mode
 Value Taken    Lamda =   0.00077968
 Searching for Lamda that Minimizes Along All other modes
 Value Taken    Lamda =  -0.00080383
 Calculated Step too Large.  Step scaled by  0.182462
 Step Taken.  Stepsize is  0.300000

                             Maximum     Tolerance    Cnvgd?
         Gradient           0.005591      0.000300      NO
         Displacement       0.134258      0.003000      NO
         Energy change      0.000103      0.000000      NO


 New Cartesian Coordinates Obtained by Inverse Iteration

 Displacement from previous Coordinates is:  0.390297
 ----------------------------------------------------------------
             Standard Nuclear Orientation (Angstroms)
    I     Atom           X                Y                Z
 ----------------------------------------------------------------
    1      C       1.0476820600    -0.0441427132     0.2417203098
    2      C       1.2317962173     1.4441751357     0.1214704960
    3      H       2.2557133612     1.7418014093     0.3855541779
    4      H       1.0765680162     1.7879694253    -0.9123627656
    5      H       0.5410835005     1.9911900375     0.7675916312
    6      C       1.9223056047    -0.8966748805    -0.6354202077
    7      H       2.9856430739    -0.6933418475    -0.4515880580
    8      H       1.7486575437    -1.9629182253    -0.4688640172
    9      H       1.7518375535    -0.6888108165    -1.7021074574
   10      C       0.0679179274    -0.5815982811     1.0237685360
   11      H      -0.4430329590     0.0348652104     1.7570187508
   12      H       0.0421244000    -1.6525831912     1.2047271625
   13      C      -1.9046963112    -0.6597402790    -0.1218408370
   14      H      -2.5202528248    -1.1970120324     0.5926247121
   15      H      -1.5933648248    -1.2015487793    -1.0144218408
   16      O      -2.3444574805     0.6293393487    -0.3024403460
   17      H      -1.7980629177     1.0549755490    -0.9707815566
 ----------------------------------------------------------------
 Molecular Point Group                 C1    NOp =  1
 Largest Abelian Subgroup              C1    NOp =  1
 Nuclear Repulsion Energy =   236.8437088539 hartrees
 There are       25 alpha and       24 beta electrons
 Applying Cartesian multipole field
    Component          Value
    ---------          -----
     (2,0,0)        1.00000E-11
     (0,2,0)        2.00000E-11
     (0,0,2)       -3.00000E-11
 Nucleus-field energy     =     0.0000000059 hartrees
 Requested basis set is non-standard
 There are 138 shells and 314 basis functions
 A cutoff of  1.0D-12 yielded   8996 shell pairs
 There are     46450 function pairs (     55854 Cartesian)
 Smallest overlap matrix eigenvalue = 1.04E-05
 Guess MOs from SCF MO coefficient file
Reading MOs from coefficient file
Reading MOs from coefficient file
 An unrestricted hybrid HF-DFT SCF calculation will be
 performed using Pulay DIIS + Geometric Direct Minimization
 Exchange:     0.5679 Hartree-Fock + 1.0000 M08SO
 SCF converges when RMS gradient is below 1.0E-08
Geometry optimization detected.  Setting ReadMinima to 0
Setting SaveMinima to 0
 Inaccurate integrated density:
   Number of electrons =    49
   Numerical integral  =    48.982087633512
   Relative error      =    -0.0365558500 %
 ---------------------------------------
  Cycle       Energy        RMS Gradient
 ---------------------------------------
    1    -272.1513257655      6.80E-04 Done DIIS. Switching to GDM
    2    -272.1622554051      2.02E-03 Normal BFGS step
    3    -272.1623948106      1.72E-03 Normal BFGS step
    4    -272.1624315467      6.67E-04 Normal BFGS step
    5    -272.1624370802      1.69E-04 Normal BFGS step
    6    -272.1624379900      6.34E-05 Normal BFGS step
    7    -272.1624381800      2.88E-05 Normal BFGS step
    8    -272.1624381924      1.99E-05 Normal BFGS step
    9    -272.1624381955      1.27E-05 Normal BFGS step
   10    -272.1624381967      4.22E-06 Normal BFGS step
   11    -272.1624381970      3.30E-06 Normal BFGS step
   12    -272.1624381971      1.51E-06 Normal BFGS step
   13    -272.1624381971      4.70E-07 Normal BFGS step
   14    -272.1624381972      1.19E-07 Normal BFGS step
   GDM::WARNING energy changes are now smaller than effective accuracy.
   GDM::        calculation will continue, but THRESH should be increased
   GDM::        or SCF_CONVERGENCE decreased.
   GDM::        effective_thresh =   1.443816330382042E-009
   15    -272.1624381971      5.43E-08 Normal BFGS step
   GDM::WARNING energy changes are now smaller than effective accuracy.
   GDM::        calculation will continue, but THRESH should be increased
   GDM::        or SCF_CONVERGENCE decreased.
   GDM::        effective_thresh =   1.637098782925062E-009
   16    -272.1624381971      1.41E-08 Normal BFGS step
   17    -272.1624381971      6.75E-09 Convergence criterion met
 ---------------------------------------
 <S^2> = 0.7744
 SCF time:  CPU 1041.21 s  wall 1042.85 s
 SCF   energy in the final basis set = -272.1624381971
 Total energy in the final basis set = -272.1624381971
 Analysis of SCF Wavefunction
 
 --------------------------------------------------------------
                    Orbital Energies (a.u.)
 --------------------------------------------------------------
 
 Alpha MOs
 -- Occupied --
-19.591 -10.548 -10.502 -10.489 -10.489 -10.488  -1.165  -0.906
 -0.786  -0.783  -0.752  -0.611  -0.604  -0.533  -0.529  -0.517
 -0.512  -0.487  -0.457  -0.441  -0.430  -0.424  -0.405  -0.332
 -0.210
 -- Virtual --
 -0.031  -0.015  -0.010  -0.006   0.014   0.014   0.018   0.020
  0.023   0.051   0.054   0.058   0.063   0.067   0.075   0.078
  0.092   0.104   0.112   0.117   0.123   0.125   0.128   0.131
  0.136   0.142   0.147   0.151   0.161   0.180   0.183   0.188
  0.201   0.207   0.213   0.220   0.225   0.248   0.250   0.260
  0.264   0.277   0.291   0.297   0.303   0.309   0.320   0.334
  0.373   0.389   0.402   0.437   0.446   0.474   0.487   0.493
  0.499   0.509   0.522   0.538   0.542   0.553   0.563   0.574
  0.578   0.584   0.592   0.601   0.609   0.621   0.627   0.634
  0.643   0.660   0.671   0.687   0.697   0.711   0.729   0.733
  0.745   0.764   0.778   0.797   0.801   0.837   0.845   0.875
  0.886   0.905   0.910   0.940   0.951   0.991   1.005   1.009
  1.027   1.051   1.064   1.079   1.097   1.109   1.131   1.137
  1.144   1.158   1.174   1.179   1.196   1.206   1.233   1.237
  1.253   1.261   1.268   1.283   1.299   1.317   1.331   1.350
  1.357   1.361   1.374   1.395   1.417   1.438   1.446   1.447
  1.456   1.476   1.487   1.511   1.527   1.557   1.563   1.587
  1.591   1.600   1.614   1.638   1.646   1.758   1.808   1.875
  1.906   1.976   2.106   2.255   2.290   2.312   2.405   2.428
  2.467   2.492   2.523   2.538   2.605   2.646   2.670   2.727
  2.738   2.752   2.762   2.832   2.859   2.863   2.894   2.903
  2.923   2.931   2.941   2.946   2.970   2.984   3.032   3.046
  3.066   3.076   3.084   3.116   3.125   3.142   3.153   3.160
  3.185   3.190   3.195   3.223   3.227   3.247   3.263   3.294
  3.301   3.329   3.344   3.356   3.376   3.407   3.439   3.451
  3.475   3.494   3.497   3.525   3.557   3.569   3.586   3.615
  3.635   3.648   3.706   3.718   3.758   3.763   3.782   3.824
  3.839   3.851   3.855   3.890   3.893   3.906   3.922   3.972
  3.985   4.023   4.030   4.039   4.074   4.094   4.111   4.124
  4.150   4.169   4.181   4.209   4.211   4.225   4.267   4.295
  4.300   4.316   4.331   4.346   4.388   4.400   4.431   4.493
  4.522   4.537   4.542   4.564   4.640   4.655   4.687   4.877
  4.980   5.035   5.121   5.147   5.204   5.231   5.269   5.302
  5.427   5.446   5.501   5.554   5.585   5.599   5.637   5.644
  5.655   5.746   5.863   5.928   6.524   6.922   7.109   7.122
  7.162   7.436   7.568  23.934  24.177  24.213  24.238  24.581
 49.770
 
 Beta MOs
 -- Occupied --
-19.588 -10.533 -10.495 -10.492 -10.489 -10.488  -1.156  -0.903
 -0.785  -0.778  -0.740  -0.606  -0.598  -0.528  -0.524  -0.512
 -0.501  -0.461  -0.452  -0.439  -0.430  -0.419  -0.406  -0.303
 -- Virtual --
 -0.036  -0.026  -0.016  -0.013  -0.006   0.009   0.011   0.014
  0.017   0.021   0.045   0.050   0.055   0.061   0.064   0.071
  0.089   0.091   0.104   0.111   0.114   0.121   0.123   0.126
  0.127   0.132   0.139   0.145   0.150   0.160   0.180   0.185
  0.190   0.202   0.207   0.213   0.221   0.225   0.248   0.251
  0.265   0.269   0.279   0.295   0.298   0.302   0.309   0.323
  0.335   0.375   0.394   0.408   0.437   0.447   0.479   0.489
  0.495   0.500   0.513   0.522   0.541   0.551   0.555   0.565
  0.574   0.580   0.591   0.596   0.609   0.618   0.627   0.634
  0.643   0.649   0.670   0.674   0.690   0.704   0.715   0.732
  0.734   0.751   0.775   0.786   0.802   0.807   0.844   0.849
  0.878   0.889   0.907   0.915   0.943   0.955   0.993   1.009
  1.017   1.032   1.057   1.065   1.083   1.102   1.113   1.134
  1.140   1.147   1.161   1.177   1.184   1.207   1.215   1.236
  1.244   1.259   1.265   1.275   1.291   1.312   1.326   1.339
  1.362   1.365   1.369   1.381   1.401   1.422   1.441   1.449
  1.449   1.462   1.484   1.493   1.522   1.533   1.558   1.569
  1.589   1.591   1.605   1.624   1.643   1.652   1.764   1.820
  1.889   1.915   1.992   2.111   2.257   2.301   2.320   2.410
  2.450   2.487   2.498   2.537   2.547   2.609   2.649   2.700
  2.733   2.780   2.791   2.801   2.869   2.874   2.898   2.913
  2.924   2.927   2.933   2.955   2.977   2.987   3.009   3.050
  3.070   3.075   3.084   3.102   3.127   3.137   3.155   3.162
  3.168   3.194   3.209   3.216   3.238   3.242   3.273   3.298
  3.315   3.330   3.356   3.371   3.380   3.382   3.420   3.466
  3.498   3.505   3.512   3.537   3.544   3.579   3.590   3.619
  3.624   3.645   3.665   3.723   3.749   3.768   3.778   3.799
  3.824   3.851   3.857   3.870   3.894   3.911   3.928   3.944
  3.980   3.998   4.033   4.044   4.055   4.083   4.092   4.120
  4.131   4.156   4.172   4.184   4.209   4.223   4.258   4.274
  4.297   4.315   4.323   4.344   4.365   4.400   4.404   4.458
  4.521   4.539   4.543   4.570   4.592   4.658   4.662   4.715
  4.937   5.020   5.076   5.130   5.154   5.215   5.232   5.299
  5.303   5.451   5.506   5.509   5.568   5.576   5.596   5.632
  5.640   5.654   5.750   5.896   5.920   6.524   6.924   7.117
  7.125   7.163   7.429   7.553  23.936  24.187  24.217  24.241
 24.590  49.774
 --------------------------------------------------------------
 
          Ground-State Mulliken Net Atomic Charges

     Atom                 Charge (a.u.)    Spin (a.u.)
  --------------------------------------------------------
      1 C                     1.028291       0.394917
      2 C                    -0.951886      -0.034969
      3 H                     0.203536       0.018463
      4 H                     0.202747       0.019717
      5 H                     0.219517       0.000318
      6 C                    -0.871747      -0.027004
      7 H                     0.197296       0.014359
      8 H                     0.191082       0.000206
      9 H                     0.186674       0.017616
     10 C                    -0.975375      -0.210924
     11 H                     0.307993       0.014520
     12 H                     0.238238       0.016622
     13 C                    -0.429559       0.754961
     14 H                     0.200300      -0.018641
     15 H                     0.200372      -0.009694
     16 O                    -0.235024       0.050463
     17 H                     0.287544      -0.000931
  --------------------------------------------------------
  Sum of atomic charges =     0.000000
  Sum of spin   charges =     1.000000

 -----------------------------------------------------------------
                    Cartesian Multipole Moments
 -----------------------------------------------------------------
    Charge (ESU x 10^10)
                 0.0000
    Dipole Moment (Debye)
         X       0.9600      Y      -0.2455      Z      -1.0730
       Tot       1.4605
    Quadrupole Moments (Debye-Ang)
        XX     -45.2442     XY       2.0055     YY     -38.6283
        XZ      -0.3611     YZ      -1.3805     ZZ     -39.0281
    Octopole Moments (Debye-Ang^2)
       XXX      11.3677    XXY      -3.9470    XYY      -3.7183
       YYY       2.2995    XXZ       0.0754    XYZ       3.5636
       YYZ      -1.5628    XZZ      -8.2993    YZZ       3.6559
       ZZZ      -6.7908
    Hexadecapole Moments (Debye-Ang^3)
      XXXX    -751.9371   XXXY      18.0140   XXYY    -165.6197
      XYYY      -7.8170   YYYY    -272.1734   XXXZ      -3.0876
      XXYZ      -6.0428   XYYZ       4.6172   YYYZ      -6.6749
      XXZZ    -143.2609   XYZZ      -2.4881   YYZZ     -68.4297
      XZZZ       3.9248   YZZZ      -3.5190   ZZZZ    -150.7264
 -----------------------------------------------------------------
 Calculating analytic gradient of the SCF energy
 Gradient of Coulomb and Exchange Energy
            1           2           3           4           5           6
    1  -5.2112646  -2.6526106  -3.4988141   0.2129143   2.0327694  -2.8116214
    2  -1.8001949  -1.6845351  -1.6942329  -1.9290824  -2.6187153   0.3264045
    3   0.3302427   0.6907775  -0.8171444   3.2088775  -2.1773749   1.2348511
            7           8           9          10          11          12
    1  -3.8098279   0.0036885  -0.1317695   2.7989413   2.4073978   0.1011687
    2  -0.1740402   3.9482265  -0.2087089   3.9083156  -2.6335285   4.8053619
    3  -0.0466126  -0.2248427   3.7544014  -4.4910368  -3.1781353  -0.8031979
           13          14          15          16          17
    1   1.8387297   2.5160094  -0.9186302   9.0187143  -1.8957951
    2   3.0077688   2.4287829   2.4294870  -5.2653530  -2.8459562
    3  -0.3526062  -2.9652436   3.4672152  -0.8988576   3.2686864
 Gradient of SCF Energy
            1           2           3           4           5           6
    1   0.0042020  -0.0002554  -0.0016728   0.0003230   0.0017094   0.0001875
    2   0.0012495   0.0006794  -0.0000016   0.0000796  -0.0007806  -0.0004526
    3  -0.0011156   0.0002107  -0.0004547   0.0018087  -0.0017177  -0.0001727
            7           8           9          10          11          12
    1  -0.0015082   0.0007526   0.0007350  -0.0067606   0.0022193   0.0006458
    2  -0.0007132   0.0019697  -0.0008217  -0.0027962  -0.0023793   0.0028141
    3  -0.0006503  -0.0007062   0.0013304   0.0010849  -0.0005055   0.0011401
           13          14          15          16          17
    1   0.0045782   0.0007445  -0.0012233  -0.0049039   0.0002271
    2  -0.0023146   0.0012326   0.0005634   0.0038983  -0.0022268
    3   0.0003877  -0.0017631   0.0011478  -0.0005549   0.0005305
 Max gradient component =       6.761E-03
 RMS gradient           =       1.981E-03
 Gradient time:  CPU 69.70 s  wall 69.73 s
 Geometry Optimization Parameters
   NAtoms,    NIC,     NZ,  NCons,   NDum,   NFix, NCnnct, MaxDiis
       17     122       0       0       0       0       0       0

 Cartesian Hessian Update
 Hessian Updated using Powell/Murtagh-Sargent Update
  Mixing factors:     0.992013 Powell
                      0.007987 Murtagh-Sargent


** GEOMETRY OPTIMIZATION IN DELOCALIZED INTERNAL COORDINATES **
   Searching for a Transition State

   Optimization Cycle:   3

                       Coordinates (Angstroms)
     ATOM                X               Y               Z
      1  C         1.0476820600   -0.0441427132    0.2417203098
      2  C         1.2317962173    1.4441751357    0.1214704960
      3  H         2.2557133612    1.7418014093    0.3855541779
      4  H         1.0765680162    1.7879694253   -0.9123627656
      5  H         0.5410835005    1.9911900375    0.7675916312
      6  C         1.9223056047   -0.8966748805   -0.6354202077
      7  H         2.9856430739   -0.6933418475   -0.4515880580
      8  H         1.7486575437   -1.9629182253   -0.4688640172
      9  H         1.7518375535   -0.6888108165   -1.7021074574
     10  C         0.0679179274   -0.5815982811    1.0237685360
     11  H        -0.4430329590    0.0348652104    1.7570187508
     12  H         0.0421244000   -1.6525831912    1.2047271625
     13  C        -1.9046963112   -0.6597402790   -0.1218408370
     14  H        -2.5202528248   -1.1970120324    0.5926247121
     15  H        -1.5933648248   -1.2015487793   -1.0144218408
     16  O        -2.3444574805    0.6293393487   -0.3024403460
     17  H        -1.7980629177    1.0549755490   -0.9707815566
   Point Group: c1    Number of degrees of freedom:    45


   Energy is   -272.162438197

 GETINT wrote B to file, NVib is           45
 Hessian Updated using Powell/Murtagh-Sargent Update
  Mixing factors:     0.998194 Powell
                      0.001806 Murtagh-Sargent

 41 Hessian modes will be used to form the next step
  Hessian Eigenvalues:
     0.000323    0.008584    0.008638    0.015278    0.019016    0.027016
     0.034760    0.041318    0.044995    0.053141    0.062974    0.065989
     0.070897    0.070939    0.072586    0.072622    0.087206    0.111916
     0.115282    0.132602    0.159942    0.159999    0.160009    0.185558
     0.248980    0.249229    0.319099    0.319486    0.322158    0.337071
     0.337450    0.339153    0.339699    0.345548    0.346382    0.349366
     0.353533    0.354377    0.501176    0.519212    0.549945
**WARNING** Hessian does not have the Desired Local Structure

 Transition State Search - Taking P-RFO Step
 Searching for Lamda that Maximizes Along the Lowest mode
 Value Taken    Lamda =   0.00069220
 Searching for Lamda that Minimizes Along All other modes
 Value Taken    Lamda =  -0.00058167
 Calculated Step too Large.  Step scaled by  0.218880
 Step Taken.  Stepsize is  0.300000

                             Maximum     Tolerance    Cnvgd?
         Gradient           0.004642      0.000300      NO
         Displacement       0.132831      0.003000      NO
         Energy change      0.000023      0.000000      NO


 New Cartesian Coordinates Obtained by Inverse Iteration

 Displacement from previous Coordinates is:  0.384264
 ----------------------------------------------------------------
             Standard Nuclear Orientation (Angstroms)
    I     Atom           X                Y                Z
 ----------------------------------------------------------------
    1      C       1.0524035175    -0.0456506253     0.2420799208
    2      C       1.2392110370     1.4409083719     0.1043511173
    3      H       2.2639111942     1.7399545891     0.3659528902
    4      H       1.0850281610     1.7712912461    -0.9346467171
    5      H       0.5484717277     1.9964343967     0.7447979941
    6      C       1.9296598874    -0.9099927902    -0.6205119274
    7      H       2.9929336955    -0.7056163378    -0.4340018745
    8      H       1.7524841380    -1.9743320220    -0.4414341366
    9      H       1.7628964251    -0.7134010946    -1.6904908811
   10      C       0.0663178201    -0.5707941784     1.0224389036
   11      H      -0.4525918044     0.0581456910     1.7413801213
   12      H       0.0330007018    -1.6405839007     1.2138609943
   13      C      -1.8975872557    -0.6602547417    -0.1405375121
   14      H      -2.4835804930    -1.2643936457     0.5455775348
   15      H      -1.5622264219    -1.1358411990    -1.0621208639
   16      O      -2.3914722963     0.6163473024    -0.2475420968
   17      H      -1.8713980939     1.1037240083    -0.8945047770
 ----------------------------------------------------------------
 Molecular Point Group                 C1    NOp =  1
 Largest Abelian Subgroup              C1    NOp =  1
 Nuclear Repulsion Energy =   236.5524008485 hartrees
 There are       25 alpha and       24 beta electrons
 Applying Cartesian multipole field
    Component          Value
    ---------          -----
     (2,0,0)        1.00000E-11
     (0,2,0)        2.00000E-11
     (0,0,2)       -3.00000E-11
 Nucleus-field energy     =     0.0000000061 hartrees
 Requested basis set is non-standard
 There are 138 shells and 314 basis functions
 A cutoff of  1.0D-12 yielded   8991 shell pairs
 There are     46411 function pairs (     55808 Cartesian)
 Smallest overlap matrix eigenvalue = 1.03E-05
 Guess MOs from SCF MO coefficient file
Reading MOs from coefficient file
Reading MOs from coefficient file
 An unrestricted hybrid HF-DFT SCF calculation will be
 performed using Pulay DIIS + Geometric Direct Minimization
 Exchange:     0.5679 Hartree-Fock + 1.0000 M08SO
 SCF converges when RMS gradient is below 1.0E-08
Geometry optimization detected.  Setting ReadMinima to 0
Setting SaveMinima to 0
 Inaccurate integrated density:
   Number of electrons =    49
   Numerical integral  =    48.983221856708
   Relative error      =    -0.0342411088 %
 ---------------------------------------
  Cycle       Energy        RMS Gradient
 ---------------------------------------
    1    -272.1517076201      6.74E-04 Done DIIS. Switching to GDM
    2    -272.1622194430      2.10E-03 Normal BFGS step
    3    -272.1623554341      1.97E-03 Normal BFGS step
    4    -272.1623882601      8.00E-04 Normal BFGS step
    5    -272.1623939014      1.63E-04 Normal BFGS step
    6    -272.1623947949      1.33E-04 Normal BFGS step
    7    -272.1623950288      7.25E-05 Normal BFGS step
    8    -272.1623950673      4.79E-05 Normal BFGS step
    9    -272.1623950889      2.07E-05 Normal BFGS step
   10    -272.1623950913      1.12E-05 Normal BFGS step
   11    -272.1623950927      4.13E-06 Normal BFGS step
   12    -272.1623950928      2.94E-06 Normal BFGS step
   13    -272.1623950928      4.87E-07 Normal BFGS step
   14    -272.1623950929      1.61E-07 Normal BFGS step
   GDM::WARNING energy changes are now smaller than effective accuracy.
   GDM::        calculation will continue, but THRESH should be increased
   GDM::        or SCF_CONVERGENCE decreased.
   GDM::        effective_thresh =   1.490040875580523E-008
   15    -272.1623950928      6.29E-08 Normal BFGS step
   GDM::WARNING energy changes are now smaller than effective accuracy.
   GDM::        calculation will continue, but THRESH should be increased
   GDM::        or SCF_CONVERGENCE decreased.
   GDM::        effective_thresh =   1.490040875580523E-008
   16    -272.1623950928      1.82E-08 Normal BFGS step
   GDM::WARNING energy changes are now smaller than effective accuracy.
   GDM::        calculation will continue, but THRESH should be increased
   GDM::        or SCF_CONVERGENCE decreased.
   GDM::        effective_thresh =   1.490040875580523E-008
   17    -272.1623950928      7.50E-09 Convergence criterion met
 ---------------------------------------
 <S^2> = 0.7740
 SCF time:  CPU 1042.87 s  wall 1045.49 s
 SCF   energy in the final basis set = -272.1623950928
 Total energy in the final basis set = -272.1623950928
 Analysis of SCF Wavefunction
 
 --------------------------------------------------------------
                    Orbital Energies (a.u.)
 --------------------------------------------------------------
 
 Alpha MOs
 -- Occupied --
-19.591 -10.548 -10.501 -10.489 -10.488 -10.488  -1.165  -0.906
 -0.786  -0.783  -0.753  -0.611  -0.604  -0.534  -0.528  -0.517
 -0.512  -0.487  -0.457  -0.440  -0.430  -0.424  -0.405  -0.332
 -0.210
 -- Virtual --
 -0.031  -0.015  -0.010  -0.006   0.013   0.014   0.018   0.021
  0.023   0.052   0.054   0.058   0.062   0.067   0.076   0.077
  0.090   0.104   0.113   0.117   0.123   0.125   0.128   0.131
  0.136   0.142   0.147   0.151   0.162   0.180   0.183   0.188
  0.200   0.206   0.214   0.221   0.225   0.247   0.249   0.259
  0.262   0.278   0.289   0.296   0.302   0.310   0.319   0.335
  0.374   0.390   0.403   0.437   0.446   0.475   0.486   0.492
  0.499   0.507   0.523   0.540   0.544   0.551   0.564   0.573
  0.576   0.584   0.591   0.601   0.609   0.620   0.627   0.635
  0.643   0.659   0.672   0.689   0.698   0.712   0.730   0.734
  0.747   0.765   0.774   0.795   0.804   0.836   0.843   0.874
  0.883   0.906   0.911   0.935   0.949   0.991   1.003   1.010
  1.028   1.055   1.063   1.078   1.098   1.109   1.133   1.135
  1.145   1.156   1.174   1.182   1.194   1.207   1.235   1.237
  1.251   1.260   1.267   1.283   1.300   1.317   1.329   1.348
  1.355   1.362   1.373   1.394   1.415   1.439   1.444   1.447
  1.459   1.477   1.484   1.512   1.526   1.558   1.560   1.586
  1.592   1.600   1.613   1.637   1.648   1.758   1.807   1.874
  1.904   1.974   2.105   2.254   2.290   2.313   2.406   2.429
  2.466   2.494   2.520   2.539   2.606   2.650   2.666   2.725
  2.738   2.752   2.760   2.829   2.857   2.861   2.892   2.904
  2.923   2.931   2.944   2.946   2.969   2.981   3.032   3.047
  3.066   3.076   3.084   3.117   3.124   3.139   3.152   3.158
  3.183   3.191   3.195   3.222   3.230   3.245   3.261   3.290
  3.303   3.328   3.347   3.356   3.377   3.403   3.440   3.450
  3.478   3.493   3.496   3.527   3.556   3.568   3.589   3.615
  3.633   3.647   3.706   3.720   3.754   3.761   3.780   3.822
  3.841   3.850   3.854   3.891   3.893   3.904   3.922   3.969
  3.984   4.020   4.027   4.040   4.071   4.091   4.109   4.122
  4.151   4.166   4.180   4.208   4.210   4.226   4.267   4.295
  4.300   4.317   4.330   4.340   4.390   4.401   4.432   4.494
  4.521   4.536   4.542   4.562   4.639   4.655   4.688   4.877
  4.981   5.035   5.119   5.145   5.202   5.231   5.270   5.302
  5.425   5.446   5.499   5.555   5.581   5.596   5.634   5.640
  5.652   5.747   5.864   5.933   6.527   6.921   7.109   7.120
  7.162   7.438   7.566  23.932  24.176  24.210  24.236  24.584
 49.770
 
 Beta MOs
 -- Occupied --
-19.588 -10.533 -10.495 -10.491 -10.490 -10.488  -1.157  -0.903
 -0.785  -0.777  -0.740  -0.605  -0.598  -0.529  -0.524  -0.512
 -0.501  -0.461  -0.452  -0.439  -0.429  -0.419  -0.406  -0.303
 -- Virtual --
 -0.036  -0.025  -0.016  -0.013  -0.005   0.009   0.011   0.014
  0.017   0.021   0.046   0.050   0.054   0.061   0.063   0.072
  0.088   0.090   0.103   0.111   0.115   0.122   0.123   0.126
  0.127   0.132   0.139   0.145   0.150   0.160   0.180   0.184
  0.190   0.200   0.207   0.214   0.221   0.224   0.248   0.250
  0.263   0.269   0.280   0.292   0.297   0.302   0.310   0.323
  0.335   0.376   0.394   0.408   0.438   0.447   0.480   0.489
  0.494   0.499   0.511   0.524   0.543   0.552   0.554   0.566
  0.573   0.579   0.591   0.596   0.609   0.618   0.625   0.634
  0.642   0.649   0.669   0.675   0.692   0.704   0.715   0.732
  0.734   0.754   0.773   0.784   0.800   0.809   0.841   0.848
  0.876   0.886   0.909   0.914   0.938   0.953   0.994   1.006
  1.017   1.033   1.060   1.065   1.082   1.103   1.113   1.135
  1.138   1.147   1.158   1.177   1.187   1.205   1.214   1.238
  1.245   1.257   1.263   1.273   1.292   1.312   1.325   1.337
  1.359   1.363   1.369   1.381   1.400   1.420   1.441   1.448
  1.448   1.465   1.485   1.490   1.523   1.531   1.558   1.567
  1.588   1.592   1.604   1.623   1.642   1.654   1.764   1.820
  1.888   1.913   1.991   2.110   2.256   2.301   2.320   2.411
  2.453   2.485   2.501   2.533   2.548   2.610   2.653   2.696
  2.731   2.779   2.790   2.801   2.868   2.871   2.895   2.911
  2.926   2.927   2.933   2.958   2.975   2.987   3.005   3.049
  3.068   3.077   3.085   3.101   3.128   3.137   3.153   3.159
  3.169   3.192   3.209   3.217   3.238   3.243   3.270   3.296
  3.313   3.334   3.355   3.372   3.381   3.384   3.418   3.465
  3.497   3.506   3.513   3.535   3.548   3.578   3.589   3.621
  3.626   3.644   3.663   3.725   3.748   3.765   3.775   3.797
  3.824   3.852   3.857   3.868   3.896   3.911   3.927   3.946
  3.978   3.995   4.031   4.041   4.056   4.081   4.090   4.118
  4.128   4.155   4.170   4.184   4.206   4.223   4.258   4.275
  4.297   4.314   4.323   4.343   4.358   4.400   4.406   4.461
  4.522   4.540   4.541   4.570   4.590   4.657   4.662   4.716
  4.936   5.020   5.077   5.128   5.153   5.213   5.232   5.297
  5.305   5.450   5.505   5.508   5.567   5.574   5.593   5.629
  5.636   5.651   5.751   5.897   5.925   6.526   6.923   7.116
  7.123   7.163   7.431   7.551  23.934  24.186  24.215  24.239
 24.593  49.774
 --------------------------------------------------------------
 
          Ground-State Mulliken Net Atomic Charges

     Atom                 Charge (a.u.)    Spin (a.u.)
  --------------------------------------------------------
      1 C                     1.025922       0.389325
      2 C                    -0.940854      -0.035209
      3 H                     0.204325       0.017553
      4 H                     0.201796       0.019824
      5 H                     0.214376       0.000171
      6 C                    -0.877827      -0.026746
      7 H                     0.196759       0.014158
      8 H                     0.190857       0.000168
      9 H                     0.186661       0.017392
     10 C                    -0.966408      -0.207913
     11 H                     0.307599       0.014693
     12 H                     0.235952       0.016436
     13 C                    -0.430335       0.759813
     14 H                     0.201151      -0.018969
     15 H                     0.198977      -0.010665
     16 O                    -0.236450       0.051019
     17 H                     0.287499      -0.001051
  --------------------------------------------------------
  Sum of atomic charges =     0.000000
  Sum of spin   charges =     1.000000

 -----------------------------------------------------------------
                    Cartesian Multipole Moments
 -----------------------------------------------------------------
    Charge (ESU x 10^10)
                 0.0000
    Dipole Moment (Debye)
         X       0.9564      Y      -0.1430      Z      -1.1082
       Tot       1.4708
    Quadrupole Moments (Debye-Ang)
        XX     -45.4126     XY       1.7274     YY     -38.3494
        XZ      -0.1379     YZ      -1.4948     ZZ     -39.2637
    Octopole Moments (Debye-Ang^2)
       XXX      12.7652    XXY      -3.3193    XYY      -4.4058
       YYY       3.0232    XXZ      -0.8993    XYZ       3.9414
       YYZ      -1.6560    XZZ      -7.9471    YZZ       3.5843
       ZZZ      -7.1095
    Hexadecapole Moments (Debye-Ang^3)
      XXXX    -765.5938   XXXY      18.4188   XXYY    -165.3476
      XYYY      -7.7389   YYYY    -271.6273   XXXZ       0.4957
      XXYZ      -7.3921   XYYZ       5.1749   YYYZ      -7.6572
      XXZZ    -144.7231   XYZZ      -2.1537   YYZZ     -68.2687
      XZZZ       4.6207   YZZZ      -3.6573   ZZZZ    -149.0470
 -----------------------------------------------------------------
 Calculating analytic gradient of the SCF energy
 Gradient of Coulomb and Exchange Energy
            1           2           3           4           5           6
    1  -5.1238939  -2.6011557  -3.4952975   0.2041100   2.0150204  -2.8390944
    2  -1.8752908  -1.6849874  -1.6923555  -1.8831067  -2.6475985   0.3867310
    3   0.3858011   0.6901457  -0.7903217   3.2343538  -2.1470535   1.2557079
            7           8           9          10          11          12
    1  -3.8110223   0.0206219  -0.1396018   2.7373128   2.4418529   0.1041804
    2  -0.1718358   3.9386856  -0.1733333   3.9020507  -2.6964760   4.8098500
    3  -0.0687775  -0.2765656   3.7516087  -4.5252573  -3.0915813  -0.8548760
           13          14          15          16          17
    1   1.7335794   2.3869203  -1.0231598   9.1280178  -1.7383907
    2   2.9814019   2.6954148   2.1618788  -4.9238818  -3.1271471
    3  -0.2287503  -2.8454983   3.6144618  -1.1995902   3.0961927
 Gradient of SCF Energy
            1           2           3           4           5           6
    1   0.0037391  -0.0002589  -0.0012990   0.0002966   0.0013328   0.0000461
    2   0.0010394   0.0004874   0.0000231   0.0000911  -0.0006197  -0.0003272
    3  -0.0011160   0.0001794  -0.0003464   0.0013849  -0.0013239  -0.0001128
            7           8           9          10          11          12
    1  -0.0011553   0.0005985   0.0005824  -0.0064410   0.0018778   0.0005252
    2  -0.0005641   0.0015295  -0.0006361  -0.0027150  -0.0016650   0.0021887
    3  -0.0004991  -0.0005672   0.0010440   0.0002609  -0.0000214   0.0010862
           13          14          15          16          17
    1   0.0045878   0.0007937  -0.0010738  -0.0044270   0.0002750
    2  -0.0013069   0.0009553   0.0004351   0.0028997  -0.0018154
    3   0.0005177  -0.0011842   0.0008126  -0.0004188   0.0003040
 Max gradient component =       6.441E-03
 RMS gradient           =       1.728E-03
 Gradient time:  CPU 68.69 s  wall 68.81 s
 Geometry Optimization Parameters
   NAtoms,    NIC,     NZ,  NCons,   NDum,   NFix, NCnnct, MaxDiis
       17     122       0       0       0       0       0       0

 Cartesian Hessian Update
 Hessian Updated using Powell/Murtagh-Sargent Update
  Mixing factors:     0.993758 Powell
                      0.006242 Murtagh-Sargent


** GEOMETRY OPTIMIZATION IN DELOCALIZED INTERNAL COORDINATES **
   Searching for a Transition State

   Optimization Cycle:   4

                       Coordinates (Angstroms)
     ATOM                X               Y               Z
      1  C         1.0524035175   -0.0456506253    0.2420799208
      2  C         1.2392110370    1.4409083719    0.1043511173
      3  H         2.2639111942    1.7399545891    0.3659528902
      4  H         1.0850281610    1.7712912461   -0.9346467171
      5  H         0.5484717277    1.9964343967    0.7447979941
      6  C         1.9296598874   -0.9099927902   -0.6205119274
      7  H         2.9929336955   -0.7056163378   -0.4340018745
      8  H         1.7524841380   -1.9743320220   -0.4414341366
      9  H         1.7628964251   -0.7134010946   -1.6904908811
     10  C         0.0663178201   -0.5707941784    1.0224389036
     11  H        -0.4525918044    0.0581456910    1.7413801213
     12  H         0.0330007018   -1.6405839007    1.2138609943
     13  C        -1.8975872557   -0.6602547417   -0.1405375121
     14  H        -2.4835804930   -1.2643936457    0.5455775348
     15  H        -1.5622264219   -1.1358411990   -1.0621208639
     16  O        -2.3914722963    0.6163473024   -0.2475420968
     17  H        -1.8713980939    1.1037240083   -0.8945047770
   Point Group: c1    Number of degrees of freedom:    45


   Energy is   -272.162395093

 GETINT wrote B to file, NVib is           45
 Hessian Updated using Powell/Murtagh-Sargent Update
  Mixing factors:     0.997832 Powell
                      0.002168 Murtagh-Sargent

 42 Hessian modes will be used to form the next step
  Hessian Eigenvalues:
     0.000131    0.008585    0.008639    0.015277    0.019016    0.027016
     0.034803    0.041276    0.044991    0.053126    0.062975    0.065973
     0.070897    0.070939    0.072586    0.072622    0.087201    0.111916
     0.115301    0.132588    0.159939    0.159993    0.160000    0.160002
     0.185441    0.248980    0.249229    0.319099    0.319486    0.322160
     0.337072    0.337450    0.339153    0.339700    0.345548    0.346383
     0.349367    0.353535    0.354377    0.501172    0.519175    0.549945
**WARNING** Hessian does not have the Desired Local Structure

 Transition State Search - Taking P-RFO Step
 Searching for Lamda that Maximizes Along the Lowest mode
 Value Taken    Lamda =   0.00049862
 Searching for Lamda that Minimizes Along All other modes
 Value Taken    Lamda =  -0.00042792
 Calculated Step too Large.  Step scaled by  0.257307
 Step Taken.  Stepsize is  0.300000

                             Maximum     Tolerance    Cnvgd?
         Gradient           0.003603      0.000300      NO
         Displacement       0.131710      0.003000      NO
         Energy change      0.000043      0.000000      NO


 New Cartesian Coordinates Obtained by Inverse Iteration

 Displacement from previous Coordinates is:  0.383886
 ----------------------------------------------------------------
             Standard Nuclear Orientation (Angstroms)
    I     Atom           X                Y                Z
 ----------------------------------------------------------------
    1      C       1.0585271774    -0.0470709852     0.2437792829
    2      C       1.2471683946     1.4375114674     0.0873888972
    3      H       2.2734165740     1.7382606234     0.3427466824
    4      H       1.0900149060     1.7538708908    -0.9560731224
    5      H       0.5584332436     2.0015615723     0.7240347049
    6      C       1.9382340251    -0.9229128498    -0.6045754563
    7      H       3.0014076671    -0.7163573250    -0.4169925739
    8      H       1.7586859686    -1.9851706432    -0.4121516433
[...]
 C          0.011 -0.055 -0.022    0.045  0.043 -0.084   -0.012 -0.002 -0.009
 H          0.508  0.210  0.101    0.228  0.091 -0.009    0.083  0.000  0.051
 H         -0.495 -0.033  0.027    0.214  0.052 -0.020    0.028  0.002  0.035
 C         -0.006  0.004 -0.008    0.006 -0.008  0.007    0.002 -0.001 -0.068
 H          0.015 -0.034 -0.001   -0.017 -0.011 -0.018   -0.122  0.513 -0.004
 H         -0.017  0.028 -0.038   -0.014  0.002 -0.011    0.086 -0.393  0.343
 O          0.003 -0.008  0.003    0.000  0.006 -0.003    0.017 -0.044  0.033
 H          0.006 -0.041 -0.007    0.002  0.003  0.000   -0.238  0.591 -0.027
 TransDip   0.005 -0.001 -0.003    0.127  0.021 -0.001   -0.085  0.213 -0.086

 Mode:                22                     23                     24
 Frequency:      1073.19                1188.03                1299.27
 Force Cnst:      1.0962                 3.7768                 2.2975
 Red. Mass:       1.6154                 4.5417                 2.3099
 IR Active:          YES                    YES                    YES
 IR Intens:        4.985                119.658                  0.491
 Raman Active:       YES                    YES                    YES
               X      Y      Z        X      Y      Z        X      Y      Z
 C         -0.119  0.013 -0.116    0.010 -0.002 -0.007   -0.076  0.287  0.105
 C          0.087 -0.010  0.071    0.002  0.013 -0.006    0.024 -0.054 -0.035
 H          0.014  0.448 -0.140    0.009 -0.051  0.014    0.013 -0.219  0.118
 H         -0.216 -0.346 -0.033   -0.010  0.014  0.001   -0.115 -0.167 -0.047
 H         -0.170 -0.061 -0.162   -0.016 -0.025  0.001   -0.126 -0.417  0.090
 C          0.088  0.003  0.076    0.003  0.003 -0.002    0.005 -0.067 -0.009
 H          0.182 -0.184 -0.392    0.000 -0.006  0.012    0.053 -0.075 -0.228
 H         -0.196  0.027 -0.144   -0.017  0.011  0.034    0.297 -0.152 -0.303
 H         -0.362  0.152  0.185   -0.011  0.008  0.005    0.216 -0.068 -0.060
 C          0.005 -0.009  0.027    0.003 -0.003  0.013    0.026 -0.089 -0.033
 H         -0.005  0.000  0.013    0.017  0.014  0.005    0.238  0.212 -0.113
 H         -0.023 -0.011  0.002   -0.118 -0.010 -0.079   -0.313 -0.039  0.207
 C          0.003 -0.002  0.012    0.023 -0.390  0.064    0.003 -0.001 -0.005
 H          0.034 -0.092  0.009   -0.047 -0.217  0.066   -0.010  0.039 -0.004
 H         -0.016  0.068 -0.064    0.056 -0.698  0.367    0.008 -0.010  0.005
 O         -0.003  0.010 -0.007   -0.024  0.339 -0.068   -0.004  0.001  0.002
 H          0.040 -0.089  0.006    0.055  0.084 -0.081    0.015 -0.023  0.017
 TransDip   0.029 -0.047  0.045    0.220 -0.252  0.104   -0.005  0.016  0.015

 Mode:                25                     26                     27
 Frequency:      1334.83                1381.33                1396.13
 Force Cnst:      1.3534                 1.3746                 1.7463
 Red. Mass:       1.2892                 1.2228                 1.5206
 IR Active:          YES                    YES                    YES
 IR Intens:       21.304                  0.286                 10.294
 Raman Active:       YES                    YES                    YES
               X      Y      Z        X      Y      Z        X      Y      Z
 C         -0.014  0.001  0.016   -0.076 -0.047  0.075    0.024 -0.098 -0.031
 C          0.003  0.001 -0.006    0.014 -0.048 -0.021    0.014  0.135  0.006
 H         -0.009  0.018  0.018   -0.100  0.257  0.095    0.136 -0.418  0.032
 H          0.006  0.004 -0.005   -0.073  0.260  0.107   -0.094 -0.360 -0.153
 H          0.012 -0.022  0.026    0.129  0.210 -0.080   -0.216 -0.306  0.096
 C          0.005  0.000 -0.006   -0.013  0.048  0.017   -0.066  0.080  0.074
 H          0.004 -0.017  0.016    0.063 -0.261 -0.111    0.065 -0.274 -0.279
 H          0.006 -0.002 -0.006    0.172 -0.022 -0.191    0.234 -0.018 -0.243
 H         -0.010 -0.021 -0.007    0.092 -0.271 -0.086    0.261 -0.286 -0.096
 C         -0.003  0.000 -0.007    0.000 -0.001 -0.002   -0.007  0.024  0.009
 H          0.035  0.045 -0.018    0.208  0.410 -0.207   -0.052 -0.038  0.025
 H          0.026 -0.001 -0.029    0.322 -0.040 -0.373    0.087  0.011 -0.064
 C         -0.071 -0.033  0.093    0.015 -0.003  0.001    0.000  0.001  0.001
 H          0.074 -0.432  0.103   -0.015  0.032 -0.018    0.001  0.005  0.004
 H          0.009  0.322 -0.205   -0.019 -0.017 -0.001    0.000  0.013 -0.010
 O          0.064 -0.017 -0.055   -0.006  0.005  0.001    0.001 -0.003  0.000
 H         -0.230  0.747 -0.096    0.018 -0.052  0.006    0.000  0.011  0.005
 TransDip  -0.047  0.140 -0.005   -0.007 -0.010 -0.012    0.026 -0.091 -0.039

 Mode:                28                     29                     30
 Frequency:      1406.59                1446.91                1462.13
 Force Cnst:      1.5728                 1.2945                 1.3158
 Red. Mass:       1.3493                 1.0494                 1.0446
 IR Active:          YES                    YES                    YES
 IR Intens:        2.423                  0.206                 17.235
 Raman Active:       YES                    YES                    YES
               X      Y      Z        X      Y      Z        X      Y      Z
 C         -0.066 -0.033  0.067   -0.001 -0.003 -0.001   -0.017 -0.006 -0.019
 C          0.035  0.086 -0.021   -0.027  0.010 -0.034   -0.017  0.011 -0.030
 H          0.059 -0.307  0.191   -0.144  0.217  0.222   -0.144  0.203  0.252
 H         -0.245 -0.226 -0.088    0.175 -0.273 -0.148    0.097 -0.277 -0.139
 H         -0.148 -0.240  0.047    0.337 -0.047  0.404    0.323 -0.021  0.364
 C          0.071 -0.032 -0.075    0.030  0.003  0.028   -0.028 -0.003 -0.024
 H         -0.042  0.103  0.385   -0.039  0.299  0.045    0.047 -0.314 -0.074
 H         -0.204  0.043  0.194   -0.329  0.019 -0.363    0.336 -0.016  0.393
 H         -0.373  0.105  0.061   -0.054 -0.349 -0.060    0.053  0.382  0.069
 C         -0.002  0.000 -0.009    0.003  0.003 -0.004   -0.002  0.001  0.003
 H          0.160  0.283 -0.133    0.000 -0.017  0.011    0.009  0.016 -0.003
 H          0.228 -0.027 -0.240   -0.014  0.005  0.012    0.025 -0.002 -0.017
 C          0.014  0.003  0.000    0.002  0.009 -0.004    0.002  0.001 -0.001
 H         -0.008  0.052 -0.007    0.008 -0.061 -0.023    0.001 -0.001 -0.002
 H          0.001  0.009 -0.011   -0.030 -0.055  0.044   -0.004 -0.006  0.003
 O         -0.005 -0.002  0.002    0.000  0.002  0.001   -0.001  0.001  0.000
 H          0.015 -0.042  0.012    0.002 -0.022 -0.006    0.003 -0.020 -0.003
 TransDip   0.033 -0.011  0.036   -0.006  0.008  0.011    0.094 -0.004  0.094

 Mode:                31                     32                     33
 Frequency:      1464.92                1470.07                1476.77
 Force Cnst:      1.3313                 1.4473                 1.3872
 Red. Mass:       1.0529                 1.1366                 1.0796
 IR Active:          YES                    YES                    YES
 IR Intens:        2.301                 12.437                 15.553
 Raman Active:       YES                    YES                    YES
               X      Y      Z        X      Y      Z        X      Y      Z
 C          0.006 -0.014  0.000    0.001  0.003 -0.002    0.000  0.003  0.001
 C          0.024 -0.002 -0.019   -0.013 -0.001  0.003   -0.029  0.018  0.022
 H         -0.067 -0.095  0.337    0.003  0.073 -0.098    0.100  0.083 -0.425
 H         -0.376 -0.041  0.026    0.162 -0.007 -0.022    0.482  0.020 -0.054
 H          0.079  0.183 -0.091    0.021 -0.058  0.078   -0.121 -0.278  0.139
 C         -0.007 -0.037  0.017    0.005  0.014 -0.002    0.000 -0.031  0.002
 H          0.002  0.335 -0.399   -0.004 -0.086  0.138    0.003  0.217 -0.246
 H         -0.291  0.041  0.148    0.066 -0.011 -0.088   -0.188  0.028  0.156
 H          0.417  0.159 -0.028   -0.148 -0.092  0.003    0.259  0.161 -0.007
 C         -0.006  0.002  0.007    0.001  0.002 -0.005   -0.033 -0.028  0.045
 H          0.001  0.023 -0.009   -0.004 -0.031  0.020    0.076  0.275 -0.122
 H          0.031 -0.007 -0.042   -0.032  0.007  0.023    0.161 -0.067 -0.247
 C         -0.002 -0.033  0.009   -0.003 -0.102  0.024   -0.002  0.001 -0.003
 H         -0.026  0.201  0.069   -0.085  0.628  0.202    0.003  0.009  0.005
 H          0.096  0.148 -0.125    0.292  0.440 -0.377    0.007  0.000  0.001
 O         -0.002  0.002 -0.003   -0.011  0.010 -0.006   -0.001  0.000  0.001
 H          0.001  0.009  0.007    0.014 -0.041  0.005    0.000 -0.009 -0.005
 TransDip  -0.005  0.046  0.015    0.053 -0.085  0.052    0.074  0.042 -0.094

 Mode:                34                     35                     36
 Frequency:      1584.30                2939.89                2949.56
 Force Cnst:      4.3715                 5.3186                 5.3338
 Red. Mass:       2.9560                 1.0444                 1.0406
 IR Active:          YES                    YES                    YES
 IR Intens:        3.674                 35.115                 46.745
 Raman Active:       YES                    YES                    YES
               X      Y      Z        X      Y      Z        X      Y      Z
 C          0.219  0.135 -0.199    0.001  0.000 -0.001    0.001  0.001 -0.001
 C         -0.017 -0.033  0.015    0.008  0.043 -0.037    0.000  0.005 -0.006
 H         -0.032 -0.162  0.197   -0.402 -0.093 -0.138   -0.033 -0.008 -0.012
 H         -0.221 -0.151 -0.008    0.105 -0.282  0.777    0.014 -0.040  0.103
 H          0.086  0.206 -0.068    0.201 -0.139 -0.195    0.022 -0.017 -0.022
 C         -0.029  0.005  0.030   -0.004  0.001  0.005    0.025 -0.005 -0.047
 H         -0.056 -0.016  0.248    0.071  0.013  0.014   -0.515 -0.090 -0.102
 H          0.149 -0.047 -0.171   -0.009 -0.042  0.007    0.063  0.341 -0.049
 H         -0.238 -0.022  0.058   -0.019  0.024 -0.082    0.150 -0.188  0.719
 C         -0.135 -0.110  0.189   -0.001  0.000  0.000   -0.001  0.000 -0.001
 H         -0.025  0.447 -0.145   -0.004  0.006  0.007   -0.006  0.009  0.011
 H          0.152 -0.210 -0.395    0.001 -0.011  0.001    0.001 -0.014  0.001
 C         -0.036  0.004 -0.019    0.000  0.000  0.000    0.000  0.000  0.000
 H          0.022  0.004  0.040    0.004  0.001 -0.004    0.003  0.001 -0.003
 H          0.058  0.011  0.009   -0.001  0.003  0.003    0.000  0.003  0.003
 O          0.006 -0.007  0.002    0.000  0.000  0.000    0.000  0.000  0.000
 H         -0.014  0.032 -0.003   -0.002  0.001  0.003   -0.001  0.000  0.000
 TransDip  -0.009  0.024 -0.056    0.062  0.160 -0.082    0.152 -0.007 -0.157

 Mode:                37                     38                     39
 Frequency:      2986.77                2994.47                3054.52
 Force Cnst:      5.7410                 5.7941                 5.7853
 Red. Mass:       1.0923                 1.0967                 1.0524
 IR Active:          YES                    YES                    YES
 IR Intens:       32.339                 17.382                 15.537
 Raman Active:       YES                    YES                    YES
               X      Y      Z        X      Y      Z        X      Y      Z
 C          0.000  0.000  0.000    0.000  0.000  0.000    0.000  0.000  0.000
 C         -0.060 -0.009 -0.063    0.006  0.000  0.007   -0.013  0.004  0.010
 H          0.794  0.208  0.224   -0.077 -0.018 -0.021    0.048  0.014  0.018
 H          0.040 -0.173  0.446   -0.005  0.018 -0.054   -0.007  0.015 -0.038
 H         -0.120  0.076  0.084    0.012 -0.007 -0.006    0.110 -0.081 -0.102
 C         -0.008  0.001 -0.005   -0.069  0.010 -0.056    0.006  0.017 -0.004
 H          0.089  0.015  0.012    0.763  0.143  0.112   -0.051 -0.006 -0.010
 H         -0.003 -0.018  0.002   -0.035 -0.111  0.000   -0.034 -0.191  0.022
 H          0.005 -0.009  0.042    0.094 -0.151  0.567    0.010 -0.008  0.041
 C          0.000  0.000  0.000    0.000  0.000  0.000   -0.001  0.000  0.000
 H          0.000 -0.002 -0.001   -0.001  0.001  0.001    0.004 -0.002 -0.001
 H          0.000  0.004 -0.001   -0.001 -0.002  0.001   -0.003  0.000 -0.001
 C          0.000  0.000  0.000    0.000  0.000  0.000   -0.011 -0.056 -0.014
 H          0.001  0.000 -0.001   -0.002 -0.001  0.002    0.359  0.129 -0.380
 H          0.000  0.000  0.001    0.002 -0.004 -0.005   -0.209  0.528  0.555
 O          0.000  0.000  0.000    0.000  0.000  0.000   -0.001  0.000 -0.001
 H          0.000  0.001  0.001    0.000  0.000 -0.001   -0.004 -0.002  0.008
 TransDip  -0.140 -0.039 -0.110   -0.107  0.028 -0.075   -0.003 -0.126 -0.006

 Mode:                40                     41                     42
 Frequency:      3055.57                3057.29                3068.01
 Force Cnst:      6.0230                 6.0447                 5.8623
 Red. Mass:       1.0949                 1.0976                 1.0571
 IR Active:          YES                    YES                    YES
 IR Intens:       29.379                 13.547                  6.252
 Raman Active:       YES                    YES                    YES
               X      Y      Z        X      Y      Z        X      Y      Z
 C         -0.001  0.000  0.001   -0.002 -0.001  0.002    0.004  0.002 -0.003
 C          0.024 -0.009 -0.019   -0.062  0.025  0.049   -0.001  0.002  0.001
 H         -0.090 -0.024 -0.033    0.232  0.066  0.085   -0.002 -0.002  0.000
 H          0.013 -0.022  0.057   -0.035  0.064 -0.155    0.000 -0.004  0.006
 H         -0.214  0.158  0.200    0.553 -0.407 -0.515    0.019 -0.015 -0.017
 C         -0.029 -0.074  0.018   -0.012 -0.032  0.008    0.000 -0.002 -0.001
 H          0.254  0.032  0.050    0.109  0.012  0.021   -0.001  0.001  0.001
 H          0.142  0.814 -0.095    0.062  0.355 -0.041    0.004  0.030 -0.002
 H         -0.044  0.032 -0.176   -0.019  0.013 -0.078    0.001 -0.002  0.010
 C          0.000  0.002  0.000    0.002  0.001 -0.002   -0.032 -0.029  0.051
 H          0.000  0.001  0.000   -0.011  0.018  0.017    0.320 -0.392 -0.486
 H          0.001 -0.019  0.001    0.001 -0.022  0.000    0.016  0.704 -0.077
 C         -0.003 -0.016 -0.004    0.001  0.006  0.001    0.000  0.000 -0.001
 H          0.103  0.037 -0.109   -0.036 -0.013  0.038   -0.002 -0.002  0.005
 H         -0.058  0.149  0.157    0.021 -0.053 -0.055    0.001  0.001  0.001
 O          0.000  0.000  0.000    0.000  0.000  0.000    0.000  0.000  0.000
 H         -0.002 -0.001  0.002    0.002  0.002 -0.001    0.000  0.000  0.000
 TransDip  -0.002 -0.173 -0.008   -0.087 -0.002  0.079   -0.018 -0.045  0.064

 Mode:                43                     44                     45
 Frequency:      3153.61                3181.28                3859.44
 Force Cnst:      6.5458                 6.6806                 9.3519
 Red. Mass:       1.1171                 1.1204                 1.0656
 IR Active:          YES                    YES                    YES
 IR Intens:        9.427                 13.112                 26.376
 Raman Active:       YES                    YES                    YES
               X      Y      Z        X      Y      Z        X      Y      Z
 C          0.001 -0.002 -0.001    0.000  0.000  0.000    0.000  0.000  0.000
 C          0.001  0.000  0.000    0.000  0.000  0.000    0.000  0.000  0.000
 H         -0.004  0.000 -0.001    0.001  0.000  0.000   -0.001 -0.001  0.000
 H         -0.001  0.000  0.002    0.000  0.001 -0.002   -0.002 -0.003  0.003
 H         -0.003  0.006  0.003    0.001 -0.001 -0.001    0.000  0.000  0.001
 C         -0.001 -0.001  0.000    0.000  0.000  0.000    0.000  0.000  0.000
 H          0.004  0.001  0.000   -0.001  0.000  0.000   -0.001  0.000  0.000
 H         -0.001  0.009  0.001    0.000 -0.002  0.000    0.000  0.000  0.000
 H          0.000  0.001 -0.003    0.000  0.000 -0.001   -0.001  0.000  0.001
 C          0.025 -0.090 -0.034   -0.002  0.005  0.002    0.000  0.000  0.000
 H         -0.327  0.382  0.495    0.017 -0.024 -0.031    0.001  0.000  0.000
 H          0.024  0.693 -0.087   -0.001 -0.034  0.005    0.000  0.000  0.000
 C         -0.003  0.000  0.004   -0.059  0.012  0.081   -0.002  0.000  0.002
 H          0.034  0.012 -0.033    0.572  0.209 -0.564    0.009  0.003 -0.012
 H          0.007 -0.016 -0.015    0.126 -0.365 -0.386   -0.001  0.003 -0.001
 O          0.000  0.000  0.000    0.001  0.000 -0.001   -0.047 -0.016  0.037
 H         -0.001  0.000  0.000   -0.014  0.005  0.006    0.762  0.256 -0.591
 TransDip   0.021 -0.094 -0.020   -0.061  0.026  0.095    0.075  0.091 -0.115

 STANDARD THERMODYNAMIC QUANTITIES AT   298.15 K  AND     1.00 ATM

   This Molecule has  1 Imaginary Frequencies
   Zero point vibrational energy:       91.087 kcal/mol

   Atom    1 Element C  Has Mass   12.00000
   Atom    2 Element C  Has Mass   12.00000
   Atom    3 Element H  Has Mass    1.00783
   Atom    4 Element H  Has Mass    1.00783
   Atom    5 Element H  Has Mass    1.00783
   Atom    6 Element C  Has Mass   12.00000
   Atom    7 Element H  Has Mass    1.00783
   Atom    8 Element H  Has Mass    1.00783
   Atom    9 Element H  Has Mass    1.00783
   Atom   10 Element C  Has Mass   12.00000
   Atom   11 Element H  Has Mass    1.00783
   Atom   12 Element H  Has Mass    1.00783
   Atom   13 Element C  Has Mass   12.00000
   Atom   14 Element H  Has Mass    1.00783
   Atom   15 Element H  Has Mass    1.00783
   Atom   16 Element O  Has Mass   15.99491
   Atom   17 Element H  Has Mass    1.00783
   Molecular Mass:    87.081040 amu
   Principal axes and moments of inertia in amu*Bohr^2:
                             1           2           3
    Eigenvalues --      387.01149   870.23428   996.98733
          X               0.99927     0.02881    -0.02507
          Y              -0.02812     0.99923     0.02737
          Z               0.02584    -0.02665     0.99931
   Rotational Symmetry Number is   1
   The Molecule is an Asymmetric Top
   Translational Enthalpy:        0.889 kcal/mol
   Rotational Enthalpy:           0.889 kcal/mol
   Vibrational Enthalpy:         94.855 kcal/mol
   gas constant (RT):             0.592 kcal/mol
   Translational Entropy:        39.306  cal/mol.K
   Rotational Entropy:           27.309  cal/mol.K
   Vibrational Entropy:          23.795  cal/mol.K

   Total Enthalpy:               97.225 kcal/mol
   Total Entropy:                90.410  cal/mol.K
Archival summary:
1\1\node28\FREQ\ProcedureUnspecified\BasisUnspecified\1511(2)\edames\SatJun2104:04:452014SatJun2104:04:452014\0\\#,FREQ,ProcedureUnspecified,BasisUnspecified,\\0,2\C\C,1,1.36235\H,2,1.0895,1,119.916\H,2,1.08999,1,120.252,3,158.991,0\C,1,1.50475,2,121.906,3,-171.58,0\H,5,1.09636,1,111.621,2,4.79858,0\H,5,1.10092,1,110.958,2,125.587,0\H,5,1.10254,1,111.419,2,-116.234,0\C,1,1.50589,2,121.687,3,11.8757,0\H,9,1.09612,1,111.562,2,1.30639,0\H,9,1.10174,1,110.981,2,-119.696,0\H,9,1.10376,1,111.622,2,122.619,0\C,2,2.25141,1,106.847,3,-97.4843,0\H,13,1.08844,2,104.634,1,169.086,0\H,13,1.09235,2,99.3905,1,-69.1228,0\O,13,1.36657,2,102.688,1,51.6101,0\H,16,0.964788,13,109.698,2,-61.2711,0\\\@

 Total job time:  56056.08s(wall), 55592.81s(cpu) 
 Sat Jun 21 04:04:45 2014

        *************************************************************
        *                                                           *
        *  Thank you very much for using Q-Chem.  Have a nice day.  *
        *                                                           *
        *************************************************************


0 sent ACK to 0 
now end server 0 ... 
cleanup process ... done
remove work dirs /scratch/edames/qchem15776.0 -- /scratch/edames/qchem15776.7
rm -rf /scratch/edames/qchem15776.0
rm -rf /scratch/edames/qchem15776.1
rm -rf /scratch/edames/qchem15776.2
rm -rf /scratch/edames/qchem15776.3
rm -rf /scratch/edames/qchem15776.4
rm -rf /scratch/edames/qchem15776.5
rm -rf /scratch/edames/qchem15776.6
rm -rf /scratch/edames/qchem15776.7
rm -rf /scratch/edames/qchem15776
