
Running Job 1 of 2 iC5H11O-1_betasc_CH2Om08.in
qchem iC5H11O-1_betasc_CH2Om08.in_28059.0 /scratch/edames/qchem28059/ 4
/opt/qchem/bin/mpi/mpirun_qchem -machinefile /tmp/312412.1.normal1/hostfile -np 4 /opt/qchem/exe/qcprog.exe iC5H11O-1_betasc_CH2Om08.in_28059.0 /scratch/edames/qchem28059/

Process 0 of 4 is on node20.cluster - thread support 0
Process 2 of 4 is on node20.cluster - thread support 0
Process 1 of 4 is on node20.cluster - thread support 0
Process 3 of 4 is on node20.cluster - thread support 0
initial socket setup ...start
initial socket setup ...done 
now start server 0 ... 
set process cleaner
set process cleaner
set process cleaner
                  Welcome to Q-Chem
     A Quantum Leap Into The Future Of Chemistry


 Q-Chem 4.2, Q-Chem, Inc., Pleasanton, CA (2014).

 Y. Shao,  Z. Gan,  E. Epifanovsky,  A. T. B. Gilbert,  M. Wormit,  
 J. Kussmann,  A. W. Lange,  A. Behn,  J. Deng,  X. Feng,  D. Ghosh,  
 M. Goldey,  P. R. Horn,  L. D. Jacobson,  I. Kaliman,  R. Z. Khaliullin,  
 T. Kus,  A. Landau,  J. Liu,  E. I. Proynov,  Y. M. Rhee,  R. M. Richard,  
 M. A. Rohrdanz,  R. P. Steele,  E. J. Sundstrom,  H. L. Woodcock III,  
 P. M. Zimmerman,  D. Zuev,  B. Albrecht,  E. Alguire,  B. Austin,  
 G. J. O. Beran,  Y. A. Bernard,  E. Berquist,  K. Brandhorst,  
 K. B. Bravaya,  S. T. Brown,  D. Casanova,  C.-M. Chang,  Y. Chen,  
 S. H. Chien,  K. D. Closser,  D. L. Crittenden,  M. Diedenhofen,  
 R. A. DiStasio Jr.,  H. Do,  A. D. Dutoi,  R. G. Edgar,  S. Fatehi,  
 L. Fusti-Molnar,  A. Ghysels,  A. Golubeva-Zadorozhnaya,  J. Gomes,  
 M. W. D. Hanson-Heine,  P. H. P. Harbach,  A. W. Hauser,  E. G. Hohenstein,  
 Z. C. Holden,  T.-C. Jagau,  H. Ji,  B. Kaduk,  K. Khistyaev,  Jaehoon Kim,  
 Jihan Kim,  R. A. King,  P. Klunzinger,  D. Kosenkov,  T. Kowalczyk,  
 C. M. Krauter,  K. U. Lao,  A. Laurent,  K. V. Lawler,  S. V. Levchenko,  
 C. Y. Lin,  F. Liu,  E. Livshits,  R. C. Lochan,  A. Luenser,  P. Manohar,  
 S. F. Manzer,  S.-P. Mao,  N. Mardirossian,  A. V. Marenich,  S. A. Maurer,  
 N. J. Mayhall,  C. M. Oana,  R. Olivares-Amaya,  D. P. O'Neill,  
 J. A. Parkhill,  T. M. Perrine,  R. Peverati,  P. A. Pieniazek,  A. Prociuk,  
 D. R. Rehn,  E. Rosta,  N. J. Russ,  N. Sergueev,  S. M. Sharada,  
 S. Sharma,  D. W. Small,  A. Sodt,  T. Stein,  D. Stuck,  Y.-C. Su,  
 A. J. W. Thom,  T. Tsuchimochi,  L. Vogt,  O. Vydrov,  T. Wang,  
 M. A. Watson,  J. Wenzel,  A. White,  C. F. Williams,  V. Vanovschi,  
 S. Yeganeh,  S. R. Yost,  Z.-Q. You,  I. Y. Zhang,  X. Zhang,  Y. Zhao,  
 B. R. Brooks,  G. K. L. Chan,  D. M. Chipman,  C. J. Cramer,  
 W. A. Goddard III,  M. S. Gordon,  W. J. Hehre,  A. Klamt,  
 H. F. Schaefer III,  M. W. Schmidt,  C. D. Sherrill,  D. G. Truhlar,  
 A. Warshel,  X. Xu,  A. Aspuru-Guzik,  R. Baer,  A. T. Bell,  N. A. Besley,  
 J.-D. Chai,  A. Dreuw,  B. D. Dunietz,  T. R. Furlani,  S. R. Gwaltney,  
 C.-P. Hsu,  Y. Jung,  J. Kong,  D. S. Lambrecht,  W. Liang,  C. Ochsenfeld,  
 V. A. Rassolov,  L. V. Slipchenko,  J. E. Subotnik,  T. Van Voorhis,  
 J. M. Herbert,  A. I. Krylov,  P. M. W. Gill,  M. Head-Gordon

 Contributors to earlier versions of Q-Chem not listed above: 
 R. D. Adamson,  J. Baker,  E. F. C. Byrd,  A. K. Chakraborty,  C.-L. Cheng,  
 H. Dachsel,  R. J. Doerksen,  G. Hawkins,  A. Heyden,  S. Hirata,  
 G. Kedziora,  F. J. Keil,  C. Kelley,  P. P. Korambath,  W. Kurlancheek,  
 A. M. Lee,  M. S. Lee,  D. Liotard,  I. Lotan,  P. E. Maslen,  N. Nair,  
 D. Neuhauser,  R. Olson,  B. Peters,  J. Ritchie,  N. E. Schultz,  
 N. Shenvi,  A. C. Simmonett,  K. S. Thanthiriwatte,  Q. Wu,  W. Zhang

 Q-Chem 4.2.0 for Intel X86 Linux

 Parts of Q-Chem use Armadillo 4.100.2 (Dirt Cruiser).
 http://arma.sourceforge.net/

 Q-Chem begins on Tue Jun  3 09:55:11 2014  

Host: 
0

     Scratch files written to /scratch/edames/qchem28059.0//
 May2514 8580_ilyak 4150   
 Parallel job on  4  processors
Processing $rem in /opt/qchem/config/preferences.
 MEM_TOTAL  2000 
Warning: disabling incdft.
 Q-Chem warning in module /home/scratch/svnadmin/8580_ilyak/qchem/forms1/BasisType.C, line 1209:

 Setting pure/cartesian flag to 2111 for general basis


Finally everything over in PARseQInput

--------------------------------------------------------------
User input:
--------------------------------------------------------------
$rem
XC_GRID 000075000434
JOBTYPE ts
EXCHANGE M08SO
BASIS gen
GUI=2
UNRESTRICTED TRUE
CORRELATION NONE
$end

$comment
c5h11o-2
$end

$molecule
read iC5H11O-1_betasc_CH2O.out
$end

$basis
H  0
S  3 1.00
3.386500000000E+01 2.549380000000E-02
5.094790000000E+00 1.903730000000E-01
1.158790000000E+00 8.521610000000E-01
S  1 1.00
3.258400000000E-01 1.000000000000E+00
S  1 1.00
1.027410000000E-01 1.000000000000E+00
S  1 1.00
3.600000000000E-02 1.000000000000E+00
P  1 1.00
1.500000000000E+00 1.000000000000E+00
P  1 1.00
3.750000000000E-01 1.000000000000E+00
****
C 0
S  6 1.00
4.563240000000E+03 1.966650000000E-03
6.820240000000E+02 1.523060000000E-02
1.549730000000E+02 7.612690000000E-02
4.445530000000E+01 2.608010000000E-01
1.302900000000E+01 6.164620000000E-01
1.827730000000E+00 2.210060000000E-01
S  3 1.00
2.096420000000E+01 1.146600000000E-01
4.803310000000E+00 9.199990000000E-01
1.459330000000E+00 -3.030680000000E-03
S  1 1.00
4.834560000000E-01 1.000000000000E+00
S  1 1.00
1.455850000000E-01 1.000000000000E+00
S  1 1.00
4.380000000000E-02 1.000000000000E+00
P  3 1.00
2.096420000000E+01 4.024870000000E-02
4.803310000000E+00 2.375940000000E-01
1.459330000000E+00 8.158540000000E-01
P  1 1.00
4.834560000000E-01 1.000000000000E+00
P  1 1.00
1.455850000000E-01 1.000000000000E+00
P  1 1.00
4.380000000000E-02 1.000000000000E+00
D  1 1.00
1.252000000000E+00 1.000000000000E+00
D  1 1.00
3.130000000000E-01 1.000000000000E+00
F  1 1.00
8.000000000000E-01 1.000000000000E+00
****
O  0
S  6 1.00
8.588500000000E+03 1.895150000000E-03
1.297230000000E+03 1.438590000000E-02
2.992960000000E+02 7.073200000000E-02
8.737710000000E+01 2.400010000000E-01
2.567890000000E+01 5.947970000000E-01
3.740040000000E+00 2.808020000000E-01
S  3 1.00
4.211750000000E+01 1.138890000000E-01
9.628370000000E+00 9.208110000000E-01
2.853320000000E+00 -3.274470000000E-03
S  1 1.00
9.056610000000E-01 1.000000000000E+00
S  1 1.00
2.556110000000E-01 1.000000000000E+00
S  1 1.00
8.450000000000E-02 1.000000000000E+00
P  3 1.00
4.211750000000E+01 3.651140000000E-02
9.628370000000E+00 2.371530000000E-01
2.853320000000E+00 8.197020000000E-01
P  1 1.00
9.056610000000E-01 1.000000000000E+00
P  1 1.00
2.556110000000E-01 1.000000000000E+00
P  1 1.00
8.450000000000E-02 1.000000000000E+00
D  1 1.00
2.584000000000E+00 1.000000000000E+00
D  1 1.00
6.460000000000E-01 1.000000000000E+00
F  1 1.00
1.400000000000E+00 1.000000000000E+00
****
$end

--------------------------------------------------------------
 ----------------------------------------------------------------
             Standard Nuclear Orientation (Angstroms)
    I     Atom           X                Y                Z
 ----------------------------------------------------------------
    1      C      -0.9256403671    -0.0161089483    -0.2938905361
    2      H      -0.7169694149    -0.1111854720    -1.3679906588
    3      C      -2.3814997743    -0.5002618528    -0.0775130462
    4      H      -2.6612106630    -0.4371153858     0.9781669297
    5      H      -3.0725303271     0.1278887415    -0.6473417207
    6      H      -2.5157779170    -1.5349411052    -0.4037061820
    7      C      -0.7661729626     1.4555701205     0.1082939006
    8      H      -0.9949739693     1.5912066472     1.1706841272
    9      H       0.2550466349     1.7968422202    -0.0647443338
   10      H      -1.4505935208     2.0881907309    -0.4635147559
   11      C       0.0132104892    -0.9212696589     0.4472875114
   12      H       0.0075823307    -1.9774189040     0.1869544089
   13      H       0.2068793732    -0.7084324304     1.4949682807
   14      C       2.0666104623    -0.5690744111    -0.2503099184
   15      H       1.7499616504    -0.8383918943    -1.2765309455
   16      H       2.4131513270    -1.4199756809     0.3666978449
   17      O       2.3425484263     0.5912751296     0.0528936922
 ----------------------------------------------------------------
 Molecular Point Group                 C1    NOp =  1
 Largest Abelian Subgroup              C1    NOp =  1
 Nuclear Repulsion Energy =   239.8489222531 hartrees
 There are       25 alpha and       24 beta electrons
 Requested basis set is non-standard
 There are 138 shells and 314 basis functions

Total QAlloc Memory Limit   2000 MB
Mega-Array Size        61 MB
MEM_STATIC part        62 MB
 A cutoff of  1.0D-11 yielded   8938 shell pairs
 There are     45972 function pairs (     55221 Cartesian)
 Smallest overlap matrix eigenvalue = 1.84E-05

  Scale SEOQF with 1.000000e-01/1.000000e-01/1.000000e-01

 Standard Electronic Orientation quadrupole field applied
 Nucleus-field energy     =     0.0000000072 hartrees
 Guess MOs from core Hamiltonian diagonalization
 An unrestricted hybrid HF-DFT SCF calculation will be
 performed using Pulay DIIS extrapolation
 Exchange:     0.5679 Hartree-Fock + 1.0000 M08SO
 SCF converges when DIIS error is below 1.0E-08
 ---------------------------------------
  Cycle       Energy         DIIS Error
 ---------------------------------------
    1    -196.9940381976      9.01E-02
    2    -156.7687722525      5.35E-02
    3    -182.6872712715      6.30E-02
    4    -242.3129295693      3.76E-02
    5    -258.9480944524      2.26E-02
    6    -248.2934469338      3.04E-02
    7    -271.6343785242      6.59E-03
    8    -271.3829355812      7.92E-03
    9    -272.0995916303      2.11E-03
   10    -272.1639580047      3.81E-04
   11    -272.1685511692      1.93E-04
   12    -272.1701476891      1.01E-04
   13    -272.1709314494      3.46E-05
   14    -272.1711100373      1.48E-05
   15    -272.1711686291      9.74E-06
   16    -272.1712001425      4.61E-06
   17    -272.1712093137      1.90E-06
   18    -272.1712110882      8.92E-07
   19    -272.1712113845      3.53E-07
   20    -272.1712114032      1.27E-07
   21    -272.1712114045      5.30E-08
   22    -272.1712114050      2.75E-08
   23    -272.1712114052      1.47E-08
   24    -272.1712114061      5.73E-09 Convergence criterion met
 ---------------------------------------
 <S^2> = 0.7679
 SCF time:  CPU 1658.00 s  wall 1665.70 s
 SCF   energy in the final basis set = -272.1712114061
 Total energy in the final basis set = -272.1712114061
 Analysis of SCF Wavefunction
 
 --------------------------------------------------------------
                    Orbital Energies (a.u.)
 --------------------------------------------------------------
 
 Alpha MOs
 -- Occupied --
-19.558 -10.580 -10.537 -10.517 -10.498 -10.481  -1.148  -0.921
 -0.793  -0.783  -0.713  -0.658  -0.566  -0.556  -0.524  -0.519
 -0.517  -0.478  -0.465  -0.457  -0.425  -0.415  -0.406  -0.338
 -0.287
 -- Virtual --
 -0.028  -0.016  -0.011  -0.006   0.010   0.012   0.015   0.022
  0.029   0.043   0.045   0.054   0.057   0.067   0.073   0.085
  0.087   0.100   0.110   0.117   0.121   0.124   0.129   0.133
  0.140   0.145   0.147   0.155   0.163   0.169   0.179   0.187
  0.209   0.213   0.217   0.223   0.233   0.242   0.248   0.259
  0.267   0.280   0.292   0.296   0.306   0.322   0.327   0.338
  0.353   0.376   0.405   0.419   0.439   0.457   0.471   0.476
  0.494   0.508   0.521   0.528   0.538   0.551   0.556   0.565
  0.571   0.573   0.588   0.590   0.606   0.613   0.626   0.631
  0.640   0.655   0.658   0.675   0.691   0.700   0.718   0.730
  0.749   0.775   0.778   0.807   0.816   0.849   0.881   0.903
  0.922   0.929   0.950   0.955   0.985   0.998   1.012   1.029
  1.043   1.047   1.082   1.092   1.093   1.112   1.122   1.134
  1.147   1.154   1.165   1.181   1.210   1.229   1.246   1.256
  1.260   1.278   1.287   1.290   1.319   1.324   1.339   1.344
  1.357   1.362   1.375   1.395   1.416   1.428   1.447   1.453
  1.463   1.482   1.501   1.523   1.541   1.556   1.563   1.588
  1.590   1.631   1.639   1.655   1.673   1.706   1.741   1.782
  1.840   1.895   2.065   2.223   2.369   2.431   2.469   2.476
  2.491   2.508   2.535   2.559   2.573   2.607   2.643   2.679
  2.697   2.724   2.778   2.790   2.803   2.839   2.871   2.902
  2.911   2.928   2.934   2.939   2.959   2.974   2.985   2.995
  3.028   3.048   3.065   3.105   3.114   3.146   3.157   3.171
  3.193   3.227   3.248   3.255   3.280   3.311   3.320   3.325
  3.339   3.371   3.380   3.407   3.412   3.424   3.464   3.483
  3.488   3.516   3.544   3.559   3.582   3.604   3.628   3.641
  3.676   3.687   3.712   3.734   3.748   3.771   3.786   3.821
  3.833   3.881   3.899   3.919   3.941   3.953   3.981   3.984
  4.009   4.020   4.045   4.047   4.083   4.127   4.144   4.159
  4.166   4.181   4.185   4.193   4.207   4.220   4.253   4.277
  4.329   4.357   4.392   4.418   4.440   4.470   4.483   4.503
  4.513   4.546   4.577   4.609   4.637   4.678   4.770   4.828
  4.903   4.945   5.035   5.055   5.210   5.228   5.254   5.320
  5.360   5.381   5.448   5.482   5.522   5.552   5.621   5.640
  5.659   5.669   5.744   6.150   6.357   6.833   6.850   6.951
  7.212   7.323   7.583  23.997  24.153  24.178  24.273  24.403
 49.904
 
 Beta MOs
 -- Occupied --
-19.550 -10.582 -10.523 -10.518 -10.496 -10.481  -1.132  -0.916
 -0.782  -0.777  -0.705  -0.653  -0.564  -0.552  -0.518  -0.510
 -0.508  -0.470  -0.457  -0.430  -0.420  -0.411  -0.405  -0.330
 -- Virtual --
 -0.069  -0.027  -0.018  -0.015  -0.007   0.009   0.012   0.013
  0.022   0.027   0.042   0.049   0.054   0.063   0.067   0.082
  0.084   0.087   0.100   0.109   0.116   0.120   0.122   0.127
  0.134   0.139   0.145   0.147   0.153   0.163   0.170   0.179
  0.186   0.210   0.213   0.216   0.225   0.232   0.245   0.250
  0.260   0.270   0.290   0.296   0.296   0.308   0.325   0.329
  0.338   0.355   0.378   0.408   0.423   0.440   0.458   0.474
  0.478   0.495   0.513   0.528   0.535   0.539   0.557   0.559
  0.569   0.571   0.574   0.592   0.598   0.606   0.622   0.631
  0.635   0.645   0.659   0.662   0.687   0.694   0.702   0.720
  0.739   0.752   0.777   0.780   0.807   0.825   0.851   0.884
  0.905   0.927   0.931   0.953   0.960   0.988   1.003   1.017
  1.033   1.046   1.050   1.085   1.093   1.096   1.118   1.126
  1.138   1.152   1.162   1.173   1.189   1.214   1.233   1.254
  1.264   1.265   1.286   1.293   1.303   1.322   1.332   1.341
  1.350   1.363   1.377   1.383   1.403   1.421   1.432   1.452
  1.456   1.464   1.489   1.507   1.531   1.543   1.561   1.575
  1.592   1.597   1.635   1.643   1.666   1.682   1.715   1.748
  1.800   1.855   1.900   2.075   2.221   2.376   2.447   2.476
  2.492   2.501   2.515   2.556   2.575   2.581   2.621   2.660
  2.693   2.706   2.752   2.807   2.822   2.825   2.860   2.893
  2.907   2.918   2.938   2.948   2.962   2.967   2.988   2.993
  3.011   3.042   3.064   3.083   3.120   3.133   3.153   3.159
  3.166   3.202   3.235   3.259   3.276   3.286   3.323   3.329
  3.342   3.349   3.386   3.401   3.419   3.421   3.441   3.479
  3.488   3.516   3.526   3.557   3.563   3.582   3.629   3.643
  3.660   3.687   3.706   3.734   3.747   3.755   3.772   3.786
  3.831   3.844   3.906   3.916   3.932   3.947   3.960   3.990
  3.998   4.022   4.026   4.045   4.066   4.079   4.135   4.153
  4.169   4.173   4.183   4.196   4.199   4.217   4.246   4.274
  4.290   4.352   4.377   4.414   4.433   4.452   4.474   4.494
  4.517   4.541   4.548   4.601   4.633   4.654   4.695   4.809
  4.857   4.908   5.049   5.068   5.078   5.220   5.237   5.283
  5.326   5.359   5.411   5.488   5.519   5.560   5.579   5.626
  5.647   5.666   5.676   5.735   6.146   6.336   6.854   6.865
  6.951   7.227   7.314   7.573  24.003  24.159  24.178  24.282
 24.401  49.900
 --------------------------------------------------------------
 
          Ground-State Mulliken Net Atomic Charges

     Atom                 Charge (a.u.)    Spin (a.u.)
  --------------------------------------------------------
      1 C                    -0.028987      -0.035399
      2 H                     0.244835       0.013408
      3 C                    -0.643550       0.013378
      4 H                     0.210395      -0.000124
      5 H                     0.196708       0.015240
      6 H                     0.192871       0.002801
      7 C                    -0.667300       0.013671
      8 H                     0.205381       0.001925
      9 H                     0.220632      -0.001357
     10 H                     0.195346      -0.000227
     11 C                    -0.501998       0.802572
     12 H                     0.238368      -0.024702
     13 H                     0.274910      -0.038728
     14 C                    -0.214609      -0.068578
     15 H                     0.172808       0.013548
     16 H                     0.172303       0.009968
     17 O                    -0.268114       0.282602
  --------------------------------------------------------
  Sum of atomic charges =     0.000000
  Sum of spin   charges =     1.000000

 -----------------------------------------------------------------
                    Cartesian Multipole Moments
 -----------------------------------------------------------------
    Charge (ESU x 10^10)
                 0.0000
    Dipole Moment (Debye)
         X      -2.1406      Y      -2.4322      Z      -0.4257
       Tot       3.2678
    Quadrupole Moments (Debye-Ang)
        XX     -45.0886     XY      -5.3758     YY     -39.7370
        XZ      -0.7671     YZ      -0.0253     ZZ     -39.1198
    Octopole Moments (Debye-Ang^2)
       XXX      -5.6424    XXY     -10.7644    XYY       1.9099
       YYY      -1.5970    XXZ      -3.8080    XYZ      -0.0844
       YYZ      -0.9445    XZZ       2.5360    YZZ       0.2196
       ZZZ       0.5319
    Hexadecapole Moments (Debye-Ang^3)
      XXXX    -792.3047   XXXY     -28.3045   XXYY    -170.8073
      XYYY       1.7508   YYYY    -257.6466   XXXZ      -2.6895
      XXYZ      -2.3843   XYYZ       3.2266   YYYZ       0.6617
      XXZZ    -140.7357   XYZZ      -1.8221   YYZZ     -61.0709
      XZZZ      -1.7269   YZZZ       0.8711   ZZZZ     -92.8749
 -----------------------------------------------------------------
 Calculating analytic gradient of the SCF energy
 Gradient of Coulomb and Exchange Energy
            1           2           3           4           5           6
    1   2.3180156  -0.5213407   3.7986352   1.8508287   2.8931095   1.1422787
    2   0.2284177   0.2841761   0.4625133   0.1634123  -1.7937875   3.5902219
    3   0.0178788   4.7553160   0.4119214  -3.4254104   1.7645107   0.9811069
            7           8           9          10          11          12
    1   2.0997171   0.8118785  -3.3661172   2.3427863  -0.6781595  -0.1240745
    2  -3.4295254  -1.3734020  -2.1029906  -2.8467383   2.7698757   4.5689381
    3   0.5084354  -3.6489515   0.4392566   1.6989881  -1.1111329   0.9713137
           13          14          15          16          17
    1  -0.9943453  -2.5651281   0.5781291  -1.6438238  -7.9423898
    2  -0.5392110   6.6822412   1.2905539   3.2405570 -11.1952523
    3  -4.6670187   2.3317688   3.7681116  -2.0850674  -2.7110271
 Gradient of SCF Energy
            1           2           3           4           5           6
    1   0.0006841  -0.0009877  -0.0035666  -0.0000184   0.0011883  -0.0002515
    2  -0.0004329   0.0000636  -0.0013631  -0.0004901  -0.0018100   0.0025168
    3   0.0000484   0.0029705   0.0003104  -0.0028799   0.0012570   0.0007035
            7           8           9          10          11          12
    1   0.0006158   0.0006894  -0.0033453   0.0017966   0.0059376  -0.0009022
    2   0.0034634   0.0004420  -0.0008553  -0.0009326  -0.0012271   0.0030188
    3   0.0001749  -0.0027198   0.0003067   0.0014194  -0.0010482   0.0014516
           13          14          15          16          17
    1  -0.0016356  -0.0065327   0.0019615   0.0007833   0.0035833
    2  -0.0014256  -0.0090170  -0.0009391   0.0004677   0.0085206
    3  -0.0029705  -0.0007551   0.0014203  -0.0021248   0.0024355
 Max gradient component =       9.017E-03
 RMS gradient           =       2.718E-03
 Gradient time:  CPU 95.94 s  wall 95.98 s
 Geometry Optimization Parameters
   NAtoms,    NIC,     NZ,  NCons,   NDum,   NFix, NCnnct, MaxDiis
       17     126       0       0       0       0       0       0


** GEOMETRY OPTIMIZATION IN DELOCALIZED INTERNAL COORDINATES **
   Searching for a Transition State

   Optimization Cycle:   1

                       Coordinates (Angstroms)
     ATOM                X               Y               Z
      1  C        -0.9256403671   -0.0161089483   -0.2938905361
      2  H        -0.7169694149   -0.1111854720   -1.3679906588
      3  C        -2.3814997743   -0.5002618528   -0.0775130462
      4  H        -2.6612106630   -0.4371153858    0.9781669297
      5  H        -3.0725303271    0.1278887415   -0.6473417207
      6  H        -2.5157779170   -1.5349411052   -0.4037061820
      7  C        -0.7661729626    1.4555701205    0.1082939006
      8  H        -0.9949739693    1.5912066472    1.1706841272
      9  H         0.2550466349    1.7968422202   -0.0647443338
     10  H        -1.4505935208    2.0881907309   -0.4635147559
     11  C         0.0132104892   -0.9212696589    0.4472875114
     12  H         0.0075823307   -1.9774189040    0.1869544089
     13  H         0.2068793732   -0.7084324304    1.4949682807
     14  C         2.0666104623   -0.5690744111   -0.2503099184
     15  H         1.7499616504   -0.8383918943   -1.2765309455
     16  H         2.4131513270   -1.4199756809    0.3666978449
     17  O         2.3425484263    0.5912751296    0.0528936922
   Point Group: c1    Number of degrees of freedom:    45


   Energy is   -272.171211406


 Attempting to Generate Delocalized Internal Coordinates
 GETINT wrote B to file, NVib is           45
 calling HSSCONV
 HCONV 3*NATOMS:           51
 wrote HINT to file
  writing hessian 

 45 Hessian modes will be used to form the next step
  Hessian Eigenvalues:
     0.002639    0.004140    0.008755    0.011200    0.030244    0.034077
     0.035361    0.042231    0.046711    0.050239    0.053795    0.053908
     0.055705    0.061152    0.063029    0.069687    0.075434    0.084699
     0.085537    0.094554    0.100510    0.112302    0.118358    0.140200
     0.156719    0.160000    0.160000    0.160000    0.165853    0.191521
     0.276992    0.284701    0.312256    0.328965    0.329501    0.338702
     0.339189    0.342208    0.343563    0.343622    0.344184    0.344503
     0.350709    0.352224    0.880170
**WARNING** Hessian does not have the Desired Local Structure

 Transition State Search - Taking P-RFO Step
 Searching for Lamda that Maximizes Along the Lowest mode
 Value Taken    Lamda =   0.00263950
 Searching for Lamda that Minimizes Along All other modes
 Value Taken    Lamda =  -0.00083455
 Calculated Step too Large.  Step scaled by  0.001682
 Step Taken.  Stepsize is  0.300000

                             Maximum     Tolerance    Cnvgd?
         Gradient           0.005487      0.000300      NO
         Displacement       0.181711      0.001200      NO
         Energy change     *********      0.000001      NO


 New Cartesian Coordinates Obtained by Inverse Iteration

 Displacement from previous Coordinates is:  0.319610
 ----------------------------------------------------------------
             Standard Nuclear Orientation (Angstroms)
    I     Atom           X                Y                Z
 ----------------------------------------------------------------
    1      C      -0.9253928104    -0.0190429379    -0.2951491427
    2      H      -0.7155669661    -0.1234301735    -1.3681675238
    3      C      -2.3811635667    -0.5021737405    -0.0759720780
    4      H      -2.6285337393    -0.5258539090     0.9893677612
    5      H      -3.0794479459     0.1806121522    -0.5689399140
    6      H      -2.5402356758    -1.5035828234    -0.4844865579
    7      C      -0.7672450382     1.4562039482     0.0942611786
    8      H      -0.9972096277     1.6010033298     1.1551971336
    9      H       0.2539441420     1.7965908747    -0.0807370615
   10      H      -1.4514884135     2.0833492399    -0.4837689563
   11      C       0.0132493345    -0.9170562988     0.4549277280
   12      H       0.0085527873    -1.9754673918     0.2038935289
   13      H       0.2057529755    -0.6948633812     1.5008884300
   14      C       2.0671379914    -0.5697207012    -0.2437179732
   15      H       1.7516467326    -0.8482357354    -1.2678432028
   16      H       2.4135694834    -1.4149483545     0.3811062413
   17      O       2.3420521148     0.5934137485     0.0495450068
 ----------------------------------------------------------------
 Molecular Point Group                 C1    NOp =  1
 Largest Abelian Subgroup              C1    NOp =  1
 Nuclear Repulsion Energy =   239.8512286789 hartrees
 There are       25 alpha and       24 beta electrons
 Applying Cartesian multipole field
    Component          Value
    ---------          -----
     (2,0,0)        1.00000E-11
     (0,2,0)        2.00000E-11
     (0,0,2)       -3.00000E-11
 Nucleus-field energy     =     0.0000000072 hartrees
 Requested basis set is non-standard
 There are 138 shells and 314 basis functions
 A cutoff of  1.0D-11 yielded   8934 shell pairs
 There are     45960 function pairs (     55208 Cartesian)
 Smallest overlap matrix eigenvalue = 1.86E-05
 Guess MOs from SCF MO coefficient file
Reading MOs from coefficient file
Reading MOs from coefficient file
 An unrestricted hybrid HF-DFT SCF calculation will be
 performed using Pulay DIIS extrapolation
 Exchange:     0.5679 Hartree-Fock + 1.0000 M08SO
 SCF converges when DIIS error is below 1.0E-08
Geometry optimization detected.  Setting ReadMinima to 0
Setting SaveMinima to 0
 Inaccurate integrated density:
   Number of electrons =    49
   Numerical integral  =    48.991133771047
   Relative error      =    -0.0180943448 %
 ---------------------------------------
  Cycle       Energy         DIIS Error
 ---------------------------------------
    1    -272.1655840452      3.54E-04
    2    -272.1709953438      5.86E-05
    3    -272.1710776499      3.31E-05
    4    -272.1710920387      9.55E-06
    5    -272.1710935291      2.53E-06
    6    -272.1710935913      1.24E-06
    7    -272.1710936102      3.49E-07
    8    -272.1710936148      1.36E-07
    9    -272.1710936171      6.72E-08
   10    -272.1710936182      3.50E-08
   11    -272.1710936188      1.75E-08
   12    -272.1710936192      7.84E-09 Convergence criterion met
 ---------------------------------------
 <S^2> = 0.7679
 SCF time:  CPU 817.24 s  wall 821.43 s
 SCF   energy in the final basis set = -272.1710936192
 Total energy in the final basis set = -272.1710936192
 Analysis of SCF Wavefunction
 
 --------------------------------------------------------------
                    Orbital Energies (a.u.)
 --------------------------------------------------------------
 
 Alpha MOs
 -- Occupied --
-19.558 -10.580 -10.537 -10.517 -10.498 -10.481  -1.148  -0.921
 -0.793  -0.783  -0.713  -0.658  -0.566  -0.556  -0.524  -0.520
 -0.517  -0.478  -0.465  -0.457  -0.425  -0.415  -0.406  -0.338
 -0.287
 -- Virtual --
 -0.028  -0.016  -0.011  -0.006   0.010   0.012   0.015   0.023
  0.028   0.043   0.044   0.054   0.057   0.068   0.073   0.085
  0.086   0.101   0.110   0.117   0.121   0.123   0.128   0.134
  0.141   0.145   0.147   0.154   0.163   0.169   0.180   0.186
  0.209   0.211   0.216   0.224   0.233   0.243   0.247   0.259
  0.266   0.280   0.290   0.297   0.305   0.322   0.327   0.338
  0.354   0.376   0.405   0.421   0.440   0.457   0.470   0.475
  0.493   0.509   0.520   0.527   0.538   0.548   0.557   0.565
  0.570   0.574   0.589   0.590   0.604   0.613   0.625   0.630
  0.639   0.656   0.658   0.675   0.689   0.695   0.718   0.731
  0.746   0.777   0.780   0.810   0.817   0.850   0.881   0.900
  0.924   0.932   0.946   0.956   0.985   0.999   1.015   1.026
  1.041   1.046   1.084   1.089   1.097   1.112   1.120   1.132
  1.149   1.152   1.166   1.189   1.212   1.232   1.245   1.254
  1.259   1.276   1.283   1.293   1.318   1.325   1.338   1.341
  1.356   1.362   1.373   1.396   1.415   1.431   1.447   1.455
  1.462   1.483   1.500   1.522   1.539   1.555   1.560   1.588
  1.592   1.628   1.641   1.653   1.672   1.707   1.742   1.782
  1.841   1.895   2.065   2.223   2.371   2.431   2.468   2.477
  2.491   2.505   2.534   2.559   2.573   2.602   2.638   2.673
  2.700   2.725   2.778   2.791   2.801   2.841   2.871   2.904
  2.911   2.931   2.933   2.939   2.960   2.976   2.987   2.993
  3.028   3.047   3.065   3.105   3.115   3.145   3.160   3.164
  3.194   3.227   3.247   3.254   3.277   3.309   3.317   3.326
  3.334   3.368   3.381   3.408   3.408   3.431   3.467   3.482
  3.492   3.515   3.542   3.562   3.583   3.603   3.628   3.641
  3.674   3.687   3.711   3.736   3.746   3.769   3.786   3.819
  3.837   3.880   3.902   3.923   3.939   3.957   3.982   3.986
  4.014   4.021   4.039   4.048   4.082   4.126   4.149   4.156
  4.164   4.178   4.184   4.191   4.211   4.218   4.256   4.278
  4.329   4.350   4.390   4.427   4.439   4.467   4.483   4.503
  4.512   4.542   4.583   4.608   4.639   4.675   4.773   4.827
  4.902   4.944   5.035   5.055   5.210   5.226   5.254   5.320
  5.360   5.381   5.448   5.481   5.522   5.553   5.620   5.640
  5.659   5.669   5.744   6.150   6.357   6.834   6.850   6.951
  7.212   7.323   7.583  23.998  24.153  24.178  24.273  24.403
 49.904
 
 Beta MOs
 -- Occupied --
-19.550 -10.582 -10.523 -10.518 -10.496 -10.481  -1.132  -0.916
 -0.782  -0.777  -0.705  -0.653  -0.564  -0.552  -0.518  -0.509
 -0.508  -0.470  -0.457  -0.430  -0.421  -0.411  -0.405  -0.330
 -- Virtual --
 -0.069  -0.027  -0.018  -0.015  -0.007   0.009   0.012   0.013
  0.022   0.026   0.042   0.049   0.054   0.063   0.067   0.082
  0.084   0.086   0.101   0.109   0.116   0.120   0.122   0.126
  0.134   0.140   0.145   0.146   0.153   0.163   0.170   0.180
  0.186   0.209   0.213   0.216   0.227   0.232   0.245   0.252
  0.260   0.269   0.289   0.292   0.297   0.309   0.325   0.329
  0.339   0.356   0.378   0.408   0.424   0.442   0.458   0.473
  0.476   0.495   0.514   0.527   0.534   0.539   0.556   0.559
  0.569   0.570   0.576   0.592   0.599   0.604   0.622   0.630
  0.634   0.643   0.659   0.663   0.687   0.691   0.699   0.720
  0.740   0.748   0.779   0.783   0.810   0.825   0.851   0.884
  0.902   0.930   0.934   0.949   0.960   0.988   1.004   1.019
  1.030   1.043   1.048   1.088   1.091   1.099   1.118   1.124
  1.136   1.153   1.159   1.174   1.195   1.217   1.236   1.256
  1.259   1.265   1.283   1.297   1.299   1.321   1.331   1.339
  1.348   1.362   1.378   1.381   1.405   1.420   1.435   1.451
  1.456   1.463   1.490   1.505   1.530   1.542   1.559   1.573
  1.594   1.598   1.631   1.645   1.664   1.681   1.716   1.749
  1.800   1.855   1.899   2.075   2.221   2.377   2.448   2.475
  2.495   2.500   2.511   2.554   2.575   2.582   2.615   2.653
  2.689   2.708   2.752   2.808   2.818   2.828   2.862   2.893
  2.906   2.920   2.941   2.950   2.963   2.969   2.987   2.995
  3.008   3.043   3.063   3.082   3.120   3.131   3.152   3.159
  3.165   3.203   3.235   3.257   3.275   3.282   3.317   3.325
  3.344   3.346   3.384   3.408   3.416   3.422   3.442   3.478
  3.496   3.519   3.523   3.555   3.563   3.583   3.631   3.641
  3.661   3.685   3.705   3.730   3.749   3.754   3.771   3.784
  3.831   3.847   3.905   3.920   3.933   3.943   3.968   3.991
  3.999   4.025   4.029   4.041   4.062   4.079   4.137   4.154
  4.167   4.170   4.185   4.193   4.196   4.220   4.247   4.278
  4.291   4.350   4.368   4.412   4.439   4.453   4.472   4.494
  4.519   4.539   4.545   4.608   4.629   4.655   4.694   4.813
  4.854   4.908   5.048   5.067   5.078   5.220   5.236   5.282
  5.326   5.360   5.411   5.488   5.519   5.560   5.579   5.625
  5.647   5.666   5.677   5.735   6.146   6.336   6.854   6.865
  6.951   7.227   7.314   7.573  24.004  24.159  24.177  24.282
 24.401  49.901
 --------------------------------------------------------------
 
          Ground-State Mulliken Net Atomic Charges

     Atom                 Charge (a.u.)    Spin (a.u.)
  --------------------------------------------------------
      1 C                    -0.012222      -0.032751
      2 H                     0.245896       0.013149
      3 C                    -0.644138       0.016892
      4 H                     0.206732      -0.001768
      5 H                     0.191434       0.015435
      6 H                     0.196629       0.002358
      7 C                    -0.676171       0.012529
      8 H                     0.204769       0.001862
      9 H                     0.220579      -0.001460
     10 H                     0.195534      -0.000194
     11 C                    -0.506942       0.799215
     12 H                     0.237796      -0.024895
     13 H                     0.277382      -0.038106
     14 C                    -0.214277      -0.068393
     15 H                     0.172759       0.013553
     16 H                     0.172390       0.009910
     17 O                    -0.268149       0.282664
  --------------------------------------------------------
  Sum of atomic charges =     0.000000
  Sum of spin   charges =     1.000000

 -----------------------------------------------------------------
                    Cartesian Multipole Moments
 -----------------------------------------------------------------
    Charge (ESU x 10^10)
                 0.0000
    Dipole Moment (Debye)
         X      -2.1397      Y      -2.4385      Z      -0.4052
       Tot       3.2694
    Quadrupole Moments (Debye-Ang)
        XX     -45.0802     XY      -5.3860     YY     -39.7458
        XZ      -0.7237     YZ      -0.0230     ZZ     -39.1189
    Octopole Moments (Debye-Ang^2)
       XXX      -5.6228    XXY     -10.7924    XYY       1.8431
       YYY      -1.5042    XXZ      -3.7036    XYZ      -0.0999
       YYZ      -0.9735    XZZ       2.5912    YZZ       0.0674
       ZZZ       0.6400
    Hexadecapole Moments (Debye-Ang^3)
      XXXX    -792.1418   XXXY     -28.6337   XXYY    -170.6029
      XYYY       1.3634   YYYY    -257.9833   XXXZ      -2.8294
      XXYZ      -2.1146   XYYZ       3.2547   YYYZ       1.4485
      XXZZ    -141.0378   XYZZ      -1.5057   YYZZ     -60.8353
      XZZZ      -2.1519   YZZZ       1.6292   ZZZZ     -92.9078
 -----------------------------------------------------------------
 Calculating analytic gradient of the SCF energy
 Gradient of Coulomb and Exchange Energy
            1           2           3           4           5           6
    1   2.4875275  -0.5211936   3.8992299   1.6980134   2.9091287   1.2223175
    2   0.0843031   0.3426016   0.3905297   0.4805644  -1.9600865   3.5102255
    3  -0.0186370   4.7442920   0.5022852  -3.4678957   1.4834330   1.2914560
            7           8           9          10          11          12
    1   1.9676665   0.8215957  -3.3712590   2.3505178  -0.7990325  -0.1409555
    2  -3.3937455  -1.4205158  -2.0980882  -2.8336396   2.8651572   4.5796722
    3   0.4074424  -3.6263741   0.4446426   1.7345917  -1.0512604   0.9269927
           13          14          15          16          17
    1  -0.9474283  -2.5763026   0.5738143  -1.6423145  -7.9313253
    2  -0.5713986   6.7028437   1.3226907   3.2224938 -11.2236077
    3  -4.6575107   2.2645658   3.7585025  -2.1155842  -2.6209417
 Gradient of SCF Energy
            1           2           3           4           5           6
    1   0.0006493  -0.0009641  -0.0035231   0.0001946   0.0011912  -0.0003753
    2  -0.0007064  -0.0001687  -0.0011349  -0.0005600  -0.0017823   0.0025582
    3   0.0004137   0.0029549   0.0001116  -0.0028741   0.0013437   0.0004967
            7           8           9          10          11          12
    1   0.0004656   0.0007156  -0.0033673   0.0017593   0.0059025  -0.0008926
    2   0.0035031   0.0003592  -0.0008408  -0.0008604  -0.0009739   0.0030558
    3  -0.0001502  -0.0027523   0.0002307   0.0014510  -0.0006488   0.0013832
           13          14          15          16          17
    1  -0.0015525  -0.0065085   0.0019578   0.0007796   0.0035678
    2  -0.0015056  -0.0089994  -0.0009211   0.0004563   0.0085210
    3  -0.0029461  -0.0006831   0.0014350  -0.0021066   0.0023406
 Max gradient component =       8.999E-03
 RMS gradient           =       2.706E-03
 Gradient time:  CPU 95.01 s  wall 95.03 s
 Geometry Optimization Parameters
   NAtoms,    NIC,     NZ,  NCons,   NDum,   NFix, NCnnct, MaxDiis
       17     126       0       0       0       0       0       0

 Cartesian Hessian Update
 Hessian Updated using Powell/Murtagh-Sargent Update
  Mixing factors:     0.000008 Powell
                      0.999992 Murtagh-Sargent


** GEOMETRY OPTIMIZATION IN DELOCALIZED INTERNAL COORDINATES **
   Searching for a Transition State

   Optimization Cycle:   2

                       Coordinates (Angstroms)
     ATOM                X               Y               Z
      1  C        -0.9253928104   -0.0190429379   -0.2951491427
      2  H        -0.7155669661   -0.1234301735   -1.3681675238
      3  C        -2.3811635667   -0.5021737405   -0.0759720780
      4  H        -2.6285337393   -0.5258539090    0.9893677612
      5  H        -3.0794479459    0.1806121522   -0.5689399140
      6  H        -2.5402356758   -1.5035828234   -0.4844865579
      7  C        -0.7672450382    1.4562039482    0.0942611786
      8  H        -0.9972096277    1.6010033298    1.1551971336
      9  H         0.2539441420    1.7965908747   -0.0807370615
     10  H        -1.4514884135    2.0833492399   -0.4837689563
     11  C         0.0132493345   -0.9170562988    0.4549277280
     12  H         0.0085527873   -1.9754673918    0.2038935289
     13  H         0.2057529755   -0.6948633812    1.5008884300
     14  C         2.0671379914   -0.5697207012   -0.2437179732
     15  H         1.7516467326   -0.8482357354   -1.2678432028
     16  H         2.4135694834   -1.4149483545    0.3811062413
     17  O         2.3420521148    0.5934137485    0.0495450068
   Point Group: c1    Number of degrees of freedom:    45


   Energy is   -272.171093619

 GETINT wrote B to file, NVib is           45
 Hessian Updated using Powell/Murtagh-Sargent Update
  Mixing factors:     0.997592 Powell
                      0.002408 Murtagh-Sargent

 44 Hessian modes will be used to form the next step
  Hessian Eigenvalues:
     0.002464    0.004166    0.008755    0.011203    0.030244    0.034077
     0.035361    0.042232    0.046711    0.050238    0.053795    0.053908
     0.055705    0.061152    0.063029    0.069687    0.075434    0.084699
     0.085537    0.094554    0.100510    0.112302    0.118358    0.140191
     0.156719    0.159979    0.160000    0.165839    0.191519    0.276980
     0.284700    0.312254    0.328965    0.329501    0.338702    0.339189
     0.342207    0.343562    0.343622    0.344184    0.344501    0.350709
     0.352224    0.880170
**WARNING** Hessian does not have the Desired Local Structure

 Transition State Search - Taking P-RFO Step
 Searching for Lamda that Maximizes Along the Lowest mode
 Value Taken    Lamda =   0.00267646
 Searching for Lamda that Minimizes Along All other modes
 Value Taken    Lamda =  -0.00083539
 Calculated Step too Large.  Step scaled by  0.084498
 Step Taken.  Stepsize is  0.300000

                             Maximum     Tolerance    Cnvgd?
         Gradient           0.005360      0.000300      NO
         Displacement       0.189230      0.001200      NO
         Energy change      0.000118      0.000001      NO


 New Cartesian Coordinates Obtained by Inverse Iteration

 Displacement from previous Coordinates is:  0.316405
 ----------------------------------------------------------------
             Standard Nuclear Orientation (Angstroms)
    I     Atom           X                Y                Z
 ----------------------------------------------------------------
    1      C      -0.9244268502    -0.0210742277    -0.2978195606
    2      H      -0.7119059341    -0.1360759863    -1.3695732555
    3      C      -2.3791442896    -0.5051112935    -0.0733332962
    4      H      -2.5952668330    -0.6152463112     0.9938018953
    5      H      -3.0829387397     0.2244622302    -0.4856940071
    6      H      -2.5630790930    -1.4675365763    -0.5584502456
    7      C      -0.7681016834     1.4572335325     0.0803410561
    8      H      -1.0093255177     1.6114842556     1.1378823038
    9      H       0.2552082945     1.7968041838    -0.0869500483
   10      H      -1.4465852066     2.0791225993    -0.5104793051
   11      C       0.0125833054    -0.9115095754     0.4626565845
   12      H       0.0087528491    -1.9730059208     0.2229497733
   13      H       0.2045772984    -0.6770389749     1.5064640110
   14      C       2.0667021751    -0.5710915325    -0.2390009485
   15      H       1.7489087354    -0.8534723070    -1.2616080914
   16      H       2.4111691448    -1.4138572917     0.3905206883
   17      O       2.3424941226     0.5927110422     0.0486970440
 ----------------------------------------------------------------
 Molecular Point Group                 C1    NOp =  1
 Largest Abelian Subgroup              C1    NOp =  1
 Nuclear Repulsion Energy =   239.8848059428 hartrees
 There are       25 alpha and       24 beta electrons
 Applying Cartesian multipole field
    Component          Value
    ---------          -----
     (2,0,0)        1.00000E-11
     (0,2,0)        2.00000E-11
     (0,0,2)       -3.00000E-11
 Nucleus-field energy     =     0.0000000072 hartrees
 Requested basis set is non-standard
 There are 138 shells and 314 basis functions
 A cutoff of  1.0D-11 yielded   8939 shell pairs
 There are     45973 function pairs (     55222 Cartesian)
 Smallest overlap matrix eigenvalue = 1.88E-05
 Guess MOs from SCF MO coefficient file
Reading MOs from coefficient file
Reading MOs from coefficient file
 An unrestricted hybrid HF-DFT SCF calculation will be
 performed using Pulay DIIS extrapolation
 Exchange:     0.5679 Hartree-Fock + 1.0000 M08SO
 SCF converges when DIIS error is below 1.0E-08
Geometry optimization detected.  Setting ReadMinima to 0
Setting SaveMinima to 0
 Inaccurate integrated density:
   Number of electrons =    49
   Numerical integral  =    48.988439982044
   Relative error      =    -0.0235918734 %
 ---------------------------------------
  Cycle       Energy         DIIS Error
 ---------------------------------------
    1    -272.1643109148      3.36E-04
    2    -272.1707321402      6.01E-05
    3    -272.1708120081      3.84E-05
    4    -272.1708315840      8.32E-06
    5    -272.1708327582      3.82E-06
    6    -272.1708328937      1.38E-06
    7    -272.1708329175      3.77E-07
    8    -272.1708329220      1.21E-07
    9    -272.1708329237      5.73E-08
   10    -272.1708329244      2.86E-08
   11    -272.1708329251      1.46E-08
   12    -272.1708329257      7.29E-09 Convergence criterion met
 ---------------------------------------
 <S^2> = 0.7678
 SCF time:  CPU 809.05 s  wall 813.67 s
 SCF   energy in the final basis set = -272.1708329257
 Total energy in the final basis set = -272.1708329257
 Analysis of SCF Wavefunction
 
 --------------------------------------------------------------
                    Orbital Energies (a.u.)
 --------------------------------------------------------------
 
 Alpha MOs
 -- Occupied --
-19.558 -10.580 -10.537 -10.517 -10.498 -10.481  -1.149  -0.921
 -0.793  -0.783  -0.712  -0.658  -0.566  -0.556  -0.523  -0.520
 -0.517  -0.478  -0.466  -0.457  -0.425  -0.415  -0.406  -0.338
 -0.287
 -- Virtual --
 -0.028  -0.016  -0.012  -0.006   0.011   0.013   0.015   0.023
  0.028   0.043   0.044   0.054   0.058   0.069   0.073   0.085
  0.086   0.101   0.110   0.117   0.121   0.123   0.127   0.134
  0.142   0.145   0.147   0.154   0.162   0.168   0.180   0.185
  0.208   0.210   0.216   0.224   0.233   0.244   0.247   0.259
  0.265   0.282   0.286   0.297   0.305   0.322   0.327   0.338
  0.355   0.375   0.406   0.422   0.442   0.457   0.468   0.473
  0.492   0.509   0.518   0.526   0.538   0.545   0.558   0.565
  0.568   0.576   0.589   0.592   0.602   0.612   0.624   0.628
  0.639   0.655   0.660   0.673   0.688   0.692   0.717   0.731
  0.744   0.778   0.783   0.814   0.819   0.851   0.880   0.897
  0.927   0.933   0.944   0.958   0.986   0.999   1.016   1.023
  1.038   1.046   1.084   1.088   1.102   1.111   1.119   1.130
  1.151   1.152   1.168   1.196   1.214   1.234   1.244   1.249
  1.262   1.272   1.278   1.299   1.318   1.324   1.335   1.337
  1.356   1.365   1.372   1.398   1.414   1.433   1.445   1.455
  1.461   1.483   1.499   1.521   1.537   1.550   1.558   1.587
  1.592   1.622   1.643   1.650   1.669   1.708   1.741   1.781
  1.842   1.895   2.065   2.223   2.372   2.433   2.467   2.477
  2.491   2.501   2.534   2.557   2.574   2.599   2.631   2.668
  2.702   2.725   2.775   2.788   2.800   2.841   2.872   2.907
  2.910   2.927   2.935   2.940   2.961   2.976   2.991   2.993
  3.028   3.047   3.064   3.106   3.115   3.143   3.159   3.164
  3.195   3.228   3.245   3.254   3.274   3.299   3.316   3.324
  3.333   3.365   3.379   3.405   3.411   3.436   3.466   3.479
  3.499   3.519   3.544   3.565   3.585   3.602   3.629   3.642
  3.673   3.686   3.713   3.739   3.745   3.769   3.786   3.818
  3.842   3.878   3.905   3.926   3.935   3.962   3.979   3.988
  4.015   4.020   4.032   4.048   4.082   4.125   4.144   4.154
  4.162   4.178   4.185   4.192   4.212   4.219   4.256   4.280
  4.326   4.346   4.386   4.433   4.441   4.466   4.484   4.502
  4.515   4.537   4.589   4.603   4.639   4.670   4.775   4.828
  4.902   4.944   5.035   5.055   5.210   5.224   5.253   5.321
  5.361   5.382   5.448   5.480   5.520   5.552   5.616   5.640
  5.659   5.667   5.746   6.151   6.359   6.834   6.851   6.951
  7.212   7.323   7.584  23.998  24.153  24.176  24.272  24.404
 49.905
 
 Beta MOs
 -- Occupied --
-19.549 -10.582 -10.523 -10.517 -10.496 -10.481  -1.133  -0.916
 -0.782  -0.777  -0.705  -0.653  -0.564  -0.552  -0.518  -0.509
 -0.508  -0.470  -0.457  -0.430  -0.421  -0.410  -0.404  -0.330
 -- Virtual --
 -0.069  -0.027  -0.018  -0.015  -0.007   0.009   0.012   0.014
  0.022   0.026   0.042   0.049   0.054   0.064   0.068   0.083
  0.084   0.085   0.101   0.109   0.116   0.119   0.122   0.126
  0.135   0.141   0.145   0.146   0.153   0.162   0.170   0.180
  0.185   0.207   0.212   0.216   0.227   0.233   0.245   0.253
  0.261   0.268   0.287   0.290   0.298   0.311   0.325   0.329
  0.339   0.357   0.377   0.409   0.426   0.444   0.459   0.472
  0.474   0.494   0.513   0.526   0.534   0.539   0.553   0.560
  0.568   0.569   0.578   0.592   0.600   0.601   0.621   0.628
  0.632   0.641   0.658   0.666   0.685   0.688   0.697   0.720
  0.739   0.746   0.781   0.786   0.814   0.825   0.854   0.884
  0.899   0.933   0.937   0.947   0.962   0.989   1.005   1.018
  1.029   1.039   1.049   1.087   1.091   1.104   1.118   1.124
  1.135   1.154   1.158   1.175   1.202   1.220   1.239   1.253
  1.256   1.267   1.278   1.295   1.303   1.322   1.330   1.335
  1.345   1.360   1.378   1.381   1.407   1.420   1.437   1.449
  1.456   1.463   1.491   1.504   1.527   1.540   1.555   1.570
  1.593   1.597   1.625   1.647   1.662   1.678   1.717   1.748
  1.799   1.856   1.900   2.075   2.221   2.378   2.449   2.474
  2.495   2.499   2.509   2.554   2.574   2.584   2.610   2.646
  2.686   2.710   2.752   2.807   2.812   2.829   2.863   2.894
  2.906   2.919   2.941   2.952   2.966   2.971   2.987   2.998
  3.006   3.043   3.063   3.080   3.121   3.130   3.149   3.160
  3.167   3.203   3.236   3.254   3.273   3.277   3.306   3.324
  3.344   3.345   3.380   3.405   3.419   3.425   3.443   3.475
  3.500   3.526   3.527   3.553   3.568   3.586   3.632   3.640
  3.664   3.682   3.703   3.727   3.752   3.753   3.771   3.783
  3.830   3.852   3.904   3.922   3.931   3.940   3.976   3.989
  4.001   4.024   4.029   4.037   4.061   4.078   4.135   4.152
  4.163   4.167   4.190   4.193   4.195   4.222   4.249   4.279
  4.293   4.344   4.361   4.410   4.441   4.456   4.470   4.496
  4.522   4.537   4.542   4.614   4.623   4.654   4.690   4.819
  4.852   4.908   5.047   5.067   5.077   5.220   5.233   5.281
  5.327   5.363   5.412   5.489   5.517   5.558   5.577   5.620
  5.647   5.664   5.676   5.736   6.148   6.338   6.855   6.866
  6.952   7.227   7.315   7.573  24.005  24.159  24.175  24.281
 24.401  49.901
 --------------------------------------------------------------
 
          Ground-State Mulliken Net Atomic Charges

     Atom                 Charge (a.u.)    Spin (a.u.)
  --------------------------------------------------------
      1 C                     0.032949      -0.030587
      2 H                     0.245175       0.012904
      3 C                    -0.648202       0.020309
      4 H                     0.201512      -0.003194
      5 H                     0.187858       0.015552
      6 H                     0.198371       0.001811
      7 C                    -0.693299       0.011504
      8 H                     0.204882       0.001741
      9 H                     0.220308      -0.001570
     10 H                     0.196065      -0.000167
     11 C                    -0.527984       0.797378
     12 H                     0.237098      -0.025204
     13 H                     0.281625      -0.037846
     14 C                    -0.212290      -0.067701
     15 H                     0.172246       0.013488
     16 H                     0.172086       0.009803
     17 O                    -0.268399       0.281778
  --------------------------------------------------------
  Sum of atomic charges =     0.000000
  Sum of spin   charges =     1.000000

 -----------------------------------------------------------------
                    Cartesian Multipole Moments
 -----------------------------------------------------------------
    Charge (ESU x 10^10)
                 0.0000
    Dipole Moment (Debye)
         X      -2.1449      Y      -2.4378      Z      -0.3913
       Tot       3.2706
    Quadrupole Moments (Debye-Ang)
        XX     -45.1031     XY      -5.3788     YY     -39.7473
        XZ      -0.7037     YZ      -0.0190     ZZ     -39.1190
    Octopole Moments (Debye-Ang^2)
       XXX      -5.6768    XXY     -10.7860    XYY       1.7965
       YYY      -1.3756    XXZ      -3.6098    XYZ      -0.1310
       YYZ      -0.9605    XZZ       2.6170    YZZ      -0.0606
       ZZZ       0.6714
    Hexadecapole Moments (Debye-Ang^3)
      XXXX    -791.8762   XXXY     -28.7828   XXYY    -170.3040
      XYYY       1.0566   YYYY    -258.3032   XXXZ      -3.1644
      XXYZ      -1.7922   XYYZ       3.2158   YYYZ       2.0929
      XXZZ    -141.2499   XYZZ      -1.1534   YYZZ     -60.6104
      XZZZ      -2.4036   YZZZ       2.3594   ZZZZ     -93.0863
 -----------------------------------------------------------------
 Calculating analytic gradient of the SCF energy
 Gradient of Coulomb and Exchange Energy
            1           2           3           4           5           6
    1   2.7533635  -0.5339558   3.9798943   1.5489061   2.9161819   1.3068977
    2   0.0566830   0.4044942   0.3369835   0.7781353  -2.1030950   3.4029009
    3  -0.0816330   4.7325441   0.5785955  -3.4805284   1.1972250   1.5864739
            7           8           9          10          11          12
    1   1.7790435   0.8714718  -3.3744320   2.3447472  -0.9628145  -0.1521275
    2  -3.4139535  -1.4651017  -2.1001283  -2.8132151   2.8964874   4.5943165
    3   0.3432523  -3.5964242   0.4130368   1.7892237  -0.9830746   0.8710204
           13          14          15          16          17
    1  -0.9024247  -2.5865420   0.5844143  -1.6334190  -7.9392048
    2  -0.6133168   6.7232603   1.3332335   3.2155638 -11.2332477
    3  -4.6399322   2.2297749   3.7513130  -2.1363918  -2.5744753
 Gradient of SCF Energy
            1           2           3           4           5           6
    1   0.0002789  -0.0007835  -0.0029627   0.0002546   0.0011904  -0.0003631
    2  -0.0007180  -0.0005448  -0.0010871  -0.0006417  -0.0014997   0.0024601
    3   0.0004416   0.0026941   0.0001715  -0.0026245   0.0013346   0.0002923
            7           8           9          10          11          12
    1   0.0003108   0.0007041  -0.0031030   0.0016205   0.0054747  -0.0008164
    2   0.0032286   0.0003608  -0.0006263  -0.0008247  -0.0005081   0.0027933
    3  -0.0003400  -0.0025212   0.0001862   0.0013567  -0.0005517   0.0012285
           13          14          15          16          17
    1  -0.0014247  -0.0062241   0.0018132   0.0007115   0.0033187
    2  -0.0014306  -0.0085472  -0.0008207   0.0004070   0.0079991
    3  -0.0026780  -0.0005530   0.0013274  -0.0019394   0.0021751
 Max gradient component =       8.547E-03
 RMS gradient           =       2.523E-03
 Gradient time:  CPU 95.13 s  wall 95.21 s
 Geometry Optimization Parameters
   NAtoms,    NIC,     NZ,  NCons,   NDum,   NFix, NCnnct, MaxDiis
       17     126       0       0       0       0       0       0

 Cartesian Hessian Update
 Hessian Updated using Powell/Murtagh-Sargent Update
  Mixing factors:     0.976699 Powell
                      0.023301 Murtagh-Sargent


** GEOMETRY OPTIMIZATION IN DELOCALIZED INTERNAL COORDINATES **
   Searching for a Transition State

   Optimization Cycle:   3

                       Coordinates (Angstroms)
     ATOM                X               Y               Z
      1  C        -0.9244268502   -0.0210742277   -0.2978195606
      2  H        -0.7119059341   -0.1360759863   -1.3695732555
      3  C        -2.3791442896   -0.5051112935   -0.0733332962
      4  H        -2.5952668330   -0.6152463112    0.9938018953
      5  H        -3.0829387397    0.2244622302   -0.4856940071
      6  H        -2.5630790930   -1.4675365763   -0.5584502456
      7  C        -0.7681016834    1.4572335325    0.0803410561
      8  H        -1.0093255177    1.6114842556    1.1378823038
      9  H         0.2552082945    1.7968041838   -0.0869500483
     10  H        -1.4465852066    2.0791225993   -0.5104793051
     11  C         0.0125833054   -0.9115095754    0.4626565845
     12  H         0.0087528491   -1.9730059208    0.2229497733
     13  H         0.2045772984   -0.6770389749    1.5064640110
     14  C         2.0667021751   -0.5710915325   -0.2390009485
     15  H         1.7489087354   -0.8534723070   -1.2616080914
     16  H         2.4111691448   -1.4138572917    0.3905206883
     17  O         2.3424941226    0.5927110422    0.0486970440
   Point Group: c1    Number of degrees of freedom:    45


   Energy is   -272.170832926

 GETINT wrote B to file, NVib is           45
 Hessian Updated using Powell/Murtagh-Sargent Update
  Mixing factors:     0.987825 Powell
                      0.012175 Murtagh-Sargent

 45 Hessian modes will be used to form the next step
  Hessian Eigenvalues:
     0.002164    0.004188    0.008755    0.011203    0.030242    0.034078
     0.035363    0.042231    0.046711    0.050238    0.053789    0.053907
     0.055705    0.061149    0.063023    0.069676    0.075429    0.084697
     0.085536    0.094552    0.100510    0.112301    0.118353    0.140191
     0.156719    0.159978    0.159981    0.160000    0.165837    0.191514
     0.276897    0.284699    0.312230    0.328965    0.329501    0.338701
     0.339189    0.342207    0.343562    0.343622    0.344182    0.344501
     0.350709    0.352224    0.880133
**WARNING** Hessian does not have the Desired Local Structure

 Transition State Search - Taking P-RFO Step
 Searching for Lamda that Maximizes Along the Lowest mode
 Value Taken    Lamda =   0.00280916
 Searching for Lamda that Minimizes Along All other modes
 Value Taken    Lamda =  -0.00075300
 Calculated Step too Large.  Step scaled by  0.143422
 Step Taken.  Stepsize is  0.300000

                             Maximum     Tolerance    Cnvgd?
         Gradient           0.004842      0.000300      NO
         Displacement       0.193929      0.001200      NO
         Energy change      0.000261      0.000001      NO


 New Cartesian Coordinates Obtained by Inverse Iteration

 Displacement from previous Coordinates is:  0.309810
 ----------------------------------------------------------------
             Standard Nuclear Orientation (Angstroms)
    I     Atom           X                Y                Z
 ----------------------------------------------------------------
    1      C      -0.9226124789    -0.0230016558    -0.2996175324
    2      H      -0.7056173753    -0.1482306697    -1.3697730918
    3      C      -2.3770732264    -0.5083565427    -0.0712972888
    4      H      -2.5651160620    -0.7013520984     0.9899227625
    5      H      -3.0839362604     0.2591516176    -0.4031634532
    6      H      -2.5861637736    -1.4278472647    -0.6253264699
    7      C      -0.7690774656     1.4580636344     0.0676742960
    8      H      -1.0324945583     1.6218848952     1.1191156057
    9      H       0.2582006886     1.7968393618    -0.0815367023
   10      H      -1.4353992620     2.0750699252    -0.5427010452
   11      C       0.0121044943    -0.9052490338     0.4729440331
   12      H       0.0089634682    -1.9704030076     0.2469104842
   13      H       0.2058346852    -0.6554059166     1.5135499291
   14      C       2.0664348646    -0.5730562962    -0.2378180666
   15      H       1.7414239484    -0.8549977543    -1.2587105575
   16      H       2.4091378262    -1.4160405265     0.3928678370
   17      O       2.3450122652     0.5897291781     0.0473638582
 ----------------------------------------------------------------
 Molecular Point Group                 C1    NOp =  1
 Largest Abelian Subgroup              C1    NOp =  1
 Nuclear Repulsion Energy =   239.8870628776 hartrees
 There are       25 alpha and       24 beta electrons
 Applying Cartesian multipole field
    Component          Value
    ---------          -----
     (2,0,0)        1.00000E-11
     (0,2,0)        2.00000E-11
     (0,0,2)       -3.00000E-11
 Nucleus-field energy     =     0.0000000072 hartrees
 Requested basis set is non-standard
 There are 138 shells and 314 basis functions
 A cutoff of  1.0D-11 yielded   8941 shell pairs
 There are     45987 function pairs (     55233 Cartesian)
 Smallest overlap matrix eigenvalue = 1.88E-05
 Guess MOs from SCF MO coefficient file
Reading MOs from coefficient file
Reading MOs from coefficient file
 An unrestricted hybrid HF-DFT SCF calculation will be
 performed using Pulay DIIS extrapolation
 Exchange:     0.5679 Hartree-Fock + 1.0000 M08SO
 SCF converges when DIIS error is below 1.0E-08
Geometry optimization detected.  Setting ReadMinima to 0
Setting SaveMinima to 0
 Inaccurate integrated density:
   Number of electrons =    49
   Numerical integral  =    48.987430759617
   Relative error      =    -0.0256515110 %
 ---------------------------------------
  Cycle       Energy         DIIS Error
 ---------------------------------------
    1    -272.1634552620      3.29E-04
    2    -272.1703509124      6.00E-05
    3    -272.1704286195      3.99E-05
    4    -272.1704499025      8.17E-06
    5    -272.1704511372      4.23E-06
    6    -272.1704513290      1.48E-06
    7    -272.1704513776      5.50E-07
    8    -272.1704513969      2.46E-07
    9    -272.1704514092      1.25E-07
   10    -272.1704514132      5.21E-08
   11    -272.1704514139      2.67E-08
   12    -272.1704514142      9.89E-09 Convergence criterion met
 ---------------------------------------
 <S^2> = 0.7676
 SCF time:  CPU 797.67 s  wall 801.67 s
 SCF   energy in the final basis set = -272.1704514142
 Total energy in the final basis set = -272.1704514142
 Analysis of SCF Wavefunction
 
 --------------------------------------------------------------
                    Orbital Energies (a.u.)
 --------------------------------------------------------------
 
 Alpha MOs
 -- Occupied --
-19.558 -10.580 -10.537 -10.517 -10.498 -10.482  -1.149  -0.921
 -0.793  -0.783  -0.712  -0.658  -0.566  -0.556  -0.523  -0.520
 -0.517  -0.478  -0.466  -0.457  -0.425  -0.415  -0.405  -0.337
 -0.287
 -- Virtual --
 -0.028  -0.016  -0.012  -0.006   0.010   0.013   0.015   0.023
  0.027   0.042   0.044   0.054   0.058   0.070   0.073   0.085
  0.086   0.102   0.110   0.116   0.120   0.123   0.126   0.134
  0.142   0.145   0.146   0.154   0.160   0.168   0.180   0.185
  0.207   0.209   0.216   0.224   0.233   0.245   0.248   0.261
  0.263   0.282   0.284   0.298   0.307   0.322   0.327   0.338
  0.357   0.373   0.407   0.424   0.444   0.457   0.467   0.470
  0.491   0.508   0.517   0.525   0.537   0.541   0.559   0.565
  0.566   0.578   0.588   0.593   0.599   0.612   0.622   0.627
  0.639   0.654   0.661   0.673   0.687   0.689   0.716   0.730
  0.742   0.778   0.785   0.818   0.820   0.855   0.879   0.894
  0.928   0.934   0.942   0.961   0.986   1.001   1.012   1.025
  1.034   1.047   1.079   1.090   1.105   1.110   1.118   1.129
  1.152   1.153   1.173   1.200   1.216   1.233   1.244   1.250
  1.263   1.267   1.275   1.306   1.319   1.321   1.331   1.337
  1.356   1.369   1.372   1.399   1.414   1.434   1.442   1.454
  1.460   1.483   1.498   1.519   1.535   1.545   1.557   1.583
  1.591   1.616   1.644   1.647   1.666   1.709   1.738   1.780
  1.844   1.896   2.065   2.224   2.371   2.435   2.465   2.475
  2.493   2.497   2.535   2.554   2.575   2.600   2.625   2.664
  2.703   2.724   2.770   2.784   2.801   2.841   2.875   2.908
  2.910   2.923   2.936   2.942   2.962   2.977   2.992   2.996
  3.029   3.047   3.062   3.106   3.114   3.141   3.156   3.167
  3.195   3.229   3.241   3.253   3.269   3.292   3.312   3.322
  3.333   3.361   3.376   3.402   3.413   3.439   3.464   3.476
  3.504   3.525   3.547   3.570   3.587   3.599   3.629   3.643
  3.673   3.684   3.713   3.740   3.744   3.769   3.785   3.816
  3.846   3.876   3.906   3.923   3.934   3.965   3.978   3.989
  4.010   4.017   4.031   4.048   4.082   4.124   4.136   4.149
  4.164   4.177   4.189   4.197   4.210   4.223   4.255   4.281
  4.320   4.343   4.382   4.432   4.446   4.463   4.483   4.505
  4.519   4.531   4.595   4.597   4.637   4.662   4.777   4.832
  4.902   4.944   5.035   5.055   5.208   5.221   5.253   5.322
  5.362   5.383   5.447   5.476   5.518   5.552   5.610   5.638
  5.658   5.664   5.748   6.154   6.362   6.835   6.852   6.953
  7.212   7.324   7.584  23.999  24.152  24.172  24.271  24.405
 49.906
 
 Beta MOs
 -- Occupied --
-19.549 -10.582 -10.523 -10.518 -10.496 -10.482  -1.133  -0.916
 -0.782  -0.777  -0.704  -0.653  -0.564  -0.551  -0.518  -0.510
 -0.508  -0.470  -0.457  -0.430  -0.420  -0.410  -0.404  -0.330
 -- Virtual --
 -0.068  -0.027  -0.018  -0.015  -0.007   0.009   0.012   0.014
  0.022   0.025   0.042   0.049   0.054   0.064   0.068   0.083
  0.084   0.084   0.102   0.109   0.115   0.119   0.121   0.125
  0.135   0.141   0.145   0.146   0.153   0.161   0.169   0.180
  0.184   0.205   0.211   0.217   0.226   0.233   0.245   0.254
  0.263   0.267   0.283   0.290   0.298   0.313   0.325   0.329
  0.339   0.358   0.375   0.410   0.428   0.445   0.459   0.470
  0.472   0.492   0.512   0.525   0.533   0.539   0.550   0.561
  0.568   0.568   0.580   0.591   0.599   0.601   0.620   0.626
  0.631   0.640   0.656   0.669   0.683   0.687   0.695   0.720
  0.738   0.743   0.783   0.789   0.818   0.825   0.857   0.883
  0.896   0.934   0.939   0.946   0.964   0.990   1.007   1.014
  1.031   1.034   1.050   1.082   1.093   1.107   1.119   1.123
  1.134   1.155   1.159   1.179   1.205   1.224   1.237   1.254
  1.257   1.269   1.272   1.292   1.310   1.322   1.327   1.332
  1.345   1.361   1.377   1.384   1.408   1.420   1.438   1.447
  1.456   1.461   1.491   1.503   1.525   1.538   1.551   1.568
  1.589   1.596   1.620   1.648   1.661   1.675   1.718   1.746
  1.798   1.857   1.900   2.076   2.222   2.376   2.451   2.474
  2.490   2.500   2.506   2.555   2.571   2.585   2.610   2.639
  2.685   2.711   2.751   2.804   2.805   2.829   2.864   2.896
  2.906   2.918   2.941   2.952   2.967   2.975   2.988   3.001
  3.005   3.043   3.063   3.078   3.121   3.128   3.147   3.161
  3.169   3.203   3.236   3.251   3.270   3.273   3.300   3.322
  3.342   3.345   3.376   3.399   3.421   3.426   3.445   3.473
  3.499   3.531   3.534   3.553   3.577   3.588   3.632   3.639
  3.666   3.678   3.701   3.724   3.751   3.754   3.772   3.781
  3.829   3.856   3.901   3.919   3.926   3.941   3.980   3.987
  4.002   4.021   4.024   4.039   4.062   4.077   4.133   4.147
  4.158   4.169   4.188   4.195   4.202   4.222   4.250   4.276
  4.295   4.336   4.357   4.408   4.441   4.458   4.470   4.498
  4.524   4.535   4.542   4.613   4.621   4.652   4.684   4.824
  4.851   4.908   5.045   5.066   5.077   5.221   5.229   5.280
  5.328   5.366   5.412   5.490   5.515   5.555   5.576   5.613
  5.644   5.661   5.675   5.739   6.150   6.341   6.856   6.866
  6.953   7.226   7.315   7.573  24.006  24.158  24.171  24.280
 24.402  49.903
 --------------------------------------------------------------
 
          Ground-State Mulliken Net Atomic Charges

     Atom                 Charge (a.u.)    Spin (a.u.)
  --------------------------------------------------------
      1 C                     0.097018      -0.029956
      2 H                     0.243328       0.012853
      3 C                    -0.658993       0.023569
      4 H                     0.197278      -0.004295
      5 H                     0.187189       0.015448
      6 H                     0.198167       0.001279
      7 C                    -0.716228       0.010885
      8 H                     0.206098       0.001588
      9 H                     0.219830      -0.001685
     10 H                     0.197066      -0.000140
     11 C                    -0.559463       0.798967
     12 H                     0.236324      -0.025683
     13 H                     0.286529      -0.037924
     14 C                    -0.208305      -0.066744
     15 H                     0.171440       0.013345
     16 H                     0.171471       0.009655
     17 O                    -0.268751       0.278839
  --------------------------------------------------------
  Sum of atomic charges =     0.000000
  Sum of spin   charges =     1.000000

 -----------------------------------------------------------------
                    Cartesian Multipole Moments
 -----------------------------------------------------------------
    Charge (ESU x 10^10)
                 0.0000
    Dipole Moment (Debye)
         X      -2.1498      Y      -2.4324      Z      -0.3814
       Tot       3.2685
    Quadrupole Moments (Debye-Ang)
        XX     -45.1428     XY      -5.3640     YY     -39.7437
        XZ      -0.6937     YZ      -0.0111     ZZ     -39.1197
    Octopole Moments (Debye-Ang^2)
       XXX      -5.8201    XXY     -10.7799    XYY       1.7754
       YYY      -1.2243    XXZ      -3.5232    XYZ      -0.1593
       YYZ      -0.9072    XZZ       2.6188    YZZ      -0.1493
       ZZZ       0.6394
    Hexadecapole Moments (Debye-Ang^3)
      XXXX    -792.1555   XXXY     -28.8017   XXYY    -170.0336
      XYYY       0.8550   YYYY    -258.4955   XXXZ      -3.4666
      XXYZ      -1.3850   XYYZ       3.1594   YYYZ       2.5833
      XXZZ    -141.4658   XYZZ      -0.8103   YYZZ     -60.4200
      XZZZ      -2.3570   YZZZ       3.0550   ZZZZ     -93.4775
 -----------------------------------------------------------------
 Calculating analytic gradient of the SCF energy
 Gradient of Coulomb and Exchange Energy
            1           2           3           4           5           6
    1   3.0370251  -0.5561010   4.0223727   1.4160520   2.9157522   1.3996451
    2   0.1494921   0.4538856   0.3025250   1.0442349  -2.2164541   3.2674779
    3  -0.2153916   4.7180321   0.6610828  -3.4599044   0.9194138   1.8492656
            7           8           9          10          11          12
    1   1.5649296   0.9634168  -3.3739548   2.3190394  -1.1207916  -0.1563265
    2  -3.4667773  -1.5021186  -2.1071229  -2.7879558   2.8586782   4.6109024
    3   0.3503424  -3.5555326   0.3421626   1.8590970  -0.9259379   0.8011427
           13          14          15          16          17
    1  -0.8766184  -2.5787650   0.6136427  -1.6254135  -7.9639047
    2  -0.6664988   6.7483599   1.3267629   3.2173234 -11.2327147
    3  -4.6128351   2.2205873   3.7439749  -2.1436947  -2.5518047
 Gradient of SCF Energy
            1           2           3           4           5           6
    1  -0.0000953  -0.0006256  -0.0022696   0.0002821   0.0010103  -0.0003460
    2  -0.0004827  -0.0008292  -0.0011325  -0.0007282  -0.0011053   0.0022678
    3   0.0004335   0.0023413   0.0003313  -0.0023576   0.0012875   0.0000879
            7           8           9          10          11          12
    1   0.0002390   0.0006420  -0.0026705   0.0014066   0.0052050  -0.0007048
    2   0.0026555   0.0003460  -0.0002605  -0.0007412  -0.0000579   0.0023750
    3  -0.0005713  -0.0021823   0.0001840   0.0011689  -0.0005900   0.0010482
           13          14          15          16          17
    1  -0.0012909  -0.0060232   0.0016272   0.0006524   0.0029615
    2  -0.0012698  -0.0079396  -0.0006635   0.0003312   0.0072350
    3  -0.0022423  -0.0003011   0.0011081  -0.0017180   0.0019719
 Max gradient component =       7.940E-03
 RMS gradient           =       2.292E-03
 Gradient time:  CPU 93.34 s  wall 93.39 s
 Geometry Optimization Parameters
   NAtoms,    NIC,     NZ,  NCons,   NDum,   NFix, NCnnct, MaxDiis
       17     126       0       0       0       0       0       0

 Cartesian Hessian Update
 Hessian Updated using Powell/Murtagh-Sargent Update
  Mixing factors:     0.972711 Powell
                      0.027289 Murtagh-Sargent


** GEOMETRY OPTIMIZATION IN DELOCALIZED INTERNAL COORDINATES **
   Searching for a Transition State

   Optimization Cycle:   4

                       Coordinates (Angstroms)
     ATOM                X               Y               Z
      1  C        -0.9226124789   -0.0230016558   -0.2996175324
      2  H        -0.7056173753   -0.1482306697   -1.3697730918
      3  C        -2.3770732264   -0.5083565427   -0.0712972888
      4  H        -2.5651160620   -0.7013520984    0.9899227625
      5  H        -3.0839362604    0.2591516176   -0.4031634532
      6  H        -2.5861637736   -1.4278472647   -0.6253264699
      7  C        -0.7690774656    1.4580636344    0.0676742960
      8  H        -1.0324945583    1.6218848952    1.1191156057
      9  H         0.2582006886    1.7968393618   -0.0815367023
     10  H        -1.4353992620    2.0750699252   -0.5427010452
     11  C         0.0121044943   -0.9052490338    0.4729440331
     12  H         0.0089634682   -1.9704030076    0.2469104842
     13  H         0.2058346852   -0.6554059166    1.5135499291
     14  C         2.0664348646   -0.5730562962   -0.2378180666
     15  H         1.7414239484   -0.8549977543   -1.2587105575
     16  H         2.4091378262   -1.4160405265    0.3928678370
     17  O         2.3450122652    0.5897291781    0.0473638582
   Point Group: c1    Number of degrees of freedom:    45


   Energy is   -272.170451414

 GETINT wrote B to file, NVib is           45
 Hessian Updated using Powell/Murtagh-Sargent Update
  Mixing factors:     0.978732 Powell
                      0.021268 Murtagh-Sargent

 45 Hessian modes will be used to form the next step
  Hessian Eigenvalues:
     0.001713    0.004191    0.008753    0.011203    0.030240    0.034075
     0.035365    0.042216    0.046712    0.050237    0.053770    0.053907
     0.055704    0.061139    0.062994    0.069612    0.075406    0.084693
     0.085532    0.094548    0.100510    0.112299    0.118349    0.140191
     0.156719    0.159974    0.159978    0.160000    0.165798    0.191504
     0.276870    0.284699    0.312223    0.328965    0.329501    0.338701
     0.339189    0.342206    0.343557    0.343621    0.344181    0.344501
     0.350710    0.352224    0.879991
**WARNING** Hessian does not have the Desired Local Structure

 Transition State Search - Taking P-RFO Step
 Searching for Lamda that Maximizes Along the Lowest mode
 Value Taken    Lamda =   0.00275525
 Searching for Lamda that Minimizes Along All other modes
 Value Taken    Lamda =  -0.00069664
 Calculated Step too Large.  Step scaled by  0.183277
 Step Taken.  Stepsize is  0.300000

                             Maximum     Tolerance    Cnvgd?
         Gradient           0.004274      0.000300      NO
         Displacement       0.194035      0.001200      NO
         Energy change      0.000382      0.000001      NO


 New Cartesian Coordinates Obtained by Inverse Iteration

 Displacement from previous Coordinates is:  0.300008
 ----------------------------------------------------------------
             Standard Nuclear Orientation (Angstroms)
    I     Atom           X                Y                Z
 ----------------------------------------------------------------
    1      C      -0.9202170192    -0.0252854505    -0.2994857327
    2      H      -0.6961353159    -0.1601023479    -1.3674816438
    3      C      -2.3755919379    -0.5115612782    -0.0707978827
    4      H      -2.5409983303    -0.7804300390     0.9782671517
    5      H      -3.0823184341     0.2850499566    -0.3269570703
    6      H      -2.6086685660    -1.3866144470    -0.6846303889
    7      C      -0.7706203531     1.4582830434     0.0577218279
    8      H      -1.0660594547     1.6318563986     1.0997962163
    9      H       0.2617620333     1.7957756732    -0.0638655017
   10      H      -1.4181671170     2.0708425360    -0.5779056934
   11      C       0.0112960893    -0.8985170235     0.4869018476
   12      H       0.0084603276    -1.9676565283     0.2770707779
   13      H       0.2100224141    -0.6300663532     1.5226495611
   14      C       2.0675239643    -0.5754108691    -0.2415176508
   15      H       1.7294616109    -0.8539468757    -1.2595991515
   16      H       2.4094082341    -1.4205521112     0.3872898839
   17      O       2.3504636324     0.5851335617     0.0429480478
 ----------------------------------------------------------------
 Molecular Point Group                 C1    NOp =  1
 Largest Abelian Subgroup              C1    NOp =  1
 Nuclear Repulsion Energy =   239.8244160252 hartrees
 There are       25 alpha and       24 beta electrons
 Applying Cartesian multipole field
    Component          Value
    ---------          -----
     (2,0,0)        1.00000E-11
     (0,2,0)        2.00000E-11
     (0,0,2)       -3.00000E-11
 Nucleus-field energy     =     0.0000000072 hartrees
 Requested basis set is non-standard
 There are 138 shells and 314 basis functions
 A cutoff of  1.0D-11 yielded   8935 shell pairs
 There are     45973 function pairs (     55219 Cartesian)
 Smallest overlap matrix eigenvalue = 1.88E-05
 Guess MOs from SCF MO coefficient file
Reading MOs from coefficient file
Reading MOs from coefficient file
 An unrestricted hybrid HF-DFT SCF calculation will be
 performed using Pulay DIIS extrapolation
 Exchange:     0.5679 Hartree-Fock + 1.0000 M08SO
 SCF converges when DIIS error is below 1.0E-08
Geometry optimization detected.  Setting ReadMinima to 0
Setting SaveMinima to 0
 Inaccurate integrated density:
   Number of electrons =    49
   Numerical integral  =    48.988092939788
   Relative error      =    -0.0243001229 %
 ---------------------------------------
  Cycle       Energy         DIIS Error
 ---------------------------------------
    1    -272.1629099436      3.25E-04
    2    -272.1699144678      5.80E-05
    3    -272.1699912474      3.74E-05
    4    -272.1700105779      8.95E-06
    5    -272.1700124647      4.58E-06
    6    -272.1700128208      1.80E-06
    7    -272.1700129988      9.61E-07
    8    -272.1700131123      4.53E-07
    9    -272.1700131610      1.79E-07
   10    -272.1700131688      6.82E-08
   11    -272.1700131702      3.55E-08
   12    -272.1700131708      1.36E-08
   13    -272.1700131709      6.42E-09 Convergence criterion met
 ---------------------------------------
 <S^2> = 0.7672
 SCF time:  CPU 902.91 s  wall 907.23 s
 SCF   energy in the final basis set = -272.1700131709
 Total energy in the final basis set = -272.1700131709
 Analysis of SCF Wavefunction
 
 --------------------------------------------------------------
                    Orbital Energies (a.u.)
 --------------------------------------------------------------
 
 Alpha MOs
 -- Occupied --
-19.558 -10.580 -10.536 -10.517 -10.498 -10.482  -1.150  -0.921
 -0.792  -0.783  -0.712  -0.658  -0.567  -0.556  -0.523  -0.520
 -0.517  -0.478  -0.466  -0.457  -0.425  -0.415  -0.405  -0.337
 -0.286
 -- Virtual --
 -0.028  -0.016  -0.012  -0.006   0.010   0.013   0.016   0.023
  0.027   0.041   0.044   0.054   0.059   0.070   0.072   0.085
  0.086   0.102   0.110   0.116   0.120   0.123   0.126   0.135
  0.142   0.145   0.146   0.154   0.159   0.167   0.181   0.184
  0.205   0.208   0.217   0.224   0.231   0.245   0.249   0.262
  0.263   0.278   0.285   0.299   0.308   0.322   0.328   0.338
  0.358   0.370   0.409   0.426   0.445   0.457   0.465   0.468
  0.490   0.507   0.517   0.525   0.536   0.540   0.560   0.564
  0.564   0.580   0.587   0.594   0.597   0.611   0.620   0.626
  0.638   0.652   0.662   0.674   0.685   0.688   0.715   0.730
  0.740   0.778   0.786   0.821   0.822   0.859   0.878   0.892
  0.928   0.935   0.942   0.963   0.986   1.005   1.008   1.027
  1.031   1.048   1.075   1.091   1.107   1.109   1.118   1.128
  1.152   1.154   1.180   1.201   1.217   1.228   1.245   1.252
  1.257   1.266   1.277   1.312   1.316   1.322   1.329   1.338
  1.359   1.372   1.373   1.399   1.414   1.432   1.439   1.452
  1.459   1.484   1.497   1.517   1.531   1.541   1.555   1.577
  1.592   1.612   1.644   1.645   1.661   1.710   1.734   1.779
  1.844   1.897   2.065   2.224   2.367   2.438   2.462   2.474
  2.491   2.497   2.538   2.549   2.575   2.603   2.622   2.662
  2.705   2.722   2.764   2.780   2.800   2.840   2.878   2.906
  2.910   2.920   2.936   2.944   2.962   2.977   2.991   3.000
  3.032   3.046   3.061   3.106   3.113   3.139   3.155   3.170
  3.193   3.227   3.238   3.251   3.265   3.289   3.306   3.322
  3.331   3.358   3.371   3.399   3.412   3.440   3.461   3.473
  3.506   3.531   3.550   3.576   3.586   3.596   3.629   3.641
  3.672   3.684   3.712   3.740   3.745   3.769   3.785   3.813
  3.847   3.871   3.904   3.919   3.935   3.961   3.979   3.990
  4.005   4.014   4.030   4.047   4.083   4.122   4.129   4.143
  4.167   4.175   4.194   4.204   4.207   4.225   4.251   4.281
  4.313   4.342   4.380   4.427   4.448   4.460   4.481   4.508
  4.516   4.532   4.589   4.601   4.634   4.656   4.780   4.837
  4.903   4.944   5.035   5.054   5.205   5.219   5.253   5.324
  5.363   5.384   5.447   5.472   5.514   5.552   5.603   5.635
  5.656   5.662   5.751   6.157   6.366   6.835   6.852   6.955
  7.211   7.324   7.584  24.000  24.151  24.167  24.269  24.406
 49.908
 
 Beta MOs
 -- Occupied --
-19.550 -10.582 -10.522 -10.518 -10.496 -10.482  -1.134  -0.916
 -0.781  -0.776  -0.704  -0.653  -0.564  -0.551  -0.518  -0.510
 -0.508  -0.470  -0.458  -0.431  -0.420  -0.410  -0.404  -0.330
 -- Virtual --
 -0.067  -0.027  -0.018  -0.015  -0.007   0.009   0.012   0.014
  0.021   0.025   0.042   0.050   0.053   0.064   0.069   0.083
  0.083   0.084   0.102   0.109   0.115   0.119   0.121   0.124
  0.135   0.141   0.144   0.146   0.152   0.160   0.169   0.181
[...]
 H         -0.071 -0.004 -0.017    0.058  0.005  0.011    0.095 -0.421 -0.041
 H         -0.026  0.189  0.066    0.030 -0.217 -0.119    0.041 -0.175  0.154
 H         -0.073 -0.082  0.009    0.080  0.002 -0.067   -0.042  0.248  0.167
 C         -0.095  0.020 -0.014   -0.056 -0.047  0.072   -0.031 -0.038 -0.100
 H          0.112  0.029 -0.059    0.227 -0.029 -0.030    0.193 -0.076  0.182
 H          0.052  0.088 -0.065    0.230  0.001  0.004   -0.260  0.345 -0.170
 C         -0.085 -0.029  0.036   -0.063 -0.012  0.023    0.002 -0.001  0.007
 H          0.570  0.022 -0.200    0.348  0.014 -0.119   -0.011  0.038 -0.015
 H          0.548  0.017 -0.253    0.310  0.024 -0.141    0.004 -0.029 -0.014
 O          0.032  0.020 -0.013    0.019  0.007 -0.007   -0.001  0.000 -0.004
 TransDip  -0.084 -0.017  0.004   -0.027  0.008 -0.008    0.014 -0.003  0.001

 Mode:                22                     23                     24
 Frequency:      1188.44                1229.26                1297.57
 Force Cnst:      1.4257                 1.1736                 1.4213
 Red. Mass:       1.7132                 1.3182                 1.4328
 IR Active:          YES                    YES                    YES
 IR Intens:        1.069                  5.309                  0.813
 Raman Active:       YES                    YES                    YES
               X      Y      Z        X      Y      Z        X      Y      Z
 C          0.150 -0.102 -0.028   -0.012  0.003 -0.009   -0.127 -0.084 -0.075
 H          0.355 -0.442  0.052   -0.017  0.015 -0.010    0.774  0.348  0.241
 C         -0.065  0.067  0.043    0.004 -0.002  0.001    0.013  0.016  0.081
 H         -0.161 -0.238  0.001   -0.001  0.009 -0.002   -0.192 -0.069 -0.011
 H         -0.134 -0.173 -0.108    0.011  0.006  0.001    0.160 -0.023 -0.101
 H          0.285  0.069 -0.016   -0.007  0.001 -0.007    0.111  0.088 -0.126
 C         -0.102  0.026  0.061    0.005 -0.002  0.002    0.042  0.018 -0.007
 H          0.171  0.353  0.147   -0.009  0.006 -0.005   -0.089 -0.003 -0.055
 H          0.021 -0.257 -0.145   -0.003  0.018  0.001   -0.017  0.159  0.044
 H          0.181  0.193 -0.040   -0.007 -0.016 -0.003   -0.074 -0.007  0.065
 C         -0.033  0.034 -0.051    0.004 -0.003  0.008    0.015  0.016 -0.009
 H         -0.063  0.048 -0.104   -0.015 -0.003  0.004   -0.045 -0.001  0.042
 H         -0.050  0.133 -0.086    0.013 -0.007  0.010    0.014 -0.110  0.032
 C         -0.002  0.001  0.008    0.054  0.000  0.131    0.007 -0.003 -0.006
 H          0.016  0.030 -0.020    0.026  0.642 -0.272   -0.029 -0.026  0.018
 H          0.008 -0.040 -0.026   -0.208 -0.640 -0.179   -0.029 -0.005  0.009
 O         -0.001  0.001 -0.004   -0.028  0.001 -0.070    0.000  0.006  0.002
 TransDip   0.027 -0.008  0.017    0.031 -0.004  0.067   -0.010 -0.024  0.013

 Mode:                25                     26                     27
 Frequency:      1343.25                1377.45                1396.63
 Force Cnst:      1.5782                 1.4095                 1.4798
 Red. Mass:       1.4846                 1.2609                 1.2877
 IR Active:          YES                    YES                    YES
 IR Intens:        4.675                  6.229                 10.365
 Raman Active:       YES                    YES                    YES
               X      Y      Z        X      Y      Z        X      Y      Z
 C          0.058 -0.174  0.039    0.000  0.043 -0.002   -0.018  0.048  0.000
 H         -0.335  0.698 -0.127    0.052 -0.098  0.020    0.037 -0.119  0.027
 C         -0.026  0.040 -0.015   -0.115 -0.054 -0.001    0.066  0.007  0.002
 H          0.128 -0.134  0.050    0.402  0.234  0.195   -0.246 -0.011 -0.123
 H         -0.016 -0.032 -0.074    0.373  0.333 -0.095   -0.200 -0.140  0.112
 H          0.135 -0.011  0.096    0.494 -0.023 -0.081   -0.269  0.014 -0.007
 C         -0.001  0.009 -0.056   -0.004 -0.068 -0.016    0.003 -0.128 -0.036
 H          0.096  0.051 -0.007    0.064  0.243  0.002    0.074  0.488 -0.028
 H         -0.050  0.148  0.196   -0.113  0.222  0.079   -0.211  0.432  0.160
 H          0.006  0.240  0.161    0.088  0.168  0.116    0.125  0.334  0.281
 C         -0.018  0.031  0.029    0.001 -0.003 -0.010    0.011 -0.022  0.009
 H         -0.132  0.088 -0.262    0.046 -0.026  0.106   -0.008 -0.001 -0.090
 H          0.035  0.081 -0.005    0.006 -0.065  0.010   -0.039  0.140 -0.034
 C         -0.013  0.007  0.006    0.001  0.002 -0.001   -0.001  0.004 -0.001
 H          0.054  0.037 -0.032   -0.004 -0.007  0.005   -0.001 -0.005  0.002
 H          0.056  0.028 -0.013   -0.004 -0.005 -0.001    0.002  0.006  0.000
 O          0.001 -0.010 -0.001    0.000 -0.001  0.000    0.000 -0.004  0.001
 TransDip   0.066  0.016 -0.014    0.026  0.075  0.011   -0.044  0.088  0.031

 Mode:                28                     29                     30
 Frequency:      1441.20                1463.09                1465.98
 Force Cnst:      1.4418                 1.6417                 1.3256
 Red. Mass:       1.1782                 1.3017                 1.0469
 IR Active:          YES                    YES                    YES
 IR Intens:        2.416                 39.770                  1.082
 Raman Active:       YES                    YES                    YES
               X      Y      Z        X      Y      Z        X      Y      Z
 C         -0.027  0.025 -0.013   -0.009  0.002 -0.002    0.003  0.008 -0.004
 H          0.060 -0.056  0.019    0.038 -0.024  0.012    0.030 -0.001  0.005
 C         -0.019 -0.012  0.007    0.002 -0.007  0.004   -0.007  0.022 -0.038
 H          0.091  0.067  0.050   -0.021  0.074 -0.007   -0.087 -0.428 -0.050
 H          0.080  0.026 -0.056   -0.023 -0.006  0.024    0.153  0.293  0.086
 H          0.064  0.017 -0.075    0.024  0.017 -0.058    0.014 -0.188  0.537
 C          0.023  0.010  0.017   -0.004  0.002  0.006    0.020 -0.018  0.024
 H         -0.247 -0.013 -0.088    0.029 -0.044  0.019   -0.346 -0.031 -0.131
 H          0.065 -0.108 -0.176   -0.011  0.023 -0.019   -0.009  0.051 -0.381
 H         -0.102 -0.025  0.092    0.046 -0.012 -0.054    0.067  0.184  0.153
 C          0.051 -0.073  0.068    0.019  0.003 -0.005   -0.003  0.004 -0.008
 H         -0.193  0.046 -0.586   -0.033  0.004  0.000    0.024 -0.011  0.069
 H         -0.138  0.626 -0.112   -0.021  0.006  0.002    0.012 -0.064  0.010
 C          0.000 -0.002 -0.002   -0.007  0.063  0.003    0.000  0.003  0.000
 H         -0.009 -0.011  0.005   -0.066  0.610 -0.318   -0.005  0.042 -0.022
 H         -0.014  0.002  0.005    0.171  0.609  0.277    0.008  0.038  0.020
 O          0.001  0.003  0.000   -0.009 -0.127  0.004   -0.001 -0.007  0.000
 TransDip  -0.001  0.005 -0.050    0.119  0.161 -0.027   -0.010  0.001  0.032

 Mode:                31                     32                     33
 Frequency:      1469.38                1481.11                1491.17
 Force Cnst:      1.3429                 1.3647                 1.4003
 Red. Mass:       1.0556                 1.0558                 1.0688
 IR Active:          YES                    YES                    YES
 IR Intens:        3.285                  6.477                 10.361
 Raman Active:       YES                    YES                    YES
               X      Y      Z        X      Y      Z        X      Y      Z
 C         -0.021 -0.019 -0.011    0.032 -0.026 -0.006   -0.026  0.031 -0.034
 H          0.045  0.052  0.010   -0.021  0.027 -0.031    0.070 -0.074 -0.001
 C          0.012 -0.027 -0.024    0.006 -0.030 -0.015   -0.005  0.014 -0.019
 H         -0.290  0.214 -0.141   -0.276  0.330 -0.129   -0.033 -0.323 -0.020
 H         -0.129  0.276  0.399   -0.207  0.174  0.377    0.162  0.203  0.009
 H          0.286 -0.077  0.136    0.290 -0.021 -0.018   -0.017 -0.126  0.363
 C         -0.030  0.010  0.017    0.027  0.012 -0.016   -0.009  0.011 -0.033
 H          0.263 -0.265  0.139   -0.234  0.259 -0.122    0.350  0.201  0.114
 H         -0.106  0.227 -0.045    0.134 -0.288  0.090    0.052 -0.152  0.541
 H          0.332  0.006 -0.325   -0.373 -0.046  0.302   -0.243 -0.284 -0.077
 C          0.010 -0.011  0.017   -0.010  0.014 -0.008    0.016 -0.018  0.017
 H         -0.049  0.015 -0.138    0.014  0.002  0.059   -0.033  0.000 -0.094
 H         -0.020  0.120 -0.018    0.027 -0.082  0.011   -0.016  0.101 -0.012
 C          0.000 -0.003  0.000    0.000 -0.001  0.000    0.000  0.002 -0.001
 H          0.007 -0.054  0.028   -0.002  0.013 -0.007   -0.012  0.027 -0.013
 H         -0.014 -0.051 -0.025    0.003  0.013  0.007    0.004  0.032  0.017
 O          0.001  0.009  0.000    0.000  0.000  0.000    0.000 -0.005  0.000
 TransDip   0.025  0.051  0.014   -0.051  0.006  0.063    0.019 -0.034  0.096

 Mode:                34                     35                     36
 Frequency:      1625.76                2890.87                2948.75
 Force Cnst:      5.2167                 5.1280                 5.5456
 Red. Mass:       3.3499                 1.0414                 1.0825
 IR Active:          YES                    YES                    YES
 IR Intens:       65.426                 51.895                  2.648
 Raman Active:       YES                    YES                    YES
               X      Y      Z        X      Y      Z        X      Y      Z
 C         -0.008  0.004  0.000    0.001  0.000 -0.001    0.027 -0.003 -0.075
 H          0.018 -0.008  0.005   -0.005 -0.001  0.017   -0.331  0.022  0.911
 C          0.000  0.000  0.000    0.000  0.000  0.000   -0.002  0.001  0.008
 H         -0.004 -0.002 -0.001    0.000  0.000 -0.001    0.035 -0.002 -0.089
 H          0.002  0.005  0.001    0.000  0.000  0.000   -0.009  0.012 -0.008
 H         -0.002 -0.001  0.004    0.000 -0.002 -0.001    0.003 -0.018 -0.004
 C          0.002  0.003  0.001    0.000 -0.001  0.000   -0.003  0.002  0.011
 H         -0.017 -0.005 -0.007   -0.001  0.001  0.004    0.059 -0.004 -0.145
 H          0.016 -0.041 -0.009    0.007  0.004  0.001   -0.025 -0.013  0.003
 H         -0.022 -0.019  0.003   -0.002  0.003 -0.002    0.004 -0.010  0.009
 C          0.042  0.003 -0.014   -0.001  0.001  0.000    0.000  0.001  0.001
 H         -0.069 -0.003  0.036    0.002 -0.012 -0.003   -0.002 -0.006 -0.004
 H         -0.053 -0.011  0.009    0.000  0.002  0.002    0.001 -0.005 -0.022
 C         -0.026  0.371  0.011    0.006 -0.054 -0.008    0.006  0.001  0.012
 H          0.337 -0.411  0.333    0.193  0.370  0.613   -0.028 -0.052 -0.082
 H          0.009 -0.409 -0.482   -0.258  0.334 -0.518   -0.035  0.048 -0.066
 O         -0.022 -0.229  0.009    0.000 -0.004  0.000    0.000 -0.001  0.000
 TransDip   0.096  0.238 -0.037    0.045 -0.223 -0.041    0.028 -0.009 -0.043

 Mode:                37                     38                     39
 Frequency:      2957.37                2973.50                2975.68
 Force Cnst:      5.7610                 5.4022                 5.4037
 Red. Mass:       1.1180                 1.0370                 1.0358
 IR Active:          YES                    YES                    YES
 IR Intens:       73.507                 20.083                 32.584
 Raman Active:       YES                    YES                    YES
               X      Y      Z        X      Y      Z        X      Y      Z
 C          0.004  0.000 -0.010    0.003  0.001 -0.007    0.002  0.000 -0.008
 H         -0.042  0.002  0.125   -0.032  0.001  0.087   -0.034  0.001  0.097
 C         -0.001  0.000  0.002   -0.024 -0.006  0.003    0.040  0.012 -0.002
 H          0.008  0.000 -0.020    0.119 -0.008 -0.308   -0.189  0.009  0.476
 H          0.001  0.000  0.001    0.168 -0.172  0.179   -0.283  0.285 -0.299
 H          0.001  0.001  0.001   -0.002  0.253  0.093    0.000 -0.433 -0.157
 C         -0.001  0.001  0.003    0.012 -0.034 -0.025    0.007 -0.021 -0.016
 H          0.015 -0.001 -0.039   -0.231  0.021  0.578   -0.139  0.015  0.350
 H         -0.012 -0.005  0.000    0.337  0.122 -0.004    0.203  0.076 -0.002
 H          0.006 -0.007  0.007   -0.248  0.251 -0.274   -0.147  0.151 -0.163
 C          0.001  0.001  0.002    0.000  0.000  0.000    0.000  0.000  0.001
 H         -0.002 -0.004 -0.002    0.000  0.001  0.001    0.001  0.012  0.004
 H         -0.005 -0.006 -0.026    0.001 -0.002 -0.003   -0.001 -0.007 -0.014
 C         -0.038  0.004 -0.092    0.000  0.001 -0.001   -0.001  0.001 -0.002
 H          0.161  0.344  0.533    0.000  0.002  0.003    0.001  0.004  0.006
 H          0.286 -0.387  0.556    0.006 -0.008  0.012    0.007 -0.010  0.014
 O          0.000  0.000  0.000    0.000  0.000  0.000    0.000  0.000  0.000
 TransDip  -0.121  0.020 -0.246   -0.014 -0.122 -0.075    0.175 -0.015 -0.052

 Mode:                40                     41                     42
 Frequency:      3042.43                3047.95                3053.43
 Force Cnst:      5.9989                 6.0313                 6.0552
 Red. Mass:       1.1000                 1.1019                 1.1023
 IR Active:          YES                    YES                    YES
 IR Intens:       11.250                 31.484                 21.862
 Raman Active:       YES                    YES                    YES
               X      Y      Z        X      Y      Z        X      Y      Z
 C          0.001  0.000 -0.005    0.003  0.000 -0.010    0.002 -0.001 -0.003
 H         -0.017  0.004  0.052   -0.039  0.001  0.102   -0.013  0.001  0.031
 C          0.002 -0.005  0.028   -0.008  0.016 -0.086    0.029 -0.086 -0.019
 H          0.087 -0.006 -0.212   -0.274  0.015  0.646   -0.091 -0.015  0.237
 H         -0.110  0.110 -0.109    0.362 -0.351  0.353   -0.280  0.262 -0.300
 H          0.000 -0.046 -0.009    0.001  0.140  0.031    0.017  0.779  0.283
 C          0.003  0.038 -0.078    0.001  0.012 -0.024    0.000  0.000  0.000
 H         -0.229  0.032  0.549   -0.071  0.013  0.174   -0.001  0.002  0.006
 H         -0.211 -0.074 -0.021   -0.068 -0.025 -0.005    0.004  0.002  0.000
 H          0.403 -0.401  0.410    0.122 -0.124  0.124    0.001  0.001  0.001
 C          0.000  0.000  0.001    0.001 -0.001  0.002    0.000  0.003 -0.001
 H          0.000  0.004  0.002    0.000  0.023  0.004   -0.002 -0.035 -0.008
 H         -0.001 -0.005 -0.011   -0.004 -0.010 -0.028    0.004  0.006  0.017
 C          0.000  0.000  0.000    0.000  0.000  0.000    0.000  0.000  0.000
 H          0.000  0.001  0.001    0.000  0.002  0.002    0.000  0.001  0.001
 H          0.000  0.000  0.001    0.001 -0.001  0.003    0.000  0.000  0.000
 O          0.000  0.000  0.000    0.000  0.000  0.000    0.000  0.000  0.000
 TransDip  -0.015  0.060 -0.088   -0.024  0.033 -0.175    0.042 -0.138 -0.041

 Mode:                43                     44                     45
 Frequency:      3066.17                3072.32                3166.19
 Force Cnst:      5.8347                 6.1245                 6.5915
 Red. Mass:       1.0534                 1.1012                 1.1160
 IR Active:          YES                    YES                    YES
 IR Intens:       16.762                  4.912                  6.871
 Raman Active:       YES                    YES                    YES
               X      Y      Z        X      Y      Z        X      Y      Z
 C         -0.003  0.001  0.000   -0.002  0.000  0.001    0.001 -0.001 -0.003
 H          0.007 -0.001 -0.014    0.004 -0.001 -0.009   -0.008 -0.001  0.025
 C          0.000 -0.004  0.002    0.000  0.001 -0.001    0.000 -0.001  0.000
 H          0.010 -0.001 -0.018   -0.001  0.001  0.004   -0.003 -0.001  0.004
 H         -0.016  0.017 -0.018    0.005 -0.003  0.004   -0.001  0.002 -0.001
 H          0.003  0.033  0.013    0.001 -0.002  0.000    0.002  0.007  0.003
 C         -0.002  0.000  0.002   -0.092 -0.005 -0.008    0.000  0.001  0.000
 H          0.009 -0.003 -0.022    0.052 -0.007 -0.172   -0.002  0.003  0.003
 H          0.018  0.006  0.000    0.817  0.321  0.004    0.000  0.001 -0.001
 H          0.000 -0.002 -0.001    0.234 -0.252  0.264    0.003 -0.003  0.004
 C          0.012 -0.048  0.040    0.000  0.001 -0.001   -0.012 -0.070 -0.069
 H          0.003  0.752  0.137    0.000 -0.018 -0.003    0.004  0.625  0.098
 H         -0.119 -0.193 -0.597    0.002  0.003  0.012    0.139  0.212  0.724
 C          0.000 -0.001  0.001    0.000  0.001  0.000   -0.001  0.000 -0.002
 H          0.002  0.000 -0.001   -0.002 -0.002 -0.002    0.003  0.008  0.016
 H         -0.007  0.008 -0.014    0.002 -0.002  0.002    0.004 -0.006  0.009
 O          0.000  0.000  0.000    0.000  0.000  0.000    0.000  0.000  0.000
 TransDip   0.057 -0.105  0.054   -0.067  0.012 -0.021   -0.015 -0.062 -0.055

 STANDARD THERMODYNAMIC QUANTITIES AT   298.15 K  AND     1.00 ATM

   This Molecule has  1 Imaginary Frequencies
   Zero point vibrational energy:       91.188 kcal/mol

   Atom    1 Element C  Has Mass   12.00000
   Atom    2 Element H  Has Mass    1.00783
   Atom    3 Element C  Has Mass   12.00000
   Atom    4 Element H  Has Mass    1.00783
   Atom    5 Element H  Has Mass    1.00783
   Atom    6 Element H  Has Mass    1.00783
   Atom    7 Element C  Has Mass   12.00000
   Atom    8 Element H  Has Mass    1.00783
   Atom    9 Element H  Has Mass    1.00783
   Atom   10 Element H  Has Mass    1.00783
   Atom   11 Element C  Has Mass   12.00000
   Atom   12 Element H  Has Mass    1.00783
   Atom   13 Element H  Has Mass    1.00783
   Atom   14 Element C  Has Mass   12.00000
   Atom   15 Element H  Has Mass    1.00783
   Atom   16 Element H  Has Mass    1.00783
   Atom   17 Element O  Has Mass   15.99491
   Molecular Mass:    87.081040 amu
   Principal axes and moments of inertia in amu*Bohr^2:
                             1           2           3
    Eigenvalues --      306.78120   905.06032  1087.56639
          X               0.99963    -0.02608     0.00817
          Y               0.02597     0.99957     0.01392
          Z              -0.00853    -0.01370     0.99987
   Rotational Symmetry Number is   1
   The Molecule is an Asymmetric Top
   Translational Enthalpy:        0.889 kcal/mol
   Rotational Enthalpy:           0.889 kcal/mol
   Vibrational Enthalpy:         94.561 kcal/mol
   gas constant (RT):             0.592 kcal/mol
   Translational Entropy:        39.306  cal/mol.K
   Rotational Entropy:           27.204  cal/mol.K
   Vibrational Entropy:          20.518  cal/mol.K

   Total Enthalpy:               96.931 kcal/mol
   Total Entropy:                87.028  cal/mol.K
Archival summary:
1\1\node20\FREQ\ProcedureUnspecified\BasisUnspecified\1511(2)\edames\WedJun413:15:112014WedJun413:15:112014\0\\#,FREQ,ProcedureUnspecified,BasisUnspecified,\\0,2\C\H,1,1.10349\C,1,1.50132,2,108.331\H,3,1.09132,1,118.216,2,-145.057,0\H,3,1.09257,1,118.311,2,67.4753,0\C,1,1.53115,2,108.763,3,-121.149,0\H,6,1.09594,1,110.776,2,61.7349,0\H,6,1.09724,1,110.713,2,-58.9976,0\H,6,1.09999,1,109.963,2,-178.101,0\C,1,1.54212,2,107.86,3,118.524,0\H,10,1.09736,1,111.658,2,-59.7987,0\H,10,1.0978,1,110.111,2,60.6097,0\H,10,1.09858,1,110.437,2,179.727,0\C,3,2.141,1,104.84,2,-37.21,0\H,14,1.109,3,91.0106,1,-172.428,0\H,14,1.1101,3,89.4881,1,72.1617,0\O,14,1.22921,3,105.234,1,-49.6953,0\\\@

 Total job time:  68536.51s(wall), 68224.30s(cpu) 
 Wed Jun  4 13:15:11 2014

        *************************************************************
        *                                                           *
        *  Thank you very much for using Q-Chem.  Have a nice day.  *
        *                                                           *
        *************************************************************


0 sent ACK to 0 
now end server 0 ... 
cleanup process ... done
remove work dirs /scratch/edames/qchem28059.0 -- /scratch/edames/qchem28059.3
rm -rf /scratch/edames/qchem28059.0
rm -rf /scratch/edames/qchem28059.1
rm -rf /scratch/edames/qchem28059.2
rm -rf /scratch/edames/qchem28059.3
rm -rf /scratch/edames/qchem28059
