
Running Job 1 of 2 iC5H11O-5_betasc_CH3m08c.in
qchem iC5H11O-5_betasc_CH3m08c.in_21343.0 /scratch/edames/qchem21343/ 8
/opt/qchem/bin/mpi/mpirun_qchem -machinefile /tmp/318262.1.normal1/hostfile -np 8 /opt/qchem/exe/qcprog.exe iC5H11O-5_betasc_CH3m08c.in_21343.0 /scratch/edames/qchem21343/

Process 0 of 8 is on node03.cluster - thread support 0
Process 2 of 8 is on node03.cluster - thread support 0
Process 4 of 8 is on node03.cluster - thread support 0
Process 3 of 8 is on node03.cluster - thread support 0
Process 1 of 8 is on node03.cluster - thread support 0
Process 6 of 8 is on node03.cluster - thread support 0
Process 5 of 8 is on node03.cluster - thread support 0
Process 7 of 8 is on node03.cluster - thread support 0
initial socket setup ...start
initial socket setup ...done 
now start server 0 ... 
set process cleaner
set process cleaner
set process cleaner
set process cleaner
set process cleaner
set process cleaner
set process cleaner
                  Welcome to Q-Chem
     A Quantum Leap Into The Future Of Chemistry


 Q-Chem 4.2, Q-Chem, Inc., Pleasanton, CA (2014).

 Y. Shao,  Z. Gan,  E. Epifanovsky,  A. T. B. Gilbert,  M. Wormit,  
 J. Kussmann,  A. W. Lange,  A. Behn,  J. Deng,  X. Feng,  D. Ghosh,  
 M. Goldey,  P. R. Horn,  L. D. Jacobson,  I. Kaliman,  R. Z. Khaliullin,  
 T. Kus,  A. Landau,  J. Liu,  E. I. Proynov,  Y. M. Rhee,  R. M. Richard,  
 M. A. Rohrdanz,  R. P. Steele,  E. J. Sundstrom,  H. L. Woodcock III,  
 P. M. Zimmerman,  D. Zuev,  B. Albrecht,  E. Alguire,  B. Austin,  
 G. J. O. Beran,  Y. A. Bernard,  E. Berquist,  K. Brandhorst,  
 K. B. Bravaya,  S. T. Brown,  D. Casanova,  C.-M. Chang,  Y. Chen,  
 S. H. Chien,  K. D. Closser,  D. L. Crittenden,  M. Diedenhofen,  
 R. A. DiStasio Jr.,  H. Do,  A. D. Dutoi,  R. G. Edgar,  S. Fatehi,  
 L. Fusti-Molnar,  A. Ghysels,  A. Golubeva-Zadorozhnaya,  J. Gomes,  
 M. W. D. Hanson-Heine,  P. H. P. Harbach,  A. W. Hauser,  E. G. Hohenstein,  
 Z. C. Holden,  T.-C. Jagau,  H. Ji,  B. Kaduk,  K. Khistyaev,  Jaehoon Kim,  
 Jihan Kim,  R. A. King,  P. Klunzinger,  D. Kosenkov,  T. Kowalczyk,  
 C. M. Krauter,  K. U. Lao,  A. Laurent,  K. V. Lawler,  S. V. Levchenko,  
 C. Y. Lin,  F. Liu,  E. Livshits,  R. C. Lochan,  A. Luenser,  P. Manohar,  
 S. F. Manzer,  S.-P. Mao,  N. Mardirossian,  A. V. Marenich,  S. A. Maurer,  
 N. J. Mayhall,  C. M. Oana,  R. Olivares-Amaya,  D. P. O'Neill,  
 J. A. Parkhill,  T. M. Perrine,  R. Peverati,  P. A. Pieniazek,  A. Prociuk,  
 D. R. Rehn,  E. Rosta,  N. J. Russ,  N. Sergueev,  S. M. Sharada,  
 S. Sharma,  D. W. Small,  A. Sodt,  T. Stein,  D. Stuck,  Y.-C. Su,  
 A. J. W. Thom,  T. Tsuchimochi,  L. Vogt,  O. Vydrov,  T. Wang,  
 M. A. Watson,  J. Wenzel,  A. White,  C. F. Williams,  V. Vanovschi,  
 S. Yeganeh,  S. R. Yost,  Z.-Q. You,  I. Y. Zhang,  X. Zhang,  Y. Zhao,  
 B. R. Brooks,  G. K. L. Chan,  D. M. Chipman,  C. J. Cramer,  
 W. A. Goddard III,  M. S. Gordon,  W. J. Hehre,  A. Klamt,  
 H. F. Schaefer III,  M. W. Schmidt,  C. D. Sherrill,  D. G. Truhlar,  
 A. Warshel,  X. Xu,  A. Aspuru-Guzik,  R. Baer,  A. T. Bell,  N. A. Besley,  
 J.-D. Chai,  A. Dreuw,  B. D. Dunietz,  T. R. Furlani,  S. R. Gwaltney,  
 C.-P. Hsu,  Y. Jung,  J. Kong,  D. S. Lambrecht,  W. Liang,  C. Ochsenfeld,  
 V. A. Rassolov,  L. V. Slipchenko,  J. E. Subotnik,  T. Van Voorhis,  
 J. M. Herbert,  A. I. Krylov,  P. M. W. Gill,  M. Head-Gordon

 Contributors to earlier versions of Q-Chem not listed above: 
 R. D. Adamson,  J. Baker,  E. F. C. Byrd,  A. K. Chakraborty,  C.-L. Cheng,  
 H. Dachsel,  R. J. Doerksen,  G. Hawkins,  A. Heyden,  S. Hirata,  
 G. Kedziora,  F. J. Keil,  C. Kelley,  P. P. Korambath,  W. Kurlancheek,  
 A. M. Lee,  M. S. Lee,  D. Liotard,  I. Lotan,  P. E. Maslen,  N. Nair,  
 D. Neuhauser,  R. Olson,  B. Peters,  J. Ritchie,  N. E. Schultz,  
 N. Shenvi,  A. C. Simmonett,  K. S. Thanthiriwatte,  Q. Wu,  W. Zhang

 Q-Chem 4.2.0 for Intel X86 Linux

 Parts of Q-Chem use Armadillo 4.100.2 (Dirt Cruiser).
 http://arma.sourceforge.net/

 Q-Chem begins on Fri Jun 27 15:14:30 2014  

Host: 
0

     Scratch files written to /scratch/edames/qchem21343.0//
 May2514 8580_ilyak 4150   
 Parallel job on  8  processors
Processing $rem in /opt/qchem/config/preferences.
 MEM_TOTAL  2000 

 Q-Chem warning in module /home/scratch/svnadmin/8580_ilyak/qchem/forms1/BasisType.C, line 1209:

 Setting pure/cartesian flag to 2111 for general basis


Finally everything over in PARseQInput

--------------------------------------------------------------
User input:
--------------------------------------------------------------
$rem
XC_GRID 000075000434
JOBTYPE ts
EXCHANGE M08SO
BASIS gen
GEOM_OPT_MAX_CYCLES 60
!GEOM_OPT_TOL_DISPLACEMENT 3000
GEOM_OPT_TOL_ENERGY 10
!   SCF_ALGORITHM DIIS_GDM
incdft false
!   varthresh false
GUI=2
UNRESTRICTED TRUE
CORRELATION NONE
$end

$comment
c5h11o-2
$end
$opt
stre 1 14 2.244
$end
$molecule
0 2
C       -0.89027        0.40256        0.35908
H       -1.09737        0.24900        1.41516
C       -1.38583        1.52581       -0.22873
H       -1.10920        1.79860       -1.24239
H       -2.13826        2.13631        0.25664
C        0.31678       -0.32598       -0.18865
H        0.30388       -0.31531       -1.28263
H        0.32122       -1.37293        0.12369
C        1.62487        0.30526        0.28594
H        1.63697        0.34917        1.38529
H        1.69468        1.33499       -0.09055
O        2.69261       -0.50124       -0.20678
H        3.52141       -0.10848        0.08123
C       -2.47423       -1.23069       -0.02812
H       -2.32450       -1.38734       -1.08902
H       -2.10840       -2.00520        0.63633
H       -3.38913       -0.73066        0.26338
$end

$basis
H  0
S  3 1.00
3.386500000000E+01 2.549380000000E-02
5.094790000000E+00 1.903730000000E-01
1.158790000000E+00 8.521610000000E-01
S  1 1.00
3.258400000000E-01 1.000000000000E+00
S  1 1.00
1.027410000000E-01 1.000000000000E+00
S  1 1.00
3.600000000000E-02 1.000000000000E+00
P  1 1.00
1.500000000000E+00 1.000000000000E+00
P  1 1.00
3.750000000000E-01 1.000000000000E+00
****
C 0
S  6 1.00
4.563240000000E+03 1.966650000000E-03
6.820240000000E+02 1.523060000000E-02
1.549730000000E+02 7.612690000000E-02
4.445530000000E+01 2.608010000000E-01
1.302900000000E+01 6.164620000000E-01
1.827730000000E+00 2.210060000000E-01
S  3 1.00
2.096420000000E+01 1.146600000000E-01
4.803310000000E+00 9.199990000000E-01
1.459330000000E+00 -3.030680000000E-03
S  1 1.00
4.834560000000E-01 1.000000000000E+00
S  1 1.00
1.455850000000E-01 1.000000000000E+00
S  1 1.00
4.380000000000E-02 1.000000000000E+00
P  3 1.00
2.096420000000E+01 4.024870000000E-02
4.803310000000E+00 2.375940000000E-01
1.459330000000E+00 8.158540000000E-01
P  1 1.00
4.834560000000E-01 1.000000000000E+00
P  1 1.00
1.455850000000E-01 1.000000000000E+00
P  1 1.00
4.380000000000E-02 1.000000000000E+00
D  1 1.00
1.252000000000E+00 1.000000000000E+00
D  1 1.00
3.130000000000E-01 1.000000000000E+00
F  1 1.00
8.000000000000E-01 1.000000000000E+00
****
O  0
S  6 1.00
8.588500000000E+03 1.895150000000E-03
1.297230000000E+03 1.438590000000E-02
2.992960000000E+02 7.073200000000E-02
8.737710000000E+01 2.400010000000E-01
2.567890000000E+01 5.947970000000E-01
3.740040000000E+00 2.808020000000E-01
S  3 1.00
4.211750000000E+01 1.138890000000E-01
9.628370000000E+00 9.208110000000E-01
2.853320000000E+00 -3.274470000000E-03
S  1 1.00
9.056610000000E-01 1.000000000000E+00
S  1 1.00
2.556110000000E-01 1.000000000000E+00
S  1 1.00
8.450000000000E-02 1.000000000000E+00
P  3 1.00
4.211750000000E+01 3.651140000000E-02
9.628370000000E+00 2.371530000000E-01
2.853320000000E+00 8.197020000000E-01
P  1 1.00
9.056610000000E-01 1.000000000000E+00
P  1 1.00
2.556110000000E-01 1.000000000000E+00
P  1 1.00
8.450000000000E-02 1.000000000000E+00
D  1 1.00
2.584000000000E+00 1.000000000000E+00
D  1 1.00
6.460000000000E-01 1.000000000000E+00
F  1 1.00
1.400000000000E+00 1.000000000000E+00
****
$end

--------------------------------------------------------------
 ----------------------------------------------------------------
             Standard Nuclear Orientation (Angstroms)
    I     Atom           X                Y                Z
 ----------------------------------------------------------------
    1      C      -0.8902728643    -0.4025582259    -0.3590799720
    2      H      -1.0973732035    -0.2489961626    -1.4151596054
    3      C      -1.3858342913    -1.5258084233     0.2287284477
    4      H      -1.1092041609    -1.7986005251     1.2423878466
    5      H      -2.1382655077    -2.1363064516    -0.2566421466
    6      C       0.3167785701     0.3259789917     0.1886505680
    7      H       0.3038791525     0.3153072084     1.2826305574
    8      H       0.3212200292     1.3729294997    -0.1236877086
    9      C       1.6248673273    -0.3052622627    -0.2859411890
   10      H       1.6369666569    -0.3491704693    -1.3852912680
   11      H       1.6946759301    -1.3349929920     0.0905470753
   12      O       2.6926088529     0.5012352625     0.2067795558
   13      H       3.5214080836     0.1084744468    -0.0812315455
   14      C      -2.4742301092     1.2306936021     0.0281235878
   15      H      -2.3244992843     1.3873416200     1.0890237641
   16      H      -2.1083992671     2.0052041278    -0.6363253358
   17      H      -3.3891310474     0.7306655071    -0.2633767354
 ----------------------------------------------------------------
 Molecular Point Group                 C1    NOp =  1
 Largest Abelian Subgroup              C1    NOp =  1
 Nuclear Repulsion Energy =   234.5862752403 hartrees
 There are       25 alpha and       24 beta electrons
 Requested basis set is non-standard
 There are 138 shells and 314 basis functions

Total QAlloc Memory Limit   2000 MB
Mega-Array Size        61 MB
MEM_STATIC part        62 MB
 A cutoff of  1.0D-11 yielded   8768 shell pairs
 There are     44854 function pairs (     53796 Cartesian)
 Smallest overlap matrix eigenvalue = 2.10E-05

  Scale SEOQF with 1.000000e-01/1.000000e-01/1.000000e-01

 Standard Electronic Orientation quadrupole field applied
 Nucleus-field energy     =     0.0000000083 hartrees
 Guess MOs from core Hamiltonian diagonalization
 An unrestricted hybrid HF-DFT SCF calculation will be
 performed using Pulay DIIS extrapolation
 Exchange:     0.5679 Hartree-Fock + 1.0000 M08SO
 SCF converges when DIIS error is below 1.0E-08
 ---------------------------------------
  Cycle       Energy         DIIS Error
 ---------------------------------------
    1    -185.6758954804      9.28E-02
    2     -93.4846535583      8.14E-02
    3    -217.3387012388      4.39E-02
    4    -196.5940628347      5.11E-02
    5    -265.6811904971      2.02E-02
    6    -268.7289328743      1.31E-02
    7    -271.7572666334      5.38E-03
    8    -272.0940870368      2.10E-03
    9    -272.1395012977      7.08E-04
   10    -272.1470222853      1.93E-04
   11    -272.1476299575      7.74E-05
   12    -272.1477908574      3.72E-05
   13    -272.1478558025      1.09E-05
   14    -272.1478719979      4.42E-06
   15    -272.1478766805      2.25E-06
   16    -272.1478778211      6.95E-07
   17    -272.1478779352      2.81E-07
   18    -272.1478779501      8.55E-08
   19    -272.1478779537      4.22E-08
   20    -272.1478779550      2.85E-08
   21    -272.1478779558      1.68E-08
   22    -272.1478779559      5.48E-09 Convergence criterion met
 ---------------------------------------
 <S^2> = 0.7739
 SCF time:  CPU 1115.22 s  wall 1755.29 s
 SCF   energy in the final basis set = -272.1478779559
 Total energy in the final basis set = -272.1478779559
 Analysis of SCF Wavefunction
 
 --------------------------------------------------------------
                    Orbital Energies (a.u.)
 --------------------------------------------------------------
 
 Alpha MOs
 -- Occupied --
-19.566 -10.545 -10.513 -10.502 -10.496 -10.492  -1.137  -0.905
 -0.818  -0.770  -0.713  -0.645  -0.598  -0.562  -0.524  -0.498
 -0.491  -0.479  -0.474  -0.429  -0.422  -0.413  -0.363  -0.359
 -0.247
 -- Virtual --
 -0.027  -0.018  -0.010  -0.005   0.007   0.015   0.020   0.022
  0.030   0.035   0.042   0.054   0.068   0.072   0.082   0.092
  0.098   0.105   0.111   0.117   0.128   0.131   0.133   0.134
  0.138   0.138   0.155   0.161   0.168   0.179   0.181   0.197
  0.207   0.213   0.216   0.223   0.232   0.239   0.249   0.253
  0.270   0.278   0.281   0.315   0.317   0.324   0.337   0.353
  0.369   0.380   0.402   0.429   0.442   0.462   0.467   0.473
  0.504   0.511   0.523   0.537   0.545   0.562   0.566   0.576
  0.583   0.594   0.595   0.599   0.603   0.617   0.625   0.632
  0.648   0.665   0.669   0.677   0.690   0.713   0.720   0.730
  0.741   0.757   0.770   0.791   0.803   0.814   0.847   0.873
  0.883   0.905   0.913   0.940   0.969   0.983   0.990   1.001
  1.028   1.038   1.063   1.081   1.088   1.100   1.108   1.134
  1.146   1.175   1.182   1.194   1.204   1.215   1.226   1.244
  1.248   1.267   1.299   1.300   1.316   1.332   1.342   1.359
  1.368   1.380   1.406   1.408   1.429   1.433   1.445   1.449
  1.450   1.483   1.496   1.507   1.517   1.545   1.549   1.573
  1.582   1.615   1.654   1.695   1.710   1.754   1.767   1.871
  1.934   2.064   2.095   2.257   2.330   2.362   2.422   2.447
  2.466   2.494   2.531   2.584   2.599   2.622   2.701   2.716
  2.733   2.768   2.780   2.796   2.816   2.829   2.844   2.859
  2.889   2.899   2.908   2.913   2.941   2.957   2.971   3.024
  3.033   3.056   3.067   3.072   3.086   3.105   3.124   3.136
  3.148   3.162   3.188   3.204   3.222   3.258   3.264   3.288
  3.312   3.316   3.344   3.352   3.384   3.389   3.421   3.446
  3.461   3.487   3.506   3.535   3.540   3.560   3.604   3.645
  3.660   3.675   3.705   3.724   3.740   3.748   3.785   3.798
  3.830   3.845   3.869   3.878   3.921   3.945   3.945   3.961
  3.990   4.010   4.061   4.067   4.069   4.083   4.116   4.129
  4.151   4.172   4.188   4.197   4.211   4.237   4.258   4.272
  4.278   4.304   4.344   4.350   4.409   4.415   4.452   4.490
  4.539   4.566   4.608   4.637   4.641   4.714   4.716   4.953
  5.048   5.061   5.134   5.159   5.190   5.221   5.276   5.347
  5.438   5.440   5.469   5.494   5.500   5.506   5.532   5.597
  5.678   5.771   5.838   5.877   6.445   6.951   7.130   7.156
  7.187   7.479   7.600  23.943  24.066  24.140  24.267  24.572
 49.794
 
 Beta MOs
 -- Occupied --
-19.566 -10.545 -10.516 -10.496 -10.486 -10.486  -1.137  -0.902
 -0.815  -0.747  -0.710  -0.643  -0.597  -0.561  -0.523  -0.497
 -0.488  -0.473  -0.469  -0.429  -0.419  -0.412  -0.363  -0.323
 -- Virtual --
 -0.047  -0.028  -0.017  -0.012  -0.005   0.003   0.009   0.016
  0.019   0.026   0.035   0.040   0.049   0.066   0.073   0.079
  0.087   0.098   0.102   0.108   0.115   0.124   0.126   0.128
  0.132   0.135   0.136   0.151   0.158   0.166   0.177   0.179
  0.198   0.207   0.213   0.216   0.225   0.234   0.244   0.248
  0.252   0.271   0.279   0.279   0.315   0.316   0.324   0.338
  0.354   0.368   0.382   0.402   0.430   0.442   0.463   0.468
  0.474   0.508   0.513   0.528   0.547   0.559   0.567   0.573
  0.580   0.586   0.600   0.603   0.608   0.614   0.628   0.630
  0.640   0.652   0.669   0.676   0.685   0.698   0.717   0.721
  0.736   0.744   0.759   0.773   0.793   0.809   0.818   0.854
  0.876   0.886   0.908   0.916   0.945   0.971   0.988   0.994
  1.007   1.031   1.044   1.070   1.087   1.093   1.104   1.111
  1.140   1.147   1.178   1.190   1.197   1.209   1.217   1.234
  1.252   1.254   1.271   1.301   1.307   1.324   1.334   1.355
  1.367   1.373   1.386   1.411   1.415   1.433   1.436   1.453
  1.455   1.466   1.485   1.498   1.509   1.527   1.548   1.552
  1.573   1.583   1.633   1.656   1.701   1.727   1.754   1.766
  1.870   1.933   2.064   2.095   2.258   2.331   2.384   2.435
  2.474   2.494   2.512   2.548   2.589   2.603   2.641   2.703
  2.722   2.756   2.764   2.788   2.813   2.835   2.854   2.864
  2.892   2.906   2.910   2.949   2.968   2.973   2.995   3.012
  3.042   3.060   3.074   3.095   3.104   3.118   3.129   3.145
  3.151   3.159   3.196   3.211   3.246   3.255   3.286   3.295
  3.307   3.333   3.346   3.358   3.378   3.390   3.419   3.440
  3.475   3.482   3.528   3.543   3.553   3.569   3.580   3.620
  3.652   3.663   3.678   3.705   3.727   3.744   3.753   3.788
  3.808   3.836   3.846   3.881   3.903   3.924   3.943   3.953
  3.967   3.994   4.011   4.064   4.073   4.088   4.096   4.120
  4.129   4.163   4.174   4.205   4.218   4.243   4.261   4.275
  4.281   4.286   4.310   4.350   4.365   4.407   4.415   4.455
  4.498   4.542   4.557   4.634   4.647   4.659   4.716   4.721
  4.946   5.086   5.134   5.159   5.173   5.198   5.222   5.285
  5.347   5.452   5.494   5.500   5.527   5.532   5.561   5.564
  5.606   5.679   5.772   5.842   5.882   6.445   6.951   7.130
  7.156   7.187   7.478   7.600  23.943  24.081  24.140  24.267
 24.576  49.794
 --------------------------------------------------------------
 
          Ground-State Mulliken Net Atomic Charges

     Atom                 Charge (a.u.)    Spin (a.u.)
  --------------------------------------------------------
      1 C                     0.137242      -0.270358
      2 H                     0.356259       0.017366
      3 C                    -0.712116       0.439260
      4 H                     0.213161      -0.022954
      5 H                     0.180960      -0.019808
      6 C                    -0.425004       0.034369
      7 H                     0.254086       0.003248
      8 H                     0.214225       0.000017
      9 C                    -0.616988       0.001122
     10 H                     0.206866       0.001562
     11 H                     0.212537      -0.002602
     12 O                    -0.319301      -0.000986
     13 H                     0.272625      -0.000131
     14 C                    -0.490320       0.907097
     15 H                     0.178492      -0.029717
     16 H                     0.158694      -0.025720
     17 H                     0.178582      -0.031766
  --------------------------------------------------------
  Sum of atomic charges =     0.000000
  Sum of spin   charges =     1.000000

 -----------------------------------------------------------------
                    Cartesian Multipole Moments
 -----------------------------------------------------------------
    Charge (ESU x 10^10)
                 0.0000
    Dipole Moment (Debye)
         X       0.2375      Y      -1.0776      Z      -0.9856
       Tot       1.4795
    Quadrupole Moments (Debye-Ang)
        XX     -37.4792     XY      -2.6173     YY     -42.3077
        XZ      -1.8981     YZ      -1.1750     ZZ     -39.4644
    Octopole Moments (Debye-Ang^2)
       XXX      42.7608    XXY     -15.7668    XYY       2.6857
       YYY       1.1832    XXZ     -10.8019    XYZ      -1.0406
       YYZ       0.5582    XZZ       2.7184    YZZ       0.4771
       ZZZ       0.3849
    Hexadecapole Moments (Debye-Ang^3)
      XXXX    -745.6747   XXXY       0.4914   XXYY    -205.8568
      XYYY      14.8044   YYYY    -288.3863   XXXZ     -11.5274
      XXYZ      -0.7274   XYYZ       2.8574   YYYZ      -6.3289
      XXZZ    -164.6763   XYZZ       0.8979   YYZZ     -61.4511
      XZZZ      -0.8461   YZZZ      -1.1134   ZZZZ     -91.2173
 -----------------------------------------------------------------
 Calculating analytic gradient of the SCF energy
 Gradient of Coulomb and Exchange Energy
            1           2           3           4           5           6
    1   0.2658114   1.1096070   4.6871331  -0.8865881   3.1631046   0.1347518
    2  -0.9243281  -0.7835173   5.8876577   1.4977157   2.7013286   0.4078666
    3   2.3286948   4.5311569  -2.9522341  -3.8308498   1.7582424   1.2097854
            7           8           9          10          11          12
    1   0.1036105   0.0241688  -2.3023842  -0.3114029  -0.5872568  -6.4893514
    2  -0.3682435  -4.5736544  -0.5349953   0.5269331   4.1526491  -5.3977692
    3  -4.5065210   0.7853517   0.0087177   4.2786582  -1.1730109  -3.2386220
           13          14          15          16          17
    1  -4.4917030   2.9441874   0.0078905  -0.7312120   3.3596334
    2   1.2452706  -1.3210619  -0.9600755  -2.8743788   1.3186026
    3   0.9986859   0.2698010  -3.5548158   2.1751913   0.9117682
rm_l_5_21629: (1851.976562) net_send: could not write to fd=5, errno = 32
rm_l_1_21549: (1852.550781) net_send: could not write to fd=5, errno = 32
rm_l_7_21669: (1851.695312) net_send: could not write to fd=5, errno = 32
rm_l_6_21649: (1851.839844) net_send: could not write to fd=5, errno = 32
p0_21527:  p4_error: net_recv read:  probable EOF on socket: 1

 Q-Chem fatal error occurred in module /home/scratch/svnadmin/8580_ilyak/qchem/forms2/ShlPairs.C, line 54:

 In ~ShlPairs:  s2DFT != 0.

cleanup process ... done

Running Job 2 of 2 iC5H11O-5_betasc_CH3m08c.in
qchem iC5H11O-5_betasc_CH3m08c.in_21343.1 /scratch/edames/qchem21343/ 8
/opt/qchem/bin/mpi/mpirun_qchem -machinefile /tmp/318262.1.normal1/hostfile -np 8 /opt/qchem/exe/qcprog.exe iC5H11O-5_betasc_CH3m08c.in_21343.1 /scratch/edames/qchem21343/

Process 3 of 8 is on node03.cluster - thread support 0
Process 6 of 8 is on node03.cluster - thread support 0
Process 5 of 8 is on node03.cluster - thread support 0
Process 4 of 8 is on node03.cluster - thread support 0
Process 0 of 8 is on node03.cluster - thread support 0
Process 2 of 8 is on node03.cluster - thread support 0
Process 1 of 8 is on node03.cluster - thread support 0
Process 7 of 8 is on node03.cluster - thread support 0
initial socket setup ...start
initial socket setup ...done 
now start server 0 ... 
set process cleaner
set process cleaner
set process cleaner
set process cleaner
set process cleaner
set process cleaner
set process cleaner
                  Welcome to Q-Chem
     A Quantum Leap Into The Future Of Chemistry


 Q-Chem 4.2, Q-Chem, Inc., Pleasanton, CA (2014).

 Y. Shao,  Z. Gan,  E. Epifanovsky,  A. T. B. Gilbert,  M. Wormit,  
 J. Kussmann,  A. W. Lange,  A. Behn,  J. Deng,  X. Feng,  D. Ghosh,  
 M. Goldey,  P. R. Horn,  L. D. Jacobson,  I. Kaliman,  R. Z. Khaliullin,  
 T. Kus,  A. Landau,  J. Liu,  E. I. Proynov,  Y. M. Rhee,  R. M. Richard,  
 M. A. Rohrdanz,  R. P. Steele,  E. J. Sundstrom,  H. L. Woodcock III,  
 P. M. Zimmerman,  D. Zuev,  B. Albrecht,  E. Alguire,  B. Austin,  
 G. J. O. Beran,  Y. A. Bernard,  E. Berquist,  K. Brandhorst,  
 K. B. Bravaya,  S. T. Brown,  D. Casanova,  C.-M. Chang,  Y. Chen,  
 S. H. Chien,  K. D. Closser,  D. L. Crittenden,  M. Diedenhofen,  
 R. A. DiStasio Jr.,  H. Do,  A. D. Dutoi,  R. G. Edgar,  S. Fatehi,  
 L. Fusti-Molnar,  A. Ghysels,  A. Golubeva-Zadorozhnaya,  J. Gomes,  
 M. W. D. Hanson-Heine,  P. H. P. Harbach,  A. W. Hauser,  E. G. Hohenstein,  
 Z. C. Holden,  T.-C. Jagau,  H. Ji,  B. Kaduk,  K. Khistyaev,  Jaehoon Kim,  
 Jihan Kim,  R. A. King,  P. Klunzinger,  D. Kosenkov,  T. Kowalczyk,  
 C. M. Krauter,  K. U. Lao,  A. Laurent,  K. V. Lawler,  S. V. Levchenko,  
 C. Y. Lin,  F. Liu,  E. Livshits,  R. C. Lochan,  A. Luenser,  P. Manohar,  
 S. F. Manzer,  S.-P. Mao,  N. Mardirossian,  A. V. Marenich,  S. A. Maurer,  
 N. J. Mayhall,  C. M. Oana,  R. Olivares-Amaya,  D. P. O'Neill,  
 J. A. Parkhill,  T. M. Perrine,  R. Peverati,  P. A. Pieniazek,  A. Prociuk,  
 D. R. Rehn,  E. Rosta,  N. J. Russ,  N. Sergueev,  S. M. Sharada,  
 S. Sharma,  D. W. Small,  A. Sodt,  T. Stein,  D. Stuck,  Y.-C. Su,  
 A. J. W. Thom,  T. Tsuchimochi,  L. Vogt,  O. Vydrov,  T. Wang,  
 M. A. Watson,  J. Wenzel,  A. White,  C. F. Williams,  V. Vanovschi,  
 S. Yeganeh,  S. R. Yost,  Z.-Q. You,  I. Y. Zhang,  X. Zhang,  Y. Zhao,  
 B. R. Brooks,  G. K. L. Chan,  D. M. Chipman,  C. J. Cramer,  
 W. A. Goddard III,  M. S. Gordon,  W. J. Hehre,  A. Klamt,  
 H. F. Schaefer III,  M. W. Schmidt,  C. D. Sherrill,  D. G. Truhlar,  
 A. Warshel,  X. Xu,  A. Aspuru-Guzik,  R. Baer,  A. T. Bell,  N. A. Besley,  
 J.-D. Chai,  A. Dreuw,  B. D. Dunietz,  T. R. Furlani,  S. R. Gwaltney,  
 C.-P. Hsu,  Y. Jung,  J. Kong,  D. S. Lambrecht,  W. Liang,  C. Ochsenfeld,  
 V. A. Rassolov,  L. V. Slipchenko,  J. E. Subotnik,  T. Van Voorhis,  
 J. M. Herbert,  A. I. Krylov,  P. M. W. Gill,  M. Head-Gordon

 Contributors to earlier versions of Q-Chem not listed above: 
 R. D. Adamson,  J. Baker,  E. F. C. Byrd,  A. K. Chakraborty,  C.-L. Cheng,  
 H. Dachsel,  R. J. Doerksen,  G. Hawkins,  A. Heyden,  S. Hirata,  
 G. Kedziora,  F. J. Keil,  C. Kelley,  P. P. Korambath,  W. Kurlancheek,  
 A. M. Lee,  M. S. Lee,  D. Liotard,  I. Lotan,  P. E. Maslen,  N. Nair,  
 D. Neuhauser,  R. Olson,  B. Peters,  J. Ritchie,  N. E. Schultz,  
 N. Shenvi,  A. C. Simmonett,  K. S. Thanthiriwatte,  Q. Wu,  W. Zhang

 Q-Chem 4.2.0 for Intel X86 Linux

 Parts of Q-Chem use Armadillo 4.100.2 (Dirt Cruiser).
 http://arma.sourceforge.net/

 Q-Chem begins on Fri Jun 27 15:45:34 2014  

Host: 
0

     Scratch files written to /scratch/edames/qchem21343.0//
 May2514 8580_ilyak 4150   
 Parallel job on  8  processors
Processing $rem in /opt/qchem/config/preferences.
 MEM_TOTAL  2000 

 Q-Chem warning in module /home/scratch/svnadmin/8580_ilyak/qchem/libgen/rem.C, line 2637:

 !!Desired Analytical derivatives not available.

 2-order derivative to be evaluated numerically with 1-order analytical derivatives

 Q-Chem warning in module /home/scratch/svnadmin/8580_ilyak/qchem/libgen/rem.C, line 2644:

 !!Parallel diagonalization not available.

Warning: disabling incdft.
 Q-Chem warning in module /home/scratch/svnadmin/8580_ilyak/qchem/forms1/BasisType.C, line 1209:

 Setting pure/cartesian flag to 2111 for general basis


Finally everything over in PARseQInput

--------------------------------------------------------------
User input:
--------------------------------------------------------------

$molecule
READ
$end

$rem
JOBTYPE Freq
XC_GRID 000075000434
EXCHANGE M08SO
BASIS gen
GUI=2
SCF_GUESS READ
$end

$basis
H  0
S  3 1.00
3.386500000000E+01 2.549380000000E-02
5.094790000000E+00 1.903730000000E-01
1.158790000000E+00 8.521610000000E-01
S  1 1.00
3.258400000000E-01 1.000000000000E+00
S  1 1.00
1.027410000000E-01 1.000000000000E+00
S  1 1.00
3.600000000000E-02 1.000000000000E+00
P  1 1.00
1.500000000000E+00 1.000000000000E+00
P  1 1.00
3.750000000000E-01 1.000000000000E+00
****
C 0
S  6 1.00
4.563240000000E+03 1.966650000000E-03
6.820240000000E+02 1.523060000000E-02
1.549730000000E+02 7.612690000000E-02
4.445530000000E+01 2.608010000000E-01
1.302900000000E+01 6.164620000000E-01
1.827730000000E+00 2.210060000000E-01
S  3 1.00
2.096420000000E+01 1.146600000000E-01
4.803310000000E+00 9.199990000000E-01
1.459330000000E+00 -3.030680000000E-03
S  1 1.00
4.834560000000E-01 1.000000000000E+00
S  1 1.00
1.455850000000E-01 1.000000000000E+00
S  1 1.00
4.380000000000E-02 1.000000000000E+00
P  3 1.00
2.096420000000E+01 4.024870000000E-02
4.803310000000E+00 2.375940000000E-01
1.459330000000E+00 8.158540000000E-01
P  1 1.00
4.834560000000E-01 1.000000000000E+00
P  1 1.00
1.455850000000E-01 1.000000000000E+00
P  1 1.00
4.380000000000E-02 1.000000000000E+00
D  1 1.00
1.252000000000E+00 1.000000000000E+00
D  1 1.00
3.130000000000E-01 1.000000000000E+00
F  1 1.00
8.000000000000E-01 1.000000000000E+00
****
O  0
S  6 1.00
8.588500000000E+03 1.895150000000E-03
1.297230000000E+03 1.438590000000E-02
2.992960000000E+02 7.073200000000E-02
8.737710000000E+01 2.400010000000E-01
2.567890000000E+01 5.947970000000E-01
3.740040000000E+00 2.808020000000E-01
S  3 1.00
4.211750000000E+01 1.138890000000E-01
9.628370000000E+00 9.208110000000E-01
2.853320000000E+00 -3.274470000000E-03
S  1 1.00
9.056610000000E-01 1.000000000000E+00
S  1 1.00
2.556110000000E-01 1.000000000000E+00
S  1 1.00
8.450000000000E-02 1.000000000000E+00
P  3 1.00
4.211750000000E+01 3.651140000000E-02
9.628370000000E+00 2.371530000000E-01
2.853320000000E+00 8.197020000000E-01
P  1 1.00
9.056610000000E-01 1.000000000000E+00
P  1 1.00
2.556110000000E-01 1.000000000000E+00
P  1 1.00
8.450000000000E-02 1.000000000000E+00
D  1 1.00
2.584000000000E+00 1.000000000000E+00
D  1 1.00
6.460000000000E-01 1.000000000000E+00
F  1 1.00
1.400000000000E+00 1.000000000000E+00
****
--------------------------------------------------------------
 ----------------------------------------------------------------
             Standard Nuclear Orientation (Angstroms)
    I     Atom           X                Y                Z
 ----------------------------------------------------------------
    1      C      -0.8902728643    -0.4025582259    -0.3590799720
    2      H      -1.0973732035    -0.2489961626    -1.4151596054
    3      C      -1.3858342913    -1.5258084233     0.2287284477
    4      H      -1.1092041609    -1.7986005251     1.2423878466
    5      H      -2.1382655077    -2.1363064516    -0.2566421466
    6      C       0.3167785701     0.3259789917     0.1886505680
    7      H       0.3038791525     0.3153072084     1.2826305574
    8      H       0.3212200292     1.3729294997    -0.1236877086
    9      C       1.6248673273    -0.3052622627    -0.2859411890
   10      H       1.6369666569    -0.3491704693    -1.3852912680
   11      H       1.6946759301    -1.3349929920     0.0905470753
   12      O       2.6926088529     0.5012352625     0.2067795558
   13      H       3.5214080836     0.1084744468    -0.0812315455
   14      C      -2.4742301092     1.2306936021     0.0281235878
   15      H      -2.3244992843     1.3873416200     1.0890237641
   16      H      -2.1083992671     2.0052041278    -0.6363253358
   17      H      -3.3891310474     0.7306655071    -0.2633767354
 ----------------------------------------------------------------
 Molecular Point Group                 C1    NOp =  1
 Largest Abelian Subgroup              C1    NOp =  1
 Nuclear Repulsion Energy =   234.5862752403 hartrees
 There are       25 alpha and       24 beta electrons
 Requested basis set is non-standard
 There are 138 shells and 314 basis functions

Total QAlloc Memory Limit   2000 MB
Mega-Array Size        77 MB
MEM_STATIC part        62 MB
 A cutoff of  1.0D-11 yielded   8768 shell pairs
 There are     44854 function pairs (     53796 Cartesian)
 Smallest overlap matrix eigenvalue = 2.10E-05
 Guess MOs from SCF MO coefficient file
Reading MOs from coefficient file
Reading MOs from coefficient file
 An unrestricted hybrid HF-DFT SCF calculation will be
 performed using Pulay DIIS extrapolation
 Exchange:     0.5679 Hartree-Fock + 1.0000 M08SO
 SCF converges when DIIS error is below 1.0E-08
 ---------------------------------------
  Cycle       Energy         DIIS Error
 ---------------------------------------
    1    -272.1478779561      1.63E-09
    2    -272.1478779562      9.19E-10 Convergence criterion met
 ---------------------------------------
 <S^2> = 0.7739
 SCF time:  CPU 109.14 s  wall 172.57 s
 SCF   energy in the final basis set = -272.1478779562
 Total energy in the final basis set = -272.1478779562
 Analysis of SCF Wavefunction
 
 --------------------------------------------------------------
                    Orbital Energies (a.u.)
 --------------------------------------------------------------
 
 Alpha MOs
 -- Occupied --
-19.566 -10.545 -10.513 -10.502 -10.496 -10.492  -1.137  -0.905
 -0.818  -0.770  -0.713  -0.645  -0.598  -0.562  -0.524  -0.498
 -0.491  -0.479  -0.474  -0.429  -0.422  -0.413  -0.363  -0.359
 -0.247
 -- Virtual --
 -0.027  -0.018  -0.010  -0.005   0.007   0.015   0.020   0.022
  0.030   0.035   0.042   0.054   0.068   0.072   0.082   0.092
  0.098   0.105   0.111   0.117   0.128   0.131   0.133   0.134
  0.138   0.138   0.155   0.161   0.168   0.179   0.181   0.197
  0.207   0.213   0.216   0.223   0.232   0.239   0.249   0.253
  0.270   0.278   0.281   0.315   0.317   0.324   0.337   0.353
  0.369   0.380   0.402   0.429   0.442   0.462   0.467   0.473
  0.504   0.511   0.523   0.537   0.545   0.562   0.566   0.576
  0.583   0.594   0.595   0.599   0.603   0.617   0.625   0.632
  0.648   0.665   0.669   0.677   0.690   0.713   0.720   0.730
  0.741   0.757   0.770   0.791   0.803   0.814   0.847   0.873
  0.883   0.905   0.913   0.940   0.969   0.983   0.990   1.001
  1.028   1.038   1.063   1.081   1.088   1.100   1.108   1.134
  1.146   1.175   1.182   1.194   1.204   1.215   1.226   1.244
  1.248   1.267   1.299   1.300   1.316   1.332   1.342   1.359
  1.368   1.380   1.406   1.408   1.429   1.433   1.445   1.449
  1.450   1.483   1.496   1.507   1.517   1.545   1.549   1.573
  1.582   1.615   1.654   1.695   1.710   1.754   1.767   1.871
  1.934   2.064   2.095   2.257   2.330   2.362   2.422   2.447
  2.466   2.494   2.531   2.584   2.599   2.622   2.701   2.716
  2.733   2.768   2.780   2.796   2.816   2.829   2.844   2.859
  2.889   2.899   2.908   2.913   2.941   2.957   2.971   3.024
  3.033   3.056   3.067   3.072   3.086   3.105   3.124   3.136
  3.148   3.162   3.188   3.204   3.222   3.258   3.264   3.288
  3.312   3.316   3.344   3.352   3.384   3.389   3.421   3.446
  3.461   3.487   3.506   3.535   3.540   3.560   3.604   3.645
  3.660   3.675   3.705   3.724   3.740   3.748   3.785   3.798
  3.830   3.845   3.869   3.878   3.921   3.945   3.945   3.961
  3.990   4.010   4.061   4.067   4.069   4.083   4.116   4.129
  4.151   4.172   4.188   4.197   4.211   4.237   4.258   4.272
  4.278   4.304   4.344   4.350   4.409   4.415   4.452   4.490
  4.539   4.566   4.608   4.637   4.641   4.714   4.716   4.953
  5.048   5.061   5.134   5.159   5.190   5.221   5.276   5.347
  5.438   5.440   5.469   5.494   5.500   5.506   5.532   5.597
  5.678   5.771   5.838   5.877   6.445   6.951   7.130   7.156
  7.187   7.479   7.600  23.943  24.066  24.140  24.267  24.572
 49.794
 
 Beta MOs
 -- Occupied --
-19.566 -10.545 -10.516 -10.496 -10.486 -10.486  -1.137  -0.902
 -0.815  -0.747  -0.710  -0.643  -0.597  -0.561  -0.523  -0.497
 -0.488  -0.473  -0.469  -0.429  -0.419  -0.412  -0.363  -0.323
 -- Virtual --
 -0.047  -0.028  -0.017  -0.012  -0.005   0.003   0.009   0.016
  0.019   0.026   0.035   0.040   0.049   0.066   0.073   0.079
  0.087   0.098   0.102   0.108   0.115   0.124   0.126   0.128
  0.132   0.135   0.136   0.151   0.158   0.166   0.177   0.179
  0.198   0.207   0.213   0.216   0.225   0.234   0.244   0.248
  0.252   0.271   0.279   0.279   0.315   0.316   0.324   0.338
  0.354   0.368   0.382   0.402   0.430   0.442   0.463   0.468
  0.474   0.508   0.513   0.528   0.547   0.559   0.567   0.573
  0.580   0.586   0.600   0.603   0.608   0.614   0.628   0.630
  0.640   0.652   0.669   0.676   0.685   0.698   0.717   0.721
  0.736   0.744   0.759   0.773   0.793   0.809   0.818   0.854
  0.876   0.886   0.908   0.916   0.945   0.971   0.988   0.994
  1.007   1.031   1.044   1.070   1.087   1.093   1.104   1.111
  1.140   1.147   1.178   1.190   1.197   1.209   1.217   1.234
  1.252   1.254   1.271   1.301   1.307   1.324   1.334   1.355
  1.367   1.373   1.386   1.411   1.415   1.433   1.436   1.453
  1.455   1.466   1.485   1.498   1.509   1.527   1.548   1.552
  1.573   1.583   1.633   1.656   1.701   1.727   1.754   1.766
  1.870   1.933   2.064   2.095   2.258   2.331   2.384   2.435
  2.474   2.494   2.512   2.548   2.589   2.603   2.641   2.703
  2.722   2.756   2.764   2.788   2.813   2.835   2.854   2.864
  2.892   2.906   2.910   2.949   2.968   2.973   2.995   3.012
  3.042   3.060   3.074   3.095   3.104   3.118   3.129   3.145
  3.151   3.159   3.196   3.211   3.246   3.255   3.286   3.295
  3.307   3.333   3.346   3.358   3.378   3.390   3.419   3.440
  3.475   3.482   3.528   3.543   3.553   3.569   3.580   3.620
  3.652   3.663   3.678   3.705   3.727   3.744   3.753   3.788
  3.808   3.836   3.846   3.881   3.903   3.924   3.943   3.953
  3.967   3.994   4.011   4.064   4.073   4.088   4.096   4.120
  4.129   4.163   4.174   4.205   4.218   4.243   4.261   4.275
  4.281   4.286   4.310   4.350   4.365   4.407   4.415   4.455
  4.498   4.542   4.557   4.634   4.647   4.659   4.716   4.721
  4.946   5.086   5.134   5.159   5.173   5.198   5.222   5.285
  5.347   5.452   5.494   5.500   5.527   5.532   5.561   5.564
  5.606   5.679   5.772   5.842   5.882   6.445   6.951   7.130
  7.156   7.187   7.478   7.600  23.943  24.081  24.140  24.267
 24.576  49.794
 --------------------------------------------------------------
 
          Ground-State Mulliken Net Atomic Charges

     Atom                 Charge (a.u.)    Spin (a.u.)
  --------------------------------------------------------
      1 C                     0.137241      -0.270358
      2 H                     0.356259       0.017366
      3 C                    -0.712116       0.439260
      4 H                     0.213161      -0.022954
      5 H                     0.180960      -0.019808
      6 C                    -0.425003       0.034370
      7 H                     0.254086       0.003248
      8 H                     0.214225       0.000017
      9 C                    -0.616988       0.001121
     10 H                     0.206866       0.001562
     11 H                     0.212537      -0.002602
     12 O                    -0.319301      -0.000986
     13 H                     0.272625      -0.000131
     14 C                    -0.490320       0.907096
     15 H                     0.178492      -0.029717
     16 H                     0.158694      -0.025720
     17 H                     0.178582      -0.031766
  --------------------------------------------------------
  Sum of atomic charges =     0.000000
  Sum of spin   charges =     1.000000

 -----------------------------------------------------------------
                    Cartesian Multipole Moments
 -----------------------------------------------------------------
    Charge (ESU x 10^10)
                 0.0000
    Dipole Moment (Debye)
         X       0.2375      Y      -1.0776      Z      -0.9856
       Tot       1.4795
    Quadrupole Moments (Debye-Ang)
        XX     -37.4792     XY      -2.6173     YY     -42.3077
        XZ      -1.8981     YZ      -1.1750     ZZ     -39.4644
    Octopole Moments (Debye-Ang^2)
       XXX      42.7608    XXY     -15.7668    XYY       2.6857
       YYY       1.1832    XXZ     -10.8019    XYZ      -1.0406
       YYZ       0.5582    XZZ       2.7184    YZZ       0.4771
       ZZZ       0.3849
    Hexadecapole Moments (Debye-Ang^3)
      XXXX    -745.6747   XXXY       0.4914   XXYY    -205.8568
      XYYY      14.8044   YYYY    -288.3863   XXXZ     -11.5274
      XXYZ      -0.7274   XYYZ       2.8574   YYYZ      -6.3289
      XXZZ    -164.6763   XYZZ       0.8979   YYZZ     -61.4511
      XZZZ      -0.8461   YZZZ      -1.1134   ZZZZ     -91.2173
 -----------------------------------------------------------------
 Calculating analytic gradient of the SCF energy
 Gradient of Coulomb and Exchange Energy
            1           2           3           4           5           6
    1   0.2658094   1.1096072   4.6871330  -0.8865883   3.1631043   0.1347535
    2  -0.9243252  -0.7835168   5.8876533   1.4977159   2.7013287   0.4078680
    3   2.3286933   4.5311568  -2.9522323  -3.8308502   1.7582426   1.2097846
            7           8           9          10          11          12
    1   0.1036113   0.0241692  -2.3023864  -0.3114026  -0.5872570  -6.4893515
    2  -0.3682431  -4.5736550  -0.5349939   0.5269331   4.1526494  -5.3977698
    3  -4.5065213   0.7853517   0.0087197   4.2786585  -1.1730112  -3.2386225
           13          14          15          16          17
    1  -4.4917033   2.9441917   0.0078896  -0.7312129   3.3596326
    2   1.2452708  -1.3210665  -0.9600745  -2.8743778   1.3186032
    3   0.9986862   0.2697994  -3.5548153   2.1751915   0.9117685
 Gradient of SCF Energy
            1           2           3           4           5           6
    1  -0.0054445   0.0021438  -0.0021612  -0.0015644   0.0016296   0.0018051
    2   0.0141962  -0.0016520  -0.0089433   0.0003271   0.0013624  -0.0001730
    3  -0.0018434   0.0027766   0.0031402  -0.0028295   0.0016754  -0.0006827
            7           8           9          10          11          12
    1   0.0003795   0.0004555   0.0013856  -0.0005758  -0.0003601   0.0034619
    2   0.0002830  -0.0035521  -0.0035316  -0.0004173   0.0016660   0.0049042
    3  -0.0032093   0.0008941  -0.0020472   0.0018236  -0.0012020   0.0032898
           13          14          15          16          17
    1  -0.0023615   0.0037010  -0.0018253  -0.0022059   0.0015366
    2  -0.0015054  -0.0048722   0.0006844  -0.0013492   0.0025728
    3  -0.0010006  -0.0010059  -0.0030760   0.0022400   0.0010568
 Max gradient component =       1.420E-02
 RMS gradient           =       3.272E-03
 Gradient time:  CPU 67.50 s  wall 99.00 s
 ######################################################
 ######################################################
 # Starting finite difference calculation for IDERIV  #
 Finite diff step size: 1.89e-03 a.u.
 ----------------------------------------------------------------
             Standard Nuclear Orientation (Angstroms)
    I     Atom           X                Y                Z
 ----------------------------------------------------------------
    1      C      -0.8892728643    -0.4025582259    -0.3590799720
    2      H      -1.0973732035    -0.2489961626    -1.4151596054
    3      C      -1.3858342913    -1.5258084233     0.2287284477
    4      H      -1.1092041609    -1.7986005251     1.2423878466
    5      H      -2.1382655077    -2.1363064516    -0.2566421466
    6      C       0.3167785701     0.3259789917     0.1886505680
    7      H       0.3038791525     0.3153072084     1.2826305574
    8      H       0.3212200292     1.3729294997    -0.1236877086
    9      C       1.6248673273    -0.3052622627    -0.2859411890
   10      H       1.6369666569    -0.3491704693    -1.3852912680
   11      H       1.6946759301    -1.3349929920     0.0905470753
   12      O       2.6926088529     0.5012352625     0.2067795558
   13      H       3.5214080836     0.1084744468    -0.0812315455
   14      C      -2.4742301092     1.2306936021     0.0281235878
   15      H      -2.3244992843     1.3873416200     1.0890237641
   16      H      -2.1083992671     2.0052041278    -0.6363253358
   17      H      -3.3891310474     0.7306655071    -0.2633767354
 ----------------------------------------------------------------
 Nuclear Repulsion Energy =   234.5913677773 hartrees
 There are       25 alpha and       24 beta electrons
 Requested basis set is non-standard
 There are 138 shells and 314 basis functions
 A cutoff of  1.0D-11 yielded   8768 shell pairs
 There are     44854 function pairs (     53796 Cartesian)
 Smallest overlap matrix eigenvalue = 2.10E-05
 Guess MOs from SCF MO coefficient file
Reading MOs from coefficient file
Reading MOs from coefficient file
 An unrestricted hybrid HF-DFT SCF calculation will be
 performed using Pulay DIIS extrapolation
 Exchange:     0.5679 Hartree-Fock + 1.0000 M08SO
 SCF converges when DIIS error is below 1.0E-08
 ---------------------------------------
  Cycle       Energy         DIIS Error
 ---------------------------------------
    1    -272.1477967037      1.80E-05
    2    -272.1478875571      1.77E-06
    3    -272.1478876047      1.25E-06
    4    -272.1478876269      3.17E-07
    5    -272.1478876325      1.82E-07
    6    -272.1478876369      1.26E-07
    7    -272.1478876402      7.14E-08
    8    -272.1478876423      2.41E-08
    9    -272.1478876430      1.07E-08
   10    -272.1478876431      3.65E-09 Convergence criterion met
 ---------------------------------------
 <S^2> = 0.7739
 SCF time:  CPU 501.91 s  wall 796.03 s
 SCF   energy in the final basis set = -272.1478876431
 Total energy in the final basis set = -272.1478876431
 Analysis of SCF Wavefunction
 
 --------------------------------------------------------------
                    Orbital Energies (a.u.)
 --------------------------------------------------------------
 
 Alpha MOs
 -- Occupied --
-19.566 -10.545 -10.513 -10.502 -10.496 -10.492  -1.137  -0.905
 -0.817  -0.770  -0.713  -0.645  -0.598  -0.562  -0.524  -0.498
 -0.491  -0.479  -0.474  -0.429  -0.422  -0.413  -0.363  -0.359
 -0.247
 -- Virtual --
 -0.027  -0.018  -0.010  -0.005   0.007   0.015   0.020   0.022
  0.030   0.035   0.042   0.054   0.068   0.072   0.082   0.092
  0.098   0.105   0.111   0.117   0.128   0.131   0.133   0.134
  0.138   0.138   0.155   0.161   0.168   0.179   0.181   0.197
  0.207   0.213   0.216   0.223   0.232   0.239   0.249   0.253
  0.270   0.278   0.281   0.315   0.317   0.324   0.337   0.353
  0.369   0.380   0.402   0.429   0.442   0.462   0.467   0.473
  0.504   0.511   0.524   0.537   0.545   0.562   0.566   0.576
  0.583   0.594   0.595   0.599   0.603   0.617   0.625   0.632
  0.648   0.665   0.669   0.677   0.690   0.713   0.720   0.730
  0.741   0.757   0.770   0.791   0.803   0.814   0.847   0.873
  0.883   0.905   0.913   0.940   0.969   0.983   0.990   1.001
  1.028   1.038   1.063   1.081   1.088   1.100   1.108   1.134
  1.146   1.175   1.182   1.194   1.204   1.215   1.226   1.244
  1.248   1.267   1.299   1.300   1.316   1.332   1.342   1.359
  1.368   1.380   1.406   1.409   1.429   1.433   1.445   1.449
  1.450   1.483   1.496   1.507   1.517   1.545   1.549   1.573
  1.582   1.615   1.654   1.695   1.710   1.754   1.767   1.871
  1.934   2.064   2.095   2.257   2.330   2.362   2.422   2.447
  2.466   2.494   2.531   2.584   2.599   2.622   2.701   2.716
  2.733   2.768   2.780   2.796   2.816   2.829   2.844   2.859
  2.889   2.899   2.908   2.913   2.941   2.957   2.971   3.024
  3.033   3.056   3.066   3.072   3.086   3.105   3.124   3.136
  3.148   3.162   3.188   3.204   3.222   3.258   3.264   3.288
  3.312   3.316   3.344   3.352   3.384   3.389   3.421   3.446
  3.461   3.487   3.506   3.535   3.540   3.560   3.604   3.645
  3.660   3.675   3.705   3.724   3.740   3.748   3.785   3.799
  3.830   3.845   3.869   3.878   3.921   3.945   3.945   3.961
  3.990   4.010   4.061   4.066   4.069   4.083   4.116   4.129
  4.151   4.172   4.188   4.197   4.211   4.236   4.258   4.272
  4.278   4.304   4.344   4.349   4.409   4.415   4.451   4.489
  4.539   4.566   4.608   4.637   4.641   4.715   4.717   4.953
  5.048   5.061   5.134   5.159   5.190   5.221   5.277   5.347
  5.438   5.440   5.469   5.494   5.500   5.506   5.532   5.598
  5.678   5.771   5.838   5.877   6.445   6.951   7.130   7.156
  7.187   7.479   7.600  23.944  24.066  24.140  24.268  24.571
 49.794
 
 Beta MOs
 -- Occupied --
-19.566 -10.545 -10.516 -10.496 -10.486 -10.486  -1.137  -0.902
 -0.815  -0.747  -0.710  -0.643  -0.597  -0.561  -0.523  -0.497
 -0.488  -0.473  -0.469  -0.429  -0.419  -0.412  -0.363  -0.323
 -- Virtual --
 -0.047  -0.028  -0.017  -0.012  -0.005   0.003   0.009   0.016
  0.019   0.026   0.035   0.040   0.049   0.066   0.073   0.079
  0.087   0.098   0.102   0.108   0.115   0.124   0.126   0.128
  0.132   0.135   0.136   0.151   0.158   0.166   0.177   0.179
  0.198   0.207   0.213   0.216   0.225   0.234   0.244   0.248
  0.252   0.271   0.279   0.279   0.315   0.316   0.324   0.338
  0.354   0.368   0.382   0.402   0.430   0.442   0.463   0.468
  0.474   0.508   0.513   0.528   0.547   0.559   0.567   0.573
  0.580   0.586   0.600   0.603   0.608   0.614   0.628   0.630
  0.640   0.652   0.669   0.676   0.685   0.698   0.717   0.721
  0.736   0.744   0.759   0.773   0.793   0.809   0.818   0.854
  0.876   0.886   0.908   0.916   0.945   0.971   0.988   0.994
  1.007   1.030   1.044   1.070   1.087   1.093   1.104   1.111
  1.140   1.147   1.178   1.190   1.197   1.209   1.217   1.234
  1.252   1.254   1.271   1.301   1.307   1.324   1.334   1.355
  1.367   1.373   1.386   1.411   1.415   1.433   1.436   1.453
  1.455   1.466   1.485   1.498   1.509   1.527   1.548   1.552
  1.573   1.583   1.633   1.656   1.701   1.727   1.754   1.766
  1.870   1.933   2.064   2.095   2.258   2.331   2.384   2.435
  2.474   2.494   2.512   2.548   2.589   2.603   2.641   2.703
  2.722   2.756   2.764   2.788   2.813   2.835   2.854   2.864
  2.892   2.906   2.910   2.949   2.969   2.974   2.995   3.012
  3.042   3.060   3.074   3.095   3.104   3.118   3.129   3.145
  3.151   3.159   3.196   3.211   3.246   3.255   3.285   3.295
  3.307   3.333   3.346   3.358   3.378   3.390   3.419   3.440
  3.475   3.482   3.528   3.543   3.553   3.569   3.580   3.620
  3.652   3.663   3.678   3.705   3.727   3.744   3.753   3.788
  3.808   3.836   3.846   3.881   3.903   3.924   3.943   3.954
  3.967   3.994   4.011   4.064   4.073   4.088   4.096   4.120
  4.129   4.163   4.174   4.205   4.218   4.242   4.261   4.275
  4.281   4.286   4.310   4.350   4.365   4.407   4.415   4.454
  4.498   4.542   4.557   4.634   4.647   4.659   4.717   4.721
  4.946   5.086   5.134   5.159   5.173   5.197   5.222   5.285
  5.347   5.452   5.494   5.500   5.528   5.532   5.560   5.564
  5.606   5.679   5.772   5.842   5.882   6.445   6.951   7.130
  7.156   7.187   7.478   7.600  23.944  24.081  24.140  24.267
 24.575  49.794
 --------------------------------------------------------------
 
          Ground-State Mulliken Net Atomic Charges

     Atom                 Charge (a.u.)    Spin (a.u.)
  --------------------------------------------------------
      1 C                     0.137368      -0.270270
      2 H                     0.356378       0.017339
      3 C                    -0.712214       0.438353
      4 H                     0.213167      -0.022896
      5 H                     0.181029      -0.019765
      6 C                    -0.425474       0.034346
      7 H                     0.254143       0.003251
      8 H                     0.214251       0.000018
      9 C                    -0.616977       0.001114
     10 H                     0.206958       0.001561
     11 H                     0.212556      -0.002601
     12 O                    -0.319360      -0.000987
     13 H                     0.272624      -0.000132
     14 C                    -0.490247       0.907964
     15 H                     0.178504      -0.029741
     16 H                     0.158723      -0.025748
     17 H                     0.178570      -0.031805
  --------------------------------------------------------
  Sum of atomic charges =     0.000000
  Sum of spin   charges =     1.000000

 -----------------------------------------------------------------
                    Cartesian Multipole Moments
 -----------------------------------------------------------------
    Charge (ESU x 10^10)
                 0.0000
    Dipole Moment (Debye)
         X       0.2386      Y      -1.0771      Z      -0.9854
       Tot       1.4792
    Quadrupole Moments (Debye-Ang)
        XX     -37.4804     XY      -2.6153     YY     -42.3094
        XZ      -1.8975     YZ      -1.1748     ZZ     -39.4653
    Octopole Moments (Debye-Ang^2)
       XXX      42.7526    XXY     -15.7746    XYY       2.6828
       YYY       1.1846    XXZ     -10.8038    XYZ      -1.0411
       YYZ       0.5583    XZZ       2.7154    YZZ       0.4792
       ZZZ       0.3867
    Hexadecapole Moments (Debye-Ang^3)
      XXXX    -745.6338   XXXY       0.5173   XXYY    -205.8492
      XYYY      14.8263   YYYY    -288.3994   XXXZ     -11.5208
      XXYZ      -0.7264   XYYZ       2.8607   YYYZ      -6.3281
      XXZZ    -164.6674   XYZZ       0.8997   YYZZ     -61.4560
      XZZZ      -0.8394   YZZZ      -1.1124   ZZZZ     -91.2224
 -----------------------------------------------------------------
 Calculating analytic gradient of the SCF energy
 Gradient of Coulomb and Exchange Energy
            1           2           3           4           5           6
    1   0.2501911   1.1148098   4.6957054  -0.8867469   3.1635691   0.1379966
    2  -0.9242487  -0.7833254   5.8849471   1.4974925   2.7019682   0.4057192
    3   2.3317341   4.5293475  -2.9512168  -3.8303806   1.7577255   1.2078930
            7           8           9          10          11          12
    1   0.1041428   0.0244127  -2.3018507  -0.3113086  -0.5875097  -6.4895993
    2  -0.3682687  -4.5746438  -0.5343948   0.5269859   4.1528365  -5.3981067
    3  -4.5068167   0.7848736   0.0086276   4.2788406  -1.1730877  -3.2388405
           13          14          15          16          17
    1  -4.4918291   2.9418960   0.0078845  -0.7312450   3.3594815
    2   1.2452762  -1.3169793  -0.9598809  -2.8738498   1.3184724
    3   0.9986932   0.2702078  -3.5544731   2.1751448   0.9117277
 Gradient of SCF Energy
            1           2           3           4           5           6
    1  -0.0048048   0.0020520  -0.0024292  -0.0015511   0.0016241   0.0015208
    2   0.0147956  -0.0016672  -0.0092794   0.0003372   0.0013246  -0.0002884
    3  -0.0017434   0.0026638   0.0032609  -0.0028388   0.0016967  -0.0007771
            7           8           9          10          11          12
    1   0.0003747   0.0004527   0.0013307  -0.0005723  -0.0003547   0.0034539
    2   0.0002841  -0.0035536  -0.0035568  -0.0004177   0.0016638   0.0049071
    3  -0.0032108   0.0008947  -0.0020616   0.0018228  -0.0012031   0.0032932
           13          14          15          16          17
    1  -0.0023629   0.0037810  -0.0018326  -0.0022101   0.0015275
    2  -0.0015067  -0.0049748   0.0006924  -0.0013450   0.0025847
    3  -0.0010013  -0.0010227  -0.0030749   0.0022418   0.0010598
 Max gradient component =       1.480E-02
 RMS gradient           =       3.327E-03
 Gradient time:  CPU 61.57 s  wall 100.20 s
 ----------------------------------------------------------------
             Standard Nuclear Orientation (Angstroms)
    I     Atom           X                Y                Z
 ----------------------------------------------------------------
    1      C      -0.8912728643    -0.4025582259    -0.3590799720
    2      H      -1.0973732035    -0.2489961626    -1.4151596054
    3      C      -1.3858342913    -1.5258084233     0.2287284477
    4      H      -1.1092041609    -1.7986005251     1.2423878466
    5      H      -2.1382655077    -2.1363064516    -0.2566421466
    6      C       0.3167785701     0.3259789917     0.1886505680
    7      H       0.3038791525     0.3153072084     1.2826305574
    8      H       0.3212200292     1.3729294997    -0.1236877086
    9      C       1.6248673273    -0.3052622627    -0.2859411890
   10      H       1.6369666569    -0.3491704693    -1.3852912680
   11      H       1.6946759301    -1.3349929920     0.0905470753
   12      O       2.6926088529     0.5012352625     0.2067795558
   13      H       3.5214080836     0.1084744468    -0.0812315455
   14      C      -2.4742301092     1.2306936021     0.0281235878
   15      H      -2.3244992843     1.3873416200     1.0890237641
   16      H      -2.1083992671     2.0052041278    -0.6363253358
   17      H      -3.3891310474     0.7306655071    -0.2633767354
 ----------------------------------------------------------------
 Nuclear Repulsion Energy =   234.5811851733 hartrees
 There are       25 alpha and       24 beta electrons
 Requested basis set is non-standard
 There are 138 shells and 314 basis functions
 A cutoff of  1.0D-11 yielded   8768 shell pairs
 There are     44854 function pairs (     53796 Cartesian)
 Smallest overlap matrix eigenvalue = 2.10E-05
 Guess MOs from SCF MO coefficient file
Reading MOs from coefficient file
Reading MOs from coefficient file
 An unrestricted hybrid HF-DFT SCF calculation will be
 performed using Pulay DIIS extrapolation
 Exchange:     0.5679 Hartree-Fock + 1.0000 M08SO
 SCF converges when DIIS error is below 1.0E-08
 ---------------------------------------
  Cycle       Energy         DIIS Error
 ---------------------------------------
    1    -272.1480537347      3.60E-05
    2    -272.1478667314      3.54E-06
    3    -272.1478669214      2.49E-06
    4    -272.1478670092      6.33E-07
    5    -272.1478670304      3.63E-07
    6    -272.1478670456      2.51E-07
    7    -272.1478670564      1.42E-07
    8    -272.1478670630      4.79E-08
    9    -272.1478670633      2.13E-08
   10    -272.1478670632      7.28E-09 Convergence criterion met
 ---------------------------------------
 <S^2> = 0.7740
 SCF time:  CPU 503.00 s  wall 796.98 s
 SCF   energy in the final basis set = -272.1478670632
 Total energy in the final basis set = -272.1478670632
 Analysis of SCF Wavefunction
 
 --------------------------------------------------------------
                    Orbital Energies (a.u.)
 --------------------------------------------------------------
 
 Alpha MOs
 -- Occupied --
-19.566 -10.545 -10.513 -10.502 -10.496 -10.492  -1.137  -0.904
 -0.818  -0.770  -0.712  -0.645  -0.598  -0.562  -0.524  -0.498
 -0.491  -0.479  -0.474  -0.429  -0.422  -0.412  -0.363  -0.359
 -0.247
 -- Virtual --
 -0.027  -0.018  -0.010  -0.005   0.007   0.015   0.020   0.022
  0.030   0.035   0.042   0.054   0.068   0.072   0.082   0.092
  0.098   0.105   0.111   0.117   0.128   0.131   0.133   0.134
  0.138   0.138   0.155   0.161   0.168   0.179   0.181   0.197
  0.207   0.213   0.216   0.223   0.232   0.239   0.249   0.253
  0.270   0.278   0.281   0.315   0.317   0.324   0.337   0.353
  0.369   0.380   0.402   0.429   0.442   0.462   0.467   0.473
  0.505   0.511   0.523   0.537   0.545   0.562   0.566   0.576
  0.583   0.594   0.595   0.599   0.603   0.617   0.625   0.632
  0.648   0.665   0.669   0.677   0.690   0.713   0.720   0.730
  0.741   0.757   0.770   0.791   0.803   0.814   0.847   0.873
  0.883   0.905   0.913   0.940   0.969   0.983   0.990   1.001
  1.028   1.038   1.063   1.081   1.088   1.100   1.108   1.134
  1.146   1.175   1.182   1.194   1.204   1.215   1.226   1.244
  1.248   1.267   1.299   1.300   1.316   1.332   1.342   1.359
  1.368   1.380   1.406   1.408   1.429   1.433   1.445   1.449
  1.450   1.483   1.496   1.507   1.517   1.545   1.549   1.573
  1.582   1.615   1.654   1.695   1.710   1.754   1.767   1.871
  1.934   2.064   2.095   2.257   2.330   2.362   2.422   2.447
  2.466   2.494   2.531   2.583   2.599   2.622   2.701   2.716
  2.732   2.768   2.780   2.796   2.816   2.829   2.844   2.859
  2.889   2.899   2.908   2.913   2.941   2.957   2.971   3.024
  3.033   3.057   3.067   3.072   3.086   3.105   3.124   3.136
  3.148   3.162   3.188   3.204   3.222   3.259   3.264   3.288
  3.312   3.316   3.344   3.352   3.384   3.389   3.421   3.446
  3.461   3.487   3.506   3.535   3.541   3.560   3.604   3.645
  3.660   3.675   3.705   3.724   3.739   3.748   3.785   3.798
  3.830   3.845   3.868   3.878   3.922   3.945   3.945   3.961
  3.990   4.010   4.061   4.067   4.069   4.083   4.116   4.129
  4.151   4.172   4.188   4.197   4.211   4.237   4.258   4.272
  4.278   4.304   4.344   4.350   4.409   4.415   4.452   4.490
  4.539   4.565   4.608   4.638   4.640   4.714   4.716   4.953
  5.048   5.061   5.135   5.159   5.190   5.221   5.276   5.348
  5.438   5.440   5.469   5.494   5.500   5.506   5.532   5.597
  5.678   5.771   5.838   5.877   6.445   6.951   7.130   7.156
  7.187   7.479   7.600  23.943  24.066  24.139  24.267  24.573
 49.794
 
 Beta MOs
 -- Occupied --
-19.566 -10.545 -10.516 -10.496 -10.486 -10.486  -1.137  -0.902
 -0.815  -0.747  -0.710  -0.643  -0.597  -0.561  -0.523  -0.497
 -0.488  -0.473  -0.469  -0.429  -0.419  -0.411  -0.363  -0.324
 -- Virtual --
 -0.047  -0.028  -0.017  -0.012  -0.005   0.003   0.009   0.016
  0.019   0.026   0.035   0.040   0.049   0.066   0.073   0.079
  0.087   0.098   0.102   0.108   0.115   0.124   0.126   0.128
  0.132   0.135   0.136   0.151   0.158   0.166   0.177   0.179
  0.198   0.207   0.213   0.216   0.225   0.234   0.244   0.248
  0.252   0.271   0.279   0.279   0.315   0.316   0.324   0.338
  0.354   0.368   0.382   0.402   0.430   0.442   0.463   0.468
  0.474   0.508   0.512   0.528   0.547   0.559   0.567   0.573
  0.580   0.586   0.600   0.603   0.607   0.614   0.628   0.630
  0.640   0.652   0.669   0.676   0.685   0.698   0.717   0.721
  0.736   0.744   0.759   0.773   0.793   0.809   0.819   0.854
  0.876   0.886   0.908   0.916   0.945   0.971   0.988   0.994
  1.007   1.031   1.044   1.070   1.087   1.093   1.104   1.111
  1.140   1.147   1.178   1.190   1.197   1.209   1.217   1.234
  1.252   1.254   1.271   1.301   1.307   1.324   1.334   1.355
  1.367   1.373   1.385   1.411   1.415   1.433   1.436   1.453
  1.455   1.466   1.484   1.498   1.509   1.527   1.548   1.552
  1.573   1.583   1.633   1.656   1.701   1.727   1.754   1.766
  1.870   1.933   2.064   2.095   2.258   2.331   2.384   2.435
  2.474   2.494   2.512   2.548   2.589   2.603   2.641   2.703
  2.722   2.755   2.764   2.788   2.813   2.835   2.853   2.864
  2.892   2.906   2.910   2.949   2.968   2.973   2.995   3.012
  3.042   3.060   3.074   3.095   3.104   3.118   3.129   3.145
  3.151   3.160   3.196   3.211   3.246   3.255   3.286   3.295
  3.307   3.333   3.346   3.358   3.378   3.390   3.419   3.440
  3.476   3.482   3.528   3.543   3.554   3.569   3.580   3.620
  3.652   3.664   3.678   3.705   3.727   3.744   3.753   3.788
  3.808   3.836   3.846   3.881   3.903   3.924   3.943   3.953
  3.967   3.994   4.010   4.064   4.073   4.088   4.096   4.120
  4.129   4.163   4.174   4.205   4.218   4.243   4.261   4.275
  4.281   4.286   4.310   4.350   4.366   4.407   4.415   4.455
  4.498   4.542   4.556   4.633   4.648   4.659   4.716   4.721
  4.945   5.087   5.135   5.159   5.173   5.198   5.222   5.285
  5.347   5.451   5.494   5.500   5.527   5.532   5.561   5.564
  5.605   5.679   5.772   5.842   5.883   6.445   6.951   7.130
  7.156   7.187   7.478   7.600  23.943  24.080  24.140  24.267
 24.577  49.794
 --------------------------------------------------------------
 
          Ground-State Mulliken Net Atomic Charges

     Atom                 Charge (a.u.)    Spin (a.u.)
  --------------------------------------------------------
      1 C                     0.137112      -0.270436
      2 H                     0.356139       0.017393
      3 C                    -0.712014       0.440158
      4 H                     0.213155      -0.023011
      5 H                     0.180891      -0.019849
      6 C                    -0.424536       0.034393
      7 H                     0.254029       0.003245
      8 H                     0.214200       0.000016
      9 C                    -0.616996       0.001127
     10 H                     0.206774       0.001563
     11 H                     0.212518      -0.002602
     12 O                    -0.319242      -0.000985
     13 H                     0.272626      -0.000129
     14 C                    -0.490395       0.906226
     15 H                     0.178480      -0.029692
     16 H                     0.158664      -0.025691
     17 H                     0.178595      -0.031726
  --------------------------------------------------------
  Sum of atomic charges =     0.000000
  Sum of spin   charges =     1.000000

 -----------------------------------------------------------------
                    Cartesian Multipole Moments
 -----------------------------------------------------------------
    Charge (ESU x 10^10)
                 0.0000
    Dipole Moment (Debye)
         X       0.2363      Y      -1.0780      Z      -0.9857
       Tot       1.4797
    Quadrupole Moments (Debye-Ang)
        XX     -37.4781     XY      -2.6193     YY     -42.3060
        XZ      -1.8986     YZ      -1.1753     ZZ     -39.4635
    Octopole Moments (Debye-Ang^2)
       XXX      42.7692    XXY     -15.7590    XYY       2.6886
       YYY       1.1817    XXZ     -10.8000    XYZ      -1.0402
       YYZ       0.5580    XZZ       2.7215    YZZ       0.4750
       ZZZ       0.3831
    Hexadecapole Moments (Debye-Ang^3)
      XXXX    -745.7158   XXXY       0.4654   XXYY    -205.8645
      XYYY      14.7825   YYYY    -288.3734   XXXZ     -11.5341
      XXYZ      -0.7284   XYYZ       2.8541   YYYZ      -6.3298
      XXZZ    -164.6852   XYZZ       0.8961   YYZZ     -61.4461
      XZZZ      -0.8528   YZZZ      -1.1143   ZZZZ     -91.2122
 -----------------------------------------------------------------
 Calculating analytic gradient of the SCF energy
 Gradient of Coulomb and Exchange Energy
            1           2           3           4           5           6
    1   0.2814163   1.1043985   4.6785571  -0.8864313   3.1626388   0.1315269
    2  -0.9243881  -0.7837057   5.8903388   1.4979401   2.7006841   0.4100170
    3   2.3256440   4.5329566  -2.9532370  -3.8313188   1.7587591   1.2116760
            7           8           9          10          11          12
    1   0.1030818   0.0239279  -2.3029112  -0.3114964  -0.5870048  -6.4891036
    2  -0.3682158  -4.5726649  -0.5355892   0.5268810   4.1524627  -5.3974328
    3  -4.5062243   0.7858303   0.0088174   4.2784773  -1.1729351  -3.2384050
           13          14          15          16          17
    1  -4.4915778   2.9464887   0.0078913  -0.7311823   3.3597799
    2   1.2452656  -1.3251614  -0.9602651  -2.8749030   1.3187368
    3   0.9986797   0.2693865  -3.5551544   2.1752380   0.9118096
 Gradient of SCF Energy
            1           2           3           4           5           6
    1  -0.0060825   0.0022353  -0.0018937  -0.0015777   0.0016351   0.0020883
    2   0.0135974  -0.0016368  -0.0086070   0.0003169   0.0014004  -0.0000586
    3  -0.0019423   0.0028892   0.0030193  -0.0028202   0.0016542  -0.0005890
            7           8           9          10          11          12
    1   0.0003844   0.0004583   0.0014404  -0.0005793  -0.0003654   0.0034699
    2   0.0002818  -0.0035506  -0.0035063  -0.0004170   0.0016682   0.0049013
    3  -0.0032079   0.0008935  -0.0020328   0.0018245  -0.0012010   0.0032865
           13          14          15          16          17
    1  -0.0023600   0.0036210  -0.0018180  -0.0022018   0.0015458
    2  -0.0015042  -0.0047695   0.0006764  -0.0013533   0.0025609
    3  -0.0010000  -0.0009890  -0.0030771   0.0022383   0.0010538
 Max gradient component =       1.360E-02
 RMS gradient           =       3.222E-03
 Gradient time:  CPU 64.59 s  wall 99.15 s
 ----------------------------------------------------------------
             Standard Nuclear Orientation (Angstroms)
    I     Atom           X                Y                Z
 ----------------------------------------------------------------
    1      C      -0.8902728643    -0.4015582259    -0.3590799720
    2      H      -1.0973732035    -0.2489961626    -1.4151596054
    3      C      -1.3858342913    -1.5258084233     0.2287284477
    4      H      -1.1092041609    -1.7986005251     1.2423878466
    5      H      -2.1382655077    -2.1363064516    -0.2566421466
    6      C       0.3167785701     0.3259789917     0.1886505680
    7      H       0.3038791525     0.3153072084     1.2826305574
    8      H       0.3212200292     1.3729294997    -0.1236877086
    9      C       1.6248673273    -0.3052622627    -0.2859411890
   10      H       1.6369666569    -0.3491704693    -1.3852912680
   11      H       1.6946759301    -1.3349929920     0.0905470753
   12      O       2.6926088529     0.5012352625     0.2067795558
   13      H       3.5214080836     0.1084744468    -0.0812315455
   14      C      -2.4742301092     1.2306936021     0.0281235878
   15      H      -2.3244992843     1.3873416200     1.0890237641
   16      H      -2.1083992671     2.0052041278    -0.6363253358
   17      H      -3.3891310474     0.7306655071    -0.2633767354
 ----------------------------------------------------------------
 Nuclear Repulsion Energy =   234.5857687681 hartrees
 There are       25 alpha and       24 beta electrons
 Requested basis set is non-standard
 There are 138 shells and 314 basis functions
 A cutoff of  1.0D-11 yielded   8768 shell pairs
 There are     44854 function pairs (     53796 Cartesian)
 Smallest overlap matrix eigenvalue = 2.10E-05
 Guess MOs from SCF MO coefficient file
Reading MOs from coefficient file
Reading MOs from coefficient file
 An unrestricted hybrid HF-DFT SCF calculation will be
 performed using Pulay DIIS extrapolation
 Exchange:     0.5679 Hartree-Fock + 1.0000 M08SO
 SCF converges when DIIS error is below 1.0E-08
 ---------------------------------------
  Cycle       Energy         DIIS Error
 ---------------------------------------
    1    -272.1482059631      3.13E-05
    2    -272.1478504145      2.87E-06
    3    -272.1478505350      2.04E-06
    4    -272.1478505944      5.37E-07
    5    -272.1478506095      2.97E-07
    6    -272.1478506223      2.10E-07
    7    -272.1478506325      1.19E-07
    8    -272.1478506385      4.49E-08
    9    -272.1478506385      1.27E-08
   10    -272.1478506378      3.81E-09 Convergence criterion met
 ---------------------------------------
 <S^2> = 0.7742
 SCF time:  CPU 481.07 s  wall 763.83 s
 SCF   energy in the final basis set = -272.1478506378
 Total energy in the final basis set = -272.1478506378
 Analysis of SCF Wavefunction
 
 --------------------------------------------------------------
                    Orbital Energies (a.u.)
 --------------------------------------------------------------
 
 Alpha MOs
 -- Occupied --
-19.566 -10.545 -10.513 -10.502 -10.496 -10.492  -1.137  -0.905
 -0.817  -0.770  -0.713  -0.645  -0.598  -0.562  -0.524  -0.498
 -0.491  -0.479  -0.474  -0.429  -0.422  -0.413  -0.363  -0.359
 -0.247
 -- Virtual --
 -0.027  -0.018  -0.010  -0.005   0.007   0.015   0.020   0.022
  0.030   0.035   0.042   0.054   0.068   0.072   0.082   0.092
  0.098   0.105   0.111   0.117   0.128   0.131   0.133   0.134
  0.138   0.138   0.155   0.161   0.168   0.179   0.181   0.197
  0.207   0.213   0.216   0.223   0.232   0.239   0.249   0.253
  0.270   0.278   0.281   0.315   0.317   0.324   0.337   0.353
  0.369   0.380   0.402   0.429   0.442   0.462   0.467   0.473
  0.504   0.511   0.523   0.537   0.545   0.562   0.566   0.576
  0.583   0.594   0.595   0.599   0.603   0.617   0.625   0.632
  0.648   0.665   0.669   0.677   0.690   0.713   0.720   0.730
  0.741   0.757   0.770   0.791   0.803   0.814   0.847   0.873
  0.883   0.905   0.913   0.940   0.969   0.983   0.990   1.001
  1.028   1.038   1.063   1.081   1.088   1.100   1.108   1.134
  1.146   1.175   1.182   1.194   1.204   1.215   1.226   1.244
  1.248   1.267   1.299   1.300   1.316   1.332   1.342   1.359
  1.368   1.380   1.406   1.408   1.429   1.433   1.445   1.449
  1.450   1.483   1.496   1.507   1.517   1.545   1.549   1.573
  1.582   1.615   1.654   1.695   1.710   1.754   1.767   1.871
  1.934   2.064   2.095   2.257   2.330   2.362   2.422   2.447
  2.466   2.494   2.530   2.583   2.599   2.622   2.701   2.716
  2.733   2.768   2.780   2.796   2.816   2.829   2.844   2.859
  2.890   2.899   2.908   2.913   2.941   2.957   2.971   3.024
  3.033   3.057   3.067   3.072   3.086   3.105   3.124   3.136
  3.148   3.162   3.188   3.204   3.222   3.258   3.264   3.288
  3.312   3.316   3.344   3.352   3.384   3.389   3.422   3.446
  3.461   3.487   3.506   3.535   3.540   3.560   3.604   3.645
  3.660   3.675   3.705   3.724   3.739   3.748   3.785   3.798
  3.830   3.845   3.869   3.878   3.921   3.945   3.945   3.961
  3.990   4.010   4.061   4.067   4.069   4.083   4.116   4.129
  4.151   4.172   4.188   4.197   4.211   4.236   4.258   4.272
  4.278   4.304   4.344   4.349   4.409   4.415   4.451   4.489
  4.539   4.566   4.608   4.637   4.640   4.714   4.717   4.953
  5.047   5.062   5.134   5.159   5.190   5.221   5.275   5.348
  5.438   5.440   5.469   5.494   5.500   5.506   5.532   5.598
  5.678   5.771   5.837   5.877   6.445   6.951   7.130   7.156
  7.187   7.479   7.600  23.944  24.066  24.140  24.268  24.570
 49.794
 
 Beta MOs
 -- Occupied --
-19.566 -10.545 -10.516 -10.496 -10.486 -10.486  -1.137  -0.902
 -0.815  -0.747  -0.710  -0.643  -0.597  -0.561  -0.522  -0.497
 -0.488  -0.473  -0.469  -0.429  -0.419  -0.412  -0.363  -0.323
 -- Virtual --
 -0.047  -0.028  -0.018  -0.012  -0.005   0.003   0.009   0.016
  0.019   0.026   0.035   0.040   0.049   0.066   0.073   0.079
  0.087   0.098   0.102   0.108   0.115   0.124   0.126   0.128
  0.132   0.135   0.136   0.151   0.158   0.166   0.177   0.179
  0.198   0.207   0.213   0.216   0.225   0.234   0.244   0.248
  0.252   0.271   0.279   0.279   0.315   0.316   0.324   0.338
  0.354   0.368   0.382   0.402   0.430   0.442   0.463   0.468
  0.474   0.508   0.513   0.528   0.547   0.559   0.567   0.573
  0.580   0.586   0.600   0.603   0.608   0.614   0.628   0.630
  0.640   0.652   0.668   0.676   0.685   0.698   0.717   0.721
  0.736   0.744   0.759   0.773   0.793   0.809   0.819   0.854
  0.876   0.886   0.908   0.916   0.945   0.971   0.988   0.994
  1.007   1.031   1.044   1.070   1.087   1.093   1.104   1.111
  1.140   1.147   1.178   1.190   1.197   1.209   1.217   1.234
  1.252   1.254   1.271   1.301   1.307   1.324   1.334   1.355
  1.367   1.373   1.385   1.411   1.415   1.433   1.436   1.453
  1.455   1.466   1.485   1.498   1.509   1.527   1.548   1.552
  1.573   1.583   1.633   1.656   1.700   1.727   1.754   1.766
  1.870   1.933   2.064   2.095   2.258   2.331   2.384   2.435
  2.474   2.494   2.512   2.548   2.589   2.603   2.641   2.703
  2.722   2.755   2.764   2.788   2.813   2.835   2.853   2.864
  2.892   2.906   2.911   2.949   2.969   2.974   2.995   3.012
  3.042   3.060   3.074   3.095   3.104   3.118   3.129   3.145
  3.151   3.160   3.196   3.211   3.246   3.255   3.286   3.295
  3.307   3.333   3.346   3.359   3.378   3.390   3.419   3.441
  3.476   3.482   3.528   3.543   3.553   3.569   3.580   3.621
  3.652   3.664   3.678   3.705   3.727   3.744   3.753   3.788
  3.808   3.836   3.846   3.881   3.903   3.924   3.943   3.954
  3.967   3.994   4.011   4.064   4.073   4.088   4.096   4.120
  4.129   4.163   4.174   4.205   4.218   4.242   4.261   4.275
  4.281   4.286   4.310   4.350   4.365   4.407   4.415   4.454
  4.498   4.542   4.557   4.633   4.647   4.659   4.716   4.721
  4.946   5.086   5.134   5.159   5.174   5.198   5.222   5.284
  5.347   5.452   5.494   5.500   5.528   5.532   5.561   5.564
  5.606   5.679   5.772   5.842   5.881   6.445   6.951   7.130
  7.156   7.187   7.478   7.600  23.944  24.081  24.140  24.267
 24.574  49.794
 --------------------------------------------------------------
 
          Ground-State Mulliken Net Atomic Charges

     Atom                 Charge (a.u.)    Spin (a.u.)
  --------------------------------------------------------
      1 C                     0.137802      -0.271136
      2 H                     0.355974       0.017416
      3 C                    -0.711387       0.442124
      4 H                     0.213065      -0.023109
      5 H                     0.180937      -0.019951
      6 C                    -0.425572       0.034486
      7 H                     0.254018       0.003231
      8 H                     0.214187      -0.000014
      9 C                    -0.616879       0.001042
     10 H                     0.206804       0.001569
     11 H                     0.212545      -0.002614
     12 O                    -0.319268      -0.000992
     13 H                     0.272634      -0.000132
     14 C                    -0.490536       0.905047
     15 H                     0.178439      -0.029648
     16 H                     0.158634      -0.025644
     17 H                     0.178603      -0.031676
  --------------------------------------------------------
  Sum of atomic charges =     0.000000
  Sum of spin   charges =     1.000000

 -----------------------------------------------------------------
                    Cartesian Multipole Moments
 -----------------------------------------------------------------
    Charge (ESU x 10^10)
                 0.0000
    Dipole Moment (Debye)
         X       0.2381      Y      -1.0777      Z      -0.9859
       Tot       1.4799
    Quadrupole Moments (Debye-Ang)
        XX     -37.4799     XY      -2.6179     YY     -42.3092
        XZ      -1.8970     YZ      -1.1740     ZZ     -39.4649
    Octopole Moments (Debye-Ang^2)
       XXX      42.7678    XXY     -15.7682    XYY       2.6855
       YYY       1.1735    XXZ     -10.8048    XYZ      -1.0422
       YYZ       0.5563    XZZ       2.7206    YZZ       0.4726
       ZZZ       0.3832
    Hexadecapole Moments (Debye-Ang^3)
      XXXX    -745.6789   XXXY       0.4922   XXYY    -205.8516
      XYYY      14.8114   YYYY    -288.3870   XXXZ     -11.5185
      XXYZ      -0.7216   XYYZ       2.8600   YYYZ      -6.3208
      XXZZ    -164.6801   XYZZ       0.9015   YYZZ     -61.4501
      XZZZ      -0.8407   YZZZ      -1.1049   ZZZZ     -91.2178
 -----------------------------------------------------------------
 Calculating analytic gradient of the SCF energy
 Gradient of Coulomb and Exchange Energy
            1           2           3           4           5           6
    1   0.2735946   1.1106925   4.6764909  -0.8861072   3.1629754   0.1288511
    2  -0.9278575  -0.7784417   5.8869364   1.4976361   2.7022499   0.4112428
    3   2.3199510   4.5327844  -2.9400899  -3.8306729   1.7576395   1.2060282
            7           8           9          10          11          12
    1   0.1030260   0.0251696  -2.3024259  -0.3116228  -0.5871374  -6.4898780
    2  -0.3682279  -4.5729493  -0.5338835   0.5269361   4.1525653  -5.3974570
    3  -4.5071535   0.7861425   0.0088134   4.2787365  -1.1730522  -3.2383572
           13          14          15          16          17
    1  -4.4916159   2.9512432   0.0080428  -0.7312042   3.3599053
    2   1.2452527  -1.3279674  -0.9601355  -2.8747031   1.3188037
    3   0.9986202   0.2686984  -3.5553406   2.1754126   0.9118395
 Gradient of SCF Energy
            1           2           3           4           5           6
    1  -0.0048441   0.0021037  -0.0023523  -0.0015678   0.0016244   0.0016560
    2   0.0147137  -0.0017106  -0.0093758   0.0003244   0.0013446  -0.0003586
    3  -0.0021291   0.0028738   0.0033240  -0.0028275   0.0016900  -0.0007096
            7           8           9          10          11          12
    1   0.0003827   0.0004079   0.0013861  -0.0005750  -0.0003599   0.0034680
    2   0.0002841  -0.0035702  -0.0035224  -0.0004180   0.0016681   0.0049058
    3  -0.0032081   0.0008718  -0.0020388   0.0018228  -0.0012019   0.0032881
           13          14          15          16          17
    1  -0.0023605   0.0034772  -0.0018068  -0.0021902   0.0015504
    2  -0.0015045  -0.0046374   0.0006653  -0.0013666   0.0025582
    3  -0.0010010  -0.0009631  -0.0030802   0.0022357   0.0010530
 Max gradient component =       1.471E-02
 RMS gradient           =       3.319E-03
 Gradient time:  CPU 68.42 s  wall 98.60 s
 ----------------------------------------------------------------
             Standard Nuclear Orientation (Angstroms)
    I     Atom           X                Y                Z
 ----------------------------------------------------------------
    1      C      -0.8902728643    -0.4035582259    -0.3590799720
    2      H      -1.0973732035    -0.2489961626    -1.4151596054
    3      C      -1.3858342913    -1.5258084233     0.2287284477
    4      H      -1.1092041609    -1.7986005251     1.2423878466
    5      H      -2.1382655077    -2.1363064516    -0.2566421466
    6      C       0.3167785701     0.3259789917     0.1886505680
    7      H       0.3038791525     0.3153072084     1.2826305574
    8      H       0.3212200292     1.3729294997    -0.1236877086
    9      C       1.6248673273    -0.3052622627    -0.2859411890
   10      H       1.6369666569    -0.3491704693    -1.3852912680
   11      H       1.6946759301    -1.3349929920     0.0905470753
   12      O       2.6926088529     0.5012352625     0.2067795558
   13      H       3.5214080836     0.1084744468    -0.0812315455
[...]
 H          0.088 -0.166 -0.019   -0.119  0.210  0.126    0.338  0.134  0.111
 H         -0.049  0.115  0.165   -0.081  0.132  0.068    0.364  0.191  0.091
 O          0.016  0.003  0.018   -0.037  0.003 -0.003   -0.251 -0.222 -0.135
 H         -0.062 -0.099 -0.073   -0.357 -0.469 -0.293   -0.072  0.067  0.048
 C         -0.040  0.045  0.017   -0.015  0.010  0.000   -0.011  0.012  0.003
 H          0.083 -0.083  0.014    0.029 -0.031 -0.003    0.028 -0.031  0.002
 H          0.102 -0.080 -0.040    0.020 -0.018 -0.011    0.027 -0.021 -0.014
 H          0.075 -0.121 -0.034    0.002 -0.017 -0.004    0.019 -0.029 -0.013
 TransDip   0.007 -0.102 -0.055   -0.096 -0.058 -0.021    0.279  0.137  0.081

 Mode:                22                     23                     24
 Frequency:      1153.31                1211.42                1216.34
 Force Cnst:      1.3876                 1.0372                 1.1025
 Red. Mass:       1.7706                 1.1996                 1.2648
 IR Active:          YES                    YES                    YES
 IR Intens:        0.812                 24.028                  1.699
 Raman Active:       YES                    YES                    YES
               X      Y      Z        X      Y      Z        X      Y      Z
 C         -0.074 -0.026 -0.122    0.019 -0.015  0.006   -0.058 -0.033 -0.068
 H         -0.346 -0.184 -0.092    0.070  0.079  0.012   -0.125 -0.116 -0.068
 C          0.044  0.025  0.046   -0.006 -0.007  0.001    0.035  0.035  0.015
 H         -0.154 -0.185  0.036    0.025  0.001 -0.005   -0.028 -0.060 -0.002
 H          0.054  0.180 -0.176   -0.028  0.006  0.023    0.026  0.156 -0.124
 C          0.049 -0.034  0.138   -0.092  0.054  0.021   -0.020  0.014  0.055
 H          0.157  0.312  0.138    0.018  0.013  0.022    0.644  0.101  0.070
 H          0.174 -0.115 -0.161    0.313  0.064  0.048   -0.221 -0.008 -0.010
 C         -0.003  0.084 -0.106    0.020 -0.025 -0.044    0.013 -0.045  0.062
 H         -0.233 -0.402 -0.092    0.323 -0.088 -0.043    0.466  0.249  0.065
 H          0.172  0.258  0.329    0.540  0.032  0.016   -0.253 -0.161 -0.173
 O         -0.004 -0.031  0.034   -0.016  0.021  0.027   -0.009  0.020 -0.030
 H          0.028  0.049  0.020   -0.359 -0.486 -0.304   -0.071 -0.091 -0.062
 C          0.002 -0.001  0.000    0.006 -0.006 -0.002    0.006 -0.005  0.002
 H         -0.009  0.008  0.000   -0.010  0.012 -0.001   -0.012  0.014  0.001
 H          0.002  0.001  0.003   -0.009  0.010  0.008   -0.008  0.003  0.001
 H          0.005 -0.010  0.005   -0.004  0.007  0.009    0.003  0.004 -0.004
 TransDip   0.007  0.025 -0.013   -0.094 -0.097 -0.080   -0.021 -0.033  0.014

 Mode:                25                     26                     27
 Frequency:      1259.66                1287.75                1297.78
 Force Cnst:      1.2412                 1.1245                 1.3733
 Red. Mass:       1.3277                 1.1510                 1.3839
 IR Active:          YES                    YES                    YES
 IR Intens:        2.778                  4.238                 28.360
 Raman Active:       YES                    YES                    YES
               X      Y      Z        X      Y      Z        X      Y      Z
 C          0.005  0.032 -0.100   -0.014 -0.012 -0.023    0.009 -0.034  0.052
 H          0.384  0.690 -0.082    0.150  0.180 -0.031    0.039 -0.058  0.050
 C         -0.001 -0.063  0.113    0.008 -0.002  0.024    0.000  0.018 -0.029
 H         -0.240 -0.389  0.097   -0.020 -0.054  0.015    0.126  0.156 -0.031
 H          0.020 -0.029  0.012    0.008  0.055 -0.047   -0.015  0.066 -0.049
 C         -0.019 -0.018  0.004   -0.048  0.032 -0.066   -0.136 -0.036 -0.015
 H         -0.083  0.022  0.000    0.541 -0.133 -0.060    0.257 -0.026 -0.010
 H          0.158 -0.031 -0.052   -0.148  0.079  0.091    0.779 -0.043 -0.037
 C          0.001  0.016 -0.004   -0.005 -0.006  0.052   -0.001  0.070  0.019
 H          0.178  0.014  0.000   -0.517  0.025  0.037    0.144  0.051  0.026
 H         -0.209  0.000 -0.001    0.519  0.012 -0.019   -0.169  0.081  0.072
 O          0.000 -0.003 -0.011    0.003 -0.027  0.004    0.005 -0.041 -0.032
 H          0.043  0.059  0.033    0.099  0.123  0.087    0.223  0.289  0.180
 C         -0.013  0.011  0.003    0.000 -0.001  0.003    0.009 -0.011 -0.006
 H          0.033  0.005 -0.004    0.007  0.012  0.000   -0.019  0.026 -0.006
 H          0.026 -0.008  0.002   -0.008 -0.002 -0.005   -0.005  0.027  0.032
 H          0.013 -0.021 -0.018    0.005  0.006 -0.022   -0.013  0.006  0.032
 TransDip   0.007  0.050  0.018    0.028  0.029  0.052    0.118  0.111  0.052

 Mode:                28                     29                     30
 Frequency:      1384.36                1390.68                1413.13
 Force Cnst:      1.2357                 1.2459                 1.4901
 Red. Mass:       1.0943                 1.0934                 1.2665
 IR Active:          YES                    YES                    YES
 IR Intens:        2.433                  3.256                  2.978
 Raman Active:       YES                    YES                    YES
               X      Y      Z        X      Y      Z        X      Y      Z
 C         -0.001 -0.001  0.001   -0.003 -0.001 -0.003    0.095  0.092 -0.016
 H         -0.006 -0.015  0.000    0.017  0.025 -0.003   -0.266 -0.232  0.010
 C          0.000  0.002 -0.002    0.001 -0.002  0.003   -0.004  0.019 -0.032
 H          0.003  0.002 -0.003    0.002  0.004  0.004   -0.336 -0.400 -0.037
 H         -0.001 -0.001  0.002   -0.001  0.011 -0.012   -0.035 -0.407  0.520
 C          0.003  0.003  0.001    0.003 -0.001 -0.004   -0.044 -0.010  0.015
 H          0.000 -0.020  0.000    0.006  0.024 -0.004    0.151 -0.125  0.007
 H         -0.022 -0.001 -0.015   -0.025  0.011  0.031   -0.035 -0.073 -0.171
 C          0.005 -0.003  0.000    0.000 -0.002  0.002   -0.039  0.006  0.010
 H         -0.023  0.002 -0.001   -0.012 -0.002  0.001    0.142  0.045  0.016
 H         -0.008 -0.003  0.001    0.008 -0.004 -0.007    0.154  0.028  0.024
 O         -0.001  0.002  0.001    0.000  0.000  0.000    0.006 -0.014 -0.010
 H         -0.011 -0.014 -0.008   -0.001 -0.001 -0.001    0.075  0.093  0.056
 C         -0.063 -0.048 -0.039    0.020  0.037 -0.077   -0.004  0.005 -0.002
 H          0.358  0.488 -0.165   -0.434 -0.268  0.047   -0.008 -0.015  0.002
 H          0.382  0.280  0.575    0.293  0.059  0.130    0.022 -0.005  0.002
 H          0.008 -0.194  0.062   -0.095 -0.240  0.744   -0.004 -0.013  0.026
 TransDip   0.043  0.011  0.023   -0.016 -0.012  0.054    0.015 -0.039  0.037

 Mode:                31                     32                     33
 Frequency:      1424.70                1465.71                1499.90
 Force Cnst:      1.8066                 1.4003                 1.4422
 Red. Mass:       1.5107                 1.1063                 1.0881
 IR Active:          YES                    YES                    YES
 IR Intens:        5.175                  3.411                  3.747
 Raman Active:       YES                    YES                    YES
               X      Y      Z        X      Y      Z        X      Y      Z
 C          0.026  0.022 -0.002    0.023  0.011  0.001    0.000 -0.002 -0.001
 H         -0.042 -0.050  0.000   -0.034 -0.026  0.008    0.009  0.012 -0.001
 C          0.000  0.008 -0.007    0.001  0.009 -0.009    0.001  0.002  0.000
 H         -0.075 -0.110 -0.014   -0.077 -0.076 -0.009   -0.004 -0.006 -0.001
 H         -0.014 -0.091  0.132   -0.002 -0.084  0.107    0.001  0.000  0.003
 C         -0.084 -0.003  0.001   -0.016 -0.070 -0.052    0.003 -0.013 -0.010
 H          0.166 -0.033  0.004    0.029  0.676 -0.027   -0.022  0.140 -0.007
 H          0.123 -0.013 -0.036    0.012  0.160  0.658   -0.027  0.035  0.140
 C          0.181 -0.025 -0.021   -0.007  0.010  0.007   -0.001 -0.069 -0.047
 H         -0.610 -0.006 -0.041    0.003 -0.139  0.007   -0.009  0.682 -0.047
 H         -0.555 -0.061  0.039   -0.007 -0.050 -0.137    0.030  0.222  0.659
 O         -0.015  0.041  0.028    0.004  0.002  0.001   -0.001 -0.006 -0.004
 H         -0.233 -0.293 -0.183    0.008  0.009  0.005    0.006  0.004  0.003
 C          0.004  0.001  0.001   -0.002 -0.004  0.001    0.000 -0.001  0.000
 H         -0.019 -0.015  0.006    0.022  0.024 -0.006    0.001  0.002  0.000
 H         -0.012 -0.008 -0.017   -0.002  0.006  0.012   -0.001  0.001  0.001
 H         -0.002  0.006  0.006    0.001  0.006 -0.023    0.000  0.001 -0.002
 TransDip   0.072 -0.012 -0.004    0.000  0.022  0.055   -0.059  0.017  0.011

 Mode:                34                     35                     36
 Frequency:      1564.29                2974.54                3013.12
 Force Cnst:      4.1857                 5.5072                 5.9175
 Red. Mass:       2.9032                 1.0564                 1.1063
 IR Active:          YES                    YES                    YES
 IR Intens:       12.152                 39.493                 24.801
 Raman Active:       YES                    YES                    YES
               X      Y      Z        X      Y      Z        X      Y      Z
 C         -0.197 -0.209  0.089    0.000  0.000  0.001    0.000  0.000  0.000
 H          0.385  0.184  0.049    0.001  0.002 -0.010   -0.002  0.000 -0.006
 C          0.118  0.223 -0.108    0.000  0.000  0.000    0.000  0.000  0.000
 H         -0.396 -0.401 -0.154    0.000  0.000  0.000    0.001 -0.001  0.000
 H          0.073 -0.155  0.472    0.000  0.001  0.000    0.000  0.000  0.000
 C          0.062  0.036 -0.010    0.000  0.003  0.004    0.000  0.007 -0.013
 H         -0.155 -0.074 -0.014   -0.001  0.003 -0.054    0.002 -0.001  0.134
 H          0.105  0.049  0.023   -0.001 -0.029  0.011   -0.004 -0.092  0.027
 C          0.004  0.003  0.000    0.008 -0.045 -0.048    0.004 -0.061  0.071
 H         -0.020 -0.009 -0.004   -0.015  0.006  0.804    0.018 -0.026 -0.569
 H         -0.017  0.001 -0.007   -0.038  0.541 -0.227   -0.061  0.747 -0.277
 O         -0.003  0.000  0.001   -0.002 -0.001  0.000    0.000  0.000  0.000
 H         -0.008 -0.009 -0.003   -0.005 -0.006 -0.004   -0.001  0.000 -0.002
 C          0.026 -0.026 -0.005    0.000  0.000  0.000    0.000  0.000  0.000
 H         -0.038  0.026 -0.004    0.000  0.000 -0.001    0.000  0.000  0.000
 H         -0.039  0.019  0.014   -0.001  0.000  0.001    0.000  0.000  0.000
 H         -0.015  0.038  0.015    0.001  0.000  0.000    0.000  0.000  0.000
 TransDip  -0.082 -0.066  0.038   -0.020 -0.135 -0.147   -0.003 -0.101  0.124

 Mode:                37                     38                     39
 Frequency:      3041.11                3089.03                3103.70
 Force Cnst:      5.7768                 6.2018                 5.7484
 Red. Mass:       1.0602                 1.1031                 1.0128
 IR Active:          YES                    YES                    YES
 IR Intens:       15.997                 13.768                  2.398
 Raman Active:       YES                    YES                    YES
               X      Y      Z        X      Y      Z        X      Y      Z
 C          0.002  0.000  0.002   -0.004  0.003 -0.018    0.000 -0.001 -0.004
 H         -0.006  0.004 -0.027    0.042 -0.036  0.218    0.008 -0.006  0.046
 C          0.000  0.000  0.000    0.001  0.001  0.000    0.000  0.000  0.001
 H         -0.002 -0.002 -0.003    0.003  0.001  0.006   -0.005  0.005 -0.019
 H          0.002  0.001  0.003   -0.016 -0.012 -0.012    0.008  0.007  0.006
 C          0.000 -0.047 -0.050   -0.001 -0.061  0.066    0.000 -0.001  0.001
 H         -0.011 -0.024  0.783    0.010 -0.001 -0.573    0.001  0.000 -0.012
 H         -0.001  0.581 -0.192   -0.004  0.735 -0.218    0.001  0.013 -0.004
 C         -0.001  0.000 -0.007    0.001 -0.010  0.012    0.000  0.000  0.000
 H         -0.002  0.002  0.077    0.006 -0.003 -0.094    0.000  0.000 -0.001
 H          0.001 -0.001  0.000   -0.013  0.112 -0.042   -0.001  0.004 -0.001
 O          0.000  0.000  0.000    0.000  0.000  0.000    0.000  0.000  0.000
 H          0.001  0.001  0.000    0.000  0.000 -0.001    0.000  0.000  0.000
 C          0.000  0.000  0.000    0.000  0.001  0.000    0.012 -0.016 -0.005
 H         -0.001  0.001  0.002   -0.003 -0.002 -0.017    0.096  0.070  0.583
 H         -0.001  0.000  0.001   -0.009 -0.015  0.013    0.211  0.403 -0.363
 H         -0.003 -0.002 -0.001    0.012  0.007  0.003   -0.454 -0.271 -0.153
 TransDip  -0.016 -0.092 -0.088   -0.020 -0.085  0.081    0.018 -0.046  0.000

 Mode:                40                     41                     42
 Frequency:      3119.75                3130.28                3221.53
 Force Cnst:      6.2306                 6.1160                 6.8228
 Red. Mass:       1.0865                 1.0594                 1.1158
 IR Active:          YES                    YES                    YES
 IR Intens:       11.338                  3.348                  9.680
 Raman Active:       YES                    YES                    YES
               X      Y      Z        X      Y      Z        X      Y      Z
 C         -0.016  0.013 -0.079   -0.001 -0.006  0.015   -0.002  0.002 -0.009
 H          0.194 -0.142  0.920   -0.029  0.024 -0.155    0.017 -0.015  0.086
 C          0.007  0.008  0.001    0.018  0.048 -0.042   -0.059 -0.026 -0.075
 H          0.024 -0.020  0.080    0.210 -0.195  0.743    0.145 -0.155  0.548
 H         -0.119 -0.094 -0.080   -0.400 -0.319 -0.270    0.554  0.452  0.355
 C          0.001  0.013 -0.016    0.000 -0.001  0.001    0.000  0.000  0.000
 H         -0.001  0.000  0.155    0.002  0.001 -0.013    0.002  0.002  0.005
 H         -0.003 -0.152  0.044    0.002  0.015 -0.004   -0.001 -0.003  0.002
 C          0.000  0.001 -0.003    0.000  0.000  0.000    0.000  0.000  0.000
 H         -0.004  0.001  0.028    0.000  0.000 -0.002    0.000  0.000  0.001
 H          0.002 -0.016  0.006    0.001  0.000  0.000    0.000  0.000  0.000
 O          0.000  0.000  0.000    0.000  0.000  0.000    0.000  0.000  0.000
 H          0.000  0.000  0.000    0.000  0.000  0.000    0.000  0.000  0.000
 C         -0.001  0.001  0.002    0.001 -0.002 -0.001    0.000  0.000  0.001
 H         -0.006 -0.004 -0.031    0.002  0.004  0.020   -0.001  0.000 -0.005
 H         -0.005 -0.011  0.009    0.005  0.012 -0.010    0.001  0.001  0.000
 H          0.018  0.009  0.006   -0.015 -0.007 -0.004   -0.001 -0.002  0.000
 TransDip  -0.020  0.027 -0.103    0.029  0.041 -0.030   -0.063 -0.029 -0.072

 Mode:                43                     44                     45
 Frequency:      3266.20                3272.79                3923.54
 Force Cnst:      7.0115                 7.0391                 9.6733
 Red. Mass:       1.1155                 1.1154                 1.0665
 IR Active:          YES                    YES                    YES
 IR Intens:        5.129                  5.223                 58.855
 Raman Active:       YES                    YES                    YES
               X      Y      Z        X      Y      Z        X      Y      Z
 C          0.000  0.000 -0.001    0.000  0.000  0.000    0.000  0.000  0.000
 H          0.002  0.000  0.012   -0.001  0.000  0.001    0.000  0.000  0.000
 C          0.000  0.000  0.000    0.000  0.000  0.000    0.000  0.000  0.000
 H          0.001 -0.001  0.002    0.000  0.000  0.001    0.000  0.000  0.000
 H          0.002  0.002  0.001    0.001  0.002  0.001    0.000  0.000  0.000
 C          0.000  0.000  0.000    0.000 -0.001  0.000    0.000  0.000  0.000
 H          0.001  0.000  0.002    0.000  0.000  0.000    0.000  0.000  0.000
 H          0.000 -0.005  0.001    0.001  0.005 -0.002    0.000 -0.001  0.000
 C          0.000  0.000  0.000    0.000  0.000  0.000    0.000  0.001  0.001
 H          0.000  0.000  0.000    0.000  0.000  0.000    0.002  0.001  0.001
 H          0.000  0.000  0.000    0.000  0.000  0.000    0.002  0.001  0.001
 O          0.000  0.000  0.000    0.000  0.000  0.000   -0.055  0.024  0.018
 H          0.000  0.000  0.000    0.000  0.000  0.000    0.868 -0.397 -0.292
 C          0.003  0.026 -0.096   -0.074 -0.063 -0.019    0.000  0.000  0.000
 H          0.112  0.106  0.723    0.032  0.030  0.296    0.000  0.000  0.000
 H         -0.233 -0.469  0.398    0.154  0.327 -0.299    0.000  0.000  0.000
 H          0.091  0.056  0.013    0.692  0.388  0.226    0.000  0.000  0.000
 TransDip  -0.004  0.025 -0.068   -0.056 -0.045 -0.014    0.238 -0.046 -0.039

 STANDARD THERMODYNAMIC QUANTITIES AT   298.15 K  AND     1.00 ATM

   This Molecule has  3 Imaginary Frequencies
   Zero point vibrational energy:       90.578 kcal/mol

   Atom    1 Element C  Has Mass   12.00000
   Atom    2 Element H  Has Mass    1.00783
   Atom    3 Element C  Has Mass   12.00000
   Atom    4 Element H  Has Mass    1.00783
   Atom    5 Element H  Has Mass    1.00783
   Atom    6 Element C  Has Mass   12.00000
   Atom    7 Element H  Has Mass    1.00783
   Atom    8 Element H  Has Mass    1.00783
   Atom    9 Element C  Has Mass   12.00000
   Atom   10 Element H  Has Mass    1.00783
   Atom   11 Element H  Has Mass    1.00783
   Atom   12 Element O  Has Mass   15.99491
   Atom   13 Element H  Has Mass    1.00783
   Atom   14 Element C  Has Mass   12.00000
   Atom   15 Element H  Has Mass    1.00783
   Atom   16 Element H  Has Mass    1.00783
   Atom   17 Element H  Has Mass    1.00783
   Molecular Mass:    87.081040 amu
   Principal axes and moments of inertia in amu*Bohr^2:
                             1           2           3
    Eigenvalues --      306.91819  1124.12775  1336.81194
          X               0.99975    -0.02178    -0.00530
          Y               0.02172     0.99970    -0.01124
          Z               0.00554     0.01113     0.99992
   Rotational Symmetry Number is   1
   The Molecule is an Asymmetric Top
   Translational Enthalpy:        0.889 kcal/mol
   Rotational Enthalpy:           0.889 kcal/mol
   Vibrational Enthalpy:         93.571 kcal/mol
   gas constant (RT):             0.592 kcal/mol
   Translational Entropy:        39.306  cal/mol.K
   Rotational Entropy:           27.624  cal/mol.K
   Vibrational Entropy:          17.188  cal/mol.K

   Total Enthalpy:               95.941 kcal/mol
   Total Entropy:                84.118  cal/mol.K
Archival summary:
1\1\node03\FREQ\ProcedureUnspecified\BasisUnspecified\1511(2)\edames\SatJun2812:13:192014SatJun2812:13:192014\0\\#,FREQ,ProcedureUnspecified,BasisUnspecified,\\0,2\C\H,1,1.09256\H,1,1.09411,2,107.172\C,1,1.51253,2,111.179,3,-120.685,0\H,4,1.0871,1,115.835,2,-47.244,0\C,4,1.36117,1,122.116,2,156.384,0\H,6,1.08372,4,121.617,1,169.381,0\H,6,1.08556,4,121.187,1,-16.2119,0\C,1,1.528,2,107.674,3,116.505,0\H,9,1.09862,1,109.583,2,-174.893,0\H,9,1.10029,1,109.647,2,67.0761,0\O,9,1.42593,1,107.461,2,-53.7578,0\H,12,0.961311,9,108.118,1,-179.588,0\C,4,2.30789,1,98.4002,2,42.4943,0\H,14,1.08261,4,102.003,1,175.03,0\H,14,1.08281,4,99.8956,1,54.9309,0\H,14,1.08406,4,99.8555,1,-64.7034,0\\\@

 Total job time:  73664.79s(wall), 47169.72s(cpu) 
 Sat Jun 28 12:13:19 2014

        *************************************************************
        *                                                           *
        *  Thank you very much for using Q-Chem.  Have a nice day.  *
        *                                                           *
        *************************************************************


0 sent ACK to 0 
now end server 0 ... 
cleanup process ... done
remove work dirs /scratch/edames/qchem21343.0 -- /scratch/edames/qchem21343.7
rm -rf /scratch/edames/qchem21343.0
rm -rf /scratch/edames/qchem21343.1
rm -rf /scratch/edames/qchem21343.2
rm -rf /scratch/edames/qchem21343.3
rm -rf /scratch/edames/qchem21343.4
rm -rf /scratch/edames/qchem21343.5
rm -rf /scratch/edames/qchem21343.6
rm -rf /scratch/edames/qchem21343.7
rm -rf /scratch/edames/qchem21343
