
Running Job 1 of 2 iC5H11O-5_betasc_C3H6.in
qchem iC5H11O-5_betasc_C3H6.in_19967.0 /tmp/qchem19967/ 6
/opt/qchem/bin/mpi/mpirun_qchem -machinefile /tmp/275648.1.normal3/hostfile -np 6 /opt/qchem/exe/qcprog.exe iC5H11O-5_betasc_C3H6.in_19967.0 /tmp/qchem19967/

Process 4 of 6 is on node66.cluster - thread support 0
Process 2 of 6 is on node66.cluster - thread support 0
Process 3 of 6 is on node66.cluster - thread support 0
Process 0 of 6 is on node66.cluster - thread support 0
Process 1 of 6 is on node66.cluster - thread support 0
Process 5 of 6 is on node66.cluster - thread support 0
initial socket setup ...start
initial socket setup ...done 
now start server 0 ... 
                  Welcome to Q-Chem
     A Quantum Leap Into The Future Of Chemistry

 Y. Shao, L. Fusti-Molnar, Y. Jung, J. Kussmann, C. Ochsenfeld, S. T. Brown, 
 A. T. B. Gilbert, L. V. Slipchenko, S. V. Levchenko, D. P. O'Neill, 
 R. A. DiStasio Jr., R. C. Lochan, T. Wang, G. J. O. Beran, N. A. Besley, 
 J. M. Herbert, C. Y. Lin, T. Van Voorhis, S. H. Chien, A. Sodt, R. P. Steele, 
 V. A. Rassolov, P. E. Maslen, P. P. Korambath, R. D. Adamson, B. Austin, 
 J. Baker, E. F. C. Byrd, H. Dachsel, R. J. Doerksen, A. Dreuw, B. D. Dunietz, 
 A. D. Dutoi, T. R. Furlani, S. R. Gwaltney, A. Heyden, S. Hirata, C.-P. Hsu, 
 G. Kedziora, R. Z. Khaliullin, P. Klunzinger, A. M. Lee, M. S. Lee, W. Liang, 
 I. Lotan, N. Nair, B. Peters, E. I. Proynov, P. A. Pieniazek, Y. M. Rhee, 
 J. Ritchie, E. Rosta, C. D. Sherrill, A. C. Simmonett, J. E. Subotnik, 
 H. L. Woodcock III, W. Zhang, A. T. Bell, A. K. Chakraborty, D. M. Chipman, 
 F. J. Keil, A. Warshel, W. J. Hehre, H. F. Schaefer III, J. Kong, 
 A. I. Krylov, P. M. W. Gill, M. Head-Gordon

 Additional authors for Version 3.1: 
 Z. Gan, Y. Zhao, N. E. SchultzD. Truhlar, E. Epifanovsky, M. Oana

 Additional authors for Version 3.2: 
 R. Baer, B. R. Brooks, D. Casanova, J.-D. Chai, C.-L. Cheng, C. Cramer, 
 D. Crittenden, A. Ghysels, G. Hawkins, E. G. Hohenstein, C. Kelley, 
 W. Kurlancheek, D. Liotard, E. Livshits, P. Manohar, A. Marenich, 
 D. Neuhauser, R. Olson, M. A. Rohrdanz, K. S. Thanthiriwatte, A. J. W. Thom, 
 V. Vanovschi, C. F. Williams, Q. Wu, Z.-Q. You

 Additional authors for Version 4.0: 
 A. Aspuru-Guzik, Y. Bernard, C. Chang, J. Deng, A. Dreuw, M. Diedenhofen, 
 R. G. Edgar, D. Ghosh, W. A. Goddard III, M. Goldey, L. D. Jacobson, 
 M. Gordon, B. Kaduk, I. Kaliman, K. Khistyaev, R. King, A. Klamt, 
 D. Kosenkov, T. Kus, D. Lambrecht, A. Landau, A. W. Lange, K. Lawler, F. Liu, 
 J. Liu, R. Olivares-Amaya, S. P. Mao, J. Parkhill, N. Russ, M. Schmidt, 
 N. Shenvi, D. Small, Y. C. Su, E. Sundstrom, L. Vogt, O. Vydrov, M. Watson, 
 M. Wormit, X. Xu, S. Yeganeh, I. Y. Zhang, D. Zuev

 Additional authors for Version 4.1: 
 X. Feng, M. W. D. Hanson-Heine, P. Horn, H. Ji, A. Laurent, R. Peverati, 
 N. Mardirossian, N. Sergueev, S. Sharada, P. Zimmerman


 Q-Chem, Version 4.1, Q-Chem, Inc., Pittsburgh, PA (2013).

 Intel X86 Linux Version 4.1.0.1 

 Q-chem begins on Sat Mar 29 21:55:48 2014  

Host: 
0

     Scratch files written to /tmp/qchem19967.0//
 Oct1213 14483_epif 4150   
 Parallel job on  6  processors
Processing $rem in /opt/qchem/config/preferences.
 MEM_TOTAL  2000 
Warning: disabling incdft.
 Q-Chem warning in module /home/scratch/svnadmin/14483_epif/qchem/forms1/BasisType.C, line 1125:

 Setting pure/cartesian flag to 2111 for general basis


Finally everything over in PARseQInput

--------------------------------------------------------------
User input:
--------------------------------------------------------------
$rem
JOBTYPE ts
EXCHANGE M062X
BASIS gen
GUI=2
UNRESTRICTED TRUE
CORRELATION NONE
$end

$comment
c5h11o-2
$end

$molecule
0 2
C       -1.96916       -1.17196       -0.03359
C       -1.15628       -0.13419       -0.38429
C       -1.57270        1.30426       -0.18552
H       -0.40152       -0.30810       -1.14560
H       -2.82773       -1.02584        0.61430
H       -1.74510       -2.19040       -0.32958
H       -2.23665        1.41013        0.67658
H       -0.71873        1.97064       -0.04490
H       -2.11452        1.66241       -1.06806
C        0.60567       -0.24388        1.06325
C        1.75959        0.38629        0.34963
O        2.09050       -0.25185       -0.88566
H        0.65790       -1.31842        1.21942
H        0.17954        0.30524        1.89800
H        2.64749        0.41253        1.00839
H        1.54049        1.42659        0.09265
H        2.29205       -1.17320       -0.69280
$end

$basis
H  0
S  3 1.00
3.386500000000E+01 2.549380000000E-02
5.094790000000E+00 1.903730000000E-01
1.158790000000E+00 8.521610000000E-01
S  1 1.00
3.258400000000E-01 1.000000000000E+00
S  1 1.00
1.027410000000E-01 1.000000000000E+00
S  1 1.00
3.600000000000E-02 1.000000000000E+00
P  1 1.00
1.500000000000E+00 1.000000000000E+00
P  1 1.00
3.750000000000E-01 1.000000000000E+00
****
C 0
S  6 1.00
4.563240000000E+03 1.966650000000E-03
6.820240000000E+02 1.523060000000E-02
1.549730000000E+02 7.612690000000E-02
4.445530000000E+01 2.608010000000E-01
1.302900000000E+01 6.164620000000E-01
1.827730000000E+00 2.210060000000E-01
S  3 1.00
2.096420000000E+01 1.146600000000E-01
4.803310000000E+00 9.199990000000E-01
1.459330000000E+00 -3.030680000000E-03
S  1 1.00
4.834560000000E-01 1.000000000000E+00
S  1 1.00
1.455850000000E-01 1.000000000000E+00
S  1 1.00
4.380000000000E-02 1.000000000000E+00
P  3 1.00
2.096420000000E+01 4.024870000000E-02
4.803310000000E+00 2.375940000000E-01
1.459330000000E+00 8.158540000000E-01
P  1 1.00
4.834560000000E-01 1.000000000000E+00
P  1 1.00
1.455850000000E-01 1.000000000000E+00
P  1 1.00
4.380000000000E-02 1.000000000000E+00
D  1 1.00
1.252000000000E+00 1.000000000000E+00
D  1 1.00
3.130000000000E-01 1.000000000000E+00
F  1 1.00
8.000000000000E-01 1.000000000000E+00
****
O  0
S  6 1.00
8.588500000000E+03 1.895150000000E-03
1.297230000000E+03 1.438590000000E-02
2.992960000000E+02 7.073200000000E-02
8.737710000000E+01 2.400010000000E-01
2.567890000000E+01 5.947970000000E-01
3.740040000000E+00 2.808020000000E-01
S  3 1.00
4.211750000000E+01 1.138890000000E-01
9.628370000000E+00 9.208110000000E-01
2.853320000000E+00 -3.274470000000E-03
S  1 1.00
9.056610000000E-01 1.000000000000E+00
S  1 1.00
2.556110000000E-01 1.000000000000E+00
S  1 1.00
8.450000000000E-02 1.000000000000E+00
P  3 1.00
4.211750000000E+01 3.651140000000E-02
9.628370000000E+00 2.371530000000E-01
2.853320000000E+00 8.197020000000E-01
P  1 1.00
9.056610000000E-01 1.000000000000E+00
P  1 1.00
2.556110000000E-01 1.000000000000E+00
P  1 1.00
8.450000000000E-02 1.000000000000E+00
D  1 1.00
2.584000000000E+00 1.000000000000E+00
D  1 1.00
6.460000000000E-01 1.000000000000E+00
F  1 1.00
1.400000000000E+00 1.000000000000E+00
****
$end

--------------------------------------------------------------
 ----------------------------------------------------
       Standard Nuclear Orientation (Angstroms)
    I     Atom         X            Y            Z
 ----------------------------------------------------
    1      C       1.969160    -1.171956     0.033586
    2      C       1.156279    -0.134189     0.384291
    3      C       1.572697     1.304262     0.185528
    4      H       0.401518    -0.308103     1.145599
    5      H       2.827730    -1.025832    -0.614302
    6      H       1.745100    -2.190398     0.329571
    7      H       2.236648     1.410137    -0.676571
    8      H       0.718727     1.970642     0.044911
    9      H       2.114516     1.662409     1.068070
   10      C      -0.605670    -0.243873    -1.063252
   11      C      -1.759591     0.386292    -0.349630
   12      O      -2.090502    -0.251854     0.885657
   13      H      -0.657899    -1.318412    -1.219427
   14      H      -0.179540     0.305251    -1.897999
   15      H      -2.647491     0.412535    -1.008391
   16      H      -1.540492     1.426591    -0.092644
   17      H      -2.292051    -1.173203     0.692792
 ----------------------------------------------------
 Molecular Point Group                 C1    NOp =  1
 Largest Abelian Subgroup              C1    NOp =  1
 Nuclear Repulsion Energy =   237.7939614120 hartrees
 There are       25 alpha and       24 beta electrons
 Requested basis set is non-standard
 There are 138 shells and 314 basis functions

Total QAlloc Memory Limit   2000 MB
Mega-Array Size        61 MB
MEM_STATIC part        62 MB
 A cutoff of  1.0D-11 yielded   8903 shell pairs
 There are     45869 function pairs (     55099 Cartesian)
 Smallest overlap matrix eigenvalue = 2.40E-05

  Scale SEOQF with 1.000000e-01/1.000000e-01/1.000000e-01

 Standard Electronic Orientation quadrupole field applied
 Nucleus-field energy     =     0.0000000051 hartrees
 Guess MOs from core Hamiltonian diagonalization
 An unrestricted hybrid HF-DFT SCF calculation will be
 performed using Pulay DIIS extrapolation
 Exchange:     0.5400 Hartree-Fock + 1.0000 M062X
 SCF converges when DIIS error is below 1.0E-08
 ---------------------------------------
  Cycle       Energy         DIIS Error
 ---------------------------------------
    1    -196.8946730466      9.12E-02
    2    -175.1691929681      4.33E-02
    3    -165.3123048445      6.56E-02
    4    -232.7317791048      3.87E-02
    5    -264.6377400678      1.78E-02
    6    -262.7697550406      1.97E-02
    7    -271.3587367147      6.39E-03
    8    -272.0999583732      2.76E-03
    9    -272.1949193302      1.10E-03
   10    -272.2129174901      5.39E-04
   11    -272.2170246962      2.05E-04
   12    -272.2181432255      6.02E-05
   13    -272.2183055533      2.28E-05
   14    -272.2183650492      1.15E-05
   15    -272.2183925743      5.05E-06
   16    -272.2183982724      3.56E-06
   17    -272.2183991645      1.00E-06
   18    -272.2183992963      3.62E-07
   19    -272.2183993529      1.92E-07
   20    -272.2183993832      1.04E-07
   21    -272.2183993989      3.39E-08
   22    -272.2183993999      9.04E-09 Convergence criterion met
 ---------------------------------------
 <S^2> = 0.7795
 SCF time:  CPU 387.54 s  wall 407.44 s
 SCF   energy in the final basis set = -272.2183993999
 Total energy in the final basis set = -272.2183993999
 Analysis of SCF Wavefunction
 
 --------------------------------------------------------------
                    Orbital Energies (a.u.)
 --------------------------------------------------------------
 
 Alpha MOs
 -- Occupied --
-19.626 -10.591 -10.547 -10.547 -10.530 -10.524  -1.146  -0.886
 -0.842  -0.772  -0.707  -0.636  -0.578  -0.540  -0.537  -0.513
 -0.480  -0.477  -0.451  -0.431  -0.417  -0.404  -0.367  -0.341
 -0.230
 -- Virtual --
 -0.005   0.007   0.013   0.018   0.033   0.034   0.037   0.044
  0.049   0.057   0.071   0.077   0.082   0.096   0.111   0.120
  0.121   0.124   0.128   0.138   0.144   0.152   0.154   0.155
  0.161   0.163   0.168   0.175   0.185   0.191   0.195   0.209
  0.221   0.224   0.234   0.248   0.250   0.254   0.263   0.272
  0.293   0.304   0.312   0.321   0.339   0.344   0.354   0.374
  0.388   0.398   0.419   0.449   0.467   0.471   0.491   0.512
  0.518   0.531   0.558   0.566   0.569   0.581   0.592   0.594
  0.602   0.607   0.616   0.620   0.633   0.638   0.654   0.665
  0.673   0.684   0.695   0.705   0.713   0.725   0.729   0.742
  0.764   0.775   0.815   0.819   0.839   0.852   0.873   0.881
  0.897   0.924   0.958   0.975   1.005   1.013   1.026   1.052
  1.063   1.081   1.087   1.111   1.120   1.132   1.160   1.171
  1.183   1.213   1.230   1.233   1.246   1.259   1.271   1.293
  1.296   1.314   1.332   1.348   1.361   1.368   1.379   1.393
  1.400   1.413   1.423   1.434   1.454   1.478   1.486   1.499
  1.519   1.535   1.550   1.559   1.566   1.577   1.584   1.621
  1.628   1.633   1.656   1.667   1.707   1.739   1.771   1.884
  1.926   2.058   2.117   2.264   2.320   2.417   2.445   2.500
  2.512   2.542   2.554   2.597   2.627   2.645   2.705   2.749
  2.763   2.787   2.806   2.832   2.857   2.874   2.882   2.910
  2.922   2.948   2.967   2.978   2.999   3.001   3.041   3.067
  3.082   3.103   3.112   3.129   3.146   3.169   3.182   3.191
  3.209   3.230   3.236   3.261   3.290   3.316   3.321   3.336
  3.350   3.380   3.392   3.409   3.425   3.445   3.464   3.489
  3.514   3.537   3.549   3.554   3.568   3.620   3.638   3.673
  3.695   3.716   3.730   3.754   3.766   3.781   3.791   3.837
  3.853   3.879   3.886   3.919   3.941   3.961   3.981   4.002
  4.023   4.069   4.077   4.112   4.147   4.169   4.190   4.201
  4.220   4.233   4.243   4.258   4.277   4.299   4.308   4.317
  4.341   4.373   4.407   4.421   4.454   4.469   4.516   4.523
  4.570   4.583   4.598   4.650   4.681   4.711   4.754   4.777
  5.060   5.131   5.174   5.244   5.255   5.316   5.328   5.406
  5.459   5.490   5.504   5.548   5.571   5.581   5.595   5.634
  5.668   5.817   5.892   5.918   6.475   6.971   7.182   7.195
  7.235   7.493   7.638  24.139  24.235  24.398  24.459  24.766
 50.129
 
 Beta MOs
 -- Occupied --
-19.626 -10.591 -10.548 -10.540 -10.530 -10.522  -1.146  -0.882
 -0.827  -0.767  -0.691  -0.631  -0.571  -0.534  -0.533  -0.506
 -0.478  -0.476  -0.444  -0.429  -0.411  -0.402  -0.360  -0.310
 -- Virtual --
 -0.031  -0.002   0.009   0.016   0.022   0.036   0.038   0.042
  0.047   0.056   0.063   0.074   0.078   0.084   0.097   0.109
  0.115   0.121   0.126   0.134   0.138   0.147   0.151   0.153
  0.156   0.162   0.164   0.168   0.175   0.182   0.190   0.191
  0.210   0.222   0.227   0.234   0.248   0.250   0.256   0.263
  0.274   0.298   0.305   0.316   0.321   0.340   0.347   0.357
  0.378   0.389   0.400   0.421   0.450   0.469   0.472   0.493
  0.512   0.527   0.535   0.561   0.569   0.573   0.583   0.594
  0.596   0.604   0.609   0.622   0.627   0.638   0.645   0.655
  0.669   0.677   0.686   0.698   0.708   0.715   0.727   0.731
  0.743   0.766   0.778   0.817   0.819   0.843   0.855   0.874
  0.882   0.898   0.922   0.958   0.975   1.004   1.012   1.029
  1.055   1.064   1.081   1.086   1.113   1.122   1.136   1.163
  1.171   1.185   1.215   1.232   1.236   1.248   1.260   1.273
  1.295   1.299   1.314   1.334   1.355   1.362   1.370   1.380
  1.396   1.406   1.413   1.425   1.436   1.457   1.480   1.489
  1.501   1.523   1.542   1.554   1.562   1.571   1.579   1.590
  1.621   1.630   1.636   1.657   1.680   1.713   1.742   1.772
  1.883   1.927   2.062   2.119   2.265   2.321   2.421   2.448
  2.507   2.515   2.548   2.560   2.605   2.632   2.654   2.717
  2.756   2.772   2.797   2.826   2.845   2.874   2.895   2.904
  2.914   2.935   2.958   2.981   2.985   3.014   3.028   3.055
  3.083   3.094   3.115   3.125   3.146   3.167   3.179   3.199
  3.212   3.219   3.242   3.247   3.270   3.299   3.332   3.337
  3.357   3.368   3.392   3.404   3.419   3.434   3.455   3.493
  3.508   3.529   3.556   3.560   3.567   3.605   3.632   3.644
  3.679   3.711   3.728   3.742   3.757   3.770   3.784   3.796
  3.850   3.865   3.886   3.896   3.927   3.948   3.965   4.001
  4.007   4.031   4.076   4.095   4.120   4.156   4.181   4.197
  4.214   4.227   4.244   4.255   4.271   4.289   4.310   4.314
  4.323   4.353   4.393   4.414   4.424   4.456   4.475   4.522
  4.528   4.574   4.590   4.604   4.683   4.703   4.711   4.770
  4.787   5.070   5.143   5.182   5.246   5.257   5.329   5.332
  5.408   5.488   5.498   5.508   5.572   5.576   5.589   5.608
  5.637   5.671   5.820   5.896   5.920   6.476   6.971   7.182
  7.195   7.236   7.493   7.639  24.140  24.245  24.398  24.466
 24.768  50.129
 --------------------------------------------------------------
 
          Ground-State Mulliken Net Atomic Charges

     Atom                 Charge (a.u.)    Spin (a.u.)
  --------------------------------------------------------
      1 C                    -0.437486       0.465805
      2 C                     0.089517      -0.222008
      3 C                    -0.553264       0.028460
      4 H                     0.249844       0.020555
      5 H                     0.138979      -0.027363
      6 H                     0.121017      -0.028651
      7 H                     0.127775      -0.000534
      8 H                     0.128876      -0.002342
      9 H                     0.136771      -0.004086
     10 C                    -0.283218       0.827435
     11 C                    -0.315198      -0.035280
     12 O                    -0.295995       0.007266
     13 H                     0.164682      -0.035609
     14 H                     0.160413      -0.037711
     15 H                     0.141472       0.036184
     16 H                     0.178861       0.008993
     17 H                     0.246954      -0.001114
  --------------------------------------------------------
  Sum of atomic charges =     0.000000
  Sum of spin   charges =     1.000000

 -----------------------------------------------------------------
                    Cartesian Multipole Moments
 -----------------------------------------------------------------
    Charge (ESU x 10^10)
                 0.0000
    Dipole Moment (Debye)
         X      -0.2966      Y      -0.3253      Z      -1.4710
       Tot       1.5354
    Quadrupole Moments (Debye-Ang)
        XX     -41.0529     XY       3.0856     YY     -36.4105
        XZ       1.8073     YZ      -0.7788     ZZ     -42.3029
    Octapole Moments (Debye-Ang^2)
       XXX     -11.3872    XXY      -4.6218    XYY      -9.6049
       YYY      -5.6344    XXZ      -9.4682    XYZ       3.1686
       YYZ       3.7249    XZZ      -0.0041    YZZ       1.3894
       ZZZ       1.7858
    Hexadecapole Moments (Debye-Ang^3)
      XXXX    -714.8339   XXXY      26.2931   XXYY    -143.7520
      XYYY       8.3515   YYYY    -229.9909   XXXZ      -5.1453
      XXYZ      -1.8266   XYYZ      -5.8612   YYYZ      -4.3776
      XXZZ    -154.2991   XYZZ       6.6514   YYZZ     -66.8881
      XZZZ      -6.8262   YZZZ      -3.4603   ZZZZ    -168.3549
 -----------------------------------------------------------------
 Calculating analytic gradient of the SCF energy
 Gradient of Coulomb and Exchange Energy
            1           2           3           4           5           6
    1  -5.4664846  -1.4796374  -2.4968872   3.0157000  -3.5209649   0.4346112
    2   6.0288817  -2.2683168  -3.6685170   0.8888392  -0.1971340   4.2620256
    3   1.1473877  -2.3699167  -0.0868624  -3.2895836   2.3392339  -1.1299538
            7           8           9          10          11          12
    1  -2.6193368   2.3617685  -2.2047818   0.4636460   2.4863080   5.9341064
    2  -1.0555411  -3.0416125  -1.8037988   0.6855912  -1.2062229  -0.5251824
    3   2.9436186   0.4777082  -3.0877465   3.3296289   1.9199948  -8.7633586
           13          14          15          16          17
    1   0.1345742  -1.7041863   3.5894876  -0.2704212   1.3424984
    2   4.4669638  -2.1669444  -0.2377995  -4.4432965   4.2820646
    3   1.0038787   3.6999412   2.6717959  -0.8263330   0.0205666
 Gradient of SCF Energy
            1           2           3           4           5           6
    1   0.0071762  -0.0114769   0.0005172  -0.0005087   0.0017584  -0.0000877
    2  -0.0081560   0.0071256  -0.0006389   0.0000901  -0.0005923  -0.0018662
    3  -0.0010582  -0.0024878   0.0012710   0.0017614  -0.0010746   0.0000497
            7           8           9          10          11          12
    1   0.0014123  -0.0013148   0.0017827   0.0041243   0.0013398  -0.0018491
    2   0.0010856   0.0014806   0.0017845   0.0002113  -0.0000535   0.0007242
    3  -0.0017476   0.0000301   0.0021693   0.0023169  -0.0032913   0.0092574
           13          14          15          16          17
    1  -0.0005511   0.0003951  -0.0025905  -0.0001358   0.0000086
    2  -0.0015260   0.0003497   0.0003947   0.0016131  -0.0020263
    3  -0.0010768  -0.0018857  -0.0025529   0.0001223  -0.0018034
 Max gradient component =       1.148E-02
 RMS gradient           =       3.126E-03
 Gradient time:  CPU 45.60 s  wall 46.85 s
 Geometry Optimization Parameters
   NAtoms,    NIC,     NZ,  NCons,   NDum,   NFix, NCnnct, MaxDiis
       17     159       0       0       0       0       0       0


** GEOMETRY OPTIMIZATION IN DELOCALIZED INTERNAL COORDINATES **
   Searching for a Transition State

   Optimization Cycle:   1

                       Coordinates (Angstroms)
     ATOM              X           Y           Z
      1  C         1.969160   -1.171956    0.033586
      2  C         1.156279   -0.134189    0.384291
      3  C         1.572697    1.304262    0.185528
      4  H         0.401518   -0.308103    1.145599
      5  H         2.827730   -1.025832   -0.614302
      6  H         1.745100   -2.190398    0.329571
      7  H         2.236648    1.410137   -0.676571
      8  H         0.718727    1.970642    0.044911
      9  H         2.114516    1.662409    1.068070
     10  C        -0.605670   -0.243873   -1.063252
     11  C        -1.759591    0.386292   -0.349630
     12  O        -2.090502   -0.251854    0.885657
     13  H        -0.657899   -1.318412   -1.219427
     14  H        -0.179540    0.305251   -1.897999
     15  H        -2.647491    0.412535   -1.008391
     16  H        -1.540492    1.426591   -0.092644
     17  H        -2.292051   -1.173203    0.692792
   Point Group: c1    Number of degrees of freedom:    45


   Energy is   -272.218399400


 Attempting to Generate Delocalized Internal Coordinates
 GETINT wrote B to file, NVib is           45
 calling HSSCONV
 HCONV 3*NATOMS:           51
 wrote HINT to file
  writing hessian 

 45 Hessian modes will be used to form the next step
  Hessian Eigenvalues:
     0.004058    0.005928    0.011721    0.020466    0.026384    0.027158
     0.027283    0.030173    0.031156    0.037438    0.040970    0.043328
     0.048535    0.049510    0.051889    0.056563    0.057662    0.061431
     0.066475    0.070460    0.077803    0.080727    0.081360    0.108940
     0.114002    0.116668    0.140821    0.154500    0.160000    0.160000
     0.279589    0.290231    0.307796    0.327729    0.330378    0.335040
     0.341540    0.344367    0.351517    0.352503    0.353409    0.355166
     0.374630    0.521301    0.549064
**WARNING** Hessian does not have the Desired Local Structure

 Transition State Search - Taking P-RFO Step
 Searching for Lamda that Maximizes Along the Lowest mode
 Value Taken    Lamda =   0.00408576
 Searching for Lamda that Minimizes Along All other modes
 Value Taken    Lamda =  -0.00104849
 Calculated Step too Large.  Step scaled by  0.024885
 Step Taken.  Stepsize is  0.300000

                             Maximum     Tolerance    Cnvgd?
         Gradient           0.010393      0.000300      NO
         Displacement       0.155150      0.001200      NO
         Energy change     *********      0.000001      NO


 New Cartesian Coordinates Obtained by Inverse Iteration

 Displacement from previous Coordinates is:  0.210046
 ----------------------------------------------------
       Standard Nuclear Orientation (Angstroms)
    I     Atom         X            Y            Z
 ----------------------------------------------------
    1      C       1.975763    -1.169041     0.028923
    2      C       1.157111    -0.138378     0.385738
    3      C       1.566197     1.303134     0.196499
    4      H       0.402498    -0.319594     1.145178
    5      H       2.833526    -1.013904    -0.617814
    6      H       1.757510    -2.190471     0.318645
    7      H       2.194145     1.425043    -0.689999
    8      H       0.708824     1.973619     0.108377
    9      H       2.145087     1.643458     1.062243
   10      C      -0.603844    -0.255029    -1.064722
   11      C      -1.755982     0.388211    -0.360141
   12      O      -2.089288    -0.227843     0.885763
   13      H      -0.662574    -1.330389    -1.212260
   14      H      -0.172572     0.283633    -1.903549
   15      H      -2.644017     0.403082    -1.018834
   16      H      -1.539471     1.434069    -0.124523
   17      H      -2.303773    -1.149302     0.708263
 ----------------------------------------------------
 Molecular Point Group                 C1    NOp =  1
 Largest Abelian Subgroup              C1    NOp =  1
 Nuclear Repulsion Energy =   237.7880006666 hartrees
 There are       25 alpha and       24 beta electrons
 Applying Cartesian multipole field
    Component          Value
    ---------          -----
     (2,0,0)        1.00000E-11
     (0,2,0)        2.00000E-11
     (0,0,2)       -3.00000E-11
 Nucleus-field energy     =     0.0000000051 hartrees
 Requested basis set is non-standard
 There are 138 shells and 314 basis functions
 A cutoff of  1.0D-11 yielded   8904 shell pairs
 There are     45870 function pairs (     55100 Cartesian)
 Smallest overlap matrix eigenvalue = 2.37E-05
 Guess MOs from SCF MO coefficient file
Reading MOs from coefficient file
Reading MOs from coefficient file
 An unrestricted hybrid HF-DFT SCF calculation will be
 performed using Pulay DIIS extrapolation
 Exchange:     0.5400 Hartree-Fock + 1.0000 M062X
 SCF converges when DIIS error is below 1.0E-08
Geometry optimization detected.  Setting ReadMinima to 0
Setting SaveMinima to 0
 ---------------------------------------
  Cycle       Energy         DIIS Error
 ---------------------------------------
    1    -272.2161289335      2.38E-04
    2    -272.2182670007      3.43E-05
    3    -272.2182971594      1.07E-05
    4    -272.2182986752      6.16E-06
    5    -272.2182991823      9.93E-07
    6    -272.2182991967      3.56E-07
    7    -272.2182991990      1.74E-07
    8    -272.2182992003      4.20E-08
    9    -272.2182992005      2.47E-08
   10    -272.2182992009      1.58E-08
   11    -272.2182992012      7.88E-09 Convergence criterion met
 ---------------------------------------
 <S^2> = 0.7796
 SCF time:  CPU 174.02 s  wall 183.56 s
 SCF   energy in the final basis set = -272.2182992012
 Total energy in the final basis set = -272.2182992012
 Analysis of SCF Wavefunction
 
 --------------------------------------------------------------
                    Orbital Energies (a.u.)
 --------------------------------------------------------------
 
 Alpha MOs
 -- Occupied --
-19.626 -10.591 -10.547 -10.547 -10.530 -10.524  -1.146  -0.886
 -0.842  -0.772  -0.707  -0.636  -0.578  -0.540  -0.537  -0.513
 -0.480  -0.477  -0.451  -0.431  -0.417  -0.404  -0.366  -0.341
 -0.230
 -- Virtual --
 -0.005   0.007   0.013   0.018   0.033   0.034   0.037   0.044
  0.049   0.057   0.071   0.076   0.083   0.096   0.110   0.120
  0.121   0.124   0.128   0.138   0.144   0.152   0.155   0.155
  0.161   0.163   0.168   0.175   0.185   0.192   0.196   0.209
  0.221   0.224   0.232   0.249   0.249   0.255   0.263   0.272
  0.293   0.303   0.313   0.320   0.339   0.345   0.353   0.373
  0.389   0.397   0.419   0.450   0.467   0.473   0.490   0.512
  0.519   0.534   0.559   0.566   0.570   0.581   0.592   0.594
  0.601   0.607   0.617   0.621   0.633   0.639   0.655   0.664
  0.673   0.684   0.696   0.704   0.712   0.724   0.730   0.743
  0.764   0.774   0.814   0.819   0.841   0.850   0.873   0.880
  0.901   0.922   0.959   0.974   1.004   1.013   1.026   1.055
  1.062   1.080   1.085   1.109   1.122   1.131   1.162   1.172
  1.181   1.216   1.230   1.237   1.248   1.258   1.277   1.292
  1.294   1.309   1.332   1.349   1.362   1.370   1.380   1.391
  1.400   1.411   1.424   1.434   1.452   1.480   1.484   1.497
  1.521   1.535   1.550   1.559   1.566   1.576   1.585   1.620
  1.627   1.634   1.656   1.668   1.708   1.738   1.770   1.888
  1.927   2.058   2.117   2.264   2.321   2.418   2.449   2.502
  2.511   2.543   2.551   2.597   2.628   2.645   2.705   2.748
  2.762   2.788   2.806   2.833   2.858   2.875   2.883   2.911
  2.924   2.949   2.967   2.975   3.000   3.002   3.038   3.067
  3.083   3.100   3.111   3.127   3.147   3.170   3.181   3.192
  3.209   3.231   3.236   3.265   3.293   3.313   3.322   3.336
  3.351   3.381   3.391   3.405   3.422   3.447   3.462   3.491
  3.516   3.541   3.548   3.555   3.568   3.618   3.640   3.672
  3.698   3.715   3.730   3.751   3.763   3.779   3.791   3.836
  3.850   3.880   3.886   3.919   3.939   3.964   3.983   4.003
  4.028   4.070   4.076   4.113   4.147   4.170   4.189   4.203
  4.220   4.231   4.244   4.259   4.276   4.302   4.309   4.318
  4.340   4.375   4.409   4.423   4.449   4.471   4.513   4.527
  4.572   4.580   4.599   4.651   4.683   4.713   4.752   4.778
  5.062   5.130   5.173   5.243   5.255   5.313   5.327   5.406
  5.460   5.491   5.506   5.548   5.571   5.581   5.594   5.633
  5.672   5.817   5.891   5.919   6.475   6.971   7.181   7.194
  7.235   7.494   7.638  24.138  24.235  24.399  24.459  24.768
 50.129
 
 Beta MOs
 -- Occupied --
-19.626 -10.591 -10.548 -10.540 -10.529 -10.521  -1.146  -0.882
 -0.827  -0.767  -0.691  -0.631  -0.571  -0.534  -0.533  -0.505
 -0.478  -0.476  -0.444  -0.429  -0.411  -0.402  -0.360  -0.310
 -- Virtual --
 -0.031  -0.003   0.009   0.016   0.023   0.036   0.038   0.043
  0.047   0.056   0.063   0.074   0.077   0.085   0.097   0.110
  0.115   0.122   0.126   0.133   0.138   0.147   0.151   0.153
  0.156   0.162   0.164   0.168   0.175   0.182   0.190   0.193
  0.210   0.222   0.226   0.233   0.248   0.250   0.257   0.263
  0.274   0.298   0.305   0.316   0.321   0.340   0.347   0.357
  0.377   0.390   0.400   0.420   0.451   0.469   0.474   0.493
  0.513   0.530   0.536   0.561   0.570   0.574   0.583   0.594
  0.597   0.603   0.609   0.623   0.628   0.638   0.646   0.655
  0.669   0.677   0.686   0.699   0.708   0.714   0.727   0.732
  0.745   0.766   0.776   0.816   0.819   0.845   0.854   0.874
  0.882   0.901   0.921   0.958   0.974   1.003   1.011   1.028
  1.057   1.066   1.080   1.085   1.110   1.124   1.136   1.165
  1.172   1.183   1.218   1.232   1.240   1.250   1.260   1.279
  1.293   1.299   1.310   1.333   1.356   1.362   1.372   1.382
  1.394   1.406   1.411   1.426   1.436   1.455   1.482   1.487
  1.500   1.525   1.542   1.554   1.562   1.571   1.579   1.591
  1.621   1.630   1.638   1.658   1.682   1.713   1.741   1.771
  1.887   1.928   2.062   2.120   2.266   2.323   2.422   2.453
  2.510   2.514   2.549   2.557   2.606   2.634   2.653   2.716
  2.755   2.770   2.799   2.826   2.846   2.876   2.896   2.906
  2.916   2.936   2.958   2.980   2.986   3.014   3.028   3.052
  3.083   3.096   3.112   3.125   3.147   3.165   3.181   3.197
  3.213   3.219   3.241   3.249   3.274   3.302   3.328   3.339
  3.360   3.367   3.392   3.403   3.414   3.431   3.456   3.492
  3.509   3.530   3.558   3.562   3.566   3.607   3.628   3.647
  3.679   3.710   3.729   3.741   3.756   3.767   3.782   3.797
  3.848   3.863   3.887   3.896   3.926   3.946   3.968   4.002
  4.010   4.036   4.077   4.094   4.121   4.156   4.181   4.196
  4.217   4.227   4.245   4.253   4.272   4.288   4.313   4.316
  4.324   4.351   4.396   4.415   4.426   4.451   4.478   4.524
  4.527   4.575   4.589   4.605   4.684   4.704   4.713   4.769
  4.787   5.072   5.142   5.181   5.245   5.256   5.326   5.331
  5.409   5.487   5.501   5.510   5.573   5.577   5.588   5.608
  5.636   5.675   5.820   5.895   5.921   6.476   6.971   7.182
  7.194   7.236   7.494   7.639  24.139  24.245  24.399  24.466
 24.769  50.129
 --------------------------------------------------------------
 
          Ground-State Mulliken Net Atomic Charges

     Atom                 Charge (a.u.)    Spin (a.u.)
  --------------------------------------------------------
      1 C                    -0.432722       0.466091
      2 C                     0.080561      -0.221940
      3 C                    -0.553042       0.027897
      4 H                     0.248162       0.020682
      5 H                     0.138555      -0.027271
      6 H                     0.121353      -0.028813
      7 H                     0.128831      -0.000721
      8 H                     0.130034      -0.001837
      9 H                     0.138622      -0.004507
     10 C                    -0.279441       0.828627
     11 C                    -0.315055      -0.035380
     12 O                    -0.296999       0.007398
     13 H                     0.165172      -0.035762
     14 H                     0.157778      -0.038165
     15 H                     0.142317       0.036432
     16 H                     0.178799       0.008428
     17 H                     0.247077      -0.001160
  --------------------------------------------------------
  Sum of atomic charges =     0.000000
  Sum of spin   charges =     1.000000

 -----------------------------------------------------------------
                    Cartesian Multipole Moments
 -----------------------------------------------------------------
    Charge (ESU x 10^10)
                 0.0000
    Dipole Moment (Debye)
         X      -0.3138      Y      -0.3459      Z      -1.4570
       Tot       1.5300
    Quadrupole Moments (Debye-Ang)
        XX     -40.9548     XY       3.1775     YY     -36.4602
        XZ       1.7550     YZ      -0.8584     ZZ     -42.2644
    Octapole Moments (Debye-Ang^2)
       XXX     -11.8247    XXY      -4.8943    XYY      -9.5657
       YYY      -5.5981    XXZ      -9.1792    XYZ       3.3508
       YYZ       3.7451    XZZ      -0.1102    YZZ       1.2178
       ZZZ       1.8155
    Hexadecapole Moments (Debye-Ang^3)
      XXXX    -713.5666   XXXY      28.3680   XXYY    -143.8136
      XYYY       9.0126   YYYY    -229.4702   XXXZ      -5.9727
      XXYZ      -2.6134   XYYZ      -6.1108   YYYZ      -5.2141
      XXZZ    -154.0129   XYZZ       7.3307   YYZZ     -67.0219
      XZZZ      -7.6002   YZZZ      -4.6928   ZZZZ    -169.0249
 -----------------------------------------------------------------
 Calculating analytic gradient of the SCF energy
 Gradient of Coulomb and Exchange Energy
            1           2           3           4           5           6
    1  -5.5249378  -1.4297399  -2.4720843   3.0180083  -3.5172713   0.4083235
    2   5.9305341  -2.1561056  -3.6697170   0.9252010  -0.2271148   4.2715315
    3   1.1684251  -2.4087854  -0.1039379  -3.2712331   2.3388105  -1.1048182
            7           8           9          10          11          12
    1  -2.4952258   2.3902032  -2.3318849   0.4277245   2.4678873   5.8986154
    2  -1.1141278  -3.0684597  -1.7358771   0.7207225  -1.1644965  -0.6707145
    3   3.0257938   0.2712645  -3.0253580   3.3713079   1.8840062  -8.7404337
           13          14          15          16          17
    1   0.1704933  -1.7287090   3.5820183  -0.2660442   1.4026236
    2   4.4700964  -2.1117487  -0.1938949  -4.4734779   4.2676489
    3   0.9709164   3.7217118   2.6722733  -0.7167190  -0.0532241
 Gradient of SCF Energy
            1           2           3           4           5           6
    1   0.0071416  -0.0112095   0.0002246  -0.0005197   0.0017163  -0.0000945
    2  -0.0078149   0.0070830  -0.0009728   0.0002068  -0.0005702  -0.0018227
    3  -0.0010722  -0.0025790   0.0010664   0.0016385  -0.0010150   0.0000609
            7           8           9          10          11          12
    1   0.0012630  -0.0010020   0.0017979   0.0040575   0.0019648  -0.0020560
    2   0.0010543   0.0017758   0.0016287  -0.0000491  -0.0001767   0.0006365
    3  -0.0016909   0.0005528   0.0020292   0.0020061  -0.0027863   0.0091246
           13          14          15          16          17
    1  -0.0006884   0.0004201  -0.0024830  -0.0004706  -0.0000620
    2  -0.0013940   0.0002538   0.0004415   0.0018079  -0.0020880
    3  -0.0012393  -0.0018148  -0.0024050  -0.0001932  -0.0016827
 Max gradient component =       1.121E-02
 RMS gradient           =       3.064E-03
 Gradient time:  CPU 45.81 s  wall 46.42 s
 Geometry Optimization Parameters
   NAtoms,    NIC,     NZ,  NCons,   NDum,   NFix, NCnnct, MaxDiis
       17     159       0       0       0       0       0       0

 Cartesian Hessian Update
 Hessian Updated using Powell/Murtagh-Sargent Update
  Mixing factors:     0.000048 Powell
                      0.999952 Murtagh-Sargent


** GEOMETRY OPTIMIZATION IN DELOCALIZED INTERNAL COORDINATES **
   Searching for a Transition State

   Optimization Cycle:   2

                       Coordinates (Angstroms)
     ATOM              X           Y           Z
      1  C         1.975763   -1.169041    0.028923
      2  C         1.157111   -0.138378    0.385738
      3  C         1.566197    1.303134    0.196499
      4  H         0.402498   -0.319594    1.145178
      5  H         2.833526   -1.013904   -0.617814
      6  H         1.757510   -2.190471    0.318645
      7  H         2.194145    1.425043   -0.689999
      8  H         0.708824    1.973619    0.108377
      9  H         2.145087    1.643458    1.062243
     10  C        -0.603844   -0.255029   -1.064722
     11  C        -1.755982    0.388211   -0.360141
     12  O        -2.089288   -0.227843    0.885763
     13  H        -0.662574   -1.330389   -1.212260
     14  H        -0.172572    0.283633   -1.903549
     15  H        -2.644017    0.403082   -1.018834
     16  H        -1.539471    1.434069   -0.124523
     17  H        -2.303773   -1.149302    0.708263
   Point Group: c1    Number of degrees of freedom:    45


   Energy is   -272.218299201

 GETINT wrote B to file, NVib is           45
 Hessian Updated using Powell/Murtagh-Sargent Update
  Mixing factors:     0.430228 Powell
                      0.569772 Murtagh-Sargent

 45 Hessian modes will be used to form the next step
  Hessian Eigenvalues:
     0.000390    0.005930    0.011721    0.020437    0.026370    0.027158
     0.027277    0.030144    0.031153    0.037418    0.040970    0.043255
     0.048512    0.049509    0.051889    0.056557    0.057627    0.061424
     0.066474    0.070455    0.077608    0.080700    0.081334    0.108896
     0.113993    0.116667    0.140771    0.154160    0.159981    0.160000
     0.279538    0.290058    0.307766    0.327724    0.330366    0.335015
     0.341528    0.344362    0.351513    0.352498    0.353406    0.355165
     0.374512    0.521295    0.549057
**WARNING** Hessian does not have the Desired Local Structure

 Transition State Search - Taking P-RFO Step
 Searching for Lamda that Maximizes Along the Lowest mode
 Value Taken    Lamda =   0.00066495
 Searching for Lamda that Minimizes Along All other modes
 Value Taken    Lamda =  -0.00102522
 Calculated Step too Large.  Step scaled by  0.192349
 Step Taken.  Stepsize is  0.300000

                             Maximum     Tolerance    Cnvgd?
         Gradient           0.010039      0.000300      NO
         Displacement       0.150909      0.001200      NO
         Energy change      0.000100      0.000001      NO


 New Cartesian Coordinates Obtained by Inverse Iteration

 Displacement from previous Coordinates is:  0.213842
 ----------------------------------------------------
       Standard Nuclear Orientation (Angstroms)
    I     Atom         X            Y            Z
 ----------------------------------------------------
    1      C       1.981692    -1.164703     0.024342
    2      C       1.159088    -0.144124     0.391087
    3      C       1.557667     1.300130     0.207655
    4      H       0.403761    -0.334521     1.146876
    5      H       2.835850    -0.997388    -0.623324
    6      H       1.770513    -2.189637     0.304817
    7      H       2.147434     1.436912    -0.701888
    8      H       0.695706     1.968073     0.169054
    9      H       2.171773     1.627189     1.053036
   10      C      -0.600953    -0.265799    -1.064844
   11      C      -1.750990     0.391007    -0.371456
   12      O      -2.085630    -0.201336     0.883548
   13      H      -0.665459    -1.341677    -1.203057
   14      H      -0.163331     0.262775    -1.906274
   15      H      -2.638749     0.394835    -1.029137
   16      H      -1.533657     1.440295    -0.156050
   17      H      -2.315573    -1.121733     0.723406
 ----------------------------------------------------
 Molecular Point Group                 C1    NOp =  1
 Largest Abelian Subgroup              C1    NOp =  1
 Nuclear Repulsion Energy =   237.9755568793 hartrees
 There are       25 alpha and       24 beta electrons
 Applying Cartesian multipole field
    Component          Value
    ---------          -----
     (2,0,0)        1.00000E-11
     (0,2,0)        2.00000E-11
     (0,0,2)       -3.00000E-11
 Nucleus-field energy     =     0.0000000051 hartrees
 Requested basis set is non-standard
 There are 138 shells and 314 basis functions
 A cutoff of  1.0D-11 yielded   8907 shell pairs
 There are     45919 function pairs (     55163 Cartesian)
 Smallest overlap matrix eigenvalue = 2.30E-05
 Guess MOs from SCF MO coefficient file
Reading MOs from coefficient file
Reading MOs from coefficient file
 An unrestricted hybrid HF-DFT SCF calculation will be
 performed using Pulay DIIS extrapolation
 Exchange:     0.5400 Hartree-Fock + 1.0000 M062X
 SCF converges when DIIS error is below 1.0E-08
Geometry optimization detected.  Setting ReadMinima to 0
Setting SaveMinima to 0
 ---------------------------------------
  Cycle       Energy         DIIS Error
 ---------------------------------------
    1    -272.2172014173      2.55E-04
    2    -272.2183142787      3.46E-05
    3    -272.2183461723      9.71E-06
    4    -272.2183477482      6.84E-06
    5    -272.2183484128      1.40E-06
    6    -272.2183485112      7.63E-07
    7    -272.2183485680      3.81E-07
    8    -272.2183486224      2.11E-07
    9    -272.2183486412      8.64E-08
   10    -272.2183486427      5.03E-08
   11    -272.2183486427      1.22E-08
   12    -272.2183486423      3.98E-09 Convergence criterion met
 ---------------------------------------
 <S^2> = 0.7790
 SCF time:  CPU 192.82 s  wall 204.12 s
 SCF   energy in the final basis set = -272.2183486423
 Total energy in the final basis set = -272.2183486423
 Analysis of SCF Wavefunction
 
 --------------------------------------------------------------
                    Orbital Energies (a.u.)
 --------------------------------------------------------------
 
 Alpha MOs
 -- Occupied --
-19.626 -10.590 -10.546 -10.546 -10.529 -10.523  -1.147  -0.887
 -0.842  -0.772  -0.707  -0.635  -0.578  -0.540  -0.537  -0.513
 -0.480  -0.477  -0.451  -0.432  -0.417  -0.403  -0.366  -0.341
 -0.230
 -- Virtual --
 -0.005   0.008   0.013   0.018   0.033   0.034   0.037   0.043
  0.050   0.057   0.072   0.076   0.084   0.096   0.110   0.120
  0.121   0.124   0.129   0.139   0.144   0.151   0.154   0.156
  0.162   0.162   0.168   0.175   0.185   0.193   0.197   0.208
  0.221   0.224   0.231   0.248   0.250   0.255   0.263   0.273
  0.294   0.303   0.314   0.320   0.339   0.345   0.354   0.373
  0.389   0.397   0.418   0.450   0.468   0.475   0.490   0.513
  0.520   0.536   0.559   0.567   0.571   0.581   0.592   0.595
  0.601   0.608   0.618   0.623   0.633   0.640   0.656   0.664
  0.674   0.684   0.696   0.704   0.712   0.724   0.732   0.745
  0.765   0.773   0.813   0.818   0.844   0.849   0.872   0.881
  0.905   0.922   0.959   0.973   1.002   1.012   1.027   1.056
  1.062   1.078   1.087   1.108   1.124   1.131   1.165   1.173
  1.179   1.218   1.230   1.243   1.250   1.258   1.281   1.292
  1.296   1.306   1.332   1.350   1.363   1.371   1.383   1.389
  1.401   1.410   1.425   1.435   1.452   1.482   1.483   1.496
  1.523   1.535   1.550   1.560   1.566   1.575   1.587   1.621
  1.628   1.636   1.657   1.670   1.710   1.738   1.770   1.892
  1.929   2.058   2.119   2.266   2.323   2.420   2.453   2.503
  2.511   2.544   2.550   2.599   2.630   2.647   2.705   2.748
  2.762   2.790   2.807   2.836   2.860   2.877   2.886   2.912
  2.926   2.950   2.967   2.975   3.001   3.005   3.037   3.068
  3.086   3.098   3.112   3.126   3.150   3.172   3.182   3.193
  3.209   3.230   3.237   3.270   3.296   3.309   3.325   3.337
  3.354   3.381   3.392   3.400   3.421   3.448   3.459   3.493
  3.517   3.546   3.547   3.558   3.567   3.616   3.644   3.671
  3.700   3.715   3.731   3.749   3.763   3.779   3.793   3.835
  3.850   3.883   3.887   3.920   3.940   3.967   3.989   4.007
  4.035   4.072   4.078   4.116   4.149   4.171   4.191   4.207
  4.223   4.231   4.245   4.261   4.275   4.304   4.311   4.324
  4.340   4.379   4.411   4.426   4.445   4.477   4.512   4.532
  4.576   4.582   4.603   4.652   4.687   4.717   4.752   4.782
  5.066   5.131   5.173   5.242   5.255   5.313   5.333   5.408
  5.462   5.493   5.510   5.550   5.574   5.583   5.595   5.635
  5.679   5.821   5.895   5.923   6.481   6.972   7.183   7.194
  7.236   7.497   7.639  24.138  24.237  24.404  24.465  24.778
 50.130
 
 Beta MOs
 -- Occupied --
-19.626 -10.591 -10.547 -10.539 -10.529 -10.521  -1.146  -0.883
 -0.827  -0.767  -0.691  -0.631  -0.572  -0.534  -0.533  -0.505
 -0.478  -0.476  -0.444  -0.429  -0.411  -0.402  -0.360  -0.310
 -- Virtual --
 -0.030  -0.003   0.009   0.016   0.023   0.036   0.038   0.043
  0.047   0.056   0.063   0.074   0.077   0.086   0.096   0.109
  0.115   0.122   0.126   0.133   0.139   0.147   0.151   0.153
  0.157   0.162   0.164   0.169   0.175   0.183   0.190   0.195
  0.210   0.222   0.226   0.232   0.248   0.251   0.257   0.263
  0.275   0.298   0.305   0.317   0.320   0.340   0.347   0.358
  0.377   0.390   0.400   0.420   0.451   0.470   0.476   0.493
  0.513   0.531   0.539   0.562   0.571   0.575   0.582   0.595
  0.598   0.603   0.610   0.624   0.630   0.638   0.647   0.657
  0.668   0.678   0.686   0.700   0.707   0.713   0.727   0.733
  0.747   0.767   0.775   0.815   0.818   0.846   0.853   0.872
  0.882   0.905   0.921   0.958   0.973   1.001   1.011   1.029
  1.057   1.067   1.078   1.087   1.109   1.125   1.136   1.168
  1.173   1.181   1.219   1.231   1.245   1.251   1.260   1.283
  1.294   1.300   1.308   1.334   1.357   1.363   1.374   1.384
  1.392   1.408   1.410   1.427   1.437   1.456   1.484   1.486
  1.499   1.527   1.542   1.554   1.562   1.571   1.580   1.593
  1.621   1.630   1.639   1.659   1.683   1.715   1.741   1.771
  1.892   1.929   2.062   2.121   2.268   2.324   2.423   2.457
  2.510   2.515   2.550   2.555   2.607   2.636   2.655   2.716
  2.755   2.770   2.801   2.827   2.848   2.879   2.897   2.909
  2.916   2.938   2.959   2.980   2.987   3.015   3.030   3.051
  3.084   3.098   3.109   3.125   3.149   3.165   3.183   3.198
  3.214   3.218   3.240   3.252   3.279   3.304   3.325   3.342
  3.364   3.368   3.392   3.403   3.409   3.430   3.457   3.490
  3.510   3.531   3.559   3.565   3.569   3.608   3.625   3.650
  3.681   3.710   3.731   3.738   3.757   3.765   3.782   3.798
  3.847   3.863   3.889   3.897   3.927   3.947   3.972   4.004
  4.016   4.044   4.079   4.095   4.123   4.157   4.182   4.198
  4.220   4.230   4.246   4.254   4.274   4.287   4.315   4.317
  4.331   4.351   4.400   4.416   4.429   4.447   4.483   4.525
  4.532   4.578   4.590   4.609   4.686   4.706   4.718   4.770
  4.790   5.076   5.144   5.181   5.245   5.257   5.326   5.337
  5.411   5.487   5.505   5.515   5.576   5.579   5.590   5.609
  5.638   5.681   5.825   5.899   5.925   6.482   6.972   7.184
  7.194   7.237   7.497   7.640  24.139  24.247  24.404  24.472
 24.780  50.130
 --------------------------------------------------------------
 
          Ground-State Mulliken Net Atomic Charges

     Atom                 Charge (a.u.)    Spin (a.u.)
  --------------------------------------------------------
      1 C                    -0.429404       0.458499
      2 C                     0.074363      -0.219685
      3 C                    -0.553949       0.027289
      4 H                     0.246700       0.020642
      5 H                     0.138064      -0.026771
      6 H                     0.121220      -0.028538
      7 H                     0.130192      -0.000863
      8 H                     0.131640      -0.001323
      9 H                     0.140385      -0.004759
     10 C                    -0.278386       0.834501
     11 C                    -0.314136      -0.035331
     12 O                    -0.297602       0.007600
     13 H                     0.165697      -0.036036
     14 H                     0.156068      -0.038628
     15 H                     0.143010       0.036787
     16 H                     0.178813       0.007840
     17 H                     0.247324      -0.001225
  --------------------------------------------------------
  Sum of atomic charges =     0.000000
  Sum of spin   charges =     1.000000

 -----------------------------------------------------------------
                    Cartesian Multipole Moments
 -----------------------------------------------------------------
    Charge (ESU x 10^10)
                 0.0000
    Dipole Moment (Debye)
         X      -0.3408      Y      -0.3692      Z      -1.4406
       Tot       1.5257
    Quadrupole Moments (Debye-Ang)
        XX     -40.8415     XY       3.2861     YY     -36.5316
        XZ       1.6735     YZ      -0.9387     ZZ     -42.2109
    Octapole Moments (Debye-Ang^2)
       XXX     -12.4650    XXY      -5.1624    XYY      -9.5089
       YYY      -5.6164    XXZ      -8.8595    XYZ       3.5476
       YYZ       3.7297    XZZ      -0.2617    YZZ       1.0379
       ZZZ       1.8478
    Hexadecapole Moments (Debye-Ang^3)
      XXXX    -710.8672   XXXY      30.8593   XXYY    -143.7319
      XYYY       9.8654   YYYY    -228.6121   XXXZ      -7.0617
      XXYZ      -3.3877   XYYZ      -6.3848   YYYZ      -5.9846
      XXZZ    -153.4364   XYZZ       8.0778   YYZZ     -67.0285
      XZZZ      -8.5637   YZZZ      -5.9131   ZZZZ    -169.5546
 -----------------------------------------------------------------
 Calculating analytic gradient of the SCF energy
 Gradient of Coulomb and Exchange Energy
            1           2           3           4           5           6
    1  -5.5906539  -1.3776551  -2.4651818   3.0208447  -3.5055880   0.3812673
    2   5.8626521  -2.0824940  -3.6700369   0.9778912  -0.2721580   4.2867334
    3   1.2301318  -2.5409163  -0.1187479  -3.2471326   2.3477160  -1.0677962
            7           8           9          10          11          12
    1  -2.3619871   2.4339125  -2.4578475   0.3825671   2.4680625   5.8522302
    2  -1.1722547  -3.0708199  -1.6831132   0.7509835  -1.1252871  -0.8257982
    3   3.1091990   0.0831983  -2.9560770   3.3971982   1.8856786  -8.7013099
           13          14          15          16          17
    1   0.2031532  -1.7553717   3.5810177  -0.2843395   1.4755694
    2   4.4744886  -2.0611853  -0.1437041  -4.4974832   4.2515859
    3   0.9307187   3.7348954   2.6742492  -0.6213283  -0.1396771
 Gradient of SCF Energy
            1           2           3           4           5           6
    1   0.0064449  -0.0108039   0.0003303  -0.0004401   0.0013732  -0.0001301
    2  -0.0066004   0.0064169  -0.0011881   0.0001988  -0.0004443  -0.0014408
    3  -0.0008496  -0.0029040   0.0007418   0.0013507  -0.0008381  -0.0000291
            7           8           9          10          11          12
    1   0.0009964  -0.0007012   0.0016724   0.0043619   0.0020675  -0.0017611
    2   0.0008246   0.0016426   0.0013341  -0.0001756  -0.0003271   0.0006858
    3  -0.0012866   0.0009693   0.0015537   0.0023771  -0.0022062   0.0076939
           13          14          15          16          17
    1  -0.0008035   0.0002436  -0.0020812  -0.0006216  -0.0001477
    2  -0.0010930   0.0001641   0.0003138   0.0014301  -0.0017416
    3  -0.0013408  -0.0015685  -0.0019289  -0.0003333  -0.0014015
 Max gradient component =       1.080E-02
 RMS gradient           =       2.780E-03
 Gradient time:  CPU 46.07 s  wall 46.49 s
 Geometry Optimization Parameters
   NAtoms,    NIC,     NZ,  NCons,   NDum,   NFix, NCnnct, MaxDiis
       17     159       0       0       0       0       0       0

 Cartesian Hessian Update
 Hessian Updated using Powell/Murtagh-Sargent Update
  Mixing factors:     0.973127 Powell
                      0.026873 Murtagh-Sargent


** GEOMETRY OPTIMIZATION IN DELOCALIZED INTERNAL COORDINATES **
   Searching for a Transition State

   Optimization Cycle:   3

                       Coordinates (Angstroms)
     ATOM              X           Y           Z
      1  C         1.981692   -1.164703    0.024342
      2  C         1.159088   -0.144124    0.391087
      3  C         1.557667    1.300130    0.207655
      4  H         0.403761   -0.334521    1.146876
      5  H         2.835850   -0.997388   -0.623324
      6  H         1.770513   -2.189637    0.304817
      7  H         2.147434    1.436912   -0.701888
      8  H         0.695706    1.968073    0.169054
      9  H         2.171773    1.627189    1.053036
     10  C        -0.600953   -0.265799   -1.064844
     11  C        -1.750990    0.391007   -0.371456
     12  O        -2.085630   -0.201336    0.883548
     13  H        -0.665459   -1.341677   -1.203057
     14  H        -0.163331    0.262775   -1.906274
     15  H        -2.638749    0.394835   -1.029137
     16  H        -1.533657    1.440295   -0.156050
     17  H        -2.315573   -1.121733    0.723406
   Point Group: c1    Number of degrees of freedom:    45


   Energy is   -272.218348642

 GETINT wrote B to file, NVib is           45
 Hessian Updated using Powell/Murtagh-Sargent Update
  Mixing factors:     0.992333 Powell
                      0.007667 Murtagh-Sargent

 45 Hessian modes will be used to form the next step
  Hessian Eigenvalues:
     0.000051    0.005946    0.011717    0.020435    0.026367    0.027157
     0.027277    0.030090    0.031147    0.037415    0.040924    0.043260
     0.048500    0.049496    0.051885    0.056554    0.057627    0.061412
     0.066447    0.070454    0.077610    0.080700    0.081333    0.108892
     0.113994    0.116662    0.140717    0.154143    0.159980    0.160001
     0.279535    0.290058    0.307766    0.327718    0.330364    0.335015
     0.341525    0.344363    0.351512    0.352498    0.353406    0.355166
     0.374483    0.521177    0.549055
**WARNING** Magnitude of eigenvalue   1 too small.  Replaced by     0.000100
**WARNING** Hessian does not have the Desired Local Structure

 Transition State Search - Taking P-RFO Step
 Searching for Lamda that Maximizes Along the Lowest mode
 Value Taken    Lamda =   0.00025654
 Searching for Lamda that Minimizes Along All other modes
 Value Taken    Lamda =  -0.00081867
 Calculated Step too Large.  Step scaled by  0.233641
 Step Taken.  Stepsize is  0.300000

                             Maximum     Tolerance    Cnvgd?
         Gradient           0.008293      0.000300      NO
         Displacement       0.148686      0.001200      NO
         Energy change     -0.000049      0.000001      NO


 New Cartesian Coordinates Obtained by Inverse Iteration

 Displacement from previous Coordinates is:  0.220289
 ----------------------------------------------------
       Standard Nuclear Orientation (Angstroms)
    I     Atom         X            Y            Z
 ----------------------------------------------------
    1      C       1.990929    -1.161210     0.019566
    2      C       1.164900    -0.152374     0.399021
    3      C       1.547347     1.296265     0.219907
    4      H       0.407661    -0.353456     1.149672
    5      H       2.840384    -0.979914    -0.629773
    6      H       1.788859    -2.190191     0.290021
    7      H       2.098790     1.449737    -0.710252
    8      H       0.679355     1.955867     0.226260
    9      H       2.191959     1.614783     1.044476
   10      C      -0.600562    -0.277269    -1.066546
   11      C      -1.746318     0.395885    -0.383403
   12      O      -2.080604    -0.172036     0.880750
   13      H      -0.671392    -1.353707    -1.193383
   14      H      -0.155251     0.239848    -1.910511
   15      H      -2.634559     0.390855    -1.038739
   16      H      -1.524170     1.447537    -0.188390
   17      H      -2.328187    -1.090322     0.739113
 ----------------------------------------------------
 Molecular Point Group                 C1    NOp =  1
 Largest Abelian Subgroup              C1    NOp =  1
 Nuclear Repulsion Energy =   238.0901234788 hartrees
 There are       25 alpha and       24 beta electrons
 Applying Cartesian multipole field
    Component          Value
    ---------          -----
     (2,0,0)        1.00000E-11
     (0,2,0)        2.00000E-11
     (0,0,2)       -3.00000E-11
 Nucleus-field energy     =     0.0000000050 hartrees
 Requested basis set is non-standard
 There are 138 shells and 314 basis functions
 A cutoff of  1.0D-11 yielded   8909 shell pairs
 There are     45933 function pairs (     55177 Cartesian)
 Smallest overlap matrix eigenvalue = 2.23E-05
 Guess MOs from SCF MO coefficient file
Reading MOs from coefficient file
Reading MOs from coefficient file
 An unrestricted hybrid HF-DFT SCF calculation will be
 performed using Pulay DIIS extrapolation
 Exchange:     0.5400 Hartree-Fock + 1.0000 M062X
 SCF converges when DIIS error is below 1.0E-08
Geometry optimization detected.  Setting ReadMinima to 0
Setting SaveMinima to 0
 ---------------------------------------
  Cycle       Energy         DIIS Error
 ---------------------------------------
    1    -272.2164037043      2.77E-04
    2    -272.2184342568      3.57E-05
    3    -272.2184719708      1.06E-05
    4    -272.2184757599      8.12E-06
    5    -272.2184774672      2.44E-06
    6    -272.2184782374      1.47E-06
    7    -272.2184788401      9.07E-07
    8    -272.2184791415      2.40E-07
    9    -272.2184791653      1.32E-07
   10    -272.2184791670      4.63E-08
   11    -272.2184791673      1.74E-08
   12    -272.2184791672      5.92E-09 Convergence criterion met
 ---------------------------------------
 <S^2> = 0.7777
 SCF time:  CPU 195.84 s  wall 206.18 s
 SCF   energy in the final basis set = -272.2184791672
 Total energy in the final basis set = -272.2184791672
 Analysis of SCF Wavefunction
 
 --------------------------------------------------------------
                    Orbital Energies (a.u.)
 --------------------------------------------------------------
 
 Alpha MOs
 -- Occupied --
-19.626 -10.590 -10.546 -10.545 -10.529 -10.522  -1.147  -0.887
 -0.842  -0.772  -0.707  -0.635  -0.579  -0.541  -0.537  -0.513
 -0.480  -0.477  -0.451  -0.432  -0.417  -0.403  -0.366  -0.340
 -0.230
 -- Virtual --
 -0.005   0.008   0.013   0.018   0.032   0.034   0.037   0.043
  0.050   0.057   0.072   0.075   0.084   0.095   0.109   0.121
  0.121   0.124   0.129   0.139   0.144   0.151   0.154   0.157
  0.162   0.163   0.168   0.175   0.185   0.194   0.197   0.208
  0.221   0.224   0.231   0.248   0.251   0.256   0.264   0.274
  0.294   0.303   0.315   0.320   0.339   0.345   0.354   0.374
  0.389   0.397   0.418   0.450   0.468   0.476   0.490   0.513
  0.521   0.539   0.560   0.567   0.573   0.580   0.593   0.596
  0.601   0.610   0.619   0.625   0.634   0.641   0.657   0.663
  0.675   0.684   0.697   0.703   0.711   0.725   0.734   0.746
  0.765   0.772   0.812   0.816   0.845   0.847   0.871   0.882
  0.909   0.922   0.958   0.973   1.000   1.010   1.028   1.056
  1.061   1.075   1.090   1.107   1.125   1.131   1.167   1.175
  1.178   1.218   1.230   1.248   1.251   1.258   1.282   1.292
  1.301   1.304   1.333   1.352   1.364   1.372   1.384   1.388
  1.402   1.411   1.425   1.435   1.452   1.482   1.484   1.496
  1.524   1.536   1.550   1.561   1.566   1.574   1.589   1.620
  1.628   1.637   1.659   1.672   1.712   1.738   1.770   1.898
  1.930   2.058   2.120   2.268   2.325   2.421   2.456   2.503
  2.512   2.545   2.550   2.602   2.631   2.649   2.705   2.748
  2.763   2.791   2.809   2.838   2.863   2.878   2.888   2.912
  2.927   2.951   2.966   2.975   3.001   3.008   3.037   3.068
  3.089   3.096   3.113   3.124   3.154   3.175   3.182   3.193
  3.208   3.228   3.240   3.275   3.297   3.306   3.328   3.337
  3.355   3.382   3.390   3.398   3.419   3.449   3.456   3.493
  3.516   3.546   3.551   3.559   3.566   3.615   3.646   3.668
  3.702   3.716   3.730   3.747   3.763   3.778   3.794   3.832
  3.850   3.885   3.887   3.920   3.941   3.968   3.994   4.010
  4.042   4.073   4.079   4.117   4.149   4.171   4.193   4.210
  4.224   4.231   4.247   4.263   4.274   4.301   4.313   4.331
  4.341   4.382   4.412   4.427   4.441   4.482   4.511   4.536
  4.578   4.584   4.606   4.652   4.691   4.722   4.754   4.787
  5.072   5.132   5.172   5.242   5.256   5.313   5.341   5.411
  5.464   5.495   5.513   5.551   5.577   5.586   5.596   5.637
  5.685   5.826   5.901   5.928   6.487   6.972   7.185   7.194
  7.238   7.500   7.640  24.137  24.240  24.409  24.471  24.790
 50.131
 
 Beta MOs
 -- Occupied --
-19.626 -10.590 -10.546 -10.539 -10.528 -10.520  -1.147  -0.883
 -0.827  -0.768  -0.691  -0.631  -0.572  -0.534  -0.533  -0.505
 -0.478  -0.476  -0.444  -0.430  -0.410  -0.401  -0.360  -0.310
 -- Virtual --
 -0.029  -0.003   0.009   0.016   0.023   0.036   0.037   0.043
  0.047   0.056   0.063   0.075   0.076   0.086   0.096   0.109
  0.116   0.123   0.125   0.134   0.139   0.147   0.150   0.153
  0.158   0.162   0.165   0.169   0.175   0.183   0.191   0.196
  0.210   0.223   0.226   0.232   0.247   0.252   0.257   0.264
  0.277   0.299   0.305   0.317   0.320   0.341   0.347   0.359
  0.378   0.390   0.400   0.420   0.451   0.470   0.478   0.493
  0.513   0.533   0.541   0.562   0.571   0.576   0.582   0.595
  0.599   0.603   0.611   0.624   0.631   0.639   0.649   0.658
  0.668   0.678   0.686   0.701   0.707   0.712   0.728   0.735
  0.748   0.767   0.774   0.814   0.816   0.847   0.852   0.871
  0.884   0.908   0.922   0.957   0.972   1.000   1.009   1.030
  1.056   1.067   1.075   1.090   1.108   1.127   1.135   1.171
  1.175   1.179   1.219   1.231   1.250   1.251   1.261   1.283
  1.294   1.303   1.309   1.334   1.358   1.364   1.375   1.386
  1.391   1.407   1.413   1.427   1.437   1.456   1.485   1.486
  1.499   1.528   1.542   1.555   1.563   1.570   1.580   1.594
  1.621   1.631   1.641   1.660   1.685   1.717   1.742   1.772
  1.897   1.931   2.061   2.123   2.270   2.326   2.424   2.460
  2.509   2.518   2.551   2.555   2.609   2.638   2.657   2.717
  2.755   2.771   2.803   2.827   2.850   2.883   2.898   2.910
  2.917   2.938   2.961   2.979   2.989   3.016   3.031   3.050
  3.083   3.102   3.105   3.126   3.149   3.165   3.185   3.198
  3.214   3.217   3.238   3.255   3.283   3.304   3.322   3.345
  3.365   3.369   3.392   3.400   3.407   3.429   3.458   3.486
  3.509   3.530   3.560   3.566   3.574   3.609   3.622   3.652
  3.680   3.710   3.733   3.734   3.757   3.766   3.781   3.800
  3.844   3.862   3.891   3.897   3.928   3.948   3.974   4.005
  4.020   4.052   4.081   4.096   4.124   4.158   4.182   4.200
  4.223   4.233   4.246   4.256   4.276   4.286   4.314   4.317
  4.339   4.351   4.403   4.416   4.431   4.443   4.487   4.523
  4.536   4.581   4.591   4.613   4.687   4.708   4.724   4.772
  4.794   5.081   5.146   5.179   5.244   5.257   5.326   5.344
  5.414   5.488   5.510   5.519   5.579   5.582   5.592   5.611
  5.640   5.687   5.829   5.905   5.930   6.488   6.973   7.186
  7.194   7.239   7.501   7.641  24.137  24.250  24.410  24.478
 24.792  50.131
 --------------------------------------------------------------
 
          Ground-State Mulliken Net Atomic Charges

     Atom                 Charge (a.u.)    Spin (a.u.)
  --------------------------------------------------------
      1 C                    -0.426058       0.438612
      2 C                     0.068521      -0.216112
      3 C                    -0.556370       0.026496
      4 H                     0.245117       0.020415
      5 H                     0.137597      -0.025619
      6 H                     0.120522      -0.027414
      7 H                     0.132143      -0.000926
      8 H                     0.133958      -0.000815
      9 H                     0.141889      -0.004822
     10 C                    -0.278178       0.850206
     11 C                    -0.312601      -0.035201
     12 O                    -0.298043       0.007894
     13 H                     0.166211      -0.036640
     14 H                     0.155161      -0.039332
     15 H                     0.143600       0.037275
     16 H                     0.178803       0.007303
     17 H                     0.247730      -0.001322
  --------------------------------------------------------
  Sum of atomic charges =     0.000000
  Sum of spin   charges =     1.000000

 -----------------------------------------------------------------
                    Cartesian Multipole Moments
 -----------------------------------------------------------------
    Charge (ESU x 10^10)
                 0.0000
    Dipole Moment (Debye)
         X      -0.3777      Y      -0.3912      Z      -1.4248
       Tot       1.5251
    Quadrupole Moments (Debye-Ang)
        XX     -40.7184     XY       3.3953     YY     -36.6106
        XZ       1.5766     YZ      -1.0244     ZZ     -42.1500
    Octapole Moments (Debye-Ang^2)
       XXX     -13.2839    XXY      -5.4399    XYY      -9.4108
       YYY      -5.6466    XXZ      -8.5223    XYZ       3.7650
       YYZ       3.6881    XZZ      -0.4535    YZZ       0.8633
       ZZZ       1.8806
    Hexadecapole Moments (Debye-Ang^3)
      XXXX    -708.3806   XXXY      33.7729   XXYY    -143.7790
      XYYY      11.0901   YYYY    -227.8675   XXXZ      -8.5272
      XXYZ      -4.1934   XYYZ      -6.6830   YYYZ      -6.7835
      XXZZ    -152.9847   XYZZ       8.9753   YYZZ     -67.0691
      XZZZ      -9.7818   YZZZ      -7.1600   ZZZZ    -170.3079
 -----------------------------------------------------------------
 Calculating analytic gradient of the SCF energy
 Gradient of Coulomb and Exchange Energy
            1           2           3           4           5           6
    1  -5.6630151  -1.3026663  -2.4580505   3.0185473  -3.4890635   0.3484404
    2   5.8409482  -2.0541052  -3.6525118   1.0369838  -0.3265957   4.3029921
    3   1.3443697  -2.7270052  -0.1383300  -3.2152481   2.3571093  -1.0248583
            7           8           9          10          11          12
    1  -2.2177708   2.4846942  -2.5667561   0.3194937   2.4718157   5.7839400
    2  -1.2401861  -3.0547237  -1.6461560   0.7764119  -1.0886737  -0.9846143
    3   3.1867639  -0.0800852  -2.8889528   3.4021270   1.9067245  -8.6574526
           13          14          15          16          17
    1   0.2364753  -1.7845525   3.5830940  -0.3227163   1.5580904
    2   4.4774269  -2.0013093  -0.1000436  -4.5162381   4.2303946
    3   0.8797222   3.7443951   2.6737665  -0.5283177  -0.2347283
 Gradient of SCF Energy
            1           2           3           4           5           6
    1   0.0060302  -0.0114597   0.0005199  -0.0003500   0.0010272  -0.0001360
    2  -0.0058369   0.0058635  -0.0008923   0.0002130  -0.0003143  -0.0011195
    3  -0.0007647  -0.0036372   0.0006303   0.0012248  -0.0006697  -0.0001217
            7           8           9          10          11          12
    1   0.0007796  -0.0004359   0.0014508   0.0055616   0.0017563  -0.0012687
    2   0.0006058   0.0012329   0.0010579  -0.0002918  -0.0003741   0.0005592
    3  -0.0010530   0.0012252   0.0011016   0.0033664  -0.0015807   0.0060481
           13          14          15          16          17
    1  -0.0009202   0.0000040  -0.0016228  -0.0006372  -0.0002990
    2  -0.0008089   0.0000917   0.0001928   0.0011404  -0.0013193
    3  -0.0014788  -0.0013854  -0.0014776  -0.0004070  -0.0010207
 Max gradient component =       1.146E-02
 RMS gradient           =       2.684E-03
 Gradient time:  CPU 45.29 s  wall 45.69 s
 Geometry Optimization Parameters
   NAtoms,    NIC,     NZ,  NCons,   NDum,   NFix, NCnnct, MaxDiis
       17     159       0       0       0       0       0       0

 Cartesian Hessian Update
 Hessian Updated using Powell/Murtagh-Sargent Update
  Mixing factors:     0.974345 Powell
                      0.025655 Murtagh-Sargent


** GEOMETRY OPTIMIZATION IN DELOCALIZED INTERNAL COORDINATES **
   Searching for a Transition State

   Optimization Cycle:   4

                       Coordinates (Angstroms)
     ATOM              X           Y           Z
      1  C         1.990929   -1.161210    0.019566
      2  C         1.164900   -0.152374    0.399021
      3  C         1.547347    1.296265    0.219907
      4  H         0.407661   -0.353456    1.149672
      5  H         2.840384   -0.979914   -0.629773
      6  H         1.788859   -2.190191    0.290021
      7  H         2.098790    1.449737   -0.710252
      8  H         0.679355    1.955867    0.226260
      9  H         2.191959    1.614783    1.044476
     10  C        -0.600562   -0.277269   -1.066546
     11  C        -1.746318    0.395885   -0.383403
     12  O        -2.080604   -0.172036    0.880750
     13  H        -0.671392   -1.353707   -1.193383
     14  H        -0.155251    0.239848   -1.910511
     15  H        -2.634559    0.390855   -1.038739
     16  H        -1.524170    1.447537   -0.188390
     17  H        -2.328187   -1.090322    0.739113
   Point Group: c1    Number of degrees of freedom:    45


   Energy is   -272.218479167

 GETINT wrote B to file, NVib is           45
 Hessian Updated using Powell/Murtagh-Sargent Update
  Mixing factors:     0.995015 Powell
                      0.004985 Murtagh-Sargent

 45 Hessian modes will be used to form the next step
  Hessian Eigenvalues:
    -0.000532    0.005959    0.011711    0.020450    0.026392    0.027156
     0.027277    0.030016    0.031147    0.037412    0.040893    0.043266
     0.048484    0.049490    0.051884    0.056558    0.057629    0.061406
     0.066426    0.070466    0.077612    0.080700    0.081339    0.108889
     0.113995    0.116656    0.140693    0.154135    0.159980    0.160001
     0.279521    0.290052    0.307766    0.327716    0.330363    0.335014
     0.341524    0.344360    0.351511    0.352497    0.353407    0.355166
     0.374464    0.520906    0.549055

 Transition State Search - Taking P-RFO Step
 Searching for Lamda that Maximizes Along the Lowest mode
 Value Taken    Lamda =   0.00020975
 Searching for Lamda that Minimizes Along All other modes
 Value Taken    Lamda =  -0.00075065
 Calculated Step too Large.  Step scaled by  0.553172
 Step Taken.  Stepsize is  0.300000

                             Maximum     Tolerance    Cnvgd?
         Gradient           0.006898      0.000300      NO
         Displacement       0.160464      0.001200      NO
         Energy change     -0.000131      0.000001      NO


 New Cartesian Coordinates Obtained by Inverse Iteration

 Displacement from previous Coordinates is:  0.228826
 ----------------------------------------------------
       Standard Nuclear Orientation (Angstroms)
    I     Atom         X            Y            Z
 ----------------------------------------------------
    1      C       1.977379    -1.159178     0.026568
    2      C       1.160962    -0.145253     0.399188
    3      C       1.554933     1.295898     0.205322
    4      H       0.403689    -0.337747     1.150928
    5      H       2.826340    -0.986573    -0.624024
    6      H       1.768550    -2.183764     0.304889
    7      H       2.140145     1.423813    -0.706398
    8      H       0.693699     1.961701     0.165218
    9      H       2.170498     1.625519     1.045359
   10      C      -0.599596    -0.263948    -1.062626
   11      C      -1.747657     0.392777    -0.371330
   12      O      -2.082403    -0.204305     0.875655
   13      H      -0.662496    -1.338753    -1.199907
   14      H      -0.159746     0.266034    -1.900298
   15      H      -2.633257     0.398409    -1.026958
   16      H      -1.528196     1.439218    -0.151996
   17      H      -2.313704    -1.123551     0.718195
 ----------------------------------------------------
 Molecular Point Group                 C1    NOp =  1
 Largest Abelian Subgroup              C1    NOp =  1
 Nuclear Repulsion Energy =   238.5122372026 hartrees
 There are       25 alpha and       24 beta electrons
 Applying Cartesian multipole field
    Component          Value
    ---------          -----
     (2,0,0)        1.00000E-11
     (0,2,0)        2.00000E-11
     (0,0,2)       -3.00000E-11
 Nucleus-field energy     =     0.0000000051 hartrees
 Requested basis set is non-standard
 There are 138 shells and 314 basis functions
 A cutoff of  1.0D-11 yielded   8910 shell pairs
 There are     45930 function pairs (     55174 Cartesian)
 Smallest overlap matrix eigenvalue = 2.22E-05
 Guess MOs from SCF MO coefficient file
Reading MOs from coefficient file
Reading MOs from coefficient file
 An unrestricted hybrid HF-DFT SCF calculation will be
 performed using Pulay DIIS extrapolation
 Exchange:     0.5400 Hartree-Fock + 1.0000 M062X
 SCF converges when DIIS error is below 1.0E-08
Geometry optimization detected.  Setting ReadMinima to 0
Setting SaveMinima to 0
 ---------------------------------------
  Cycle       Energy         DIIS Error
 ---------------------------------------
    1    -272.2215192567      2.90E-04
    2    -272.2186909018      4.03E-05
    3    -272.2187242400      1.93E-05
    4    -272.2187276891      1.04E-05
    5    -272.2187288254      2.24E-06
    6    -272.2187288821      6.77E-07
    7    -272.2187288893      1.81E-07
    8    -272.2187288903      6.63E-08
    9    -272.2187288905      2.97E-08
   10    -272.2187288904      1.45E-08
   11    -272.2187288901      6.06E-09 Convergence criterion met
 ---------------------------------------
 <S^2> = 0.7771
 SCF time:  CPU 175.04 s  wall 184.53 s
 SCF   energy in the final basis set = -272.2187288901
 Total energy in the final basis set = -272.2187288901
 Analysis of SCF Wavefunction
 
 --------------------------------------------------------------
                    Orbital Energies (a.u.)
 --------------------------------------------------------------
 
 Alpha MOs
 -- Occupied --
-19.626 -10.589 -10.545 -10.545 -10.528 -10.522  -1.148  -0.888
 -0.843  -0.773  -0.708  -0.635  -0.580  -0.542  -0.538  -0.514
 -0.480  -0.478  -0.452  -0.432  -0.416  -0.403  -0.366  -0.341
 -0.230
 -- Virtual --
 -0.005   0.008   0.013   0.018   0.033   0.034   0.038   0.044
  0.050   0.058   0.072   0.076   0.084   0.096   0.110   0.120
  0.121   0.124   0.129   0.139   0.144   0.152   0.154   0.157
  0.162   0.162   0.168   0.175   0.186   0.193   0.196   0.209
  0.222   0.224   0.232   0.249   0.251   0.256   0.264   0.274
  0.294   0.304   0.315   0.320   0.340   0.345   0.355   0.375
  0.390   0.399   0.419   0.450   0.467   0.475   0.491   0.513
  0.521   0.537   0.560   0.567   0.572   0.582   0.593   0.595
  0.602   0.609   0.619   0.624   0.634   0.641   0.657   0.665
  0.675   0.684   0.698   0.705   0.713   0.726   0.734   0.746
  0.766   0.774   0.814   0.818   0.844   0.849   0.873   0.881
  0.906   0.922   0.959   0.974   1.003   1.012   1.028   1.056
  1.063   1.079   1.088   1.110   1.124   1.133   1.167   1.172
  1.180   1.220   1.232   1.244   1.251   1.260   1.283   1.294
  1.298   1.308   1.334   1.351   1.364   1.373   1.385   1.391
  1.403   1.411   1.426   1.436   1.455   1.482   1.485   1.498
  1.524   1.537   1.552   1.563   1.568   1.576   1.589   1.622
  1.630   1.637   1.658   1.673   1.713   1.740   1.772   1.896
  1.931   2.059   2.122   2.270   2.323   2.422   2.452   2.503
  2.511   2.545   2.549   2.601   2.632   2.650   2.706   2.750
  2.766   2.788   2.808   2.840   2.862   2.878   2.888   2.914
  2.927   2.951   2.968   2.978   3.003   3.008   3.039   3.069
  3.088   3.099   3.114   3.127   3.155   3.172   3.186   3.194
  3.210   3.232   3.240   3.272   3.296   3.314   3.326   3.339
  3.357   3.382   3.396   3.402   3.422   3.450   3.460   3.493
  3.520   3.548   3.549   3.560   3.569   3.618   3.646   3.673
  3.705   3.717   3.734   3.751   3.765   3.781   3.797   3.838
  3.853   3.888   3.891   3.925   3.945   3.972   3.994   4.012
  4.040   4.078   4.084   4.117   4.153   4.175   4.197   4.211
  4.228   4.236   4.249   4.265   4.279   4.309   4.321   4.329
  4.345   4.384   4.416   4.433   4.452   4.483   4.519   4.538
  4.580   4.592   4.612   4.655   4.695   4.726   4.760   4.794
  5.077   5.135   5.178   5.242   5.258   5.317   5.350   5.413
  5.470   5.499   5.514   5.554   5.580   5.592   5.599   5.643
  5.689   5.833   5.912   5.937   6.496   6.974   7.188   7.197
  7.241   7.504   7.640  24.140  24.246  24.418  24.482  24.807
 50.133
 
 Beta MOs
 -- Occupied --
-19.626 -10.590 -10.546 -10.538 -10.528 -10.519  -1.148  -0.884
 -0.828  -0.768  -0.691  -0.631  -0.573  -0.535  -0.535  -0.506
 -0.478  -0.477  -0.444  -0.430  -0.410  -0.401  -0.359  -0.310
 -- Virtual --
 -0.029  -0.003   0.009   0.016   0.023   0.036   0.038   0.043
  0.047   0.056   0.063   0.075   0.077   0.086   0.097   0.110
  0.116   0.123   0.126   0.134   0.139   0.147   0.151   0.153
  0.157   0.162   0.164   0.169   0.175   0.183   0.191   0.194
  0.210   0.223   0.227   0.233   0.249   0.252   0.258   0.264
  0.276   0.299   0.306   0.318   0.321   0.341   0.348   0.359
  0.379   0.391   0.402   0.420   0.451   0.469   0.477   0.493
  0.513   0.532   0.539   0.562   0.571   0.575   0.584   0.595
  0.599   0.604   0.611   0.624   0.631   0.639   0.648   0.658
  0.669   0.678   0.686   0.702   0.709   0.714   0.729   0.735
  0.748   0.768   0.776   0.816   0.819   0.848   0.853   0.873
  0.883   0.905   0.922   0.959   0.974   1.002   1.012   1.030
  1.056   1.068   1.079   1.088   1.111   1.126   1.138   1.169
  1.173   1.182   1.221   1.233   1.247   1.252   1.262   1.284
  1.296   1.302   1.310   1.336   1.358   1.364   1.376   1.387
  1.394   1.410   1.412   1.428   1.438   1.459   1.484   1.487
  1.501   1.528   1.544   1.555   1.565   1.573   1.580   1.595
  1.623   1.632   1.641   1.660   1.686   1.718   1.744   1.773
  1.895   1.932   2.063   2.125   2.272   2.325   2.425   2.455
  2.509   2.515   2.551   2.555   2.609   2.639   2.658   2.717
  2.757   2.774   2.800   2.828   2.852   2.882   2.898   2.910
  2.918   2.940   2.961   2.982   2.989   3.017   3.033   3.053
  3.084   3.101   3.109   3.127   3.151   3.169   3.183   3.202
  3.215   3.219   3.242   3.255   3.281   3.304   3.329   3.343
  3.367   3.371   3.393   3.405   3.411   3.432   3.459   3.490
  3.509   3.534   3.561   3.566   3.572   3.610   3.627   3.651
  3.684   3.715   3.734   3.739   3.760   3.767   3.785   3.802
  3.850   3.865   3.894   3.901   3.933   3.952   3.977   4.009
  4.021   4.050   4.085   4.101   4.124   4.161   4.185   4.204
  4.224   4.236   4.250   4.258   4.278   4.291   4.321   4.324
  4.336   4.356   4.405   4.421   4.436   4.454   4.489   4.531
  4.539   4.585   4.597   4.618   4.692   4.711   4.728   4.780
  4.799   5.086   5.149   5.186   5.244   5.260   5.330   5.354
  5.416   5.494   5.512   5.521   5.580   5.584   5.599   5.615
  5.646   5.691   5.836   5.915   5.939   6.498   6.974   7.188
  7.197   7.242   7.505   7.641  24.141  24.256  24.418  24.489
 24.809  50.133
 --------------------------------------------------------------
 
          Ground-State Mulliken Net Atomic Charges

     Atom                 Charge (a.u.)    Spin (a.u.)
  --------------------------------------------------------
      1 C                    -0.434188       0.438095
      2 C                     0.080013      -0.213373
      3 C                    -0.556875       0.026721
      4 H                     0.247545       0.020364
      5 H                     0.138326      -0.025675
      6 H                     0.120462      -0.027472
      7 H                     0.130762      -0.000700
      8 H                     0.131767      -0.001197
      9 H                     0.140846      -0.004437
     10 C                    -0.281240       0.846936
     11 C                    -0.313838      -0.035367
     12 O                    -0.296951       0.007759
[...]
 H         -0.159  0.037 -0.175   -0.076  0.038 -0.072    0.149 -0.083  0.140
 H          0.086  0.029  0.157    0.045 -0.005  0.036   -0.094  0.008 -0.089
 H         -0.237 -0.072 -0.151    0.031 -0.018  0.019   -0.093  0.026 -0.060
 H         -0.254 -0.444 -0.146    0.037  0.067  0.010   -0.099 -0.173 -0.047
 H          0.065  0.572 -0.083    0.021 -0.062 -0.008   -0.016  0.216 -0.001
 C         -0.014 -0.012  0.007   -0.013  0.092  0.056   -0.092  0.070 -0.040
 C          0.007 -0.003  0.014    0.027 -0.098 -0.056    0.060 -0.073  0.020
 O          0.003  0.005 -0.005    0.015  0.030 -0.039   -0.003  0.028 -0.033
 H          0.033 -0.008 -0.012   -0.431  0.070  0.215   -0.063 -0.026  0.236
 H          0.020  0.023  0.069    0.139 -0.163 -0.085    0.217 -0.085  0.031
 H          0.016 -0.032 -0.014    0.134  0.162 -0.074    0.058 -0.138 -0.024
 H         -0.018  0.024 -0.015    0.010 -0.280  0.250   -0.043 -0.028  0.004
 H          0.012  0.016 -0.030   -0.115 -0.237  0.525   -0.036 -0.044  0.120
 TransDip   0.000  0.000  0.000    0.000  0.000  0.000    0.000  0.000  0.000

 Mode:                22                     23                     24
 Frequency:      1135.37                1181.19                1237.77
 Force Cnst:      2.8472                 1.4940                 1.1065
 Red. Mass:       3.7488                 1.8175                 1.2258
 IR Active:          YES                    YES                    YES
 IR Intens:        0.000                  0.000                  0.000
 Raman Active:       YES                    YES                    YES
               X      Y      Z        X      Y      Z        X      Y      Z
 C         -0.010 -0.007 -0.002    0.045  0.087 -0.034    0.002 -0.002 -0.001
 C          0.021  0.010  0.004   -0.119 -0.131  0.094    0.009  0.005  0.010
 C         -0.018  0.003  0.002    0.110  0.042 -0.092   -0.003 -0.004 -0.005
 H         -0.038  0.042 -0.050   -0.190 -0.415 -0.043   -0.068  0.000 -0.070
 H         -0.010  0.036  0.008    0.071 -0.318 -0.081   -0.009 -0.002 -0.017
 H          0.034 -0.019 -0.005   -0.287  0.223  0.216    0.010 -0.002  0.008
 H          0.013 -0.065  0.014    0.141  0.553  0.012    0.008  0.005  0.005
 H          0.019  0.037 -0.015   -0.077 -0.136  0.175    0.002  0.004  0.013
 H          0.027 -0.075 -0.006   -0.159  0.097  0.080   -0.008 -0.013  0.001
 C          0.111 -0.079 -0.107    0.011 -0.003 -0.003    0.025  0.067  0.036
 C         -0.168 -0.121  0.295   -0.006 -0.005  0.012    0.000 -0.106  0.000
 O          0.065  0.175 -0.173    0.002  0.009 -0.008   -0.016  0.034 -0.007
 H          0.178 -0.070 -0.193    0.017 -0.005  0.000   -0.251  0.066  0.082
 H          0.164 -0.109 -0.111   -0.013  0.000 -0.014    0.093 -0.141 -0.124
 H         -0.174 -0.196  0.244   -0.007 -0.012  0.010   -0.377 -0.171  0.482
 H         -0.494 -0.116  0.480   -0.028 -0.010  0.032    0.362  0.003 -0.376
 H          0.015  0.058  0.094    0.006 -0.001  0.009    0.090  0.191 -0.361
 TransDip   0.000  0.000  0.000    0.000  0.000  0.000    0.000  0.000  0.000

 Mode:                25                     26                     27
 Frequency:      1310.91                1359.14                1394.23
 Force Cnst:      1.4219                 1.3774                 1.3911
 Red. Mass:       1.4043                 1.2655                 1.2147
 IR Active:          YES                    YES                    YES
 IR Intens:        0.000                  0.000                  0.000
 Raman Active:       YES                    YES                    YES
               X      Y      Z        X      Y      Z        X      Y      Z
 C          0.101 -0.046 -0.080   -0.005  0.000  0.005    0.007  0.000 -0.006
 C         -0.071  0.052  0.092    0.006  0.002 -0.004    0.011 -0.032 -0.015
 C         -0.011 -0.021  0.001    0.002  0.003 -0.001   -0.058 -0.109  0.021
 H         -0.331  0.744  0.016    0.016 -0.061 -0.009    0.004  0.182  0.028
 H          0.156 -0.474 -0.127   -0.009  0.028  0.007   -0.019  0.163  0.013
 H          0.123 -0.060 -0.046   -0.003 -0.001  0.001   -0.144  0.069  0.104
 H         -0.005 -0.038  0.010   -0.002 -0.013 -0.006    0.093  0.477  0.194
 H         -0.011 -0.011  0.056   -0.007 -0.008  0.001    0.342  0.355 -0.065
 H         -0.036  0.014  0.013   -0.006 -0.012  0.007    0.186  0.441 -0.277
 C         -0.017  0.000 -0.012    0.005 -0.038  0.010    0.009  0.001 -0.002
 C          0.013  0.003  0.003    0.093  0.083 -0.020   -0.019  0.012  0.029
 O         -0.001 -0.003 -0.005   -0.024 -0.019 -0.057    0.000 -0.007 -0.014
 H          0.004 -0.015  0.028    0.043 -0.027 -0.005   -0.003  0.004 -0.011
 H          0.002  0.029  0.033   -0.126  0.121  0.083    0.004 -0.014 -0.023
 H         -0.005 -0.007  0.023   -0.426 -0.245  0.523    0.031 -0.032 -0.055
 H         -0.028  0.031 -0.012   -0.149  0.209 -0.064    0.131  0.054 -0.124
 H         -0.018 -0.025  0.046   -0.139 -0.279  0.500   -0.030 -0.060  0.104
 TransDip   0.000  0.000  0.000    0.000  0.000  0.000    0.000  0.000  0.000

 Mode:                28                     29                     30
 Frequency:      1411.64                1445.16                1472.29
 Force Cnst:      1.4824                 1.5634                 1.5055
 Red. Mass:       1.2626                 1.2705                 1.1788
 IR Active:          YES                    YES                    YES
 IR Intens:        0.000                  0.000                  0.000
 Raman Active:       YES                    YES                    YES
               X      Y      Z        X      Y      Z        X      Y      Z
 C          0.004 -0.001 -0.002   -0.039  0.010  0.029    0.002 -0.006 -0.003
 C         -0.001 -0.010 -0.007   -0.003  0.122  0.019    0.003 -0.006 -0.006
 C         -0.017 -0.024  0.008   -0.013 -0.072 -0.031    0.004  0.004 -0.011
 H          0.008  0.061  0.020    0.049 -0.461 -0.080    0.013  0.009  0.007
 H         -0.003  0.045  0.002    0.028 -0.454 -0.018   -0.006  0.074  0.008
 H         -0.045  0.020  0.028    0.465 -0.211 -0.321   -0.053  0.020  0.039
 H          0.054  0.112  0.073    0.121  0.089  0.097    0.020 -0.121 -0.013
 H          0.069  0.073 -0.025    0.100  0.086  0.242    0.005  0.025  0.160
 H          0.087  0.108 -0.094   -0.068  0.253 -0.071   -0.094  0.086  0.036
 C         -0.009 -0.017  0.002   -0.002 -0.003 -0.007    0.074 -0.030 -0.082
 C          0.068 -0.027 -0.112   -0.001  0.002  0.000   -0.041 -0.003  0.022
 O         -0.002  0.029  0.043    0.000  0.002  0.000    0.003 -0.002 -0.001
 H         -0.053 -0.038  0.081   -0.015 -0.011  0.014   -0.422 -0.201  0.521
 H         -0.080  0.123  0.110   -0.001  0.018  0.016   -0.123  0.515  0.349
 H         -0.194  0.019  0.252    0.003 -0.022 -0.017    0.026  0.064 -0.040
 H         -0.475 -0.249  0.542    0.002 -0.019  0.029    0.075  0.034 -0.097
 H          0.107  0.208 -0.357    0.003  0.004 -0.005    0.013 -0.001 -0.009
 TransDip   0.000  0.000  0.000    0.000  0.000  0.000    0.000  0.000  0.000

 Mode:                31                     32                     33
 Frequency:      1482.52                1493.63                1507.16
 Force Cnst:      1.3614                 1.3954                 1.4453
 Red. Mass:       1.0513                 1.0616                 1.0799
 IR Active:          YES                    YES                    YES
 IR Intens:        0.000                  0.000                  0.000
 Raman Active:       YES                    YES                    YES
               X      Y      Z        X      Y      Z        X      Y      Z
 C         -0.001  0.009  0.000    0.021 -0.033 -0.013   -0.004  0.002  0.003
 C         -0.012 -0.011 -0.006    0.001  0.001 -0.011    0.003  0.003  0.000
 C         -0.042  0.037 -0.012    0.007 -0.004 -0.046    0.007 -0.012  0.005
 H          0.012  0.010  0.025    0.000  0.048 -0.002    0.005 -0.032 -0.010
 H          0.006 -0.008  0.006   -0.015  0.227  0.003   -0.002 -0.016  0.000
 H         -0.010  0.012  0.003   -0.164  0.050  0.126    0.019 -0.008 -0.014
 H          0.527 -0.146  0.373    0.126 -0.392  0.006   -0.118  0.072 -0.076
 H         -0.314 -0.295  0.129    0.055  0.119  0.636    0.088  0.081 -0.061
 H          0.449  0.010 -0.321   -0.312  0.381  0.082   -0.077 -0.003  0.055
 C          0.000  0.001 -0.002   -0.020  0.007  0.017    0.003  0.001  0.000
 C          0.003 -0.014  0.008    0.011 -0.004 -0.004    0.025 -0.074  0.012
 O          0.000 -0.004 -0.001    0.000  0.001  0.001    0.001 -0.007  0.005
 H         -0.003  0.002 -0.003    0.101  0.045 -0.121   -0.013  0.009 -0.019
 H          0.003 -0.003 -0.003    0.030 -0.127 -0.086    0.019 -0.030 -0.015
 H          0.035  0.140  0.030    0.002  0.021  0.018    0.118  0.635  0.186
 H         -0.073  0.096 -0.113   -0.055  0.009  0.014   -0.480  0.360 -0.355
 H         -0.004 -0.011  0.016   -0.002  0.002 -0.002    0.007 -0.003 -0.007
 TransDip   0.000  0.000  0.000    0.000  0.000  0.000    0.000  0.000  0.000

 Mode:                34                     35                     36
 Frequency:      1589.70                2932.20                3016.33
 Force Cnst:      3.6948                 5.4248                 5.8374
 Red. Mass:       2.4815                 1.0709                 1.0890
 IR Active:          YES                    YES                    YES
 IR Intens:        0.000                  0.000                  0.000
 Raman Active:       YES                    YES                    YES
               X      Y      Z        X      Y      Z        X      Y      Z
 C          0.112 -0.195 -0.075    0.000  0.000  0.000    0.000  0.000  0.000
 C         -0.061  0.245  0.105    0.001  0.000  0.000    0.000  0.000  0.000
 C          0.000 -0.043 -0.014    0.000  0.000  0.000    0.000  0.002  0.001
 H         -0.098 -0.496 -0.095   -0.001 -0.001  0.004   -0.003 -0.003  0.005
 H          0.030  0.527 -0.032    0.000  0.000  0.000    0.000  0.000  0.000
 H         -0.335 -0.016  0.269    0.000  0.000  0.000    0.000 -0.001  0.000
 H          0.018  0.206  0.031    0.001  0.000 -0.001   -0.005  0.000  0.005
 H         -0.072 -0.143 -0.159   -0.001  0.001  0.000    0.017 -0.013  0.001
 H          0.075 -0.174 -0.031    0.001  0.000  0.002   -0.010 -0.004 -0.015
 C         -0.028  0.003 -0.021   -0.002  0.000  0.001    0.000  0.004  0.001
 C          0.004 -0.002  0.003   -0.058  0.030 -0.039   -0.033 -0.063 -0.049
 O          0.000  0.001  0.000    0.001  0.001 -0.001    0.000  0.001  0.001
 H          0.010 -0.019  0.030    0.000 -0.007 -0.001   -0.008 -0.046 -0.019
 H          0.033  0.015  0.031    0.003  0.013 -0.006    0.004 -0.001  0.000
 H          0.027  0.004 -0.027    0.762 -0.260  0.564    0.113 -0.055  0.071
 H         -0.009  0.004  0.001   -0.068 -0.123 -0.090    0.284  0.794  0.507
 H          0.004 -0.002  0.003    0.003  0.003 -0.001   -0.002 -0.007 -0.013
 TransDip   0.000  0.000  0.000    0.000  0.000  0.000    0.000  0.000  0.000

 Mode:                37                     38                     39
 Frequency:      3032.41                3093.97                3107.80
 Force Cnst:      5.6250                 6.1867                 6.2165
 Red. Mass:       1.0382                 1.0969                 1.0924
 IR Active:          YES                    YES                    YES
 IR Intens:        0.000                  0.000                  0.000
 Raman Active:       YES                    YES                    YES
               X      Y      Z        X      Y      Z        X      Y      Z
 C          0.000  0.000  0.000    0.001  0.000  0.000    0.004  0.002 -0.002
 C          0.001  0.001  0.000   -0.014 -0.004  0.012   -0.048 -0.011  0.048
 C         -0.029 -0.041 -0.013   -0.030  0.019 -0.081    0.049 -0.022 -0.007
 H         -0.005 -0.004  0.004    0.156  0.038 -0.152    0.564  0.140 -0.551
 H         -0.007 -0.003  0.005   -0.003  0.001  0.001   -0.014 -0.001  0.011
 H          0.003  0.008 -0.003   -0.003 -0.008  0.003   -0.016 -0.048  0.010
 H          0.291  0.048 -0.410   -0.340 -0.057  0.439   -0.142 -0.029  0.209
 H         -0.343  0.283 -0.030    0.349 -0.304  0.008   -0.391  0.337 -0.032
 H          0.399  0.152  0.600    0.352  0.146  0.521   -0.057 -0.036 -0.104
 C          0.000  0.000  0.000    0.000 -0.001 -0.001    0.000  0.001 -0.001
 C         -0.001 -0.002 -0.001    0.000  0.000  0.000   -0.001  0.000 -0.001
 O          0.000  0.000  0.000    0.000  0.000  0.000    0.000  0.000  0.000
 H         -0.001 -0.005 -0.003    0.001  0.019  0.007    0.002  0.004  0.002
 H          0.002  0.002 -0.002   -0.003 -0.006  0.008   -0.009 -0.012  0.010
 H          0.001 -0.001  0.001    0.001  0.000  0.001    0.004 -0.002  0.003
 H          0.007  0.021  0.013    0.001  0.000  0.000    0.004  0.009  0.006
 H          0.000  0.000 -0.001    0.000  0.000  0.000    0.000  0.000  0.000
 TransDip   0.000  0.000  0.000    0.000  0.000  0.000    0.000  0.000  0.000

 Mode:                40                     41                     42
 Frequency:      3111.14                3122.09                3154.79
 Force Cnst:      6.0176                 6.3105                 6.1918
 Red. Mass:       1.0552                 1.0988                 1.0559
 IR Active:          YES                    YES                    YES
 IR Intens:        0.000                  0.000                  0.000
 Raman Active:       YES                    YES                    YES
               X      Y      Z        X      Y      Z        X      Y      Z
 C         -0.001  0.000  0.000   -0.004 -0.002  0.003   -0.041  0.042  0.030
 C          0.001  0.001 -0.002    0.034  0.007 -0.033    0.002 -0.004 -0.003
 C          0.001 -0.001  0.001    0.060 -0.026 -0.041   -0.001  0.000  0.000
 H         -0.018 -0.006  0.021   -0.388 -0.099  0.377   -0.005  0.001  0.008
 H          0.010  0.002 -0.008    0.020  0.006 -0.016    0.620  0.123 -0.468
 H         -0.003 -0.008  0.001    0.009  0.032 -0.006   -0.166 -0.577  0.127
 H          0.004  0.000 -0.005   -0.350 -0.072  0.487    0.007  0.003 -0.009
 H         -0.012  0.011 -0.001   -0.422  0.370 -0.042    0.003  0.000  0.000
 H         -0.003 -0.001 -0.005    0.053  0.009  0.047    0.005  0.003  0.007
 C          0.020 -0.032 -0.053    0.000  0.001  0.001    0.001  0.000  0.002
 C         -0.005 -0.001 -0.001    0.000  0.000  0.000    0.000  0.000  0.000
 O          0.000  0.000  0.000    0.000  0.000  0.000    0.000  0.000  0.000
 H          0.058  0.757  0.258   -0.002 -0.019 -0.007   -0.002 -0.011 -0.005
 H         -0.263 -0.387  0.360    0.005  0.006 -0.005    0.003  0.005 -0.006
 H          0.014 -0.005  0.008   -0.002  0.001 -0.001   -0.001  0.000  0.000
 H          0.013  0.030  0.019    0.000  0.005  0.003    0.000 -0.001 -0.001
 H          0.003  0.004 -0.001    0.000  0.000  0.000    0.000  0.000  0.000
 TransDip   0.000  0.000  0.000    0.000  0.000  0.000    0.000  0.000  0.000

 Mode:                43                     44                     45
 Frequency:      3208.13                3245.59                3929.01
 Force Cnst:      6.7557                 6.9273                 9.6990
 Red. Mass:       1.1141                 1.1162                 1.0664
 IR Active:          YES                    YES                    YES
 IR Intens:        0.000                  0.000                  0.000
 Raman Active:       YES                    YES                    YES
               X      Y      Z        X      Y      Z        X      Y      Z
 C          0.001  0.001  0.000   -0.056 -0.070  0.042    0.000  0.000  0.000
 C          0.000  0.000  0.000   -0.005 -0.001  0.005    0.000  0.000  0.000
 C          0.001  0.000  0.000    0.000  0.001  0.001    0.000  0.000  0.000
 H          0.003  0.001 -0.005    0.046  0.010 -0.046   -0.001  0.000  0.000
 H         -0.004 -0.001  0.003    0.479  0.081 -0.362    0.000  0.000  0.000
 H         -0.003 -0.008  0.001    0.199  0.745 -0.152    0.000  0.000  0.000
 H         -0.001  0.000  0.003    0.005  0.004 -0.006    0.000  0.000  0.000
 H         -0.007  0.008  0.000    0.001 -0.002 -0.001    0.000  0.000  0.000
 H         -0.002  0.000 -0.003   -0.003 -0.001 -0.004    0.000  0.000  0.000
 C         -0.034 -0.088  0.026    0.000 -0.001  0.000    0.000  0.001  0.000
 C          0.000 -0.004 -0.001    0.000  0.000  0.000    0.000 -0.001 -0.002
 O          0.000  0.000  0.000    0.000  0.000  0.000   -0.017 -0.053 -0.028
 H          0.040  0.543  0.204    0.001  0.005  0.003   -0.002 -0.003  0.000
 H          0.355  0.514 -0.511    0.003  0.005 -0.005    0.002  0.001 -0.001
 H         -0.002  0.000 -0.001    0.000  0.000  0.000    0.001  0.002 -0.002
 H          0.006  0.024  0.017    0.000  0.001  0.001    0.004  0.009  0.007
 H          0.003  0.001 -0.003    0.000  0.000  0.000    0.264  0.848  0.455
 TransDip   0.000  0.000  0.000    0.000  0.000  0.000    0.000  0.000  0.000

 STANDARD THERMODYNAMIC QUANTITIES AT   298.15 K  AND     1.00 ATM

   This Molecule has  1 Imaginary Frequencies
   Zero point vibrational energy:       92.530 kcal/mol

   Atom    1 Element C  Has Mass   12.00000
   Atom    2 Element C  Has Mass   12.00000
   Atom    3 Element C  Has Mass   12.00000
   Atom    4 Element H  Has Mass    1.00783
   Atom    5 Element H  Has Mass    1.00783
   Atom    6 Element H  Has Mass    1.00783
   Atom    7 Element H  Has Mass    1.00783
   Atom    8 Element H  Has Mass    1.00783
   Atom    9 Element H  Has Mass    1.00783
   Atom   10 Element C  Has Mass   12.00000
   Atom   11 Element C  Has Mass   12.00000
   Atom   12 Element O  Has Mass   15.99491
   Atom   13 Element H  Has Mass    1.00783
   Atom   14 Element H  Has Mass    1.00783
   Atom   15 Element H  Has Mass    1.00783
   Atom   16 Element H  Has Mass    1.00783
   Atom   17 Element H  Has Mass    1.00783
   Molecular Mass:    87.081040 amu
   Principal axes and moments of inertia in atomic units:
                             1           2           3
    Eigenvalues --      350.99365   971.29725  1068.72371
          X               0.99993     0.00453     0.01124
          Y              -0.00493     0.99932     0.03651
          Z              -0.01106    -0.03656     0.99927
   Rotational Symmetry Number is   1
   The Molecule is an Asymmetric Top
   Translational Enthalpy:        0.889 kcal/mol
   Rotational Enthalpy:           0.889 kcal/mol
   Vibrational Enthalpy:         96.155 kcal/mol
   gas constant (RT):             0.592 kcal/mol
   Translational Entropy:        39.306  cal/mol.K
   Rotational Entropy:           27.390  cal/mol.K
   Vibrational Entropy:          24.242  cal/mol.K

   Total Enthalpy:               98.525 kcal/mol
   Total Entropy:                90.938  cal/mol.K
Archival summary:
1\1\node66\FREQ\ProcedureUnspecified\BasisUnspecified\1511(2)\edames\SunMar3005:07:522014SunMar3005:07:522014\0\\#,FREQ,ProcedureUnspecified,BasisUnspecified,\\0,2\O\H,1,0.959631\C,1,1.41537,2,108.774\H,3,1.09229,1,105.756,2,177.893,0\H,3,1.10023,1,110.146,2,-67.5375,0\C,3,1.49239,1,113.137,2,56.5663,0\H,6,1.08318,3,117.36,1,173.651,0\H,6,1.08411,3,116.627,1,-44.7363,0\C,6,2.24119,3,103.922,1,66.2978,0\H,9,1.08464,6,85.8633,3,-30.2491,0\C,9,1.35518,6,105.58,3,-148.164,0\H,11,1.08075,9,121.378,6,81.3722,0\H,11,1.08264,9,121.223,6,-94.8678,0\C,9,1.50665,6,97.7597,3,86.0704,0\H,14,1.08898,9,112.611,6,-39.3289,0\H,14,1.0894,9,110.588,6,82.0998,0\H,14,1.09084,9,109.842,6,-158.875,0\\\@

 Total job time:  18598.67s(wall), 17711.55s(cpu) 
 Sun Mar 30 05:07:52 2014

        *************************************************************
        *                                                           *
        *  Thank you very much for using Q-Chem.  Have a nice day.  *
        *                                                           *
        *************************************************************


0 sent ACK to 0 
now end server 0 ... 
