
Running Job 1 of 2 iC5H11O-5_betasc_C3H6m08.in
qchem iC5H11O-5_betasc_C3H6m08.in_30259.0 /scratch/edames/qchem30259/ 8
/opt/qchem/bin/mpi/mpirun_qchem -machinefile /tmp/312384.1.normal2/hostfile -np 8 /opt/qchem/exe/qcprog.exe iC5H11O-5_betasc_C3H6m08.in_30259.0 /scratch/edames/qchem30259/

Process 0 of 8 is on node35.cluster - thread support 0
Process 4 of 8 is on node35.cluster - thread support 0
Process 1 of 8 is on node35.cluster - thread support 0
Process 3 of 8 is on node35.cluster - thread support 0
Process 6 of 8 is on node35.cluster - thread support 0
Process 5 of 8 is on node35.cluster - thread support 0
Process 2 of 8 is on node35.cluster - thread support 0
Process 7 of 8 is on node35.cluster - thread support 0
initial socket setup ...start
initial socket setup ...done 
now start server 0 ... 
set process cleaner
set process cleaner
set process cleaner
set process cleaner
set process cleaner
set process cleaner
set process cleaner
                  Welcome to Q-Chem
     A Quantum Leap Into The Future Of Chemistry


 Q-Chem 4.2, Q-Chem, Inc., Pleasanton, CA (2014).

 Y. Shao,  Z. Gan,  E. Epifanovsky,  A. T. B. Gilbert,  M. Wormit,  
 J. Kussmann,  A. W. Lange,  A. Behn,  J. Deng,  X. Feng,  D. Ghosh,  
 M. Goldey,  P. R. Horn,  L. D. Jacobson,  I. Kaliman,  R. Z. Khaliullin,  
 T. Kus,  A. Landau,  J. Liu,  E. I. Proynov,  Y. M. Rhee,  R. M. Richard,  
 M. A. Rohrdanz,  R. P. Steele,  E. J. Sundstrom,  H. L. Woodcock III,  
 P. M. Zimmerman,  D. Zuev,  B. Albrecht,  E. Alguire,  B. Austin,  
 G. J. O. Beran,  Y. A. Bernard,  E. Berquist,  K. Brandhorst,  
 K. B. Bravaya,  S. T. Brown,  D. Casanova,  C.-M. Chang,  Y. Chen,  
 S. H. Chien,  K. D. Closser,  D. L. Crittenden,  M. Diedenhofen,  
 R. A. DiStasio Jr.,  H. Do,  A. D. Dutoi,  R. G. Edgar,  S. Fatehi,  
 L. Fusti-Molnar,  A. Ghysels,  A. Golubeva-Zadorozhnaya,  J. Gomes,  
 M. W. D. Hanson-Heine,  P. H. P. Harbach,  A. W. Hauser,  E. G. Hohenstein,  
 Z. C. Holden,  T.-C. Jagau,  H. Ji,  B. Kaduk,  K. Khistyaev,  Jaehoon Kim,  
 Jihan Kim,  R. A. King,  P. Klunzinger,  D. Kosenkov,  T. Kowalczyk,  
 C. M. Krauter,  K. U. Lao,  A. Laurent,  K. V. Lawler,  S. V. Levchenko,  
 C. Y. Lin,  F. Liu,  E. Livshits,  R. C. Lochan,  A. Luenser,  P. Manohar,  
 S. F. Manzer,  S.-P. Mao,  N. Mardirossian,  A. V. Marenich,  S. A. Maurer,  
 N. J. Mayhall,  C. M. Oana,  R. Olivares-Amaya,  D. P. O'Neill,  
 J. A. Parkhill,  T. M. Perrine,  R. Peverati,  P. A. Pieniazek,  A. Prociuk,  
 D. R. Rehn,  E. Rosta,  N. J. Russ,  N. Sergueev,  S. M. Sharada,  
 S. Sharma,  D. W. Small,  A. Sodt,  T. Stein,  D. Stuck,  Y.-C. Su,  
 A. J. W. Thom,  T. Tsuchimochi,  L. Vogt,  O. Vydrov,  T. Wang,  
 M. A. Watson,  J. Wenzel,  A. White,  C. F. Williams,  V. Vanovschi,  
 S. Yeganeh,  S. R. Yost,  Z.-Q. You,  I. Y. Zhang,  X. Zhang,  Y. Zhao,  
 B. R. Brooks,  G. K. L. Chan,  D. M. Chipman,  C. J. Cramer,  
 W. A. Goddard III,  M. S. Gordon,  W. J. Hehre,  A. Klamt,  
 H. F. Schaefer III,  M. W. Schmidt,  C. D. Sherrill,  D. G. Truhlar,  
 A. Warshel,  X. Xu,  A. Aspuru-Guzik,  R. Baer,  A. T. Bell,  N. A. Besley,  
 J.-D. Chai,  A. Dreuw,  B. D. Dunietz,  T. R. Furlani,  S. R. Gwaltney,  
 C.-P. Hsu,  Y. Jung,  J. Kong,  D. S. Lambrecht,  W. Liang,  C. Ochsenfeld,  
 V. A. Rassolov,  L. V. Slipchenko,  J. E. Subotnik,  T. Van Voorhis,  
 J. M. Herbert,  A. I. Krylov,  P. M. W. Gill,  M. Head-Gordon

 Contributors to earlier versions of Q-Chem not listed above: 
 R. D. Adamson,  J. Baker,  E. F. C. Byrd,  A. K. Chakraborty,  C.-L. Cheng,  
 H. Dachsel,  R. J. Doerksen,  G. Hawkins,  A. Heyden,  S. Hirata,  
 G. Kedziora,  F. J. Keil,  C. Kelley,  P. P. Korambath,  W. Kurlancheek,  
 A. M. Lee,  M. S. Lee,  D. Liotard,  I. Lotan,  P. E. Maslen,  N. Nair,  
 D. Neuhauser,  R. Olson,  B. Peters,  J. Ritchie,  N. E. Schultz,  
 N. Shenvi,  A. C. Simmonett,  K. S. Thanthiriwatte,  Q. Wu,  W. Zhang

 Q-Chem 4.2.0 for Intel X86 Linux

 Parts of Q-Chem use Armadillo 4.100.2 (Dirt Cruiser).
 http://arma.sourceforge.net/

 Q-Chem begins on Mon Jun  2 17:42:20 2014  

Host: 
0

     Scratch files written to /scratch/edames/qchem30259.0//
 May2514 8580_ilyak 4150   
 Parallel job on  8  processors
Processing $rem in /opt/qchem/config/preferences.
 MEM_TOTAL  2000 
Warning: disabling incdft.
 Q-Chem warning in module /home/scratch/svnadmin/8580_ilyak/qchem/forms1/BasisType.C, line 1209:

 Setting pure/cartesian flag to 2111 for general basis


Finally everything over in PARseQInput

--------------------------------------------------------------
User input:
--------------------------------------------------------------
$rem
XC_GRID 000075000434
JOBTYPE ts
EXCHANGE M08SO
BASIS gen
GUI=2
UNRESTRICTED TRUE
CORRELATION NONE
$end

$comment
c5h11o-2
$end

$molecule
read iC5H11O-5_betasc_C3H6.out
$end

$basis
H  0
S  3 1.00
3.386500000000E+01 2.549380000000E-02
5.094790000000E+00 1.903730000000E-01
1.158790000000E+00 8.521610000000E-01
S  1 1.00
3.258400000000E-01 1.000000000000E+00
S  1 1.00
1.027410000000E-01 1.000000000000E+00
S  1 1.00
3.600000000000E-02 1.000000000000E+00
P  1 1.00
1.500000000000E+00 1.000000000000E+00
P  1 1.00
3.750000000000E-01 1.000000000000E+00
****
C 0
S  6 1.00
4.563240000000E+03 1.966650000000E-03
6.820240000000E+02 1.523060000000E-02
1.549730000000E+02 7.612690000000E-02
4.445530000000E+01 2.608010000000E-01
1.302900000000E+01 6.164620000000E-01
1.827730000000E+00 2.210060000000E-01
S  3 1.00
2.096420000000E+01 1.146600000000E-01
4.803310000000E+00 9.199990000000E-01
1.459330000000E+00 -3.030680000000E-03
S  1 1.00
4.834560000000E-01 1.000000000000E+00
S  1 1.00
1.455850000000E-01 1.000000000000E+00
S  1 1.00
4.380000000000E-02 1.000000000000E+00
P  3 1.00
2.096420000000E+01 4.024870000000E-02
4.803310000000E+00 2.375940000000E-01
1.459330000000E+00 8.158540000000E-01
P  1 1.00
4.834560000000E-01 1.000000000000E+00
P  1 1.00
1.455850000000E-01 1.000000000000E+00
P  1 1.00
4.380000000000E-02 1.000000000000E+00
D  1 1.00
1.252000000000E+00 1.000000000000E+00
D  1 1.00
3.130000000000E-01 1.000000000000E+00
F  1 1.00
8.000000000000E-01 1.000000000000E+00
****
O  0
S  6 1.00
8.588500000000E+03 1.895150000000E-03
1.297230000000E+03 1.438590000000E-02
2.992960000000E+02 7.073200000000E-02
8.737710000000E+01 2.400010000000E-01
2.567890000000E+01 5.947970000000E-01
3.740040000000E+00 2.808020000000E-01
S  3 1.00
4.211750000000E+01 1.138890000000E-01
9.628370000000E+00 9.208110000000E-01
2.853320000000E+00 -3.274470000000E-03
S  1 1.00
9.056610000000E-01 1.000000000000E+00
S  1 1.00
2.556110000000E-01 1.000000000000E+00
S  1 1.00
8.450000000000E-02 1.000000000000E+00
P  3 1.00
4.211750000000E+01 3.651140000000E-02
9.628370000000E+00 2.371530000000E-01
2.853320000000E+00 8.197020000000E-01
P  1 1.00
9.056610000000E-01 1.000000000000E+00
P  1 1.00
2.556110000000E-01 1.000000000000E+00
P  1 1.00
8.450000000000E-02 1.000000000000E+00
D  1 1.00
2.584000000000E+00 1.000000000000E+00
D  1 1.00
6.460000000000E-01 1.000000000000E+00
F  1 1.00
1.400000000000E+00 1.000000000000E+00
****
$end

--------------------------------------------------------------
 ----------------------------------------------------------------
             Standard Nuclear Orientation (Angstroms)
    I     Atom           X                Y                Z
 ----------------------------------------------------------------
    1      C       1.9691597566    -1.1719564204     0.0335861693
    2      C       1.1562785027    -0.1341888674     0.3842905036
    3      C       1.5726974580     1.3042624811     0.1855280735
    4      H       0.4015178827    -0.3081033044     1.1455988753
    5      H       2.8277302859    -1.0258324571    -0.6143022354
    6      H       1.7451003392    -2.1903980854     0.3295708814
    7      H       2.2366482390     1.4101373404    -0.6765707282
    8      H       0.7187270231     1.9706424402     0.0449105206
    9      H       2.1145162544     1.6624085646     1.0680704018
   10      C      -0.6056699369    -0.2438732000    -1.0632518250
   11      C      -1.7595912052     0.3862922542    -0.3496298615
   12      O      -2.0905019029    -0.2518541712     0.8856566323
   13      H      -0.6578988481    -1.3184124691    -1.2194272178
   14      H      -0.1795395676     0.3052513174    -1.8979986648
   15      H      -2.6474905610     0.4125347588    -1.0083906299
   16      H      -1.5404923664     1.4265911669    -0.0926444700
   17      H      -2.2920509096    -1.1732033874     0.6927918496
 ----------------------------------------------------------------
 Molecular Point Group                 C1    NOp =  1
 Largest Abelian Subgroup              C1    NOp =  1
 Nuclear Repulsion Energy =   237.7939614120 hartrees
 There are       25 alpha and       24 beta electrons
 Requested basis set is non-standard
 There are 138 shells and 314 basis functions

Total QAlloc Memory Limit   2000 MB
Mega-Array Size        61 MB
MEM_STATIC part        62 MB
 A cutoff of  1.0D-11 yielded   8903 shell pairs
 There are     45869 function pairs (     55099 Cartesian)
 Smallest overlap matrix eigenvalue = 2.40E-05

  Scale SEOQF with 1.000000e-01/1.000000e-01/1.000000e-01

 Standard Electronic Orientation quadrupole field applied
 Nucleus-field energy     =     0.0000000051 hartrees
 Guess MOs from core Hamiltonian diagonalization
 An unrestricted hybrid HF-DFT SCF calculation will be
 performed using Pulay DIIS extrapolation
 Exchange:     0.5679 Hartree-Fock + 1.0000 M08SO
 SCF converges when DIIS error is below 1.0E-08
 ---------------------------------------
  Cycle       Energy         DIIS Error
 ---------------------------------------
    1    -196.6578144299      9.10E-02
    2    -174.4135015013      4.37E-02
    3    -165.4709211926      6.54E-02
    4    -233.3945888644      3.82E-02
    5    -266.6227268187      1.69E-02
    6    -266.2204284368      1.39E-02
    7    -270.9755931219      7.69E-03
    8    -272.0289635122      2.57E-03
    9    -272.1277776859      1.10E-03
   10    -272.1462861179      5.13E-04
   11    -272.1499356510      2.11E-04
   12    -272.1510412075      6.62E-05
   13    -272.1512771177      2.15E-05
   14    -272.1513210815      9.53E-06
   15    -272.1513367881      4.97E-06
   16    -272.1513408723      3.25E-06
   17    -272.1513420995      1.50E-06
   18    -272.1513424736      5.28E-07
   19    -272.1513425574      2.20E-07
   20    -272.1513425919      1.15E-07
   21    -272.1513426148      4.78E-08
   22    -272.1513426173      9.40E-09 Convergence criterion met
 ---------------------------------------
 <S^2> = 0.7766
 SCF time:  CPU 1241.64 s  wall 1253.39 s
 SCF   energy in the final basis set = -272.1513426173
 Total energy in the final basis set = -272.1513426173
 Analysis of SCF Wavefunction
 
 --------------------------------------------------------------
                    Orbital Energies (a.u.)
 --------------------------------------------------------------
 
 Alpha MOs
 -- Occupied --
-19.569 -10.551 -10.510 -10.508 -10.489 -10.486  -1.139  -0.889
 -0.841  -0.774  -0.709  -0.640  -0.584  -0.547  -0.544  -0.520
 -0.488  -0.485  -0.456  -0.439  -0.424  -0.412  -0.375  -0.349
 -0.238
 -- Virtual --
 -0.027  -0.016  -0.009  -0.004   0.011   0.013   0.017   0.022
  0.029   0.041   0.051   0.055   0.059   0.075   0.086   0.095
  0.100   0.104   0.110   0.115   0.125   0.129   0.133   0.137
  0.143   0.143   0.148   0.153   0.166   0.171   0.172   0.193
  0.203   0.207   0.218   0.229   0.235   0.237   0.245   0.254
  0.275   0.285   0.295   0.303   0.321   0.327   0.336   0.356
  0.372   0.381   0.401   0.432   0.449   0.453   0.473   0.492
  0.500   0.511   0.538   0.543   0.548   0.563   0.569   0.573
  0.575   0.582   0.593   0.598   0.609   0.612   0.630   0.641
  0.644   0.657   0.668   0.677   0.685   0.697   0.707   0.717
  0.735   0.749   0.791   0.796   0.815   0.829   0.849   0.857
  0.873   0.895   0.930   0.947   0.977   0.985   0.995   1.022
  1.035   1.049   1.055   1.081   1.091   1.102   1.129   1.134
  1.148   1.178   1.194   1.199   1.212   1.224   1.239   1.258
  1.259   1.278   1.298   1.311   1.326   1.332   1.344   1.358
  1.362   1.374   1.387   1.402   1.418   1.441   1.446   1.459
  1.477   1.496   1.513   1.517   1.524   1.540   1.549   1.581
  1.591   1.600   1.620   1.630   1.676   1.711   1.746   1.856
  1.918   2.045   2.102   2.242   2.295   2.383   2.413   2.462
  2.478   2.506   2.518   2.560   2.581   2.603   2.666   2.706
  2.724   2.755   2.773   2.799   2.806   2.821   2.844   2.868
  2.880   2.908   2.913   2.932   2.944   2.970   2.997   3.023
  3.044   3.059   3.070   3.090   3.111   3.128   3.138   3.157
  3.167   3.185   3.204   3.229   3.257   3.270   3.287   3.307
  3.321   3.334   3.351   3.364   3.384   3.411   3.424   3.445
  3.477   3.495   3.507   3.521   3.531   3.582   3.601   3.637
  3.656   3.672   3.695   3.699   3.735   3.746   3.762   3.786
  3.810   3.825   3.835   3.877   3.892   3.923   3.940   3.954
  3.976   4.019   4.034   4.070   4.098   4.122   4.137   4.156
  4.174   4.183   4.193   4.202   4.223   4.251   4.255   4.268
  4.289   4.322   4.350   4.371   4.406   4.418   4.466   4.477
  4.512   4.542   4.554   4.590   4.631   4.684   4.699   4.744
  5.024   5.081   5.151   5.180   5.197   5.258   5.288   5.341
  5.405   5.448   5.477   5.487   5.515   5.557   5.562   5.629
  5.657   5.753   5.852   5.872   6.434   6.945   7.121   7.168
  7.201   7.441   7.583  23.935  24.029  24.198  24.252  24.562
 49.786
 
 Beta MOs
 -- Occupied --
-19.569 -10.551 -10.511 -10.495 -10.489 -10.479  -1.139  -0.885
 -0.834  -0.771  -0.699  -0.636  -0.578  -0.542  -0.541  -0.516
 -0.486  -0.484  -0.453  -0.438  -0.420  -0.410  -0.371  -0.315
 -- Virtual --
 -0.044  -0.030  -0.018  -0.014  -0.006   0.009   0.011   0.013
  0.018   0.027   0.039   0.049   0.052   0.058   0.072   0.083
  0.090   0.098   0.103   0.109   0.116   0.124   0.126   0.128
  0.134   0.139   0.141   0.146   0.150   0.162   0.169   0.170
  0.192   0.203   0.210   0.217   0.228   0.235   0.239   0.245
  0.253   0.280   0.288   0.296   0.302   0.320   0.330   0.341
  0.363   0.370   0.384   0.402   0.432   0.451   0.454   0.476
  0.493   0.509   0.515   0.543   0.547   0.555   0.565   0.575
  0.575   0.578   0.587   0.605   0.610   0.620   0.628   0.633
  0.648   0.653   0.661   0.675   0.685   0.691   0.700   0.712
  0.722   0.738   0.752   0.795   0.800   0.823   0.836   0.851
  0.859   0.874   0.898   0.933   0.949   0.979   0.986   1.005
  1.028   1.041   1.055   1.060   1.086   1.096   1.110   1.133
  1.142   1.152   1.181   1.199   1.205   1.222   1.230   1.245
  1.259   1.270   1.282   1.305   1.325   1.333   1.340   1.348
  1.369   1.372   1.382   1.394   1.406   1.425   1.447   1.456
  1.465   1.485   1.506   1.519   1.524   1.534   1.544   1.557
  1.582   1.598   1.610   1.623   1.652   1.683   1.716   1.753
  1.854   1.921   2.055   2.109   2.245   2.296   2.391   2.417
  2.485   2.487   2.522   2.530   2.581   2.594   2.629   2.690
  2.723   2.748   2.768   2.809   2.827   2.854   2.871   2.891
  2.900   2.914   2.920   2.942   2.949   2.985   3.009   3.032
  3.055   3.069   3.078   3.087   3.108   3.133   3.138   3.165
  3.182   3.193   3.208   3.220   3.242   3.272   3.300   3.310
  3.332   3.341   3.352   3.366   3.381   3.398   3.425   3.466
  3.476   3.504   3.519   3.527   3.537   3.575   3.602   3.610
  3.649   3.679   3.684   3.702   3.718   3.741   3.747   3.767
  3.796   3.824   3.840   3.850   3.884   3.900   3.929   3.961
  3.974   3.986   4.034   4.059   4.073   4.104   4.134   4.149
  4.172   4.184   4.200   4.217   4.229   4.252   4.262   4.269
  4.278   4.309   4.352   4.374   4.380   4.410   4.436   4.470
  4.503   4.525   4.550   4.565   4.642   4.678   4.731   4.754
  4.776   5.064   5.109   5.168   5.185   5.205   5.292   5.301
  5.351   5.450   5.483   5.513   5.536   5.554   5.589   5.598
  5.631   5.663   5.759   5.857   5.885   6.438   6.945   7.122
  7.169   7.201   7.441   7.585  23.936  24.040  24.197  24.268
 24.568  49.786
 --------------------------------------------------------------
 
          Ground-State Mulliken Net Atomic Charges

     Atom                 Charge (a.u.)    Spin (a.u.)
  --------------------------------------------------------
      1 C                    -0.508455       0.460213
      2 C                     0.094483      -0.232184
      3 C                    -0.777649       0.034968
      4 H                     0.310725       0.016071
      5 H                     0.185620      -0.024320
      6 H                     0.170344      -0.023096
      7 H                     0.180375       0.001676
      8 H                     0.187934      -0.001400
      9 H                     0.189442      -0.004873
     10 C                    -0.395479       0.814565
     11 C                    -0.479442      -0.034145
     12 O                    -0.320264       0.005607
     13 H                     0.223329      -0.033642
     14 H                     0.219536      -0.033391
     15 H                     0.193651       0.046507
     16 H                     0.242151       0.007765
     17 H                     0.283701      -0.000320
  --------------------------------------------------------
  Sum of atomic charges =     0.000000
  Sum of spin   charges =     1.000000

 -----------------------------------------------------------------
                    Cartesian Multipole Moments
 -----------------------------------------------------------------
    Charge (ESU x 10^10)
                 0.0000
    Dipole Moment (Debye)
         X      -0.2501      Y      -0.3130      Z      -1.4917
       Tot       1.5445
    Quadrupole Moments (Debye-Ang)
        XX     -41.3829     XY       3.0960     YY     -36.7355
        XZ       1.9371     YZ      -0.7783     ZZ     -42.7547
    Octopole Moments (Debye-Ang^2)
       XXX     -11.3307    XXY      -4.5823    XYY      -9.5544
       YYY      -5.6042    XXZ      -9.7265    XYZ       3.1936
       YYZ       3.7953    XZZ       0.1399    YZZ       1.4367
       ZZZ       1.7475
    Hexadecapole Moments (Debye-Ang^3)
      XXXX    -722.8057   XXXY      26.4845   XXYY    -145.2346
      XYYY       8.3983   YYYY    -233.0845   XXXZ      -4.6469
      XXYZ      -1.7482   XYYZ      -5.8789   YYYZ      -4.4268
      XXZZ    -156.4425   XYZZ       6.7130   YYZZ     -67.9918
      XZZZ      -6.5209   YZZZ      -3.5167   ZZZZ    -171.5522
 -----------------------------------------------------------------
 Calculating analytic gradient of the SCF energy
 Gradient of Coulomb and Exchange Energy
            1           2           3           4           5           6
    1  -4.9920323  -2.2046470  -2.0064066   2.9792285  -3.5011471   0.4994777
    2   5.3742690  -2.0428736  -3.1575990   0.8305894  -0.2402773   4.2599708
    3   0.6838249  -1.5601585  -0.2234521  -3.3289955   2.3484718  -1.0710909
            7           8           9          10          11          12
    1  -2.5526325   2.1931350  -2.1742067   0.8356461   1.8938258   5.9156784
    2  -1.0860343  -2.9533062  -1.8455504   0.3266322  -0.7185893  -0.9802800
    3   2.8415256   0.4917220  -3.0011119   2.6607177   2.1229808  -8.5289191
           13          14          15          16          17
    1   0.1436888  -1.6700448   3.5868686  -0.2529960   1.3065640
    2   4.5025434  -2.2006663  -0.2684105  -4.3086150   4.5081971
    3   0.9875650   3.7448265   2.6516341  -0.8199158   0.0003753
 Gradient of SCF Energy
            1           2           3           4           5           6
    1   0.0058200  -0.0089541   0.0009398   0.0038405  -0.0023040   0.0008622
    2  -0.0054762   0.0035747   0.0013554   0.0008767  -0.0012868   0.0023919
    3  -0.0001587  -0.0014962   0.0011996  -0.0020242   0.0015336  -0.0010785
            7           8           9          10          11          12
    1  -0.0015487   0.0031899  -0.0007010   0.0039577  -0.0001546  -0.0021898
    2   0.0004546  -0.0013326  -0.0000822   0.0000728  -0.0000171  -0.0001390
    3   0.0022817   0.0008241  -0.0017333   0.0007915  -0.0054471   0.0071984
           13          14          15          16          17
    1  -0.0009159  -0.0024665   0.0012633  -0.0013158   0.0006772
    2   0.0034006  -0.0023139   0.0003035  -0.0031666   0.0013840
    3  -0.0007252   0.0012179   0.0004845  -0.0006476  -0.0022205
 Max gradient component =       8.954E-03
 RMS gradient           =       2.707E-03
 Gradient time:  CPU 63.03 s  wall 63.05 s
 Geometry Optimization Parameters
   NAtoms,    NIC,     NZ,  NCons,   NDum,   NFix, NCnnct, MaxDiis
       17     159       0       0       0       0       0       0


** GEOMETRY OPTIMIZATION IN DELOCALIZED INTERNAL COORDINATES **
   Searching for a Transition State

   Optimization Cycle:   1

                       Coordinates (Angstroms)
     ATOM                X               Y               Z
      1  C         1.9691597566   -1.1719564204    0.0335861693
      2  C         1.1562785027   -0.1341888674    0.3842905036
      3  C         1.5726974580    1.3042624811    0.1855280735
      4  H         0.4015178827   -0.3081033044    1.1455988753
      5  H         2.8277302859   -1.0258324571   -0.6143022354
      6  H         1.7451003392   -2.1903980854    0.3295708814
      7  H         2.2366482390    1.4101373404   -0.6765707282
      8  H         0.7187270231    1.9706424402    0.0449105206
      9  H         2.1145162544    1.6624085646    1.0680704018
     10  C        -0.6056699369   -0.2438732000   -1.0632518250
     11  C        -1.7595912052    0.3862922542   -0.3496298615
     12  O        -2.0905019029   -0.2518541712    0.8856566323
     13  H        -0.6578988481   -1.3184124691   -1.2194272178
     14  H        -0.1795395676    0.3052513174   -1.8979986648
     15  H        -2.6474905610    0.4125347588   -1.0083906299
     16  H        -1.5404923664    1.4265911669   -0.0926444700
     17  H        -2.2920509096   -1.1732033874    0.6927918496
   Point Group: c1    Number of degrees of freedom:    45


   Energy is   -272.151342617


 Attempting to Generate Delocalized Internal Coordinates
 GETINT wrote B to file, NVib is           45
 calling HSSCONV
 HCONV 3*NATOMS:           51
 wrote HINT to file
  writing hessian 

 45 Hessian modes will be used to form the next step
  Hessian Eigenvalues:
     0.004058    0.005928    0.011721    0.020466    0.026384    0.027158
     0.027283    0.030173    0.031156    0.037438    0.040970    0.043328
     0.048535    0.049510    0.051889    0.056563    0.057662    0.061431
     0.066475    0.070460    0.077803    0.080727    0.081360    0.108940
     0.114002    0.116668    0.140821    0.154500    0.160000    0.160000
     0.279589    0.290231    0.307796    0.327729    0.330378    0.335040
     0.341540    0.344367    0.351517    0.352503    0.353409    0.355166
     0.374630    0.521301    0.549064
**WARNING** Hessian does not have the Desired Local Structure

 Transition State Search - Taking P-RFO Step
 Searching for Lamda that Maximizes Along the Lowest mode
 Value Taken    Lamda =   0.00409138
 Searching for Lamda that Minimizes Along All other modes
 Value Taken    Lamda =  -0.00090870
 Calculated Step too Large.  Step scaled by  0.027241
 Step Taken.  Stepsize is  0.300000

                             Maximum     Tolerance    Cnvgd?
         Gradient           0.004568      0.000300      NO
         Displacement       0.155043      0.001200      NO
         Energy change     *********      0.000001      NO


 New Cartesian Coordinates Obtained by Inverse Iteration

 Displacement from previous Coordinates is:  0.209905
 ----------------------------------------------------------------
             Standard Nuclear Orientation (Angstroms)
    I     Atom           X                Y                Z
 ----------------------------------------------------------------
    1      C       1.9757034565    -1.1692416358     0.0288925233
    2      C       1.1569930671    -0.1384169018     0.3858279648
    3      C       1.5661003399     1.3032297958     0.1964183596
    4      H       0.4021706426    -0.3196610672     1.1453490809
    5      H       2.8337047541    -1.0140382628    -0.6178355117
    6      H       1.7573627631    -2.1908531689     0.3185635083
    7      H       2.1940407805     1.4251033394    -0.6903388669
    8      H       0.7085383072     1.9738072619     0.1082914513
    9      H       2.1451821704     1.6437499887     1.0622073304
   10      C      -0.6037032220    -0.2550012068    -1.0647091235
   11      C      -1.7559487870     0.3883287848    -0.3600669571
   12      O      -2.0893191102    -0.2279981778     0.8857922903
   13      H      -0.6623184588    -1.3305590471    -1.2122858168
   14      H      -0.1720870651     0.2838331768    -1.9034965958
   15      H      -2.6441037231     0.4032425871    -1.0189319288
   16      H      -1.5394117532     1.4343581762    -0.1243557379
   17      H      -2.3037637178    -1.1495856814     0.7084663044
 ----------------------------------------------------------------
 Molecular Point Group                 C1    NOp =  1
 Largest Abelian Subgroup              C1    NOp =  1
 Nuclear Repulsion Energy =   237.7728800464 hartrees
 There are       25 alpha and       24 beta electrons
 Applying Cartesian multipole field
    Component          Value
    ---------          -----
     (2,0,0)        1.00000E-11
     (0,2,0)        2.00000E-11
     (0,0,2)       -3.00000E-11
 Nucleus-field energy     =     0.0000000051 hartrees
 Requested basis set is non-standard
 There are 138 shells and 314 basis functions
 A cutoff of  1.0D-11 yielded   8904 shell pairs
 There are     45870 function pairs (     55100 Cartesian)
 Smallest overlap matrix eigenvalue = 2.37E-05
 Guess MOs from SCF MO coefficient file
Reading MOs from coefficient file
Reading MOs from coefficient file
 An unrestricted hybrid HF-DFT SCF calculation will be
 performed using Pulay DIIS extrapolation
 Exchange:     0.5679 Hartree-Fock + 1.0000 M08SO
 SCF converges when DIIS error is below 1.0E-08
Geometry optimization detected.  Setting ReadMinima to 0
Setting SaveMinima to 0
 ---------------------------------------
  Cycle       Energy         DIIS Error
 ---------------------------------------
    1    -272.1486528042      2.53E-04
    2    -272.1511992905      3.62E-05
    3    -272.1512329132      1.22E-05
    4    -272.1512349647      6.93E-06
    5    -272.1512356233      1.48E-06
    6    -272.1512356520      5.92E-07
    7    -272.1512356579      1.79E-07
    8    -272.1512356599      6.29E-08
    9    -272.1512356609      4.03E-08
   10    -272.1512356614      2.62E-08
   11    -272.1512356618      1.21E-08
   12    -272.1512356617      3.04E-09 Convergence criterion met
 ---------------------------------------
 <S^2> = 0.7767
 SCF time:  CPU 669.83 s  wall 678.04 s
 SCF   energy in the final basis set = -272.1512356617
 Total energy in the final basis set = -272.1512356617
 Analysis of SCF Wavefunction
 
 --------------------------------------------------------------
                    Orbital Energies (a.u.)
 --------------------------------------------------------------
 
 Alpha MOs
 -- Occupied --
-19.569 -10.551 -10.510 -10.508 -10.489 -10.486  -1.139  -0.889
 -0.841  -0.774  -0.709  -0.640  -0.584  -0.547  -0.544  -0.520
 -0.488  -0.484  -0.456  -0.439  -0.424  -0.412  -0.375  -0.349
 -0.238
 -- Virtual --
 -0.027  -0.016  -0.009  -0.004   0.011   0.013   0.017   0.022
  0.030   0.040   0.051   0.055   0.060   0.074   0.087   0.095
  0.100   0.104   0.110   0.115   0.125   0.128   0.133   0.136
  0.143   0.144   0.148   0.153   0.166   0.172   0.173   0.193
  0.203   0.206   0.216   0.229   0.235   0.238   0.244   0.254
  0.275   0.285   0.296   0.302   0.321   0.328   0.336   0.356
  0.372   0.380   0.400   0.432   0.449   0.455   0.472   0.492
  0.501   0.513   0.539   0.544   0.549   0.562   0.569   0.574
  0.575   0.582   0.594   0.599   0.609   0.613   0.631   0.641
  0.644   0.656   0.669   0.676   0.684   0.697   0.706   0.719
  0.735   0.748   0.790   0.795   0.817   0.827   0.848   0.857
  0.877   0.893   0.930   0.947   0.977   0.985   0.994   1.024
  1.034   1.050   1.053   1.078   1.093   1.101   1.131   1.135
  1.146   1.180   1.195   1.201   1.213   1.223   1.245   1.257
  1.257   1.274   1.297   1.312   1.326   1.334   1.345   1.356
  1.362   1.372   1.387   1.402   1.418   1.443   1.445   1.457
  1.480   1.495   1.513   1.518   1.524   1.539   1.549   1.580
  1.591   1.601   1.620   1.631   1.677   1.710   1.745   1.859
  1.919   2.044   2.102   2.242   2.296   2.384   2.417   2.464
  2.477   2.507   2.516   2.561   2.583   2.602   2.665   2.705
  2.724   2.757   2.773   2.799   2.808   2.822   2.845   2.869
  2.881   2.907   2.911   2.932   2.945   2.971   2.994   3.023
  3.045   3.058   3.067   3.087   3.113   3.130   3.137   3.157
  3.167   3.187   3.203   3.232   3.255   3.270   3.289   3.308
  3.322   3.335   3.351   3.358   3.381   3.413   3.421   3.446
  3.479   3.498   3.506   3.523   3.530   3.580   3.605   3.637
  3.656   3.672   3.691   3.696   3.735   3.746   3.761   3.784
  3.807   3.826   3.835   3.875   3.890   3.925   3.943   3.953
  3.980   4.019   4.034   4.070   4.098   4.122   4.136   4.158
  4.174   4.183   4.193   4.204   4.221   4.252   4.257   4.268
  4.288   4.323   4.351   4.372   4.400   4.420   4.463   4.480
  4.513   4.539   4.555   4.590   4.633   4.684   4.697   4.744
  5.025   5.081   5.150   5.179   5.196   5.255   5.286   5.342
  5.405   5.447   5.477   5.488   5.515   5.557   5.562   5.629
  5.661   5.752   5.853   5.871   6.434   6.945   7.121   7.167
  7.201   7.442   7.583  23.933  24.028  24.199  24.251  24.563
 49.786
 
 Beta MOs
 -- Occupied --
-19.569 -10.551 -10.511 -10.495 -10.489 -10.479  -1.138  -0.885
 -0.834  -0.771  -0.699  -0.636  -0.578  -0.542  -0.540  -0.515
 -0.486  -0.483  -0.453  -0.438  -0.420  -0.410  -0.371  -0.314
 -- Virtual --
 -0.044  -0.030  -0.017  -0.014  -0.006   0.009   0.011   0.013
  0.018   0.028   0.039   0.049   0.052   0.058   0.072   0.083
  0.089   0.098   0.104   0.109   0.116   0.124   0.125   0.129
  0.133   0.139   0.142   0.146   0.150   0.162   0.169   0.172
  0.192   0.203   0.209   0.216   0.228   0.235   0.240   0.244
  0.254   0.280   0.288   0.297   0.301   0.320   0.330   0.341
  0.362   0.370   0.383   0.401   0.432   0.451   0.456   0.475
  0.493   0.511   0.517   0.543   0.549   0.556   0.564   0.575
  0.576   0.578   0.587   0.605   0.611   0.621   0.629   0.634
  0.648   0.653   0.661   0.676   0.684   0.689   0.701   0.711
  0.723   0.738   0.751   0.794   0.798   0.825   0.835   0.849
  0.859   0.878   0.896   0.932   0.949   0.978   0.986   1.004
  1.028   1.042   1.053   1.058   1.083   1.097   1.109   1.134
  1.144   1.150   1.185   1.200   1.208   1.221   1.230   1.250
  1.259   1.269   1.279   1.304   1.327   1.333   1.342   1.349
  1.366   1.372   1.380   1.395   1.406   1.426   1.449   1.454
  1.463   1.487   1.506   1.518   1.524   1.535   1.543   1.558
  1.582   1.597   1.611   1.624   1.653   1.684   1.715   1.752
  1.857   1.921   2.054   2.109   2.245   2.298   2.392   2.422
  2.484   2.491   2.520   2.529   2.582   2.597   2.626   2.689
  2.722   2.746   2.770   2.810   2.828   2.855   2.873   2.892
  2.903   2.915   2.918   2.942   2.950   2.983   3.009   3.029
  3.055   3.070   3.077   3.084   3.110   3.132   3.139   3.164
  3.182   3.194   3.208   3.221   3.243   3.272   3.298   3.312
  3.337   3.340   3.351   3.365   3.376   3.397   3.426   3.464
  3.476   3.504   3.522   3.527   3.538   3.576   3.598   3.614
  3.649   3.677   3.685   3.697   3.717   3.741   3.746   3.767
  3.794   3.822   3.840   3.850   3.881   3.899   3.932   3.961
  3.976   3.991   4.035   4.059   4.071   4.106   4.132   4.149
  4.173   4.183   4.201   4.217   4.230   4.252   4.263   4.271
  4.278   4.309   4.356   4.372   4.382   4.404   4.437   4.474
  4.500   4.526   4.548   4.566   4.643   4.679   4.732   4.753
  4.776   5.065   5.109   5.167   5.184   5.204   5.289   5.299
  5.351   5.448   5.486   5.513   5.537   5.555   5.588   5.597
  5.631   5.666   5.759   5.858   5.883   6.437   6.945   7.121
  7.168   7.201   7.442   7.585  23.934  24.039  24.198  24.267
 24.568  49.786
 --------------------------------------------------------------
 
          Ground-State Mulliken Net Atomic Charges

     Atom                 Charge (a.u.)    Spin (a.u.)
  --------------------------------------------------------
      1 C                    -0.498526       0.461281
      2 C                     0.072751      -0.232368
      3 C                    -0.774783       0.034444
      4 H                     0.308647       0.015895
      5 H                     0.184381      -0.024417
      6 H                     0.171316      -0.023120
      7 H                     0.182757       0.001771
      8 H                     0.188492      -0.000742
      9 H                     0.192279      -0.005172
     10 C                    -0.385879       0.813171
     11 C                    -0.479960      -0.033568
     12 O                    -0.321781       0.005718
     13 H                     0.223768      -0.033244
     14 H                     0.215238      -0.033346
     15 H                     0.194932       0.046784
     16 H                     0.242356       0.007271
     17 H                     0.284010      -0.000356
  --------------------------------------------------------
  Sum of atomic charges =     0.000000
  Sum of spin   charges =     1.000000

 -----------------------------------------------------------------
                    Cartesian Multipole Moments
 -----------------------------------------------------------------
    Charge (ESU x 10^10)
                 0.0000
    Dipole Moment (Debye)
         X      -0.2672      Y      -0.3339      Z      -1.4761
       Tot       1.5368
    Quadrupole Moments (Debye-Ang)
        XX     -41.2882     XY       3.1891     YY     -36.7840
        XZ       1.8849     YZ      -0.8596     ZZ     -42.7205
    Octopole Moments (Debye-Ang^2)
       XXX     -11.7668    XXY      -4.8596    XYY      -9.5202
       YYY      -5.5693    XXZ      -9.4316    XYZ       3.3842
       YYZ       3.8184    XZZ       0.0330    YZZ       1.2626
       ZZZ       1.7849
    Hexadecapole Moments (Debye-Ang^3)
      XXXX    -721.5546   XXXY      28.5881   XXYY    -145.3045
      XYYY       9.0759   YYYY    -232.6151   XXXZ      -5.4664
      XXYZ      -2.5411   XYYZ      -6.1235   YYYZ      -5.2665
      XXZZ    -156.1596   XYZZ       7.4105   YYZZ     -68.1395
      XZZZ      -7.2897   YZZZ      -4.7598   ZZZZ    -172.2686
 -----------------------------------------------------------------
 Calculating analytic gradient of the SCF energy
 Gradient of Coulomb and Exchange Energy
            1           2           3           4           5           6
    1  -5.0473373  -2.1490285  -1.9735865   2.9801888  -3.4999428   0.4735194
    2   5.2622465  -1.9102325  -3.1481916   0.8732093  -0.2688566   4.2663396
    3   0.7151960  -1.6417898  -0.2175812  -3.3147311   2.3459916  -1.0433283
            7           8           9          10          11          12
    1  -2.4263343   2.2164593  -2.3024035   0.7739602   1.8868291   5.8805106
    2  -1.1465039  -2.9816274  -1.7808924   0.3293690  -0.6682767  -1.1211846
    3   2.9200374   0.2973734  -2.9422655   2.7085084   2.0710611  -8.4953044
           13          14          15          16          17
    1   0.1774970  -1.6876110   3.5778195  -0.2496078   1.3690677
    2   4.5019657  -2.1367972  -0.2224066  -4.3416163   4.4934558
    3   0.9572230   3.7766619   2.6537754  -0.7116763  -0.0791517
 Gradient of SCF Energy
            1           2           3           4           5           6
    1   0.0057507  -0.0086285   0.0007917   0.0037081  -0.0022277   0.0008190
    2  -0.0051727   0.0035343   0.0011795   0.0010476  -0.0012709   0.0023234
    3  -0.0001217  -0.0015472   0.0011447  -0.0020818   0.0014922  -0.0010213
            7           8           9          10          11          12
    1  -0.0013950   0.0032828  -0.0008519   0.0037050   0.0005134  -0.0024551
    2   0.0002797  -0.0011305  -0.0000059  -0.0002635  -0.0001617  -0.0002467
    3   0.0022929   0.0011132  -0.0017590   0.0005507  -0.0049651   0.0070985
           13          14          15          16          17
    1  -0.0010009  -0.0023662   0.0013016  -0.0015516   0.0006046
    2   0.0033453  -0.0023102   0.0004252  -0.0028273   0.0012544
    3  -0.0009146   0.0011480   0.0005800  -0.0008983  -0.0021112
 Max gradient component =       8.629E-03
 RMS gradient           =       2.629E-03
 Gradient time:  CPU 61.76 s  wall 61.92 s
 Geometry Optimization Parameters
   NAtoms,    NIC,     NZ,  NCons,   NDum,   NFix, NCnnct, MaxDiis
       17     159       0       0       0       0       0       0

 Cartesian Hessian Update
 Hessian Updated using Powell/Murtagh-Sargent Update
  Mixing factors:     0.000044 Powell
                      0.999956 Murtagh-Sargent


** GEOMETRY OPTIMIZATION IN DELOCALIZED INTERNAL COORDINATES **
   Searching for a Transition State

   Optimization Cycle:   2

                       Coordinates (Angstroms)
     ATOM                X               Y               Z
      1  C         1.9757034565   -1.1692416358    0.0288925233
      2  C         1.1569930671   -0.1384169018    0.3858279648
      3  C         1.5661003399    1.3032297958    0.1964183596
      4  H         0.4021706426   -0.3196610672    1.1453490809
      5  H         2.8337047541   -1.0140382628   -0.6178355117
      6  H         1.7573627631   -2.1908531689    0.3185635083
      7  H         2.1940407805    1.4251033394   -0.6903388669
      8  H         0.7085383072    1.9738072619    0.1082914513
      9  H         2.1451821704    1.6437499887    1.0622073304
     10  C        -0.6037032220   -0.2550012068   -1.0647091235
     11  C        -1.7559487870    0.3883287848   -0.3600669571
     12  O        -2.0893191102   -0.2279981778    0.8857922903
     13  H        -0.6623184588   -1.3305590471   -1.2122858168
     14  H        -0.1720870651    0.2838331768   -1.9034965958
     15  H        -2.6441037231    0.4032425871   -1.0189319288
     16  H        -1.5394117532    1.4343581762   -0.1243557379
     17  H        -2.3037637178   -1.1495856814    0.7084663044
   Point Group: c1    Number of degrees of freedom:    45


   Energy is   -272.151235662

 GETINT wrote B to file, NVib is           45
 Hessian Updated using Powell/Murtagh-Sargent Update
  Mixing factors:     0.403745 Powell
                      0.596255 Murtagh-Sargent

 45 Hessian modes will be used to form the next step
  Hessian Eigenvalues:
     0.000327    0.005928    0.011719    0.020419    0.026367    0.027158
     0.027282    0.030161    0.031153    0.037420    0.040967    0.043289
     0.048511    0.049506    0.051889    0.056563    0.057650    0.061424
     0.066466    0.070456    0.077572    0.080696    0.081327    0.108894
     0.114002    0.116640    0.140617    0.154298    0.159999    0.160000
     0.279538    0.290138    0.307789    0.327728    0.330350    0.334998
     0.341514    0.344367    0.351517    0.352502    0.353409    0.355165
     0.374502    0.521291    0.549060
**WARNING** Hessian does not have the Desired Local Structure

 Transition State Search - Taking P-RFO Step
 Searching for Lamda that Maximizes Along the Lowest mode
 Value Taken    Lamda =   0.00063083
 Searching for Lamda that Minimizes Along All other modes
 Value Taken    Lamda =  -0.00088965
 Calculated Step too Large.  Step scaled by  0.207210
 Step Taken.  Stepsize is  0.300000

                             Maximum     Tolerance    Cnvgd?
         Gradient           0.004422      0.000300      NO
         Displacement       0.150287      0.001200      NO
         Energy change      0.000107      0.000001      NO


 New Cartesian Coordinates Obtained by Inverse Iteration

 Displacement from previous Coordinates is:  0.208782
 ----------------------------------------------------------------
             Standard Nuclear Orientation (Angstroms)
    I     Atom           X                Y                Z
 ----------------------------------------------------------------
    1      C       1.9799323675    -1.1669911614     0.0251412693
    2      C       1.1575027178    -0.1438506128     0.3912894371
    3      C       1.5569201030     1.3010071385     0.2055687386
    4      H       0.4006190108    -0.3337954896     1.1481019737
    5      H       2.8370227941    -1.0010439679    -0.6216012452
    6      H       1.7669971914    -2.1926627425     0.3073125395
    7      H       2.1451073819     1.4379305423    -0.7069214636
    8      H       0.6938655501     1.9705764565     0.1685818974
    9      H       2.1745615843     1.6281338187     1.0506123600
   10      C      -0.5991366292    -0.2637523236    -1.0648637948
   11      C      -1.7510094072     0.3916470910    -0.3703907080
   12      O      -2.0852718287    -0.2047899979     0.8836703038
   13      H      -0.6616905943    -1.3411086766    -1.2047324812
   14      H      -0.1589744369     0.2678338101    -1.9049948801
   15      H      -2.6397467382     0.3952495572    -1.0297378246
   16      H      -1.5343422584     1.4424050098    -0.1531072488
   17      H      -2.3132163642    -1.1264904906     0.7238594018
 ----------------------------------------------------------------
 Molecular Point Group                 C1    NOp =  1
 Largest Abelian Subgroup              C1    NOp =  1
 Nuclear Repulsion Energy =   237.8743922688 hartrees
 There are       25 alpha and       24 beta electrons
 Applying Cartesian multipole field
    Component          Value
    ---------          -----
     (2,0,0)        1.00000E-11
     (0,2,0)        2.00000E-11
     (0,0,2)       -3.00000E-11
 Nucleus-field energy     =     0.0000000051 hartrees
 Requested basis set is non-standard
 There are 138 shells and 314 basis functions
 A cutoff of  1.0D-11 yielded   8907 shell pairs
 There are     45919 function pairs (     55163 Cartesian)
 Smallest overlap matrix eigenvalue = 2.32E-05
 Guess MOs from SCF MO coefficient file
Reading MOs from coefficient file
Reading MOs from coefficient file
 An unrestricted hybrid HF-DFT SCF calculation will be
 performed using Pulay DIIS extrapolation
 Exchange:     0.5679 Hartree-Fock + 1.0000 M08SO
 SCF converges when DIIS error is below 1.0E-08
Geometry optimization detected.  Setting ReadMinima to 0
Setting SaveMinima to 0
 Inaccurate integrated density:
   Number of electrons =    49
   Numerical integral  =    48.990589264648
   Relative error      =    -0.0192055824 %
 ---------------------------------------
  Cycle       Energy         DIIS Error
 ---------------------------------------
    1    -272.1468004002      2.55E-04
    2    -272.1512301278      3.60E-05
    3    -272.1512641104      1.27E-05
    4    -272.1512661906      8.25E-06
    5    -272.1512670500      1.89E-06
    6    -272.1512670995      6.25E-07
    7    -272.1512671125      1.95E-07
    8    -272.1512671187      1.11E-07
    9    -272.1512671224      7.62E-08
   10    -272.1512671245      3.70E-08
   11    -272.1512671252      1.65E-08
   12    -272.1512671252      7.81E-09 Convergence criterion met
 ---------------------------------------
 <S^2> = 0.7765
 SCF time:  CPU 682.53 s  wall 689.54 s
 SCF   energy in the final basis set = -272.1512671252
 Total energy in the final basis set = -272.1512671252
 Analysis of SCF Wavefunction
 
 --------------------------------------------------------------
                    Orbital Energies (a.u.)
 --------------------------------------------------------------
 
 Alpha MOs
 -- Occupied --
-19.569 -10.551 -10.510 -10.507 -10.489 -10.485  -1.139  -0.889
 -0.841  -0.774  -0.709  -0.640  -0.585  -0.547  -0.544  -0.519
 -0.487  -0.484  -0.456  -0.439  -0.424  -0.411  -0.375  -0.349
 -0.237
 -- Virtual --
 -0.027  -0.016  -0.009  -0.004   0.011   0.013   0.017   0.022
  0.030   0.040   0.051   0.054   0.061   0.074   0.086   0.095
  0.100   0.104   0.111   0.116   0.125   0.128   0.134   0.136
  0.142   0.144   0.148   0.153   0.166   0.172   0.174   0.192
  0.203   0.206   0.215   0.229   0.235   0.239   0.244   0.255
  0.275   0.285   0.297   0.301   0.321   0.328   0.336   0.355
  0.373   0.380   0.400   0.432   0.449   0.456   0.472   0.492
  0.502   0.515   0.539   0.544   0.550   0.561   0.570   0.574
  0.576   0.583   0.595   0.600   0.609   0.614   0.632   0.641
  0.644   0.656   0.670   0.675   0.683   0.698   0.706   0.720
  0.735   0.747   0.789   0.794   0.819   0.826   0.846   0.858
  0.880   0.892   0.928   0.946   0.975   0.984   0.994   1.024
  1.033   1.048   1.054   1.076   1.095   1.101   1.133   1.137
  1.144   1.181   1.195   1.206   1.214   1.223   1.248   1.257
  1.259   1.271   1.297   1.313   1.327   1.335   1.347   1.354
  1.363   1.370   1.388   1.401   1.417   1.442   1.446   1.456
  1.482   1.494   1.513   1.518   1.524   1.537   1.550   1.579
  1.590   1.603   1.621   1.632   1.678   1.709   1.745   1.863
  1.919   2.044   2.102   2.244   2.298   2.387   2.421   2.466
  2.476   2.511   2.514   2.563   2.584   2.605   2.664   2.705
  2.724   2.758   2.773   2.799   2.810   2.824   2.847   2.869
  2.882   2.905   2.911   2.933   2.946   2.972   2.992   3.023
  3.047   3.058   3.066   3.085   3.117   3.131   3.137   3.159
  3.168   3.189   3.201   3.236   3.251   3.271   3.291   3.308
  3.323   3.336   3.351   3.354   3.379   3.413   3.419   3.448
  3.480   3.503   3.507   3.524   3.530   3.579   3.608   3.636
  3.656   3.673   3.684   3.697   3.734   3.746   3.761   3.782
  3.805   3.827   3.834   3.874   3.888   3.926   3.947   3.952
  3.984   4.019   4.034   4.070   4.097   4.121   4.135   4.159
  4.171   4.183   4.194   4.204   4.219   4.250   4.257   4.270
  4.287   4.323   4.352   4.372   4.393   4.423   4.460   4.483
  4.514   4.537   4.554   4.591   4.635   4.685   4.696   4.746
  5.027   5.080   5.147   5.177   5.195   5.252   5.286   5.343
  5.403   5.444   5.473   5.486   5.516   5.555   5.560   5.625
  5.660   5.753   5.855   5.870   6.436   6.946   7.120   7.165
  7.202   7.445   7.583  23.929  24.026  24.196  24.250  24.565
 49.786
 
 Beta MOs
 -- Occupied --
-19.569 -10.551 -10.510 -10.495 -10.489 -10.479  -1.138  -0.885
 -0.834  -0.771  -0.698  -0.635  -0.578  -0.542  -0.540  -0.515
 -0.486  -0.483  -0.453  -0.438  -0.419  -0.410  -0.371  -0.314
 -- Virtual --
 -0.044  -0.030  -0.017  -0.014  -0.006   0.009   0.011   0.014
  0.018   0.028   0.039   0.048   0.051   0.059   0.071   0.083
  0.090   0.098   0.103   0.109   0.116   0.124   0.125   0.130
  0.133   0.139   0.143   0.146   0.151   0.163   0.168   0.173
  0.191   0.203   0.208   0.215   0.228   0.236   0.240   0.244
  0.254   0.280   0.288   0.297   0.300   0.320   0.330   0.341
  0.362   0.371   0.383   0.401   0.432   0.451   0.458   0.475
  0.493   0.513   0.519   0.544   0.549   0.556   0.563   0.575
  0.576   0.578   0.587   0.605   0.612   0.621   0.630   0.635
  0.648   0.652   0.661   0.677   0.684   0.688   0.702   0.710
  0.725   0.737   0.751   0.793   0.797   0.826   0.835   0.848
  0.861   0.881   0.895   0.931   0.948   0.976   0.985   1.003
  1.028   1.044   1.051   1.059   1.081   1.098   1.109   1.136
  1.146   1.148   1.186   1.199   1.212   1.221   1.230   1.251
  1.264   1.268   1.278   1.303   1.328   1.332   1.344   1.351
  1.363   1.373   1.378   1.395   1.405   1.426   1.449   1.454
  1.462   1.489   1.504   1.517   1.523   1.534   1.541   1.559
  1.581   1.596   1.612   1.625   1.653   1.684   1.715   1.751
  1.861   1.922   2.054   2.110   2.247   2.300   2.395   2.427
  2.483   2.495   2.520   2.530   2.583   2.601   2.628   2.689
  2.722   2.745   2.772   2.810   2.829   2.856   2.874   2.893
  2.905   2.915   2.917   2.943   2.952   2.983   3.010   3.027
  3.054   3.072   3.077   3.081   3.113   3.134   3.140   3.164
  3.182   3.195   3.208   3.223   3.246   3.270   3.297   3.314
  3.338   3.343   3.351   3.362   3.372   3.396   3.426   3.463
  3.476   3.503   3.524   3.529   3.541   3.577   3.596   3.617
  3.650   3.674   3.687   3.691   3.717   3.740   3.746   3.767
  3.792   3.820   3.839   3.850   3.880   3.897   3.933   3.960
  3.978   3.996   4.035   4.058   4.069   4.106   4.131   4.149
  4.173   4.183   4.202   4.214   4.230   4.251   4.262   4.269
  4.281   4.308   4.358   4.370   4.383   4.397   4.437   4.478
  4.498   4.526   4.545   4.566   4.645   4.680   4.732   4.753
  4.778   5.067   5.109   5.165   5.183   5.203   5.287   5.298
  5.352   5.445   5.487   5.512   5.537   5.554   5.584   5.592
  5.628   5.665   5.760   5.860   5.882   6.440   6.946   7.120
  7.166   7.202   7.446   7.585  23.930  24.036  24.195  24.266
 24.571  49.785
 --------------------------------------------------------------
 
          Ground-State Mulliken Net Atomic Charges

     Atom                 Charge (a.u.)    Spin (a.u.)
  --------------------------------------------------------
      1 C                    -0.492129       0.459208
      2 C                     0.057077      -0.231656
      3 C                    -0.774824       0.033790
      4 H                     0.307087       0.015600
      5 H                     0.183461      -0.024334
      6 H                     0.171959      -0.022961
      7 H                     0.186122       0.001861
      8 H                     0.189687      -0.000099
      9 H                     0.194399      -0.005324
     10 C                    -0.379171       0.814470
     11 C                    -0.479143      -0.033405
     12 O                    -0.323376       0.005862
     13 H                     0.224082      -0.032951
     14 H                     0.211755      -0.033613
     15 H                     0.195835       0.047115
     16 H                     0.242392       0.006829
     17 H                     0.284786      -0.000391
  --------------------------------------------------------
  Sum of atomic charges =     0.000000
  Sum of spin   charges =     1.000000

 -----------------------------------------------------------------
                    Cartesian Multipole Moments
 -----------------------------------------------------------------
    Charge (ESU x 10^10)
                 0.0000
    Dipole Moment (Debye)
         X      -0.2909      Y      -0.3563      Z      -1.4556
       Tot       1.5266
    Quadrupole Moments (Debye-Ang)
        XX     -41.2007     XY       3.2904     YY     -36.8515
        XZ       1.7976     YZ      -0.9444     ZZ     -42.6954
    Octopole Moments (Debye-Ang^2)
       XXX     -12.3191    XXY      -5.1059    XYY      -9.5023
       YYY      -5.6029    XXZ      -9.1107    XYZ       3.5729
       YYZ       3.8193    XZZ      -0.1180    YZZ       1.0931
       ZZZ       1.8468
    Hexadecapole Moments (Debye-Ang^3)
      XXXX    -718.6390   XXXY      30.9589   XXYY    -145.2440
      XYYY       9.9569   YYYY    -232.2694   XXXZ      -6.4060
      XXYZ      -3.2250   XYYZ      -6.3979   YYYZ      -5.9111
      XXZZ    -155.5628   XYZZ       8.1699   YYZZ     -68.2536
      XZZZ      -8.1842   YZZZ      -5.8227   ZZZZ    -172.9970
 -----------------------------------------------------------------
 Calculating analytic gradient of the SCF energy
 Gradient of Coulomb and Exchange Energy
            1           2           3           4           5           6
    1  -5.0927424  -2.1199928  -1.9637751   2.9846936  -3.4969082   0.4524198
    2   5.1754475  -1.8041939  -3.1514119   0.9295722  -0.3060500   4.2750476
    3   0.7898672  -1.8283441  -0.2062134  -3.2940525   2.3425935  -1.0086551
            7           8           9          10          11          12
    1  -2.2801852   2.2542227  -2.4388784   0.7348838   1.9017285   5.8449588
    2  -1.2067466  -2.9844816  -1.7235774   0.3289259  -0.6432330  -1.2482261
    3   3.0043152   0.1221729  -2.8704803   2.7606561   2.0508760  -8.4333227
           13          14          15          16          17
    1   0.1974971  -1.7169352   3.5737178  -0.2669544   1.4322496
    2   4.5048987  -2.0919834  -0.1669754  -4.3679691   4.4809565
    3   0.9220101   3.7886346   2.6594696  -0.6239235  -0.1756038
 Gradient of SCF Energy
            1           2           3           4           5           6
    1   0.0049565  -0.0077685   0.0007923   0.0030047  -0.0017633   0.0005944
    2  -0.0041679   0.0033118   0.0006734   0.0008803  -0.0010517   0.0018435
    3   0.0000131  -0.0016731   0.0008194  -0.0017422   0.0011677  -0.0008413
            7           8           9          10          11          12
    1  -0.0009562   0.0026413  -0.0006117   0.0036210   0.0008184  -0.0022945
    2   0.0002587  -0.0008144  -0.0000050  -0.0003522  -0.0001731  -0.0001501
    3   0.0018264   0.0011747  -0.0013296   0.0011401  -0.0040261   0.0059939
           13          14          15          16          17
    1  -0.0009946  -0.0020811   0.0009885  -0.0014061   0.0004589
    2   0.0026394  -0.0018984   0.0003221  -0.0022374   0.0009210
    3  -0.0010667   0.0007396   0.0004630  -0.0009303  -0.0017287
 Max gradient component =       7.768E-03
 RMS gradient           =       2.256E-03
 Gradient time:  CPU 64.51 s  wall 64.56 s
 Geometry Optimization Parameters
   NAtoms,    NIC,     NZ,  NCons,   NDum,   NFix, NCnnct, MaxDiis
       17     159       0       0       0       0       0       0

 Cartesian Hessian Update
 Hessian Updated using Powell/Murtagh-Sargent Update
  Mixing factors:     0.967463 Powell
                      0.032537 Murtagh-Sargent


** GEOMETRY OPTIMIZATION IN DELOCALIZED INTERNAL COORDINATES **
   Searching for a Transition State

   Optimization Cycle:   3

                       Coordinates (Angstroms)
     ATOM                X               Y               Z
      1  C         1.9799323675   -1.1669911614    0.0251412693
      2  C         1.1575027178   -0.1438506128    0.3912894371
      3  C         1.5569201030    1.3010071385    0.2055687386
      4  H         0.4006190108   -0.3337954896    1.1481019737
      5  H         2.8370227941   -1.0010439679   -0.6216012452
      6  H         1.7669971914   -2.1926627425    0.3073125395
      7  H         2.1451073819    1.4379305423   -0.7069214636
      8  H         0.6938655501    1.9705764565    0.1685818974
      9  H         2.1745615843    1.6281338187    1.0506123600
     10  C        -0.5991366292   -0.2637523236   -1.0648637948
     11  C        -1.7510094072    0.3916470910   -0.3703907080
     12  O        -2.0852718287   -0.2047899979    0.8836703038
     13  H        -0.6616905943   -1.3411086766   -1.2047324812
     14  H        -0.1589744369    0.2678338101   -1.9049948801
     15  H        -2.6397467382    0.3952495572   -1.0297378246
     16  H        -1.5343422584    1.4424050098   -0.1531072488
     17  H        -2.3132163642   -1.1264904906    0.7238594018
   Point Group: c1    Number of degrees of freedom:    45


   Energy is   -272.151267125

 GETINT wrote B to file, NVib is           45
 Hessian Updated using Powell/Murtagh-Sargent Update
  Mixing factors:     0.993067 Powell
                      0.006933 Murtagh-Sargent

 45 Hessian modes will be used to form the next step
  Hessian Eigenvalues:
     0.000187    0.005938    0.011718    0.020392    0.026324    0.027158
     0.027280    0.030115    0.031150    0.037413    0.040924    0.043298
     0.048505    0.049497    0.051880    0.056562    0.057650    0.061389
     0.066465    0.070457    0.077575    0.080694    0.081326    0.108895
     0.114001    0.116622    0.140553    0.154293    0.159998    0.160000
     0.279538    0.290130    0.307790    0.327731    0.330350    0.334997
     0.341514    0.344368    0.351519    0.352503    0.353409    0.355165
     0.374459    0.521260    0.549060
**WARNING** Hessian does not have the Desired Local Structure

 Transition State Search - Taking P-RFO Step
 Searching for Lamda that Maximizes Along the Lowest mode
 Value Taken    Lamda =   0.00040974
 Searching for Lamda that Minimizes Along All other modes
 Value Taken    Lamda =  -0.00067544
 Calculated Step too Large.  Step scaled by  0.220558
 Step Taken.  Stepsize is  0.300000

                             Maximum     Tolerance    Cnvgd?
         Gradient           0.003630      0.000300      NO
         Displacement       0.150299      0.001200      NO
         Energy change     -0.000031      0.000001      NO


 New Cartesian Coordinates Obtained by Inverse Iteration

 Displacement from previous Coordinates is:  0.212290
 ----------------------------------------------------------------
             Standard Nuclear Orientation (Angstroms)
    I     Atom           X                Y                Z
 ----------------------------------------------------------------
    1      C       1.9854653833    -1.1658662922     0.0214876337
    2      C       1.1591571271    -0.1514236037     0.3983049463
    3      C       1.5448377499     1.2977047736     0.2149580468
    4      H       0.3997372152    -0.3510801445     1.1514776859
    5      H       2.8410166383    -0.9879403491    -0.6253626780
    6      H       1.7796766282    -2.1957183329     0.2961066871
    7      H       2.0917595652     1.4497529670    -0.7211718252
    8      H       0.6759823334     1.9614307510     0.2261715775
    9      H       2.1982486315     1.6163219096     1.0367060734
   10      C      -0.5949237678    -0.2719410694    -1.0662488379
   11      C      -1.7452838738     0.3963435137    -0.3808902270
   12      O      -2.0782501670    -0.1796463555     0.8815510118
   13      H      -0.6613410448    -1.3508327031    -1.1977618883
   14      H      -0.1442169312     0.2524145949    -1.9062715989
   15      H      -2.6353050717     0.3903673335    -1.0393770860
   16      H      -1.5258541519     1.4507907239    -0.1813466357
   17      H      -2.3215658199    -1.1003797556     0.7394553892
 ----------------------------------------------------------------
 Molecular Point Group                 C1    NOp =  1
 Largest Abelian Subgroup              C1    NOp =  1
 Nuclear Repulsion Energy =   238.0059798294 hartrees
 There are       25 alpha and       24 beta electrons
 Applying Cartesian multipole field
    Component          Value
    ---------          -----
     (2,0,0)        1.00000E-11
     (0,2,0)        2.00000E-11
     (0,0,2)       -3.00000E-11
 Nucleus-field energy     =     0.0000000050 hartrees
 Requested basis set is non-standard
 There are 138 shells and 314 basis functions
 A cutoff of  1.0D-11 yielded   8915 shell pairs
 There are     45975 function pairs (     55222 Cartesian)
 Smallest overlap matrix eigenvalue = 2.26E-05
 Guess MOs from SCF MO coefficient file
Reading MOs from coefficient file
Reading MOs from coefficient file
 An unrestricted hybrid HF-DFT SCF calculation will be
 performed using Pulay DIIS extrapolation
 Exchange:     0.5679 Hartree-Fock + 1.0000 M08SO
 SCF converges when DIIS error is below 1.0E-08
Geometry optimization detected.  Setting ReadMinima to 0
Setting SaveMinima to 0
 Inaccurate integrated density:
   Number of electrons =    49
   Numerical integral  =    48.990685714194
   Relative error      =    -0.0190087465 %
 ---------------------------------------
  Cycle       Energy         DIIS Error
 ---------------------------------------
    1    -272.1465057892      2.67E-04
    2    -272.1512706347      3.65E-05
    3    -272.1513054988      1.44E-05
    4    -272.1513083971      9.16E-06
    5    -272.1513097215      2.23E-06
    6    -272.1513099085      9.38E-07
    7    -272.1513100410      5.61E-07
    8    -272.1513101520      3.01E-07
    9    -272.1513101890      1.63E-07
   10    -272.1513101949      4.55E-08
   11    -272.1513101952      2.46E-08
   12    -272.1513101951      9.81E-09 Convergence criterion met
 ---------------------------------------
 <S^2> = 0.7760
 SCF time:  CPU 688.27 s  wall 695.53 s
 SCF   energy in the final basis set = -272.1513101951
 Total energy in the final basis set = -272.1513101951
 Analysis of SCF Wavefunction
 
 --------------------------------------------------------------
                    Orbital Energies (a.u.)
 --------------------------------------------------------------
 
 Alpha MOs
 -- Occupied --
-19.569 -10.551 -10.510 -10.507 -10.489 -10.485  -1.139  -0.889
 -0.840  -0.774  -0.709  -0.639  -0.585  -0.547  -0.543  -0.519
 -0.487  -0.484  -0.456  -0.439  -0.423  -0.411  -0.374  -0.349
 -0.237
 -- Virtual --
 -0.027  -0.016  -0.009  -0.004   0.011   0.012   0.017   0.022
  0.030   0.040   0.051   0.054   0.061   0.074   0.085   0.096
  0.099   0.103   0.111   0.116   0.125   0.128   0.134   0.135
  0.142   0.145   0.148   0.153   0.167   0.172   0.175   0.192
  0.203   0.206   0.214   0.228   0.236   0.239   0.245   0.255
  0.275   0.284   0.298   0.301   0.320   0.328   0.336   0.355
  0.373   0.380   0.400   0.432   0.448   0.457   0.472   0.493
  0.503   0.517   0.539   0.544   0.550   0.560   0.570   0.574
  0.576   0.584   0.596   0.602   0.609   0.615   0.634   0.640
  0.644   0.655   0.670   0.674   0.682   0.700   0.705   0.721
  0.734   0.746   0.788   0.792   0.821   0.824   0.845   0.858
  0.883   0.893   0.927   0.945   0.973   0.983   0.995   1.024
  1.033   1.046   1.057   1.074   1.096   1.101   1.135   1.138
  1.142   1.181   1.195   1.211   1.214   1.224   1.247   1.257
  1.263   1.270   1.296   1.313   1.328   1.336   1.347   1.352
  1.363   1.372   1.388   1.401   1.417   1.441   1.448   1.455
  1.484   1.494   1.512   1.518   1.523   1.535   1.551   1.579
  1.589   1.604   1.621   1.633   1.680   1.709   1.746   1.868
  1.920   2.043   2.103   2.246   2.300   2.390   2.425   2.467
  2.477   2.512   2.516   2.565   2.585   2.610   2.663   2.706
  2.725   2.759   2.773   2.799   2.812   2.825   2.849   2.869
  2.883   2.904   2.911   2.934   2.948   2.972   2.992   3.023
  3.048   3.056   3.065   3.083   3.121   3.133   3.137   3.160
  3.168   3.192   3.199   3.238   3.248   3.272   3.294   3.308
  3.323   3.336   3.348   3.353   3.377   3.412   3.416   3.449
  3.479   3.506   3.510   3.524   3.530   3.578   3.611   3.634
  3.654   3.673   3.677   3.700   3.734   3.747   3.761   3.780
  3.803   3.828   3.832   3.873   3.886   3.926   3.951   3.952
  3.988   4.019   4.034   4.069   4.096   4.120   4.135   4.161
  4.169   4.183   4.195   4.205   4.217   4.246   4.256   4.275
  4.286   4.324   4.351   4.369   4.386   4.427   4.456   4.486
  4.513   4.536   4.554   4.591   4.637   4.686   4.697   4.748
  5.030   5.080   5.145   5.175   5.195   5.250   5.289   5.344
  5.401   5.442   5.469   5.485   5.518   5.553   5.560   5.623
  5.661   5.755   5.856   5.870   6.440   6.946   7.119   7.163
  7.203   7.449   7.584  23.925  24.024  24.195  24.250  24.568
 49.786
 
 Beta MOs
 -- Occupied --
-19.569 -10.551 -10.510 -10.495 -10.489 -10.478  -1.139  -0.885
 -0.833  -0.771  -0.698  -0.635  -0.579  -0.542  -0.541  -0.515
 -0.486  -0.483  -0.453  -0.438  -0.419  -0.409  -0.370  -0.314
 -- Virtual --
 -0.043  -0.030  -0.017  -0.014  -0.006   0.009   0.011   0.014
  0.018   0.028   0.038   0.048   0.051   0.060   0.071   0.082
  0.090   0.098   0.103   0.110   0.117   0.124   0.125   0.130
  0.133   0.139   0.143   0.146   0.151   0.163   0.168   0.174
  0.191   0.204   0.207   0.214   0.228   0.237   0.240   0.245
  0.255   0.280   0.288   0.298   0.300   0.320   0.330   0.342
  0.362   0.371   0.383   0.401   0.432   0.450   0.459   0.475
  0.494   0.514   0.520   0.544   0.549   0.557   0.563   0.575
  0.576   0.579   0.588   0.605   0.613   0.622   0.632   0.636
  0.647   0.652   0.661   0.677   0.683   0.686   0.704   0.709
  0.726   0.736   0.750   0.793   0.795   0.827   0.834   0.846
  0.862   0.884   0.896   0.930   0.947   0.974   0.985   1.003
  1.026   1.044   1.049   1.062   1.079   1.099   1.110   1.138
  1.145   1.149   1.186   1.199   1.216   1.220   1.231   1.250
  1.265   1.269   1.280   1.303   1.330   1.331   1.345   1.351
  1.361   1.373   1.380   1.396   1.404   1.427   1.449   1.455
  1.461   1.491   1.504   1.517   1.523   1.533   1.541   1.559
  1.580   1.595   1.614   1.625   1.654   1.686   1.715   1.752
  1.866   1.923   2.053   2.111   2.249   2.301   2.397   2.431
  2.483   2.499   2.520   2.532   2.584   2.604   2.630   2.688
  2.722   2.745   2.773   2.811   2.829   2.858   2.876   2.894
  2.906   2.914   2.919   2.943   2.954   2.982   3.010   3.025
  3.052   3.072   3.077   3.079   3.114   3.138   3.140   3.164
  3.182   3.197   3.208   3.225   3.248   3.269   3.296   3.317
  3.335   3.347   3.350   3.358   3.370   3.396   3.425   3.460
  3.477   3.500   3.525   3.533   3.545   3.578   3.594   3.619
  3.650   3.671   3.685   3.688   3.718   3.739   3.747   3.768
  3.790   3.819   3.838   3.850   3.880   3.895   3.934   3.960
  3.980   4.003   4.035   4.058   4.068   4.106   4.130   4.150
  4.173   4.183   4.203   4.213   4.230   4.251   4.260   4.266
  4.287   4.307   4.360   4.369   4.381   4.392   4.437   4.483
  4.495   4.525   4.544   4.567   4.646   4.681   4.733   4.754
  4.780   5.068   5.110   5.162   5.181   5.201   5.286   5.299
  5.354   5.442   5.489   5.512   5.537   5.553   5.581   5.588
  5.625   5.666   5.761   5.862   5.881   6.443   6.946   7.120
  7.163   7.203   7.449   7.585  23.926  24.035  24.194  24.266
 24.574  49.786
 --------------------------------------------------------------
 
          Ground-State Mulliken Net Atomic Charges

     Atom                 Charge (a.u.)    Spin (a.u.)
  --------------------------------------------------------
      1 C                    -0.487518       0.451102
      2 C                     0.043090      -0.230346
      3 C                    -0.776508       0.033022
      4 H                     0.305956       0.015186
      5 H                     0.183043      -0.023916
      6 H                     0.172322      -0.022468
      7 H                     0.189988       0.001972
      8 H                     0.192115       0.000548
      9 H                     0.196009      -0.005349
     10 C                    -0.373775       0.821679
     11 C                    -0.478279      -0.033825
     12 O                    -0.324794       0.006074
     13 H                     0.224324      -0.032953
     14 H                     0.209072      -0.034307
     15 H                     0.196722       0.047532
     16 H                     0.242524       0.006483
     17 H                     0.285710      -0.000435
  --------------------------------------------------------
  Sum of atomic charges =     0.000000
  Sum of spin   charges =     1.000000

 -----------------------------------------------------------------
                    Cartesian Multipole Moments
 -----------------------------------------------------------------
    Charge (ESU x 10^10)
                 0.0000
    Dipole Moment (Debye)
         X      -0.3225      Y      -0.3778      Z      -1.4354
       Tot       1.5189
    Quadrupole Moments (Debye-Ang)
        XX     -41.0958     XY       3.3880     YY     -36.9285
        XZ       1.6934     YZ      -1.0314     ZZ     -42.6702
    Octopole Moments (Debye-Ang^2)
       XXX     -13.0156    XXY      -5.3477    XYY      -9.4435
       YYY      -5.6346    XXZ      -8.7685    XYZ       3.7670
       YYZ       3.8073    XZZ      -0.3078    YZZ       0.9314
       ZZZ       1.9139
    Hexadecapole Moments (Debye-Ang^3)
      XXXX    -714.6719   XXXY      33.6742   XXYY    -145.1185
      XYYY      11.1999   YYYY    -231.9631   XXXZ      -7.5511
      XXYZ      -3.8940   XYYZ      -6.6440   YYYZ      -6.5078
      XXZZ    -154.8920   XYZZ       9.0523   YYZZ     -68.3751
      XZZZ      -9.2061   YZZZ      -6.8540   ZZZZ    -173.9006
 -----------------------------------------------------------------
 Calculating analytic gradient of the SCF energy
 Gradient of Coulomb and Exchange Energy
            1           2           3           4           5           6
    1  -5.1300294  -2.0962213  -1.9605137   2.9860615  -3.4930423   0.4255276
    2   5.1141626  -1.7231637  -3.1388234   0.9907623  -0.3487997   4.2848012
    3   0.9104725  -2.0576153  -0.2076208  -3.2701520   2.3360080  -0.9724044
            7           8           9          10          11          12
    1  -2.1225066   2.2997834  -2.5674994   0.6994425   1.9282824   5.7904579
    2  -1.2674557  -2.9732628  -1.6860383   0.3132755  -0.6033890  -1.3827002
    3   3.0829712  -0.0350647  -2.7912861   2.8056628   2.0548789  -8.3762567
           13          14          15          16          17
    1   0.2159953  -1.7558654   3.5759445  -0.2976561   1.5018392
    2   4.5093307  -2.0469304  -0.1175873  -4.3882680   4.4640862
    3   0.8815871   3.7932435   2.6644299  -0.5456648  -0.2731890
 Gradient of SCF Energy
            1           2           3           4           5           6
    1   0.0044252  -0.0076474   0.0007321   0.0023571  -0.0013705   0.0004278
    2  -0.0036572   0.0032847   0.0005264   0.0007486  -0.0008391   0.0014346
    3  -0.0000390  -0.0020239   0.0005473  -0.0013474   0.0009091  -0.0006915
            7           8           9          10          11          12
    1  -0.0006767   0.0021512  -0.0003507   0.0041255   0.0006781  -0.0019590
    2   0.0001998  -0.0007367  -0.0000005  -0.0004400  -0.0002916   0.0000131
    3   0.0014821   0.0011963  -0.0010123   0.0019538  -0.0030838   0.0048008
           13          14          15          16          17
    1  -0.0009762  -0.0018324   0.0007451  -0.0011749   0.0003454
    2   0.0020753  -0.0015253   0.0002332  -0.0017159   0.0006905
    3  -0.0011706   0.0003769   0.0003240  -0.0008608  -0.0013611
 Max gradient component =       7.647E-03
 RMS gradient           =       2.032E-03
 Gradient time:  CPU 62.70 s  wall 62.69 s
 Geometry Optimization Parameters
   NAtoms,    NIC,     NZ,  NCons,   NDum,   NFix, NCnnct, MaxDiis
       17     159       0       0       0       0       0       0

 Cartesian Hessian Update
 Hessian Updated using Powell/Murtagh-Sargent Update
  Mixing factors:     0.982706 Powell
                      0.017294 Murtagh-Sargent


** GEOMETRY OPTIMIZATION IN DELOCALIZED INTERNAL COORDINATES **
   Searching for a Transition State

   Optimization Cycle:   4

                       Coordinates (Angstroms)
     ATOM                X               Y               Z
      1  C         1.9854653833   -1.1658662922    0.0214876337
      2  C         1.1591571271   -0.1514236037    0.3983049463
      3  C         1.5448377499    1.2977047736    0.2149580468
      4  H         0.3997372152   -0.3510801445    1.1514776859
      5  H         2.8410166383   -0.9879403491   -0.6253626780
      6  H         1.7796766282   -2.1957183329    0.2961066871
      7  H         2.0917595652    1.4497529670   -0.7211718252
      8  H         0.6759823334    1.9614307510    0.2261715775
      9  H         2.1982486315    1.6163219096    1.0367060734
     10  C        -0.5949237678   -0.2719410694   -1.0662488379
     11  C        -1.7452838738    0.3963435137   -0.3808902270
     12  O        -2.0782501670   -0.1796463555    0.8815510118
     13  H        -0.6613410448   -1.3508327031   -1.1977618883
     14  H        -0.1442169312    0.2524145949   -1.9062715989
     15  H        -2.6353050717    0.3903673335   -1.0393770860
     16  H        -1.5258541519    1.4507907239   -0.1813466357
     17  H        -2.3215658199   -1.1003797556    0.7394553892
   Point Group: c1    Number of degrees of freedom:    45


   Energy is   -272.151310195

 GETINT wrote B to file, NVib is           45
 Hessian Updated using Powell/Murtagh-Sargent Update
  Mixing factors:     0.997584 Powell
                      0.002416 Murtagh-Sargent

 45 Hessian modes will be used to form the next step
  Hessian Eigenvalues:
     0.000031    0.005954    0.011717    0.020386    0.026310    0.027159
     0.027279    0.030073    0.031148    0.037408    0.040876    0.043306
     0.048499    0.049493    0.051874    0.056562    0.057650    0.061365
     0.066464    0.070464    0.077576    0.080691    0.081327    0.108895
     0.114002    0.116612    0.140527    0.154292    0.159998    0.160000
     0.279536    0.290131    0.307791    0.327730    0.330351    0.334997
     0.341515    0.344367    0.351520    0.352504    0.353409    0.355166
     0.374453    0.521182    0.549060
**WARNING** Magnitude of eigenvalue   1 too small.  Replaced by     0.000100
**WARNING** Hessian does not have the Desired Local Structure

 Transition State Search - Taking P-RFO Step
 Searching for Lamda that Maximizes Along the Lowest mode
 Value Taken    Lamda =   0.00017525
 Searching for Lamda that Minimizes Along All other modes
 Value Taken    Lamda =  -0.00053221
 Calculated Step too Large.  Step scaled by  0.196115
 Step Taken.  Stepsize is  0.300000

                             Maximum     Tolerance    Cnvgd?
         Gradient           0.003141      0.000300      NO
         Displacement       0.150177      0.001200      NO
         Energy change     -0.000043      0.000001      NO


 New Cartesian Coordinates Obtained by Inverse Iteration

 Displacement from previous Coordinates is:  0.215617
 ----------------------------------------------------------------
             Standard Nuclear Orientation (Angstroms)
    I     Atom           X                Y                Z
 ----------------------------------------------------------------
    1      C       1.9945675827    -1.1652129252     0.0184158434
    2      C       1.1636319187    -0.1611031644     0.4063561379
    3      C       1.5314430668     1.2933044405     0.2253865578
    4      H       0.4011726135    -0.3718130063     1.1545616541
    5      H       2.8480357078    -0.9743477815    -0.6283895496
    6      H       1.7976145218    -2.1992184389     0.2854935211
    7      H       2.0379153384     1.4613328728    -0.7309957440
    8      H       0.6563891520     1.9472319254     0.2807152488
    9      H       2.2157867617     1.6076821134     1.0235020559
   10      C      -0.5939680312    -0.2805595532    -1.0706640679
   11      C      -1.7398778647     0.4024853094    -0.3918879820
   12      O      -2.0689198193    -0.1521055450     0.8800296686
   13      H      -0.6651783241    -1.3606880572    -1.1925310252
   14      H      -0.1318308107     0.2355172675    -1.9101411320
   15      H      -2.6328421313     0.3887102758    -1.0468278656
   16      H      -1.5149447576     1.4596473440    -0.2107102478
   17      H      -2.3298544803    -1.0705651159     0.7554752014
 ----------------------------------------------------------------
 Molecular Point Group                 C1    NOp =  1
 Largest Abelian Subgroup              C1    NOp =  1
 Nuclear Repulsion Energy =   238.0670533678 hartrees
 There are       25 alpha and       24 beta electrons
 Applying Cartesian multipole field
    Component          Value
    ---------          -----
     (2,0,0)        1.00000E-11
     (0,2,0)        2.00000E-11
     (0,0,2)       -3.00000E-11
 Nucleus-field energy     =     0.0000000050 hartrees
 Requested basis set is non-standard
 There are 138 shells and 314 basis functions
 A cutoff of  1.0D-11 yielded   8917 shell pairs
 There are     45973 function pairs (     55224 Cartesian)
 Smallest overlap matrix eigenvalue = 2.21E-05
 Guess MOs from SCF MO coefficient file
Reading MOs from coefficient file
Reading MOs from coefficient file
 An unrestricted hybrid HF-DFT SCF calculation will be
 performed using Pulay DIIS extrapolation
 Exchange:     0.5679 Hartree-Fock + 1.0000 M08SO
 SCF converges when DIIS error is below 1.0E-08
Geometry optimization detected.  Setting ReadMinima to 0
Setting SaveMinima to 0
 Inaccurate integrated density:
   Number of electrons =    49
   Numerical integral  =    48.992088163528
   Relative error      =    -0.0161466050 %
 ---------------------------------------
  Cycle       Energy         DIIS Error
 ---------------------------------------
    1    -272.1459439279      2.85E-04
    2    -272.1513370306      3.73E-05
    3    -272.1513773096      1.54E-05
    4    -272.1513827798      1.02E-05
    5    -272.1513858027      3.21E-06
    6    -272.1513869080      2.04E-06
    7    -272.1513880388      1.27E-06
    8    -272.1513886723      4.26E-07
    9    -272.1513887239      2.07E-07
   10    -272.1513887300      4.98E-08
   11    -272.1513887307      3.09E-08
   12    -272.1513887307      1.31E-08
   13    -272.1513887307      5.49E-09 Convergence criterion met
 ---------------------------------------
 <S^2> = 0.7749
 SCF time:  CPU 741.49 s  wall 747.90 s
 SCF   energy in the final basis set = -272.1513887307
 Total energy in the final basis set = -272.1513887307
 Analysis of SCF Wavefunction
 
 --------------------------------------------------------------
                    Orbital Energies (a.u.)
 --------------------------------------------------------------
 
 Alpha MOs
 -- Occupied --
-19.569 -10.551 -10.509 -10.506 -10.489 -10.484  -1.140  -0.888
 -0.840  -0.773  -0.709  -0.638  -0.586  -0.547  -0.543  -0.519
 -0.487  -0.484  -0.456  -0.439  -0.423  -0.411  -0.374  -0.348
 -0.238
 -- Virtual --
 -0.027  -0.016  -0.009  -0.004   0.011   0.012   0.017   0.022
  0.030   0.040   0.051   0.054   0.062   0.074   0.085   0.097
  0.099   0.103   0.112   0.117   0.125   0.128   0.135   0.135
  0.141   0.146   0.148   0.153   0.167   0.172   0.176   0.192
  0.203   0.206   0.213   0.227   0.236   0.239   0.246   0.256
  0.275   0.284   0.298   0.300   0.320   0.328   0.337   0.355
  0.372   0.379   0.400   0.431   0.448   0.458   0.473   0.494
  0.504   0.519   0.540   0.544   0.551   0.560   0.570   0.574
  0.577   0.585   0.597   0.603   0.610   0.616   0.634   0.638
  0.644   0.655   0.670   0.673   0.681   0.701   0.705   0.722
  0.733   0.746   0.788   0.789   0.821   0.823   0.843   0.859
  0.884   0.896   0.925   0.945   0.970   0.981   0.996   1.023
  1.032   1.043   1.060   1.072   1.096   1.102   1.136   1.139
  1.141   1.180   1.195   1.212   1.215   1.225   1.246   1.257
  1.263   1.274   1.296   1.314   1.328   1.337   1.346   1.350
  1.362   1.377   1.387   1.400   1.417   1.440   1.451   1.455
  1.485   1.493   1.511   1.518   1.523   1.534   1.551   1.578
  1.587   1.605   1.621   1.634   1.681   1.709   1.748   1.873
  1.921   2.042   2.104   2.247   2.302   2.392   2.428   2.467
  2.480   2.511   2.520   2.567   2.586   2.614   2.663   2.706
  2.726   2.760   2.774   2.799   2.813   2.827   2.850   2.870
  2.883   2.905   2.910   2.935   2.950   2.970   2.993   3.022
  3.048   3.054   3.066   3.081   3.124   3.134   3.137   3.161
  3.168   3.194   3.196   3.235   3.248   3.273   3.296   3.307
  3.322   3.334   3.346   3.353   3.374   3.410   3.414   3.449
  3.476   3.505   3.515   3.524   3.530   3.577   3.612   3.630
  3.652   3.668   3.676   3.702   3.733   3.746   3.761   3.777
  3.801   3.829   3.830   3.872   3.883   3.926   3.950   3.956
  3.992   4.019   4.034   4.068   4.095   4.118   4.136   4.163
  4.167   4.183   4.196   4.206   4.214   4.240   4.254   4.281
  4.286   4.325   4.348   4.365   4.383   4.430   4.452   4.489
  4.513   4.537   4.555   4.590   4.638   4.689   4.699   4.750
  5.035   5.080   5.142   5.174   5.194   5.249   5.293   5.346
  5.400   5.440   5.465   5.485   5.519   5.552   5.561   5.621
  5.662   5.755   5.858   5.871   6.443   6.947   7.119   7.161
  7.204   7.451   7.584  23.922  24.022  24.195  24.249  24.573
 49.786
 
 Beta MOs
 -- Occupied --
-19.569 -10.551 -10.509 -10.494 -10.489 -10.478  -1.139  -0.885
 -0.833  -0.771  -0.698  -0.634  -0.579  -0.542  -0.541  -0.515
 -0.486  -0.483  -0.453  -0.438  -0.418  -0.409  -0.370  -0.314
 -- Virtual --
 -0.042  -0.030  -0.017  -0.014  -0.005   0.009   0.011   0.014
  0.018   0.029   0.038   0.048   0.051   0.061   0.071   0.082
[...]
 H          0.181 -0.036  0.219   -0.058  0.040 -0.056   -0.048  0.030 -0.050
 H         -0.115 -0.034 -0.208    0.051 -0.019  0.015    0.042 -0.008  0.036
 H          0.155  0.041  0.119    0.147 -0.011  0.112    0.088  0.001  0.069
 H          0.189  0.362  0.108    0.168  0.325  0.096    0.090  0.176  0.066
 H         -0.055 -0.415  0.080    0.000 -0.368  0.044   -0.011 -0.235  0.030
 C         -0.028  0.012 -0.032    0.043  0.042  0.061    0.100 -0.120 -0.007
 C          0.022 -0.002  0.014   -0.017 -0.038 -0.060   -0.080  0.135  0.015
 O         -0.007 -0.001  0.001    0.012  0.006 -0.013   -0.009 -0.045  0.059
 H          0.076 -0.022  0.057   -0.317  0.072  0.044    0.324 -0.029 -0.365
 H          0.038  0.003  0.008   -0.029 -0.088 -0.112   -0.265  0.143 -0.029
 H         -0.008 -0.096  0.003    0.073  0.217 -0.052   -0.170  0.038  0.108
 H         -0.021  0.058 -0.063    0.054 -0.216  0.196    0.032  0.190 -0.149
 H          0.011  0.034 -0.079   -0.075 -0.162  0.375    0.092  0.178 -0.447
 TransDip   0.099  0.028  0.051   -0.081 -0.026  0.034    0.048  0.138 -0.128

 Mode:                22                     23                     24
 Frequency:      1124.08                1170.51                1215.77
 Force Cnst:      2.7104                 1.4433                 1.0797
 Red. Mass:       3.6407                 1.7880                 1.2398
 IR Active:          YES                    YES                    YES
 IR Intens:       81.897                  0.283                 15.811
 Raman Active:       YES                    YES                    YES
               X      Y      Z        X      Y      Z        X      Y      Z
 C         -0.009 -0.005 -0.003    0.038  0.083 -0.029    0.006 -0.003 -0.004
 C          0.018  0.009  0.005   -0.117 -0.126  0.091    0.007  0.006  0.013
 C         -0.016  0.005  0.000    0.115  0.041 -0.094   -0.003 -0.005 -0.005
 H         -0.030  0.030 -0.043   -0.147 -0.437 -0.018   -0.071  0.020 -0.065
 H         -0.007  0.029  0.008    0.079 -0.292 -0.057   -0.002 -0.016 -0.019
 H          0.027 -0.013  0.000   -0.270  0.198  0.177    0.009  0.000  0.011
 H          0.017 -0.068  0.017    0.132  0.601  0.008    0.005  0.012  0.005
 H          0.016  0.033 -0.011   -0.084 -0.119  0.176    0.003  0.006  0.015
 H          0.030 -0.071  0.000   -0.189  0.046  0.079   -0.013 -0.011  0.002
 C          0.106 -0.076 -0.100    0.009 -0.002 -0.003    0.024  0.070  0.035
 C         -0.160 -0.119  0.291   -0.004 -0.004  0.009   -0.002 -0.109 -0.005
 O          0.063  0.172 -0.176    0.002  0.008 -0.007   -0.015  0.035 -0.006
 H          0.161 -0.067 -0.198    0.018 -0.005  0.001   -0.253  0.064  0.098
 H          0.166 -0.137 -0.128   -0.018  0.003 -0.016    0.087 -0.139 -0.118
 H         -0.177 -0.181  0.260   -0.005 -0.007  0.009   -0.366 -0.156  0.494
 H         -0.482 -0.116  0.491   -0.029 -0.010  0.034    0.366 -0.026 -0.363
 H          0.010  0.058  0.107    0.005 -0.003  0.012    0.084  0.186 -0.373
 TransDip  -0.150 -0.131  0.210   -0.012 -0.012 -0.002    0.117  0.004 -0.050

 Mode:                25                     26                     27
 Frequency:      1276.27                1334.15                1381.18
 Force Cnst:      1.3191                 1.3225                 1.3787
 Red. Mass:       1.3745                 1.2611                 1.2267
 IR Active:          YES                    YES                    YES
 IR Intens:        2.400                 14.938                  4.234
 Raman Active:       YES                    YES                    YES
               X      Y      Z        X      Y      Z        X      Y      Z
 C          0.105 -0.035 -0.079   -0.004 -0.001  0.003    0.006  0.004 -0.005
 C         -0.077  0.028  0.084    0.005  0.005 -0.002    0.017 -0.052 -0.020
 C         -0.011 -0.017  0.004    0.000  0.000 -0.001   -0.045 -0.088  0.020
 H         -0.313  0.767  0.048    0.008 -0.049 -0.013    0.004  0.197  0.028
 H          0.178 -0.464 -0.111   -0.008  0.019  0.003   -0.036  0.224  0.015
 H          0.076 -0.029 -0.014    0.005 -0.005 -0.003   -0.210  0.098  0.138
 H         -0.007 -0.026  0.013   -0.001 -0.007 -0.003    0.029  0.409  0.134
 H         -0.003  0.008  0.037   -0.003 -0.005  0.004    0.309  0.329 -0.057
 H         -0.024  0.028  0.003   -0.007 -0.005  0.004    0.135  0.372 -0.212
 C         -0.019 -0.001 -0.015    0.005 -0.036  0.010    0.010  0.009  0.001
 C          0.012  0.004  0.006    0.089  0.083 -0.014   -0.037  0.015  0.059
 O         -0.001 -0.003 -0.005   -0.028 -0.021 -0.061    0.000 -0.013 -0.022
 H          0.015 -0.016  0.031    0.043 -0.025 -0.005    0.025  0.021 -0.052
 H          0.009  0.029  0.035   -0.117  0.118  0.075    0.033 -0.075 -0.070
 H          0.014 -0.015 -0.005   -0.401 -0.242  0.523    0.088 -0.037 -0.138
 H         -0.030  0.029 -0.003   -0.091  0.216 -0.108    0.245  0.105 -0.263
 H         -0.018 -0.022  0.046   -0.128 -0.282  0.533   -0.044 -0.091  0.167
 TransDip  -0.047  0.009 -0.012    0.042 -0.063  0.098   -0.059  0.011  0.028

 Mode:                28                     29                     30
 Frequency:      1393.40                1422.30                1436.72
 Force Cnst:      1.4134                 1.5721                 1.4882
 Red. Mass:       1.2356                 1.3190                 1.2237
 IR Active:          YES                    YES                    YES
 IR Intens:       32.603                  6.151                  9.154
 Raman Active:       YES                    YES                    YES
               X      Y      Z        X      Y      Z        X      Y      Z
 C          0.007  0.001 -0.004   -0.033  0.003  0.022    0.001 -0.002 -0.002
 C          0.006 -0.035 -0.016   -0.005  0.123  0.019    0.003 -0.011 -0.004
 C         -0.028 -0.042  0.012   -0.020 -0.099 -0.027    0.005  0.014 -0.005
 H          0.012  0.138  0.035    0.039 -0.363 -0.073    0.008  0.015  0.009
 H         -0.020  0.144  0.009    0.042 -0.423 -0.016   -0.007  0.065  0.008
 H         -0.141  0.062  0.088    0.457 -0.198 -0.289   -0.055  0.022  0.037
 H          0.061  0.196  0.110    0.117  0.183  0.135    0.013 -0.089 -0.009
 H          0.142  0.156 -0.028    0.145  0.165  0.248   -0.035 -0.016  0.065
 H          0.124  0.205 -0.142   -0.059  0.334 -0.127   -0.038  0.004  0.022
 C          0.001 -0.022 -0.003    0.003 -0.006 -0.014    0.081 -0.035 -0.085
 C          0.057 -0.015 -0.101   -0.004  0.001  0.001   -0.052  0.001  0.038
 O          0.000  0.025  0.033    0.001  0.002  0.001    0.003 -0.004 -0.005
 H         -0.081 -0.048  0.114   -0.046 -0.024  0.052   -0.429 -0.185  0.516
 H         -0.095  0.173  0.133   -0.007  0.059  0.045   -0.118  0.537  0.340
 H         -0.190 -0.007  0.245    0.006 -0.012 -0.019    0.045  0.066 -0.071
 H         -0.391 -0.219  0.502   -0.004 -0.019  0.031    0.118  0.058 -0.154
 H          0.073  0.151 -0.272    0.006  0.007 -0.012    0.007 -0.015  0.015
 TransDip   0.138  0.074 -0.094    0.071  0.036  0.006   -0.025  0.001  0.094

 Mode:                31                     32                     33
 Frequency:      1460.55                1474.05                1479.79
 Force Cnst:      1.3233                 1.3520                 1.3912
 Red. Mass:       1.0528                 1.0561                 1.0783
 IR Active:          YES                    YES                    YES
 IR Intens:        2.162                 12.211                  3.853
 Raman Active:       YES                    YES                    YES
               X      Y      Z        X      Y      Z        X      Y      Z
 C          0.004 -0.001 -0.003    0.021 -0.032 -0.012   -0.005  0.005  0.004
 C         -0.010 -0.011 -0.009    0.005  0.003 -0.008    0.004  0.003  0.003
 C         -0.035  0.028 -0.031    0.030 -0.010 -0.037    0.007 -0.015  0.016
 H          0.009  0.020  0.020   -0.004  0.035 -0.011    0.000 -0.023 -0.012
 H          0.000  0.055  0.008   -0.020  0.208 -0.002    0.000 -0.042 -0.002
 H         -0.058  0.025  0.037   -0.155  0.042  0.113    0.039 -0.014 -0.027
 H          0.496 -0.194  0.395   -0.054 -0.355 -0.134   -0.176  0.140 -0.124
 H         -0.288 -0.223  0.308    0.084  0.205  0.559    0.127  0.091 -0.183
 H          0.336  0.128 -0.250   -0.493  0.341  0.154   -0.061 -0.060  0.061
 C         -0.005  0.004  0.003   -0.009  0.003  0.006    0.005 -0.001  0.000
 C          0.009 -0.025  0.008    0.008 -0.009 -0.003    0.025 -0.071  0.007
 O          0.000 -0.005  0.000    0.000  0.000  0.001    0.001 -0.006  0.005
 H          0.023  0.014 -0.037    0.042  0.016 -0.049   -0.024  0.003 -0.003
 H          0.018 -0.046 -0.028    0.016 -0.057 -0.034    0.010 -0.010 -0.001
 H          0.050  0.226  0.061    0.009  0.065  0.027    0.104  0.614  0.194
 H         -0.141  0.141 -0.158   -0.078  0.029 -0.008   -0.468  0.330 -0.316
 H         -0.003 -0.011  0.014    0.001  0.004 -0.007    0.009  0.000 -0.014
 TransDip   0.012 -0.017  0.042   -0.072  0.057  0.063   -0.043  0.045  0.009

 Mode:                34                     35                     36
 Frequency:      1568.81                2923.06                2982.37
 Force Cnst:      3.7984                 5.3942                 5.4294
 Red. Mass:       2.6194                 1.0715                 1.0361
 IR Active:          YES                    YES                    YES
 IR Intens:        9.109                 55.979                 24.130
 Raman Active:       YES                    YES                    YES
               X      Y      Z        X      Y      Z        X      Y      Z
 C          0.127 -0.203 -0.078    0.000  0.000  0.000    0.000  0.000  0.000
 C         -0.071  0.251  0.106    0.001  0.000  0.000    0.001  0.001  0.000
 C         -0.003 -0.050 -0.012    0.000  0.000  0.000   -0.022 -0.046 -0.004
 H         -0.106 -0.433 -0.089   -0.002 -0.002  0.004   -0.004 -0.004  0.002
 H          0.024  0.541 -0.042    0.000  0.000  0.000   -0.006 -0.003  0.004
 H         -0.365 -0.021  0.275    0.000  0.001  0.000    0.003  0.007 -0.003
 H          0.015  0.224  0.038    0.001  0.000 -0.001    0.359  0.047 -0.425
 H         -0.044 -0.135 -0.160    0.001  0.000  0.000   -0.402  0.324 -0.077
 H          0.088 -0.173 -0.027    0.001  0.001  0.002    0.298  0.158  0.546
 C         -0.032  0.004 -0.023   -0.002  0.000  0.001    0.000  0.000  0.001
 C          0.005 -0.003  0.004   -0.059  0.029 -0.038   -0.001 -0.002 -0.001
 O          0.000  0.001  0.000    0.001  0.001 -0.001    0.000  0.000  0.000
 H          0.018 -0.018  0.032   -0.001 -0.009 -0.001   -0.001 -0.007 -0.003
 H          0.040  0.011  0.034    0.004  0.015 -0.008    0.002  0.003 -0.004
 H          0.030 -0.002 -0.031    0.777 -0.261  0.546    0.001 -0.001  0.001
 H         -0.011  0.002  0.006   -0.065 -0.112 -0.081    0.011  0.028  0.017
 H          0.004 -0.002  0.002    0.003  0.003 -0.001    0.000  0.000 -0.001
 TransDip  -0.008  0.088  0.038   -0.165  0.138 -0.106   -0.054 -0.147 -0.015

 Mode:                37                     38                     39
 Frequency:      3005.13                3042.40                3056.48
 Force Cnst:      5.7886                 5.9971                 6.0602
 Red. Mass:       1.0879                 1.0997                 1.1010
 IR Active:          YES                    YES                    YES
 IR Intens:       19.117                 13.468                 17.982
 Raman Active:       YES                    YES                    YES
               X      Y      Z        X      Y      Z        X      Y      Z
 C          0.000  0.000  0.000    0.001  0.000  0.000    0.001  0.001  0.000
 C          0.000  0.000  0.000   -0.005 -0.001  0.003   -0.015 -0.004  0.014
 C          0.002  0.001  0.002   -0.042  0.016 -0.079    0.073 -0.029 -0.043
 H         -0.003 -0.003  0.005    0.049  0.012 -0.045    0.178  0.043 -0.167
 H          0.000  0.000 -0.001   -0.007  0.000  0.003   -0.005  0.002  0.003
 H          0.000 -0.002  0.000    0.000  0.004  0.000   -0.005 -0.014  0.003
 H         -0.010  0.000  0.011   -0.249 -0.032  0.263   -0.455 -0.074  0.541
 H          0.001  0.002  0.001    0.412 -0.349  0.060   -0.486  0.409 -0.103
 H         -0.020 -0.011 -0.037    0.346  0.202  0.631    0.065  0.017  0.076
 C          0.000  0.004  0.001    0.000  0.000  0.000    0.001  0.001  0.000
 C         -0.033 -0.063 -0.047   -0.001 -0.002 -0.001    0.000  0.001  0.000
 O          0.000  0.001  0.001    0.000  0.000  0.000    0.000  0.000  0.000
 H         -0.009 -0.049 -0.018    0.000  0.007  0.003    0.001 -0.001  0.000
 H          0.005 -0.001 -0.001    0.001 -0.001  0.004   -0.004 -0.005  0.005
 H          0.102 -0.051  0.061    0.002 -0.001  0.001    0.002  0.000  0.002
 H          0.298  0.799  0.493    0.009  0.023  0.014   -0.002 -0.004 -0.003
 H         -0.003 -0.008 -0.013    0.000  0.000  0.000    0.000  0.000  0.000
 TransDip  -0.033 -0.126 -0.050   -0.060  0.031 -0.096    0.110 -0.054 -0.058

 Mode:                40                     41                     42
 Frequency:      3081.09                3085.77                3087.09
 Force Cnst:      5.8955                 5.9932                 6.0553
 Red. Mass:       1.0541                 1.0683                 1.0784
 IR Active:          YES                    YES                    YES
 IR Intens:        5.422                  6.536                  2.985
 Raman Active:       YES                    YES                    YES
               X      Y      Z        X      Y      Z        X      Y      Z
 C         -0.004  0.003  0.003   -0.026  0.030  0.018   -0.037  0.025  0.025
 C         -0.002  0.000  0.001   -0.041 -0.013  0.038    0.043  0.006 -0.041
 C         -0.001  0.000  0.002   -0.011  0.005  0.011    0.010 -0.005 -0.012
 H          0.023  0.005 -0.018    0.488  0.129 -0.454   -0.477 -0.123  0.448
 H          0.059  0.013 -0.042    0.425  0.091 -0.301    0.495  0.106 -0.354
 H         -0.015 -0.052  0.011   -0.122 -0.437  0.095   -0.096 -0.347  0.076
 H          0.011  0.002 -0.014    0.098  0.020 -0.114   -0.093 -0.015  0.108
 H         -0.001  0.001  0.000    0.066 -0.057  0.015   -0.061  0.056 -0.014
 H         -0.001  0.000 -0.002   -0.023 -0.011 -0.034    0.031  0.018  0.048
 C          0.024 -0.026 -0.054   -0.001  0.003  0.005    0.000  0.001  0.003
 C         -0.006 -0.001 -0.001    0.000  0.000  0.000    0.000  0.000  0.000
 O          0.000  0.000  0.000    0.000  0.000  0.000    0.000  0.000  0.000
 H          0.049  0.707  0.212   -0.005 -0.066 -0.020   -0.004 -0.028 -0.010
 H         -0.301 -0.420  0.412    0.024  0.035 -0.035    0.013  0.019 -0.019
 H          0.017 -0.006  0.010    0.001 -0.001  0.001   -0.003  0.002 -0.002
 H          0.014  0.030  0.018    0.001 -0.001  0.000   -0.002 -0.004 -0.003
 H          0.003  0.004 -0.001    0.000  0.000  0.000    0.000 -0.001  0.000
 TransDip   0.010 -0.030 -0.068   -0.044  0.035  0.059   -0.041  0.037 -0.001

 Mode:                43                     44                     45
 Frequency:      3176.40                3179.97                3897.23
 Force Cnst:      6.6329                 6.6469                 9.5430
 Red. Mass:       1.1158                 1.1156                 1.0664
 IR Active:          YES                    YES                    YES
 IR Intens:        9.738                 11.453                 45.248
 Raman Active:       YES                    YES                    YES
               X      Y      Z        X      Y      Z        X      Y      Z
 C          0.005  0.006 -0.003   -0.054 -0.072  0.040    0.000  0.000  0.000
 C          0.000  0.000  0.000   -0.007 -0.001  0.006    0.000  0.000  0.000
 C          0.001  0.000  0.000    0.000  0.001  0.001    0.000  0.000  0.000
 H         -0.002  0.000  0.000    0.067  0.016 -0.064   -0.001  0.000  0.000
 H         -0.040 -0.007  0.028    0.460  0.084 -0.328    0.000  0.000  0.000
 H         -0.018 -0.068  0.013    0.194  0.766 -0.153    0.000  0.000  0.000
 H         -0.002  0.000  0.003    0.005  0.004 -0.005    0.000  0.000  0.000
 H         -0.004  0.005  0.000    0.002 -0.002 -0.001    0.000  0.000  0.000
 H         -0.001  0.001 -0.002   -0.003 -0.001 -0.005    0.000  0.000  0.000
 C         -0.032 -0.090  0.023   -0.003 -0.008  0.002    0.000  0.001  0.000
 C         -0.001 -0.004 -0.001    0.000  0.000  0.000    0.000 -0.001 -0.002
 O          0.000  0.000  0.000    0.000  0.000  0.000   -0.020 -0.053 -0.026
 H          0.041  0.622  0.205    0.005  0.053  0.018   -0.002 -0.003  0.000
 H          0.335  0.458 -0.479    0.029  0.041 -0.042    0.001  0.000 -0.002
 H         -0.002  0.000 -0.001    0.000  0.000  0.000    0.001  0.002 -0.002
 H          0.008  0.028  0.019    0.001  0.004  0.003    0.004  0.009  0.007
 H          0.004  0.002 -0.003    0.001  0.000  0.000    0.320  0.841  0.431
 TransDip  -0.043 -0.088  0.022   -0.055 -0.082  0.044    0.116  0.180  0.025

 STANDARD THERMODYNAMIC QUANTITIES AT   298.15 K  AND     1.00 ATM

   This Molecule has  1 Imaginary Frequencies
   Zero point vibrational energy:       91.444 kcal/mol

   Atom    1 Element C  Has Mass   12.00000
   Atom    2 Element C  Has Mass   12.00000
   Atom    3 Element C  Has Mass   12.00000
   Atom    4 Element H  Has Mass    1.00783
   Atom    5 Element H  Has Mass    1.00783
   Atom    6 Element H  Has Mass    1.00783
   Atom    7 Element H  Has Mass    1.00783
   Atom    8 Element H  Has Mass    1.00783
   Atom    9 Element H  Has Mass    1.00783
   Atom   10 Element C  Has Mass   12.00000
   Atom   11 Element C  Has Mass   12.00000
   Atom   12 Element O  Has Mass   15.99491
   Atom   13 Element H  Has Mass    1.00783
   Atom   14 Element H  Has Mass    1.00783
   Atom   15 Element H  Has Mass    1.00783
   Atom   16 Element H  Has Mass    1.00783
   Atom   17 Element H  Has Mass    1.00783
   Molecular Mass:    87.081040 amu
   Principal axes and moments of inertia in amu*Bohr^2:
                             1           2           3
    Eigenvalues --      355.80292   958.76703  1053.53859
          X               0.99993     0.00489     0.01091
          Y              -0.00529     0.99932     0.03643
          Z              -0.01072    -0.03648     0.99928
   Rotational Symmetry Number is   1
   The Molecule is an Asymmetric Top
   Translational Enthalpy:        0.889 kcal/mol
   Rotational Enthalpy:           0.889 kcal/mol
   Vibrational Enthalpy:         94.975 kcal/mol
   gas constant (RT):             0.592 kcal/mol
   Translational Entropy:        39.306  cal/mol.K
   Rotational Entropy:           27.377  cal/mol.K
   Vibrational Entropy:          21.412  cal/mol.K

   Total Enthalpy:               97.345 kcal/mol
   Total Entropy:                88.094  cal/mol.K
Archival summary:
1\1\node35\FREQ\ProcedureUnspecified\BasisUnspecified\1511(2)\edames\TueJun315:33:282014TueJun315:33:282014\0\\#,FREQ,ProcedureUnspecified,BasisUnspecified,\\0,2\O\H,1,0.963042\C,1,1.42008,2,109.268\H,3,1.10054,1,105.817,2,-179.844,0\H,3,1.10779,1,110.104,2,-65.3538,0\C,3,1.49685,1,112.689,2,59.0498,0\H,6,1.09028,3,118.042,1,172.409,0\H,6,1.09088,3,117.047,1,-43.1107,0\H,4,2.20007,3,116.892,1,-116.753,0\C,9,1.09737,4,123.328,3,50.2182,0\H,10,1.09747,9,108.34,4,-133.195,0\H,10,1.09844,9,107.263,4,110.509,0\C,10,1.51207,9,112.357,4,-10.7058,0\H,13,1.09264,10,116.641,9,53.6569,0\C,13,1.36165,10,121.383,9,-148.336,0\H,15,1.08774,13,121.462,10,-170.037,0\H,15,1.08989,13,121.045,10,13.6832,0\\\@

 Total job time:  55202.41s(wall), 54630.73s(cpu) 
 Tue Jun  3 15:33:28 2014

        *************************************************************
        *                                                           *
        *  Thank you very much for using Q-Chem.  Have a nice day.  *
        *                                                           *
        *************************************************************


0 sent ACK to 0 
now end server 0 ... 
cleanup process ... done
