
Running Job 1 of 2 iC5H11O-3_betasc_OH.in
qchem iC5H11O-3_betasc_OH.in_21516.0 /scratch/edames/qchem21516/ 8
/opt/qchem/bin/mpi/mpirun_qchem -machinefile /tmp/317485.1.normal1/hostfile -np 8 /opt/qchem/exe/qcprog.exe iC5H11O-3_betasc_OH.in_21516.0 /scratch/edames/qchem21516/

Process 5 of 8 is on node09.cluster - thread support 0
Process 6 of 8 is on node09.cluster - thread support 0
Process 0 of 8 is on node09.cluster - thread support 0
Process 1 of 8 is on node09.cluster - thread support 0
Process 2 of 8 is on node09.cluster - thread support 0
Process 4 of 8 is on node09.cluster - thread support 0
Process 3 of 8 is on node09.cluster - thread support 0
Process 7 of 8 is on node09.cluster - thread support 0
initial socket setup ...start
initial socket setup ...done 
now start server 0 ... 
set process cleaner
set process cleaner
set process cleaner
set process cleaner
set process cleaner
set process cleaner
set process cleaner
                  Welcome to Q-Chem
     A Quantum Leap Into The Future Of Chemistry


 Q-Chem 4.2, Q-Chem, Inc., Pleasanton, CA (2014).

 Y. Shao,  Z. Gan,  E. Epifanovsky,  A. T. B. Gilbert,  M. Wormit,  
 J. Kussmann,  A. W. Lange,  A. Behn,  J. Deng,  X. Feng,  D. Ghosh,  
 M. Goldey,  P. R. Horn,  L. D. Jacobson,  I. Kaliman,  R. Z. Khaliullin,  
 T. Kus,  A. Landau,  J. Liu,  E. I. Proynov,  Y. M. Rhee,  R. M. Richard,  
 M. A. Rohrdanz,  R. P. Steele,  E. J. Sundstrom,  H. L. Woodcock III,  
 P. M. Zimmerman,  D. Zuev,  B. Albrecht,  E. Alguire,  B. Austin,  
 G. J. O. Beran,  Y. A. Bernard,  E. Berquist,  K. Brandhorst,  
 K. B. Bravaya,  S. T. Brown,  D. Casanova,  C.-M. Chang,  Y. Chen,  
 S. H. Chien,  K. D. Closser,  D. L. Crittenden,  M. Diedenhofen,  
 R. A. DiStasio Jr.,  H. Do,  A. D. Dutoi,  R. G. Edgar,  S. Fatehi,  
 L. Fusti-Molnar,  A. Ghysels,  A. Golubeva-Zadorozhnaya,  J. Gomes,  
 M. W. D. Hanson-Heine,  P. H. P. Harbach,  A. W. Hauser,  E. G. Hohenstein,  
 Z. C. Holden,  T.-C. Jagau,  H. Ji,  B. Kaduk,  K. Khistyaev,  Jaehoon Kim,  
 Jihan Kim,  R. A. King,  P. Klunzinger,  D. Kosenkov,  T. Kowalczyk,  
 C. M. Krauter,  K. U. Lao,  A. Laurent,  K. V. Lawler,  S. V. Levchenko,  
 C. Y. Lin,  F. Liu,  E. Livshits,  R. C. Lochan,  A. Luenser,  P. Manohar,  
 S. F. Manzer,  S.-P. Mao,  N. Mardirossian,  A. V. Marenich,  S. A. Maurer,  
 N. J. Mayhall,  C. M. Oana,  R. Olivares-Amaya,  D. P. O'Neill,  
 J. A. Parkhill,  T. M. Perrine,  R. Peverati,  P. A. Pieniazek,  A. Prociuk,  
 D. R. Rehn,  E. Rosta,  N. J. Russ,  N. Sergueev,  S. M. Sharada,  
 S. Sharma,  D. W. Small,  A. Sodt,  T. Stein,  D. Stuck,  Y.-C. Su,  
 A. J. W. Thom,  T. Tsuchimochi,  L. Vogt,  O. Vydrov,  T. Wang,  
 M. A. Watson,  J. Wenzel,  A. White,  C. F. Williams,  V. Vanovschi,  
 S. Yeganeh,  S. R. Yost,  Z.-Q. You,  I. Y. Zhang,  X. Zhang,  Y. Zhao,  
 B. R. Brooks,  G. K. L. Chan,  D. M. Chipman,  C. J. Cramer,  
 W. A. Goddard III,  M. S. Gordon,  W. J. Hehre,  A. Klamt,  
 H. F. Schaefer III,  M. W. Schmidt,  C. D. Sherrill,  D. G. Truhlar,  
 A. Warshel,  X. Xu,  A. Aspuru-Guzik,  R. Baer,  A. T. Bell,  N. A. Besley,  
 J.-D. Chai,  A. Dreuw,  B. D. Dunietz,  T. R. Furlani,  S. R. Gwaltney,  
 C.-P. Hsu,  Y. Jung,  J. Kong,  D. S. Lambrecht,  W. Liang,  C. Ochsenfeld,  
 V. A. Rassolov,  L. V. Slipchenko,  J. E. Subotnik,  T. Van Voorhis,  
 J. M. Herbert,  A. I. Krylov,  P. M. W. Gill,  M. Head-Gordon

 Contributors to earlier versions of Q-Chem not listed above: 
 R. D. Adamson,  J. Baker,  E. F. C. Byrd,  A. K. Chakraborty,  C.-L. Cheng,  
 H. Dachsel,  R. J. Doerksen,  G. Hawkins,  A. Heyden,  S. Hirata,  
 G. Kedziora,  F. J. Keil,  C. Kelley,  P. P. Korambath,  W. Kurlancheek,  
 A. M. Lee,  M. S. Lee,  D. Liotard,  I. Lotan,  P. E. Maslen,  N. Nair,  
 D. Neuhauser,  R. Olson,  B. Peters,  J. Ritchie,  N. E. Schultz,  
 N. Shenvi,  A. C. Simmonett,  K. S. Thanthiriwatte,  Q. Wu,  W. Zhang

 Q-Chem 4.2.0 for Intel X86 Linux

 Parts of Q-Chem use Armadillo 4.100.2 (Dirt Cruiser).
 http://arma.sourceforge.net/

 Q-Chem begins on Fri Jun 20 05:03:33 2014  

Host: 
0

     Scratch files written to /scratch/edames/qchem21516.0//
 May2514 8580_ilyak 4150   
 Parallel job on  8  processors
Processing $rem in /opt/qchem/config/preferences.
 MEM_TOTAL  2000 
Warning: disabling incdft.
 Q-Chem warning in module /home/scratch/svnadmin/8580_ilyak/qchem/forms1/BasisType.C, line 1209:

 Setting pure/cartesian flag to 2111 for general basis


Finally everything over in PARseQInput

--------------------------------------------------------------
User input:
--------------------------------------------------------------
$rem
XC_GRID 000075000434
JOBTYPE ts
EXCHANGE M08SO
BASIS gen
GEOM_OPT_MAX_CYCLES 150
GEOM_OPT_TOL_DISPLACEMENT 3000
GEOM_OPT_TOL_ENERGY 10
SCF_ALGORITHM DIIS_GDM
!   incdft false
!   varthresh false
GUI=2
UNRESTRICTED TRUE
CORRELATION NONE
$end

$comment
c5h11o-2
$end

$molecule
0 2
C          0.83937        0.03625       -0.30553
H          0.59486       -0.02274       -1.37267
C          2.21371       -0.62536       -0.06617
H          2.21118       -1.67236       -0.38432
H          2.99489       -0.09695       -0.62270
H          2.47725       -0.59262        0.99772
C          0.86460        1.52462        0.10578
H          1.63244        2.06653       -0.45632
H         -0.11002        1.97874       -0.08973
H          1.09572        1.62418        1.17369
C         -0.23439       -0.69498        0.45991
H         -0.11364       -0.71965        1.54545
C         -1.32166       -1.26693       -0.09407
H         -2.05368       -1.79712        0.50545
H         -1.44989       -1.30124       -1.17055
O         -2.39191        0.72219       -0.18559
H         -2.31367        0.91417        0.75920
$end

$basis
H  0
S  3 1.00
3.386500000000E+01 2.549380000000E-02
5.094790000000E+00 1.903730000000E-01
1.158790000000E+00 8.521610000000E-01
S  1 1.00
3.258400000000E-01 1.000000000000E+00
S  1 1.00
1.027410000000E-01 1.000000000000E+00
S  1 1.00
3.600000000000E-02 1.000000000000E+00
P  1 1.00
1.500000000000E+00 1.000000000000E+00
P  1 1.00
3.750000000000E-01 1.000000000000E+00
****
C 0
S  6 1.00
4.563240000000E+03 1.966650000000E-03
6.820240000000E+02 1.523060000000E-02
1.549730000000E+02 7.612690000000E-02
4.445530000000E+01 2.608010000000E-01
1.302900000000E+01 6.164620000000E-01
1.827730000000E+00 2.210060000000E-01
S  3 1.00
2.096420000000E+01 1.146600000000E-01
4.803310000000E+00 9.199990000000E-01
1.459330000000E+00 -3.030680000000E-03
S  1 1.00
4.834560000000E-01 1.000000000000E+00
S  1 1.00
1.455850000000E-01 1.000000000000E+00
S  1 1.00
4.380000000000E-02 1.000000000000E+00
P  3 1.00
2.096420000000E+01 4.024870000000E-02
4.803310000000E+00 2.375940000000E-01
1.459330000000E+00 8.158540000000E-01
P  1 1.00
4.834560000000E-01 1.000000000000E+00
P  1 1.00
1.455850000000E-01 1.000000000000E+00
P  1 1.00
4.380000000000E-02 1.000000000000E+00
D  1 1.00
1.252000000000E+00 1.000000000000E+00
D  1 1.00
3.130000000000E-01 1.000000000000E+00
F  1 1.00
8.000000000000E-01 1.000000000000E+00
****
O  0
S  6 1.00
8.588500000000E+03 1.895150000000E-03
1.297230000000E+03 1.438590000000E-02
2.992960000000E+02 7.073200000000E-02
8.737710000000E+01 2.400010000000E-01
2.567890000000E+01 5.947970000000E-01
3.740040000000E+00 2.808020000000E-01
S  3 1.00
4.211750000000E+01 1.138890000000E-01
9.628370000000E+00 9.208110000000E-01
2.853320000000E+00 -3.274470000000E-03
S  1 1.00
9.056610000000E-01 1.000000000000E+00
S  1 1.00
2.556110000000E-01 1.000000000000E+00
S  1 1.00
8.450000000000E-02 1.000000000000E+00
P  3 1.00
4.211750000000E+01 3.651140000000E-02
9.628370000000E+00 2.371530000000E-01
2.853320000000E+00 8.197020000000E-01
P  1 1.00
9.056610000000E-01 1.000000000000E+00
P  1 1.00
2.556110000000E-01 1.000000000000E+00
P  1 1.00
8.450000000000E-02 1.000000000000E+00
D  1 1.00
2.584000000000E+00 1.000000000000E+00
D  1 1.00
6.460000000000E-01 1.000000000000E+00
F  1 1.00
1.400000000000E+00 1.000000000000E+00
****
$end

--------------------------------------------------------------
 ----------------------------------------------------------------
             Standard Nuclear Orientation (Angstroms)
    I     Atom           X                Y                Z
 ----------------------------------------------------------------
    1      C      -0.8393713345    -0.0362499277    -0.3055299692
    2      H      -0.5948619278     0.0227396253    -1.3726701299
    3      C      -2.2137119615     0.6253586863    -0.0661697385
    4      H      -2.2111832979     1.6723584738    -0.3843204484
    5      H      -2.9948916411     0.0969474297    -0.6226989951
    6      H      -2.4772513994     0.5926191096     0.9977204138
    7      C      -0.8645994550    -1.5246196777     0.1057810507
    8      H      -1.6324391222    -2.0665309231    -0.4563182034
    9      H       0.1100209599    -1.9787387123    -0.0897291231
   10      H      -1.0957188156    -1.6241792152     1.1736912322
   11      C       0.2343882198     0.6949817998     0.4599090057
   12      H       0.1136387280     0.7196523986     1.5454490486
   13      C       1.3216573021     1.2669326495    -0.0940719183
   14      H       2.0536770009     1.7971238798     0.5054473614
   15      H       1.4498867319     1.3012420652    -1.1705520048
   16      O       2.3919094973    -0.7221862070    -0.1855911003
   17      H       2.3136701800    -0.9141656556     0.7591990683
 ----------------------------------------------------------------
 Molecular Point Group                 C1    NOp =  1
 Largest Abelian Subgroup              C1    NOp =  1
 Nuclear Repulsion Energy =   238.8939876591 hartrees
 There are       25 alpha and       24 beta electrons
 Requested basis set is non-standard
 There are 138 shells and 314 basis functions

Total QAlloc Memory Limit   2000 MB
Mega-Array Size        61 MB
MEM_STATIC part        62 MB
 A cutoff of  1.0D-12 yielded   9059 shell pairs
 There are     46799 function pairs (     56300 Cartesian)
 Smallest overlap matrix eigenvalue = 1.55E-05

  Scale SEOQF with 1.000000e-01/1.000000e-01/1.000000e-01

 Standard Electronic Orientation quadrupole field applied
 Nucleus-field energy     =     0.0000000072 hartrees
 Guess MOs from core Hamiltonian diagonalization
 An unrestricted hybrid HF-DFT SCF calculation will be
 performed using Pulay DIIS + Geometric Direct Minimization
 Exchange:     0.5679 Hartree-Fock + 1.0000 M08SO
 SCF converges when RMS gradient is below 1.0E-08
 ---------------------------------------
  Cycle       Energy         DIIS Error
 ---------------------------------------
    1    -196.1243032732      9.00E-02
    2    -165.9367829499      5.03E-02
    3    -193.3267567036      5.64E-02
    4    -241.7053214500      3.95E-02
    5    -261.7260574805      2.12E-02
    6    -259.6137727097      2.25E-02
    7    -271.3435616649      6.42E-03 Done DIIS. Switching to GDM
    8    -271.9697605295      6.59E-01 Descent step
    9    -272.0896081393      2.32E-01 Descent step
   10    -272.1069191254      2.80E-01 Normal BFGS step
   11    -272.1573030978      1.62E-02 Normal BFGS step
   12    -272.1612716882      1.56E-02 Normal BFGS step
   13    -272.1619978380      1.14E-02 Normal BFGS step
   14    -272.1623549075      8.09E-03 Normal BFGS step
   15    -272.1625322945      6.02E-03 Normal BFGS step
   16    -272.1626924123      3.62E-03 Normal BFGS step
   17    -272.1627808817      1.16E-03 Normal BFGS step
   18    -272.1628072102      4.58E-04 Normal BFGS step
   19    -272.1628116055      4.97E-04 Normal BFGS step
   20    -272.1628124811      1.52E-04 Normal BFGS step
   21    -272.1628126679      4.42E-05 Normal BFGS step
   22    -272.1628127169      1.67E-05 Normal BFGS step
   23    -272.1628127244      6.29E-06 Normal BFGS step
   24    -272.1628127253      4.31E-06 Normal BFGS step
   25    -272.1628127255      1.90E-06 Normal BFGS step
   26    -272.1628127255      1.10E-06 Normal BFGS step
   27    -272.1628127255      4.11E-07 Normal BFGS step
   28    -272.1628127255      9.56E-08 Normal BFGS step
   GDM::WARNING energy changes are now smaller than effective accuracy.
   GDM::        calculation will continue, but THRESH should be increased
   GDM::        or SCF_CONVERGENCE decreased.
   GDM::        effective_thresh =   1.120946828414571E-009
   29    -272.1628127255      1.75E-08 Normal BFGS step
   GDM::WARNING energy changes are now smaller than effective accuracy.
   GDM::        calculation will continue, but THRESH should be increased
   GDM::        or SCF_CONVERGENCE decreased.
   GDM::        effective_thresh =   1.120946828414571E-009
   30    -272.1628127254      1.16E-08 Normal BFGS step
   31    -272.1628127255      4.08E-09 Convergence criterion met
 ---------------------------------------
 <S^2> = 0.7615
 SCF time:  CPU 3647.19 s  wall 3656.29 s
 SCF   energy in the final basis set = -272.1628127255
 Total energy in the final basis set = -272.1628127255
 Analysis of SCF Wavefunction
 
 --------------------------------------------------------------
                    Orbital Energies (a.u.)
 --------------------------------------------------------------
 
 Alpha MOs
 -- Occupied --
-19.585 -10.524 -10.516 -10.512 -10.492 -10.486  -1.085  -0.927
 -0.848  -0.781  -0.702  -0.648  -0.552  -0.545  -0.520  -0.503
 -0.495  -0.464  -0.461  -0.459  -0.416  -0.408  -0.403  -0.393
 -0.316
 -- Virtual --
 -0.028  -0.015  -0.010  -0.006   0.010   0.013   0.016   0.020
  0.024   0.040   0.046   0.050   0.065   0.069   0.081   0.089
  0.094   0.099   0.116   0.119   0.123   0.128   0.133   0.135
  0.143   0.146   0.148   0.153   0.160   0.169   0.175   0.198
  0.205   0.209   0.215   0.224   0.234   0.245   0.256   0.258
  0.265   0.276   0.281   0.295   0.299   0.311   0.326   0.359
  0.376   0.399   0.413   0.428   0.437   0.469   0.471   0.493
  0.500   0.525   0.536   0.539   0.545   0.558   0.566   0.569
  0.571   0.582   0.583   0.596   0.603   0.621   0.623   0.636
  0.658   0.677   0.688   0.698   0.701   0.703   0.712   0.720
  0.753   0.768   0.788   0.807   0.821   0.837   0.857   0.872
  0.894   0.918   0.929   0.947   0.971   0.982   1.006   1.039
  1.064   1.070   1.077   1.095   1.101   1.116   1.125   1.142
  1.148   1.177   1.184   1.207   1.217   1.233   1.246   1.252
  1.267   1.275   1.292   1.319   1.323   1.349   1.358   1.367
  1.388   1.405   1.414   1.420   1.443   1.449   1.468   1.488
  1.502   1.511   1.517   1.539   1.569   1.584   1.589   1.600
  1.617   1.629   1.636   1.679   1.692   1.704   1.783   1.798
  1.861   1.903   1.919   1.957   2.270   2.385   2.445   2.485
  2.503   2.547   2.583   2.618   2.633   2.645   2.678   2.691
  2.710   2.719   2.779   2.796   2.817   2.837   2.857   2.882
  2.897   2.902   2.929   2.942   2.946   2.966   2.987   2.998
  3.023   3.058   3.086   3.114   3.134   3.147   3.154   3.163
  3.221   3.235   3.252   3.272   3.276   3.310   3.328   3.345
  3.365   3.385   3.391   3.402   3.413   3.430   3.448   3.491
  3.520   3.550   3.564   3.579   3.606   3.626   3.643   3.648
  3.694   3.699   3.734   3.768   3.781   3.805   3.820   3.835
  3.864   3.891   3.901   3.932   3.947   3.969   3.993   4.013
  4.017   4.046   4.128   4.139   4.147   4.154   4.162   4.174
  4.181   4.196   4.205   4.232   4.252   4.289   4.328   4.357
  4.374   4.382   4.414   4.428   4.448   4.494   4.537   4.554
  4.564   4.629   4.633   4.646   4.700   4.724   4.819   4.951
  4.997   5.002   5.015   5.033   5.065   5.176   5.184   5.243
  5.279   5.344   5.360   5.453   5.509   5.523   5.541   5.600
  5.611   5.635   5.655   5.671   5.883   6.811   6.898   6.907
  6.923   7.059   7.414  23.946  24.110  24.166  24.250  24.581
 49.676
 
 Beta MOs
 -- Occupied --
-19.562 -10.520 -10.515 -10.512 -10.492 -10.486  -1.032  -0.925
 -0.845  -0.780  -0.702  -0.646  -0.550  -0.542  -0.505  -0.498
 -0.487  -0.461  -0.459  -0.415  -0.406  -0.403  -0.367  -0.340
 -- Virtual --
 -0.088  -0.028  -0.015  -0.011  -0.005   0.011   0.013   0.016
  0.021   0.024   0.044   0.049   0.049   0.064   0.068   0.081
  0.088   0.097   0.100   0.116   0.119   0.123   0.128   0.133
  0.135   0.142   0.145   0.150   0.152   0.160   0.169   0.175
  0.199   0.206   0.210   0.216   0.225   0.235   0.246   0.258
  0.261   0.265   0.277   0.283   0.296   0.300   0.312   0.326
  0.360   0.378   0.404   0.416   0.429   0.438   0.469   0.472
  0.494   0.502   0.526   0.541   0.543   0.548   0.560   0.567
  0.571   0.576   0.585   0.586   0.597   0.604   0.623   0.627
  0.637   0.660   0.679   0.690   0.699   0.704   0.710   0.717
  0.722   0.757   0.771   0.795   0.809   0.823   0.840   0.861
  0.875   0.898   0.920   0.931   0.950   0.973   0.986   1.009
  1.041   1.066   1.070   1.079   1.097   1.106   1.123   1.127
  1.146   1.150   1.179   1.200   1.214   1.234   1.239   1.250
  1.257   1.274   1.283   1.295   1.321   1.326   1.349   1.360
  1.370   1.391   1.411   1.420   1.424   1.448   1.452   1.470
  1.491   1.510   1.515   1.525   1.544   1.571   1.587   1.593
  1.607   1.624   1.632   1.641   1.683   1.705   1.715   1.797
  1.829   1.877   1.924   1.954   1.985   2.277   2.387   2.451
  2.492   2.510   2.552   2.594   2.628   2.640   2.659   2.699
  2.709   2.729   2.732   2.802   2.806   2.822   2.840   2.880
  2.898   2.909   2.923   2.934   2.943   2.959   2.972   2.997
  3.002   3.033   3.065   3.091   3.119   3.141   3.158   3.163
  3.171   3.223   3.243   3.257   3.283   3.293   3.318   3.338
  3.347   3.376   3.392   3.397   3.405   3.427   3.434   3.449
  3.498   3.526   3.566   3.575   3.585   3.613   3.631   3.655
  3.661   3.707   3.719   3.742   3.774   3.790   3.820   3.830
  3.856   3.885   3.902   3.906   3.938   3.953   3.977   3.998
  4.017   4.019   4.053   4.131   4.138   4.148   4.156   4.165
  4.179   4.183   4.196   4.207   4.237   4.256   4.302   4.336
  4.360   4.377   4.387   4.421   4.438   4.459   4.498   4.541
  4.561   4.588   4.635   4.639   4.662   4.725   4.745   4.822
  5.001   5.062   5.066   5.093   5.130   5.151   5.167   5.256
  5.285   5.323   5.357   5.373   5.477   5.505   5.542   5.591
  5.612   5.613   5.636   5.657   5.677   5.916   6.879   6.908
  6.996   7.037   7.179   7.427  23.948  24.110  24.166  24.251
 24.593  49.677
 --------------------------------------------------------------
 
          Ground-State Mulliken Net Atomic Charges

     Atom                 Charge (a.u.)    Spin (a.u.)
  --------------------------------------------------------
      1 C                    -0.088869      -0.016408
      2 H                     0.274951      -0.000548
      3 C                    -0.668443      -0.001663
      4 H                     0.183835       0.000489
      5 H                     0.193239       0.002495
      6 H                     0.208127       0.000206
      7 C                    -0.745931       0.002096
      8 H                     0.194906       0.001177
      9 H                     0.206003       0.000755
     10 H                     0.214400      -0.000176
     11 C                     0.271018       0.286551
     12 H                     0.336459      -0.020597
     13 C                    -1.008138      -0.035738
     14 H                     0.244493       0.001585
     15 H                     0.275121       0.005530
     16 O                    -0.358283       0.794226
     17 H                     0.267111      -0.019981
  --------------------------------------------------------
  Sum of atomic charges =     0.000000
  Sum of spin   charges =     1.000000

 -----------------------------------------------------------------
                    Cartesian Multipole Moments
 -----------------------------------------------------------------
    Charge (ESU x 10^10)
                 0.0000
    Dipole Moment (Debye)
         X      -1.5061      Y       0.7082      Z       1.3177
       Tot       2.1228
    Quadrupole Moments (Debye-Ang)
        XX     -44.1056     XY       2.3580     YY     -40.4490
        XZ       3.6891     YZ      -1.4020     ZZ     -37.7268
    Octopole Moments (Debye-Ang^2)
       XXX      -4.7348    XXY       2.6923    XYY       6.1778
       YYY      -4.0130    XXZ       7.3276    XYZ      -3.8949
       YYZ       0.3214    XZZ       5.3190    YZZ      -0.4302
       ZZZ       0.9223
    Hexadecapole Moments (Debye-Ang^3)
      XXXX    -711.9646   XXXY       6.2058   XXYY    -153.1030
      XYYY      -4.9782   YYYY    -318.6574   XXXZ      25.6388
      XXYZ      -5.7648   XYYZ       6.2919   YYYZ      -0.8757
      XXZZ    -119.3514   XYZZ      -0.9468   YYZZ     -66.8143
      XZZZ      -0.7326   YZZZ      -1.6738   ZZZZ     -91.7295
 -----------------------------------------------------------------
 Calculating analytic gradient of the SCF energy
 Gradient of Coulomb and Exchange Energy
            1           2           3           4           5           6
    1   2.0941772  -0.6266659   4.2191101   0.8111460   3.1808542   1.6770114
    2   1.4286769  -0.2296860  -1.0017317  -3.8773973   1.4135870  -0.3202573
    3   1.6892615   4.8811651   0.0924405   0.9888771   1.7853381  -3.4620439
            7           8           9          10          11          12
    1   2.0510126   2.7279254  -3.0567272   0.7740074   2.6569018   0.2672011
    2   3.7983516   2.4743822   2.5531110   1.2435237  -2.8065511  -0.2014521
    3   0.0386152   1.7373679   0.4038386  -3.5944162  -4.3423960  -4.6307223
           13          14          15          16          17
    1  -4.9783769  -3.3956767  -0.8811709  -7.4441058  -0.0766239
    2  -5.6100300  -2.1524733  -0.4895495   2.6548979   1.1225980
    3   1.5933565  -2.4338430   4.5722122   4.6452765  -3.9643278
 Gradient of SCF Energy
            1           2           3           4           5           6
    1   0.0015659  -0.0008294  -0.0042932  -0.0000497   0.0009527   0.0000574
    2   0.0001883  -0.0003179   0.0019551  -0.0014576   0.0010103   0.0002657
    3  -0.0034147   0.0020856   0.0008496   0.0003351   0.0007241  -0.0017193
            7           8           9          10          11          12
    1  -0.0001266   0.0012650  -0.0013290   0.0001931   0.0012787   0.0003199
    2  -0.0055883   0.0004955   0.0014889  -0.0000578   0.0038233  -0.0002710
    3   0.0008841   0.0008609   0.0002191  -0.0016390   0.0027917  -0.0019642
           13          14          15          16          17
    1   0.0012235  -0.0011018  -0.0000228   0.0007074   0.0001888
    2  -0.0007282  -0.0003830   0.0003666  -0.0018834   0.0010934
    3  -0.0005857  -0.0010276   0.0020518   0.0050199  -0.0054711
 Max gradient component =       5.588E-03
 RMS gradient           =       1.925E-03
 Gradient time:  CPU 125.22 s  wall 125.18 s
 Geometry Optimization Parameters
   NAtoms,    NIC,     NZ,  NCons,   NDum,   NFix, NCnnct, MaxDiis
       17     120       0       0       0       0       0       0


** GEOMETRY OPTIMIZATION IN DELOCALIZED INTERNAL COORDINATES **
   Searching for a Transition State

   Optimization Cycle:   1

                       Coordinates (Angstroms)
     ATOM                X               Y               Z
      1  C        -0.8393713345   -0.0362499277   -0.3055299692
      2  H        -0.5948619278    0.0227396253   -1.3726701299
      3  C        -2.2137119615    0.6253586863   -0.0661697385
      4  H        -2.2111832979    1.6723584738   -0.3843204484
      5  H        -2.9948916411    0.0969474297   -0.6226989951
      6  H        -2.4772513994    0.5926191096    0.9977204138
      7  C        -0.8645994550   -1.5246196777    0.1057810507
      8  H        -1.6324391222   -2.0665309231   -0.4563182034
      9  H         0.1100209599   -1.9787387123   -0.0897291231
     10  H        -1.0957188156   -1.6241792152    1.1736912322
     11  C         0.2343882198    0.6949817998    0.4599090057
     12  H         0.1136387280    0.7196523986    1.5454490486
     13  C         1.3216573021    1.2669326495   -0.0940719183
     14  H         2.0536770009    1.7971238798    0.5054473614
     15  H         1.4498867319    1.3012420652   -1.1705520048
     16  O         2.3919094973   -0.7221862070   -0.1855911003
     17  H         2.3136701800   -0.9141656556    0.7591990683
   Point Group: c1    Number of degrees of freedom:    45


   Energy is   -272.162812726


 Attempting to Generate Delocalized Internal Coordinates
 GETINT wrote B to file, NVib is           45
 calling HSSCONV
 HCONV 3*NATOMS:           51
 wrote HINT to file
  writing hessian 

 45 Hessian modes will be used to form the next step
  Hessian Eigenvalues:
     0.002011    0.003310    0.003363    0.008143    0.019073    0.029331
     0.036425    0.040860    0.047181    0.047402    0.054926    0.055974
     0.056133    0.056487    0.058585    0.062882    0.075514    0.093958
     0.116355    0.159922    0.159961    0.160000    0.160000    0.160000
     0.160000    0.160000    0.160000    0.166093    0.178735    0.220016
     0.281359    0.281705    0.315694    0.329030    0.339981    0.340683
     0.340854    0.342321    0.342329    0.343234    0.344847    0.345238
     0.354430    0.539392    0.555231
**WARNING** Hessian does not have the Desired Local Structure

 Transition State Search - Taking P-RFO Step
 Searching for Lamda that Maximizes Along the Lowest mode
 Value Taken    Lamda =   0.00203119
 Searching for Lamda that Minimizes Along All other modes
 Value Taken    Lamda =  -0.00045334
 Calculated Step too Large.  Step scaled by  0.030208
 Step Taken.  Stepsize is  0.300000

                             Maximum     Tolerance    Cnvgd?
         Gradient           0.004409      0.000300      NO
         Displacement       0.252116      0.003000      NO
         Energy change     *********      0.000000      NO


 New Cartesian Coordinates Obtained by Inverse Iteration

 Displacement from previous Coordinates is:  0.244151
 ----------------------------------------------------------------
             Standard Nuclear Orientation (Angstroms)
    I     Atom           X                Y                Z
 ----------------------------------------------------------------
    1      C      -0.8321104063    -0.0352959447    -0.3037743885
    2      H      -0.5873974116     0.0224568112    -1.3710429251
    3      C      -2.2086837026     0.6217430484    -0.0660346426
    4      H      -2.2099177160     1.6681829742    -0.3862667873
    5      H      -2.9878772033     0.0892819228    -0.6216283568
    6      H      -2.4722022504     0.5901095592     0.9979757954
    7      C      -0.8523678551    -1.5226456570     0.1107190652
    8      H      -1.6188150243    -2.0681465715    -0.4499496371
    9      H       0.1236064961    -1.9743444086    -0.0841196120
   10      H      -1.0828471768    -1.6205432485     1.1789998157
   11      C       0.2385419710     0.7012218980     0.4606255188
   12      H       0.1173328657     0.7274754660     1.5461699735
   13      C       1.3235446014     1.2766702926    -0.0941655025
   14      H       2.0534268262     1.8108072241     0.5045790737
   15      H       1.4519300013     1.3093162558    -1.1711311394
   16      O       2.4013653913    -0.7079756217    -0.1818259954
   17      H       2.2072902583    -0.9650282015     0.7304152944
 ----------------------------------------------------------------
 Molecular Point Group                 C1    NOp =  1
 Largest Abelian Subgroup              C1    NOp =  1
 Nuclear Repulsion Energy =   239.0415396486 hartrees
 There are       25 alpha and       24 beta electrons
 Applying Cartesian multipole field
    Component          Value
    ---------          -----
     (2,0,0)        1.00000E-11
     (0,2,0)        2.00000E-11
     (0,0,2)       -3.00000E-11
 Nucleus-field energy     =     0.0000000072 hartrees
 Requested basis set is non-standard
 There are 138 shells and 314 basis functions
 A cutoff of  1.0D-12 yielded   9063 shell pairs
 There are     46809 function pairs (     56310 Cartesian)
 Smallest overlap matrix eigenvalue = 1.54E-05
 Guess MOs from SCF MO coefficient file
Reading MOs from coefficient file
Reading MOs from coefficient file
 An unrestricted hybrid HF-DFT SCF calculation will be
 performed using Pulay DIIS + Geometric Direct Minimization
 Exchange:     0.5679 Hartree-Fock + 1.0000 M08SO
 SCF converges when RMS gradient is below 1.0E-08
Geometry optimization detected.  Setting ReadMinima to 0
Setting SaveMinima to 0
 Inaccurate integrated density:
   Number of electrons =    49
   Numerical integral  =    48.985653489815
   Relative error      =    -0.0292785922 %
 ---------------------------------------
  Cycle       Energy        RMS Gradient
 ---------------------------------------
    1    -272.1560609877      4.63E-04 Done DIIS. Switching to GDM
    2    -272.1624664990      8.44E-03 Normal BFGS step
    3    -272.1625578215      9.11E-03 Normal BFGS step
    4    -272.1627003786      7.58E-04 Normal BFGS step
    5    -272.1627039719      4.00E-04 Normal BFGS step
    6    -272.1627058636      2.15E-04 Normal BFGS step
    7    -272.1627061032      1.66E-04 Normal BFGS step
    8    -272.1627062211      1.38E-04 Normal BFGS step
    9    -272.1627062735      1.04E-04 Normal BFGS step
   10    -272.1627062988      7.22E-05 Normal BFGS step
   11    -272.1627063250      3.92E-05 Normal BFGS step
   12    -272.1627063349      1.50E-05 Normal BFGS step
   13    -272.1627063374      5.64E-06 Normal BFGS step
   14    -272.1627063377      2.26E-06 Normal BFGS step
   15    -272.1627063378      1.24E-06 Normal BFGS step
   16    -272.1627063378      8.38E-07 Normal BFGS step
   GDM::WARNING energy changes are now smaller than effective accuracy.
   GDM::        calculation will continue, but THRESH should be increased
   GDM::        or SCF_CONVERGENCE decreased.
   GDM::        effective_thresh =   1.406573762324781E-008
   17    -272.1627063378      1.18E-07 Normal BFGS step
   GDM::WARNING energy changes are now smaller than effective accuracy.
   GDM::        calculation will continue, but THRESH should be increased
   GDM::        or SCF_CONVERGENCE decreased.
   GDM::        effective_thresh =   1.406573762324781E-008
   18    -272.1627063378      2.13E-08 Normal BFGS step
   GDM::WARNING energy changes are now smaller than effective accuracy.
   GDM::        calculation will continue, but THRESH should be increased
   GDM::        or SCF_CONVERGENCE decreased.
   GDM::        effective_thresh =   1.406573762324781E-008
   19    -272.1627063377      1.47E-08 Normal BFGS step
   GDM::WARNING energy changes are now smaller than effective accuracy.
   GDM::        calculation will continue, but THRESH should be increased
   GDM::        or SCF_CONVERGENCE decreased.
   GDM::        effective_thresh =   1.406573762324781E-008
   20    -272.1627063376      3.50E-09 Convergence criterion met
 ---------------------------------------
 <S^2> = 0.7615
 SCF time:  CPU 2353.72 s  wall 2362.86 s
 SCF   energy in the final basis set = -272.1627063376
 Total energy in the final basis set = -272.1627063376
 Analysis of SCF Wavefunction
 
 --------------------------------------------------------------
                    Orbital Energies (a.u.)
 --------------------------------------------------------------
 
 Alpha MOs
 -- Occupied --
-19.585 -10.524 -10.516 -10.513 -10.493 -10.488  -1.086  -0.927
 -0.848  -0.782  -0.703  -0.648  -0.552  -0.545  -0.521  -0.504
 -0.496  -0.465  -0.462  -0.460  -0.417  -0.408  -0.404  -0.394
 -0.316
 -- Virtual --
 -0.028  -0.015  -0.010  -0.006   0.011   0.013   0.016   0.020
  0.023   0.039   0.046   0.051   0.065   0.068   0.081   0.088
  0.094   0.098   0.116   0.119   0.123   0.127   0.134   0.135
  0.142   0.145   0.148   0.153   0.160   0.168   0.174   0.198
  0.203   0.209   0.213   0.223   0.234   0.246   0.256   0.258
  0.267   0.276   0.280   0.294   0.299   0.311   0.326   0.359
  0.376   0.400   0.412   0.426   0.436   0.468   0.471   0.492
  0.497   0.521   0.529   0.539   0.543   0.559   0.566   0.566
  0.571   0.581   0.584   0.596   0.602   0.622   0.623   0.636
  0.655   0.678   0.687   0.698   0.702   0.707   0.711   0.722
  0.753   0.767   0.788   0.801   0.829   0.836   0.859   0.871
  0.896   0.918   0.930   0.946   0.981   0.985   1.004   1.040
  1.065   1.067   1.074   1.095   1.101   1.116   1.124   1.143
  1.148   1.176   1.186   1.209   1.219   1.241   1.243   1.251
  1.266   1.274   1.290   1.320   1.322   1.348   1.356   1.365
  1.389   1.403   1.413   1.420   1.444   1.452   1.467   1.488
  1.502   1.514   1.517   1.541   1.569   1.579   1.585   1.602
  1.616   1.629   1.635   1.681   1.689   1.703   1.779   1.793
  1.869   1.902   1.918   1.958   2.272   2.383   2.444   2.485
  2.500   2.549   2.582   2.618   2.631   2.647   2.684   2.689
  2.712   2.719   2.779   2.797   2.816   2.836   2.857   2.881
  2.898   2.904   2.928   2.940   2.947   2.965   2.987   2.996
  3.024   3.058   3.084   3.114   3.135   3.146   3.152   3.163
  3.222   3.234   3.251   3.271   3.278   3.310   3.327   3.345
  3.360   3.386   3.391   3.401   3.414   3.430   3.447   3.490
  3.518   3.549   3.564   3.579   3.606   3.625   3.644   3.651
  3.692   3.699   3.739   3.767   3.780   3.806   3.820   3.836
  3.866   3.890   3.901   3.930   3.946   3.970   3.992   4.015
  4.018   4.046   4.127   4.137   4.147   4.156   4.164   4.175
  4.180   4.197   4.205   4.232   4.252   4.288   4.329   4.356
  4.374   4.382   4.414   4.428   4.447   4.493   4.536   4.553
  4.564   4.629   4.632   4.646   4.699   4.723   4.818   4.949
  4.997   5.006   5.016   5.032   5.064   5.172   5.183   5.242
  5.283   5.343   5.359   5.452   5.509   5.523   5.539   5.599
  5.610   5.635   5.654   5.670   5.882   6.808   6.900   6.909
  6.919   7.060   7.414  23.944  24.108  24.165  24.250  24.580
 49.674
 
 Beta MOs
 -- Occupied --
-19.562 -10.520 -10.516 -10.513 -10.492 -10.488  -1.032  -0.925
 -0.846  -0.781  -0.703  -0.646  -0.551  -0.542  -0.506  -0.498
 -0.488  -0.462  -0.460  -0.416  -0.407  -0.404  -0.367  -0.340
 -- Virtual --
 -0.088  -0.028  -0.015  -0.011  -0.005   0.012   0.013   0.016
  0.021   0.024   0.044   0.048   0.050   0.064   0.068   0.080
  0.088   0.097   0.099   0.116   0.119   0.124   0.127   0.134
  0.135   0.142   0.144   0.150   0.152   0.159   0.169   0.175
  0.198   0.204   0.210   0.214   0.224   0.235   0.247   0.257
  0.261   0.267   0.277   0.283   0.296   0.300   0.312   0.326
  0.359   0.377   0.404   0.416   0.427   0.437   0.468   0.472
  0.493   0.500   0.523   0.536   0.542   0.545   0.560   0.566
  0.571   0.573   0.583   0.587   0.597   0.604   0.622   0.629
  0.636   0.658   0.680   0.689   0.700   0.707   0.710   0.716
  0.724   0.756   0.770   0.794   0.803   0.831   0.839   0.862
  0.874   0.900   0.920   0.931   0.949   0.983   0.988   1.007
  1.042   1.066   1.068   1.077   1.097   1.106   1.124   1.126
  1.146   1.150   1.178   1.204   1.216   1.236   1.245   1.248
  1.258   1.272   1.281   1.293   1.322   1.326   1.348   1.358
  1.369   1.391   1.409   1.418   1.423   1.449   1.454   1.469
  1.492   1.510   1.517   1.526   1.545   1.570   1.586   1.587
  1.608   1.623   1.631   1.640   1.686   1.704   1.712   1.794
  1.822   1.885   1.920   1.954   1.988   2.279   2.385   2.450
  2.491   2.507   2.554   2.593   2.627   2.639   2.660   2.696
  2.714   2.730   2.735   2.800   2.808   2.822   2.838   2.880
  2.896   2.908   2.925   2.933   2.942   2.960   2.970   2.997
  3.000   3.034   3.065   3.089   3.119   3.144   3.157   3.160
  3.171   3.223   3.242   3.256   3.283   3.293   3.318   3.337
  3.346   3.370   3.394   3.397   3.404   3.427   3.433   3.447
  3.497   3.525   3.564   3.574   3.585   3.613   3.630   3.654
  3.664   3.706   3.716   3.749   3.773   3.790   3.819   3.829
  3.858   3.886   3.902   3.907   3.935   3.952   3.978   3.996
  4.018   4.024   4.054   4.129   4.137   4.149   4.157   4.165
  4.179   4.182   4.198   4.207   4.236   4.256   4.301   4.337
  4.360   4.377   4.387   4.421   4.437   4.458   4.498   4.539
  4.561   4.588   4.635   4.638   4.662   4.723   4.745   4.821
  4.999   5.065   5.072   5.091   5.126   5.149   5.165   5.254
  5.292   5.320   5.356   5.372   5.475   5.506   5.540   5.591
  5.611   5.612   5.636   5.656   5.676   5.915   6.877   6.906
  6.998   7.037   7.182   7.427  23.946  24.109  24.164  24.251
 24.593  49.676
 --------------------------------------------------------------
 
          Ground-State Mulliken Net Atomic Charges

     Atom                 Charge (a.u.)    Spin (a.u.)
  --------------------------------------------------------
      1 C                    -0.093651      -0.018225
      2 H                     0.279219      -0.000515
      3 C                    -0.667788      -0.000898
      4 H                     0.183932       0.000426
      5 H                     0.193087       0.002484
      6 H                     0.208304       0.000196
      7 C                    -0.741975       0.002934
      8 H                     0.194375       0.001139
      9 H                     0.197893       0.000440
     10 H                     0.218617      -0.000246
     11 C                     0.255322       0.288225
     12 H                     0.340970      -0.020760
     13 C                    -0.997587      -0.039696
     14 H                     0.243439       0.001793
     15 H                     0.275131       0.005759
     16 O                    -0.357222       0.797240
     17 H                     0.267932      -0.020296
  --------------------------------------------------------
  Sum of atomic charges =     0.000000
  Sum of spin   charges =     1.000000

 -----------------------------------------------------------------
                    Cartesian Multipole Moments
 -----------------------------------------------------------------
    Charge (ESU x 10^10)
                 0.0000
    Dipole Moment (Debye)
         X      -1.6879      Y       0.6281      Z       1.2515
       Tot       2.1931
    Quadrupole Moments (Debye-Ang)
        XX     -44.8608     XY       2.3653     YY     -40.1501
        XZ       3.3401     YZ      -1.4431     ZZ     -37.8465
    Octopole Moments (Debye-Ang^2)
       XXX      -8.1613    XXY       2.9386    XYY       6.3608
       YYY      -4.6923    XXZ       5.9549    XYZ      -3.8338
       YYZ       0.3974    XZZ       4.7163    YZZ      -0.4720
       ZZZ       0.6633
    Hexadecapole Moments (Debye-Ang^3)
      XXXX    -717.6936   XXXY       7.5633   XXYY    -152.0091
      XYYY      -5.8285   YYYY    -318.3865   XXXZ      21.4756
      XXYZ      -5.1437   XYYZ       6.5648   YYYZ      -0.7837
      XXZZ    -120.0413   XYZZ      -0.8171   YYZZ     -66.8039
      XZZZ      -0.8944   YZZZ      -1.4384   ZZZZ     -91.7908
 -----------------------------------------------------------------
 Calculating analytic gradient of the SCF energy
 Gradient of Coulomb and Exchange Energy
            1           2           3           4           5           6
    1   2.1597133  -0.6404428   4.2098501   0.8276179   3.1759267   1.6873043
    2   1.4861859  -0.2199410  -0.9868703  -3.8745716   1.4301361  -0.3234736
    3   1.6096727   4.8894320   0.0749043   0.9971814   1.7812351  -3.4609366
            7           8           9          10          11          12
    1   1.9403486   2.7475213  -3.0274848   0.7591483   2.7800128   0.2670434
    2   3.8020565   2.4718022   2.5385182   1.2404608  -3.0063315  -0.1951246
    3   0.1111646   1.7372297   0.3551003  -3.5967275  -4.1846536  -4.6382436
           13          14          15          16          17
    1  -5.0622496  -3.3664014  -0.8908282  -7.9721258   0.4050458
    2  -5.3862667  -2.2245494  -0.5109328   2.3640489   1.3948530
    3   1.5014589  -2.4244100   4.5720242   4.5188705  -3.8433025
 Gradient of SCF Energy
            1           2           3           4           5           6
    1   0.0015915  -0.0008199  -0.0041520  -0.0000689   0.0009517   0.0000569
    2   0.0000934  -0.0002799   0.0019728  -0.0013830   0.0009745   0.0002419
    3  -0.0032470   0.0020101   0.0008295   0.0003215   0.0007010  -0.0016723
            7           8           9          10          11          12
    1   0.0000692   0.0010818  -0.0011579   0.0002231   0.0012485   0.0003044
    2  -0.0056746   0.0006081   0.0017179  -0.0000522   0.0033734  -0.0003238
    3   0.0007601   0.0008144   0.0004615  -0.0016111   0.0028834  -0.0019485
           13          14          15          16          17
    1   0.0012493  -0.0010760   0.0000599   0.0001227   0.0003156
    2  -0.0007652  -0.0001548   0.0004026  -0.0022755   0.0015243
    3  -0.0005579  -0.0010013   0.0018194   0.0048913  -0.0054541
 Max gradient component =       5.675E-03
 RMS gradient           =       1.898E-03
 Gradient time:  CPU 126.03 s  wall 126.05 s
 Geometry Optimization Parameters
   NAtoms,    NIC,     NZ,  NCons,   NDum,   NFix, NCnnct, MaxDiis
       17     120       0       0       0       0       0       0

 Cartesian Hessian Update
 Hessian Updated using Powell/Murtagh-Sargent Update
  Mixing factors:     0.000021 Powell
                      0.999979 Murtagh-Sargent


** GEOMETRY OPTIMIZATION IN DELOCALIZED INTERNAL COORDINATES **
   Searching for a Transition State

   Optimization Cycle:   2

                       Coordinates (Angstroms)
     ATOM                X               Y               Z
      1  C        -0.8321104063   -0.0352959447   -0.3037743885
      2  H        -0.5873974116    0.0224568112   -1.3710429251
      3  C        -2.2086837026    0.6217430484   -0.0660346426
      4  H        -2.2099177160    1.6681829742   -0.3862667873
      5  H        -2.9878772033    0.0892819228   -0.6216283568
      6  H        -2.4722022504    0.5901095592    0.9979757954
      7  C        -0.8523678551   -1.5226456570    0.1107190652
      8  H        -1.6188150243   -2.0681465715   -0.4499496371
      9  H         0.1236064961   -1.9743444086   -0.0841196120
     10  H        -1.0828471768   -1.6205432485    1.1789998157
     11  C         0.2385419710    0.7012218980    0.4606255188
     12  H         0.1173328657    0.7274754660    1.5461699735
     13  C         1.3235446014    1.2766702926   -0.0941655025
     14  H         2.0534268262    1.8108072241    0.5045790737
     15  H         1.4519300013    1.3093162558   -1.1711311394
     16  O         2.4013653913   -0.7079756217   -0.1818259954
     17  H         2.2072902583   -0.9650282015    0.7304152944
   Point Group: c1    Number of degrees of freedom:    45


   Energy is   -272.162706338

 GETINT wrote B to file, NVib is           45
 Hessian Updated using Powell/Murtagh-Sargent Update
  Mixing factors:     0.980648 Powell
                      0.019352 Murtagh-Sargent

 41 Hessian modes will be used to form the next step
  Hessian Eigenvalues:
     0.000951    0.003363    0.003378    0.008144    0.019086    0.029335
     0.036428    0.040861    0.047180    0.047402    0.054926    0.055974
     0.056133    0.056481    0.058583    0.062857    0.075481    0.093914
     0.116263    0.159895    0.159924    0.159985    0.160000    0.166046
     0.178709    0.220015    0.281356    0.281704    0.315658    0.329023
     0.339981    0.340683    0.340854    0.342320    0.342329    0.343234
     0.344847    0.345237    0.354428    0.539379    0.555231
**WARNING** Hessian does not have the Desired Local Structure

 Transition State Search - Taking P-RFO Step
 Searching for Lamda that Maximizes Along the Lowest mode
 Value Taken    Lamda =   0.00111713
 Searching for Lamda that Minimizes Along All other modes
 Value Taken    Lamda =  -0.00049387
 Calculated Step too Large.  Step scaled by  0.115584
 Step Taken.  Stepsize is  0.300000

                             Maximum     Tolerance    Cnvgd?
         Gradient           0.004306      0.000300      NO
         Displacement       0.240518      0.003000      NO
         Energy change      0.000106      0.000000      NO


 New Cartesian Coordinates Obtained by Inverse Iteration

 Displacement from previous Coordinates is:  0.209452
 ----------------------------------------------------------------
             Standard Nuclear Orientation (Angstroms)
    I     Atom           X                Y                Z
 ----------------------------------------------------------------
    1      C      -0.8254357274    -0.0378197124    -0.3020723346
    2      H      -0.5781711129     0.0173702433    -1.3692699970
    3      C      -2.2020443938     0.6189830675    -0.0693214925
    4      H      -2.2026221353     1.6647940113    -0.3923118832
    5      H      -2.9802097506     0.0846678907    -0.6251599741
    6      H      -2.4675334917     0.5900852444     0.9945834204
    7      C      -0.8498621468    -1.5236418794     0.1157303432
    8      H      -1.6309419726    -2.0639427124    -0.4299498063
    9      H       0.1172355563    -1.9869664297    -0.0973517369
   10      H      -1.0622876598    -1.6177591720     1.1884263956
   11      C       0.2418391318     0.7024193359     0.4636219256
   12      H       0.1167985363     0.7329634559     1.5490405776
   13      C       1.3227333197     1.2862741057    -0.0904201682
   14      H       2.0467210318     1.8301922849     0.5068319681
   15      H       1.4499301905     1.3153541500    -1.1684673375
   16      O       2.4313553430    -0.6823673810    -0.1688905798
   17      H       2.1373149462    -1.0073207039     0.6945262294
 ----------------------------------------------------------------
 Molecular Point Group                 C1    NOp =  1
 Largest Abelian Subgroup              C1    NOp =  1
 Nuclear Repulsion Energy =   238.9179452890 hartrees
 There are       25 alpha and       24 beta electrons
 Applying Cartesian multipole field
    Component          Value
    ---------          -----
     (2,0,0)        1.00000E-11
     (0,2,0)        2.00000E-11
     (0,0,2)       -3.00000E-11
 Nucleus-field energy     =     0.0000000072 hartrees
 Requested basis set is non-standard
 There are 138 shells and 314 basis functions
 A cutoff of  1.0D-12 yielded   9061 shell pairs
 There are     46779 function pairs (     56266 Cartesian)
 Smallest overlap matrix eigenvalue = 1.53E-05
 Guess MOs from SCF MO coefficient file
Reading MOs from coefficient file
Reading MOs from coefficient file
 An unrestricted hybrid HF-DFT SCF calculation will be
 performed using Pulay DIIS + Geometric Direct Minimization
 Exchange:     0.5679 Hartree-Fock + 1.0000 M08SO
 SCF converges when RMS gradient is below 1.0E-08
Geometry optimization detected.  Setting ReadMinima to 0
Setting SaveMinima to 0
 Inaccurate integrated density:
   Number of electrons =    49
   Numerical integral  =    48.985377993433
   Relative error      =    -0.0298408297 %
 ---------------------------------------
  Cycle       Energy        RMS Gradient
 ---------------------------------------
    1    -272.1548294245      4.59E-04 Done DIIS. Switching to GDM
    2    -272.1623803499      8.64E-03 Normal BFGS step
    3    -272.1624635265      8.85E-03 Normal BFGS step
    4    -272.1625979072      7.69E-04 Normal BFGS step
    5    -272.1626008518      2.81E-04 Normal BFGS step
    6    -272.1626022190      2.75E-04 Normal BFGS step
    7    -272.1626024185      1.87E-04 Normal BFGS step
    8    -272.1626025306      1.63E-04 Normal BFGS step
    9    -272.1626026198      1.10E-04 Normal BFGS step
   10    -272.1626026613      7.11E-05 Normal BFGS step
   11    -272.1626026897      5.72E-05 Normal BFGS step
   12    -272.1626027000      2.13E-05 Normal BFGS step
   13    -272.1626027024      3.71E-06 Normal BFGS step
   14    -272.1626027028      2.37E-06 Normal BFGS step
   15    -272.1626027028      1.15E-06 Normal BFGS step
   16    -272.1626027028      5.48E-07 Normal BFGS step
   GDM::WARNING energy changes are now smaller than effective accuracy.
   GDM::        calculation will continue, but THRESH should be increased
   GDM::        or SCF_CONVERGENCE decreased.
   GDM::        effective_thresh =   6.128991374750731E-010
   17    -272.1626027028      1.53E-07 Normal BFGS step
   GDM::WARNING energy changes are now smaller than effective accuracy.
   GDM::        calculation will continue, but THRESH should be increased
   GDM::        or SCF_CONVERGENCE decreased.
   GDM::        effective_thresh =   6.128991374750731E-010
   18    -272.1626027028      2.48E-08 Normal BFGS step
   GDM::WARNING energy changes are now smaller than effective accuracy.
   GDM::        calculation will continue, but THRESH should be increased
   GDM::        or SCF_CONVERGENCE decreased.
   GDM::        effective_thresh =   6.612002508010750E-010
   19    -272.1626027028      7.27E-09 Convergence criterion met
 ---------------------------------------
 <S^2> = 0.7616
 SCF time:  CPU 2242.21 s  wall 2246.13 s
 SCF   energy in the final basis set = -272.1626027028
 Total energy in the final basis set = -272.1626027028
 Analysis of SCF Wavefunction
 
 --------------------------------------------------------------
                    Orbital Energies (a.u.)
 --------------------------------------------------------------
 
 Alpha MOs
 -- Occupied --
-19.585 -10.524 -10.516 -10.514 -10.493 -10.490  -1.085  -0.928
 -0.849  -0.783  -0.703  -0.649  -0.553  -0.545  -0.521  -0.505
 -0.497  -0.465  -0.462  -0.460  -0.418  -0.409  -0.405  -0.394
 -0.316
 -- Virtual --
 -0.028  -0.015  -0.011  -0.007   0.012   0.012   0.016   0.020
  0.023   0.039   0.046   0.051   0.065   0.068   0.080   0.088
  0.094   0.097   0.116   0.119   0.124   0.127   0.134   0.135
  0.142   0.143   0.148   0.153   0.159   0.168   0.174   0.197
  0.201   0.208   0.212   0.222   0.233   0.246   0.255   0.258
  0.268   0.275   0.281   0.293   0.299   0.310   0.324   0.358
  0.375   0.399   0.412   0.425   0.436   0.467   0.472   0.488
  0.495   0.516   0.526   0.540   0.541   0.560   0.562   0.567
  0.573   0.580   0.585   0.597   0.601   0.622   0.623   0.635
  0.652   0.678   0.686   0.695   0.702   0.707   0.710   0.728
  0.751   0.765   0.788   0.797   0.829   0.839   0.859   0.871
  0.900   0.920   0.931   0.945   0.982   0.993   1.002   1.042
  1.064   1.066   1.071   1.094   1.101   1.116   1.124   1.142
  1.145   1.176   1.185   1.207   1.218   1.240   1.248   1.248
  1.264   1.272   1.289   1.320   1.322   1.345   1.355   1.367
  1.387   1.402   1.412   1.420   1.442   1.451   1.466   1.489
  1.501   1.516   1.518   1.543   1.567   1.573   1.581   1.604
  1.614   1.628   1.636   1.682   1.684   1.703   1.767   1.787
  1.880   1.900   1.919   1.960   2.275   2.382   2.444   2.486
  2.496   2.548   2.580   2.619   2.632   2.650   2.683   2.690
  2.709   2.720   2.781   2.796   2.816   2.834   2.858   2.881
  2.896   2.905   2.927   2.937   2.948   2.962   2.987   2.996
  3.025   3.057   3.082   3.113   3.137   3.145   3.151   3.162
  3.223   3.234   3.250   3.269   3.277   3.308   3.325   3.346
  3.359   3.386   3.389   3.400   3.415   3.428   3.445   3.492
  3.516   3.548   3.564   3.579   3.607   3.624   3.644   3.652
  3.690   3.699   3.743   3.765   3.779   3.806   3.819   3.837
  3.866   3.891   3.899   3.928   3.944   3.970   3.991   4.014
  4.021   4.047   4.125   4.134   4.146   4.154   4.166   4.175
  4.179   4.196   4.207   4.230   4.253   4.287   4.331   4.355
  4.374   4.383   4.413   4.429   4.444   4.494   4.534   4.552
  4.564   4.628   4.631   4.646   4.698   4.721   4.816   4.946
  4.997   5.007   5.018   5.031   5.061   5.164   5.181   5.242
  5.286   5.341   5.359   5.451   5.507   5.522   5.537   5.597
  5.607   5.633   5.653   5.669   5.880   6.803   6.901   6.910
  6.916   7.057   7.412  23.942  24.106  24.163  24.250  24.580
 49.672
 
 Beta MOs
 -- Occupied --
-19.562 -10.520 -10.516 -10.514 -10.493 -10.490  -1.032  -0.926
 -0.846  -0.782  -0.703  -0.647  -0.551  -0.543  -0.507  -0.498
 -0.489  -0.463  -0.461  -0.417  -0.408  -0.404  -0.368  -0.341
 -- Virtual --
 -0.088  -0.028  -0.015  -0.011  -0.005   0.012   0.013   0.016
  0.021   0.023   0.043   0.048   0.050   0.064   0.067   0.080
  0.087   0.096   0.099   0.115   0.119   0.124   0.127   0.134
  0.135   0.142   0.143   0.150   0.153   0.159   0.168   0.174
  0.197   0.202   0.209   0.213   0.223   0.234   0.248   0.256
  0.261   0.268   0.276   0.282   0.296   0.299   0.311   0.324
  0.359   0.377   0.402   0.415   0.425   0.437   0.467   0.473
  0.489   0.498   0.519   0.533   0.541   0.544   0.561   0.564
  0.570   0.575   0.582   0.587   0.598   0.603   0.622   0.629
  0.636   0.655   0.680   0.689   0.697   0.706   0.711   0.715
  0.730   0.754   0.769   0.793   0.799   0.832   0.842   0.862
  0.874   0.903   0.922   0.933   0.948   0.986   0.996   1.005
  1.045   1.065   1.066   1.074   1.096   1.107   1.121   1.128
  1.144   1.147   1.178   1.204   1.213   1.236   1.245   1.252
  1.256   1.269   1.279   1.293   1.322   1.326   1.345   1.357
  1.371   1.389   1.407   1.418   1.424   1.447   1.453   1.468
  1.493   1.510   1.517   1.526   1.547   1.569   1.580   1.584
  1.610   1.621   1.630   1.640   1.687   1.703   1.707   1.787
  1.812   1.898   1.917   1.955   1.990   2.282   2.384   2.450
  2.492   2.503   2.553   2.592   2.628   2.639   2.662   2.692
  2.717   2.727   2.737   2.799   2.809   2.822   2.836   2.880
  2.895   2.907   2.924   2.932   2.940   2.959   2.968   2.998
  2.999   3.034   3.064   3.087   3.118   3.147   3.156   3.159
  3.170   3.223   3.242   3.255   3.282   3.291   3.316   3.334
  3.348   3.367   3.393   3.399   3.404   3.426   3.431   3.445
  3.498   3.523   3.562   3.573   3.586   3.613   3.629   3.654
  3.665   3.705   3.714   3.755   3.771   3.789   3.816   3.828
  3.859   3.887   3.901   3.906   3.932   3.950   3.978   3.995
  4.017   4.028   4.054   4.127   4.135   4.148   4.156   4.166
  4.179   4.181   4.198   4.208   4.234   4.257   4.300   4.338
  4.359   4.377   4.388   4.420   4.438   4.455   4.498   4.537
  4.559   4.587   4.634   4.637   4.662   4.722   4.742   4.819
  4.996   5.067   5.077   5.091   5.117   5.147   5.163   5.253
  5.295   5.317   5.355   5.370   5.474   5.505   5.538   5.588
  5.608   5.611   5.635   5.655   5.675   5.913   6.876   6.902
  7.000   7.034   7.181   7.425  23.944  24.107  24.162  24.250
 24.592  49.673
 --------------------------------------------------------------
 
          Ground-State Mulliken Net Atomic Charges

     Atom                 Charge (a.u.)    Spin (a.u.)
  --------------------------------------------------------
      1 C                    -0.097409      -0.019658
      2 H                     0.282938      -0.000487
      3 C                    -0.670440      -0.000232
      4 H                     0.183919       0.000332
      5 H                     0.192870       0.002547
      6 H                     0.208648       0.000204
      7 C                    -0.739073       0.003822
      8 H                     0.192663       0.001083
      9 H                     0.191743       0.000134
     10 H                     0.222587      -0.000302
     11 C                     0.252229       0.288678
     12 H                     0.344244      -0.020752
     13 C                    -0.994863      -0.044113
     14 H                     0.242216       0.002076
     15 H                     0.275237       0.005937
     16 O                    -0.355901       0.800946
     17 H                     0.268390      -0.020214
  --------------------------------------------------------
  Sum of atomic charges =     0.000000
  Sum of spin   charges =     1.000000

 -----------------------------------------------------------------
                    Cartesian Multipole Moments
 -----------------------------------------------------------------
    Charge (ESU x 10^10)
                 0.0000
    Dipole Moment (Debye)
         X      -1.8696      Y       0.5329      Z       1.1641
       Tot       2.2660
    Quadrupole Moments (Debye-Ang)
        XX     -45.5538     XY       2.3377     YY     -39.8198
        XZ       2.9943     YZ      -1.4185     ZZ     -37.9974
    Octopole Moments (Debye-Ang^2)
       XXX     -11.4492    XXY       2.9860    XYY       6.5562
       YYY      -5.3823    XXZ       4.7172    XYZ      -3.6710
       YYZ       0.3743    XZZ       4.0367    YZZ      -0.4941
       ZZZ       0.2620
    Hexadecapole Moments (Debye-Ang^3)
      XXXX    -726.3074   XXXY       7.7309   XXYY    -151.4994
      XYYY      -7.1901   YYYY    -317.7246   XXXZ      17.6343
      XXYZ      -4.4742   XYYZ       6.5169   YYYZ      -0.5086
      XXZZ    -121.4610   XYZZ      -0.8975   YYZZ     -66.8122
      XZZZ      -1.6069   YZZZ      -1.1047   ZZZZ     -91.8657
 -----------------------------------------------------------------
 Calculating analytic gradient of the SCF energy
 Gradient of Coulomb and Exchange Energy
            1           2           3           4           5           6
    1   2.2173614  -0.6644734   4.2126767   0.8251920   3.1736402   1.7000316
    2   1.5280015  -0.1971281  -1.0022124  -3.8726876   1.4388416  -0.3341746
    3   1.5816366   4.8836795   0.0684102   1.0088130   1.7830343  -3.4552361
            7           8           9          10          11          12
    1   1.8630396   2.8086164  -2.9976668   0.6906809   2.8330631   0.2822043
    2   3.8305056   2.4410034   2.5637272   1.2137499  -3.0040302  -0.2119326
    3   0.1450962   1.6873171   0.4168506  -3.6156931  -4.0861945  -4.6386003
           13          14          15          16          17
    1  -5.1460713  -3.3248868  -0.8880278  -8.4034817   0.8181016
    2  -5.2682073  -2.3157559  -0.5107827   2.0167226   1.6843594
    3   1.4407927  -2.4189227   4.5682655   4.2683805  -3.6376296
 Gradient of SCF Energy
            1           2           3           4           5           6
    1   0.0013258  -0.0007699  -0.0036645  -0.0000472   0.0008355   0.0000717
    2   0.0002265  -0.0002632   0.0016849  -0.0012417   0.0008613   0.0002048
    3  -0.0029220   0.0017842   0.0006888   0.0002542   0.0006179  -0.0014962
            7           8           9          10          11          12
    1   0.0000463   0.0009880  -0.0010972   0.0000968   0.0012044   0.0002353
    2  -0.0054043   0.0006117   0.0016706  -0.0000027   0.0025542  -0.0001556
    3   0.0007357   0.0007717   0.0003125  -0.0013891   0.0026121  -0.0016922
           13          14          15          16          17
    1   0.0015914  -0.0010297  -0.0000894  -0.0001967   0.0004993
    2  -0.0005550   0.0001533   0.0003173  -0.0022362   0.0015740
    3  -0.0000553  -0.0009703   0.0013122   0.0041804  -0.0047445
 Max gradient component =       5.404E-03
 RMS gradient           =       1.695E-03
 Gradient time:  CPU 126.94 s  wall 126.91 s
 Geometry Optimization Parameters
   NAtoms,    NIC,     NZ,  NCons,   NDum,   NFix, NCnnct, MaxDiis
       17     120       0       0       0       0       0       0

 Cartesian Hessian Update
 Hessian Updated using Powell/Murtagh-Sargent Update
  Mixing factors:     0.728555 Powell
                      0.271445 Murtagh-Sargent


** GEOMETRY OPTIMIZATION IN DELOCALIZED INTERNAL COORDINATES **
   Searching for a Transition State

   Optimization Cycle:   3

                       Coordinates (Angstroms)
     ATOM                X               Y               Z
      1  C        -0.8254357274   -0.0378197124   -0.3020723346
      2  H        -0.5781711129    0.0173702433   -1.3692699970
      3  C        -2.2020443938    0.6189830675   -0.0693214925
      4  H        -2.2026221353    1.6647940113   -0.3923118832
      5  H        -2.9802097506    0.0846678907   -0.6251599741
      6  H        -2.4675334917    0.5900852444    0.9945834204
      7  C        -0.8498621468   -1.5236418794    0.1157303432
      8  H        -1.6309419726   -2.0639427124   -0.4299498063
      9  H         0.1172355563   -1.9869664297   -0.0973517369
     10  H        -1.0622876598   -1.6177591720    1.1884263956
     11  C         0.2418391318    0.7024193359    0.4636219256
     12  H         0.1167985363    0.7329634559    1.5490405776
     13  C         1.3227333197    1.2862741057   -0.0904201682
     14  H         2.0467210318    1.8301922849    0.5068319681
     15  H         1.4499301905    1.3153541500   -1.1684673375
     16  O         2.4313553430   -0.6823673810   -0.1688905798
     17  H         2.1373149462   -1.0073207039    0.6945262294
   Point Group: c1    Number of degrees of freedom:    45


   Energy is   -272.162602703

 GETINT wrote B to file, NVib is           45
 Hessian Updated using Powell/Murtagh-Sargent Update
  Mixing factors:     0.997163 Powell
                      0.002837 Murtagh-Sargent

 42 Hessian modes will be used to form the next step
  Hessian Eigenvalues:
     0.000709    0.003364    0.003386    0.008163    0.019119    0.029333
     0.036427    0.040859    0.047182    0.047399    0.054926    0.055974
     0.056134    0.056482    0.058584    0.062853    0.075473    0.093914
     0.116264    0.159888    0.159922    0.159982    0.159996    0.160001
     0.166046    0.178709    0.220001    0.281349    0.281706    0.315641
     0.329013    0.339981    0.340683    0.340854    0.342318    0.342329
     0.343234    0.344842    0.345237    0.354428    0.539379    0.555212
**WARNING** Hessian does not have the Desired Local Structure

 Transition State Search - Taking P-RFO Step
 Searching for Lamda that Maximizes Along the Lowest mode
 Value Taken    Lamda =   0.00111625
 Searching for Lamda that Minimizes Along All other modes
 Value Taken    Lamda =  -0.00037805
 Calculated Step too Large.  Step scaled by  0.180722
 Step Taken.  Stepsize is  0.300000

                             Maximum     Tolerance    Cnvgd?
         Gradient           0.003872      0.000300      NO
         Displacement       0.241822      0.003000      NO
         Energy change      0.000104      0.000000      NO


 New Cartesian Coordinates Obtained by Inverse Iteration

 Displacement from previous Coordinates is:  0.205745
 ----------------------------------------------------------------
             Standard Nuclear Orientation (Angstroms)
    I     Atom           X                Y                Z
 ----------------------------------------------------------------
    1      C      -0.8199116741    -0.0380097538    -0.3010164570
    2      H      -0.5697457678     0.0158016123    -1.3681751688
    3      C      -2.1973886345     0.6159459892    -0.0716942068
    4      H      -2.1986638689     1.6625311479    -0.3932588069
    5      H      -2.9735534175     0.0806877256    -0.6301840936
    6      H      -2.4653992171     0.5853643402     0.9919926960
    7      C      -0.8447274908    -1.5218660462     0.1197306681
    8      H      -1.6391622473    -2.0589254208    -0.4105467109
    9      H       0.1139583171    -1.9958806070    -0.1108784211
   10      H      -1.0380230340    -1.6130684941     1.1966493647
   11      C       0.2423081455     0.7070647537     0.4657976273
   12      H       0.1127526258     0.7430120598     1.5510102214
   13      C       1.3213124709     1.2938737225    -0.0879757318
   14      H       2.0411233091     1.8455630913     0.5073488801
   15      H       1.4497171788     1.3138596622    -1.1670782586
   16      O       2.4574880852    -0.6603518546    -0.1454146826
   17      H       2.0727348845    -1.0523161294     0.6532386301
 ----------------------------------------------------------------
 Molecular Point Group                 C1    NOp =  1
 Largest Abelian Subgroup              C1    NOp =  1
 Nuclear Repulsion Energy =   238.8639180116 hartrees
 There are       25 alpha and       24 beta electrons
 Applying Cartesian multipole field
    Component          Value
    ---------          -----
     (2,0,0)        1.00000E-11
     (0,2,0)        2.00000E-11
     (0,0,2)       -3.00000E-11
 Nucleus-field energy     =     0.0000000072 hartrees
 Requested basis set is non-standard
 There are 138 shells and 314 basis functions
 A cutoff of  1.0D-12 yielded   9069 shell pairs
 There are     46795 function pairs (     56282 Cartesian)
 Smallest overlap matrix eigenvalue = 1.52E-05
 Guess MOs from SCF MO coefficient file
Reading MOs from coefficient file
Reading MOs from coefficient file
 An unrestricted hybrid HF-DFT SCF calculation will be
 performed using Pulay DIIS + Geometric Direct Minimization
 Exchange:     0.5679 Hartree-Fock + 1.0000 M08SO
 SCF converges when RMS gradient is below 1.0E-08
Geometry optimization detected.  Setting ReadMinima to 0
Setting SaveMinima to 0
 Inaccurate integrated density:
   Number of electrons =    49
   Numerical integral  =    48.983590551878
   Relative error      =    -0.0334886696 %
 ---------------------------------------
  Cycle       Energy        RMS Gradient
 ---------------------------------------
    1    -272.1538708652      4.48E-04 Done DIIS. Switching to GDM
    2    -272.1622273148      8.18E-03 Normal BFGS step
    3    -272.1623149633      8.34E-03 Normal BFGS step
    4    -272.1624396162      8.46E-04 Normal BFGS step
    5    -272.1624424729      2.99E-04 Normal BFGS step
    6    -272.1624440210      2.62E-04 Normal BFGS step
    7    -272.1624441997      1.87E-04 Normal BFGS step
    8    -272.1624443117      1.63E-04 Normal BFGS step
    9    -272.1624444005      1.11E-04 Normal BFGS step
   10    -272.1624444436      7.02E-05 Normal BFGS step
   11    -272.1624444714      6.23E-05 Normal BFGS step
   12    -272.1624444821      2.45E-05 Normal BFGS step
   13    -272.1624444849      4.11E-06 Normal BFGS step
   14    -272.1624444854      2.69E-06 Normal BFGS step
   15    -272.1624444854      1.37E-06 Normal BFGS step
   16    -272.1624444855      5.59E-07 Normal BFGS step
   GDM::WARNING energy changes are now smaller than effective accuracy.
   GDM::        calculation will continue, but THRESH should be increased
   GDM::        or SCF_CONVERGENCE decreased.
   GDM::        effective_thresh =   5.655196668591378E-009
   17    -272.1624444855      1.87E-07 Normal BFGS step
   GDM::WARNING energy changes are now smaller than effective accuracy.
   GDM::        calculation will continue, but THRESH should be increased
   GDM::        or SCF_CONVERGENCE decreased.
   GDM::        effective_thresh =   5.655196668591378E-009
   18    -272.1624444855      2.62E-08 Normal BFGS step
   GDM::WARNING energy changes are now smaller than effective accuracy.
   GDM::        calculation will continue, but THRESH should be increased
   GDM::        or SCF_CONVERGENCE decreased.
   GDM::        effective_thresh =   5.655196668591378E-009
   19    -272.1624444854      8.09E-09 Convergence criterion met
 ---------------------------------------
 <S^2> = 0.7616
 SCF time:  CPU 2241.94 s  wall 2244.81 s
 SCF   energy in the final basis set = -272.1624444854
 Total energy in the final basis set = -272.1624444854
 Analysis of SCF Wavefunction
 
 --------------------------------------------------------------
                    Orbital Energies (a.u.)
 --------------------------------------------------------------
 
 Alpha MOs
 -- Occupied --
-19.585 -10.524 -10.516 -10.514 -10.494 -10.492  -1.085  -0.929
 -0.849  -0.784  -0.704  -0.649  -0.554  -0.545  -0.522  -0.506
 -0.497  -0.466  -0.462  -0.461  -0.419  -0.410  -0.406  -0.394
 -0.317
 -- Virtual --
 -0.028  -0.015  -0.011  -0.007   0.012   0.012   0.016   0.020
  0.023   0.039   0.046   0.052   0.065   0.068   0.079   0.087
  0.093   0.097   0.115   0.119   0.124   0.127   0.134   0.135
  0.142   0.142   0.149   0.154   0.160   0.168   0.173   0.196
  0.199   0.208   0.211   0.221   0.232   0.247   0.254   0.259
  0.269   0.274   0.281   0.293   0.299   0.310   0.322   0.358
  0.375   0.396   0.412   0.424   0.435   0.465   0.473   0.483
  0.495   0.513   0.525   0.539   0.541   0.558   0.560   0.568
  0.574   0.580   0.585   0.598   0.601   0.621   0.623   0.635
  0.647   0.678   0.685   0.693   0.702   0.707   0.709   0.733
  0.750   0.763   0.788   0.795   0.828   0.842   0.858   0.871
  0.906   0.922   0.932   0.944   0.981   0.999   1.003   1.041
  1.062   1.064   1.073   1.094   1.103   1.115   1.126   1.140
  1.143   1.174   1.184   1.205   1.215   1.238   1.245   1.254
  1.263   1.272   1.290   1.319   1.323   1.342   1.357   1.371
  1.387   1.402   1.413   1.421   1.437   1.449   1.465   1.491
  1.501   1.515   1.519   1.543   1.564   1.571   1.579   1.606
  1.612   1.628   1.635   1.678   1.683   1.703   1.756   1.783
  1.890   1.902   1.927   1.959   2.279   2.383   2.445   2.488
  2.493   2.547   2.579   2.620   2.634   2.653   2.680   2.693
  2.705   2.721   2.785   2.795   2.815   2.832   2.859   2.882
  2.895   2.906   2.926   2.932   2.949   2.961   2.986   2.997
  3.025   3.055   3.081   3.113   3.138   3.146   3.150   3.162
  3.224   3.234   3.249   3.267   3.277   3.306   3.324   3.347
  3.360   3.384   3.390   3.401   3.416   3.427   3.443   3.494
  3.514   3.547   3.566   3.579   3.607   3.624   3.644   3.652
  3.691   3.699   3.747   3.762   3.777   3.807   3.818   3.838
  3.865   3.892   3.896   3.927   3.944   3.968   3.991   4.014
  4.024   4.046   4.125   4.130   4.143   4.150   4.166   4.175
  4.178   4.196   4.210   4.228   4.254   4.288   4.334   4.354
  4.374   4.385   4.414   4.431   4.442   4.494   4.532   4.551
  4.565   4.627   4.631   4.646   4.699   4.720   4.814   4.944
  4.997   5.006   5.020   5.031   5.058   5.156   5.181   5.242
  5.288   5.339   5.360   5.452   5.503   5.520   5.535   5.595
  5.604   5.632   5.651   5.668   5.880   6.798   6.901   6.911
  6.916   7.054   7.410  23.941  24.104  24.160  24.251  24.581
 49.670
 
 Beta MOs
 -- Occupied --
-19.562 -10.519 -10.516 -10.514 -10.494 -10.492  -1.031  -0.927
 -0.847  -0.783  -0.704  -0.647  -0.552  -0.543  -0.508  -0.499
 -0.489  -0.464  -0.461  -0.418  -0.409  -0.405  -0.368  -0.341
 -- Virtual --
 -0.088  -0.028  -0.014  -0.011  -0.006   0.011   0.013   0.016
  0.021   0.023   0.043   0.048   0.051   0.064   0.067   0.079
  0.087   0.095   0.099   0.115   0.119   0.124   0.127   0.134
  0.135   0.142   0.143   0.150   0.154   0.160   0.168   0.173
  0.197   0.200   0.209   0.213   0.222   0.233   0.249   0.255
  0.261   0.270   0.275   0.283   0.296   0.300   0.311   0.322
  0.358   0.377   0.400   0.416   0.425   0.437   0.466   0.474
  0.484   0.497   0.515   0.531   0.540   0.544   0.561   0.561
  0.571   0.576   0.581   0.587   0.599   0.603   0.622   0.628
  0.637   0.651   0.680   0.688   0.695   0.705   0.711   0.714
  0.735   0.753   0.767   0.793   0.798   0.831   0.845   0.861
  0.874   0.909   0.924   0.934   0.947   0.985   1.001   1.006
  1.045   1.064   1.065   1.075   1.095   1.109   1.118   1.130
  1.142   1.146   1.177   1.202   1.210   1.235   1.242   1.255
  1.258   1.268   1.279   1.293   1.321   1.326   1.342   1.359
  1.375   1.388   1.407   1.418   1.425   1.442   1.451   1.467
  1.496   1.509   1.517   1.527   1.547   1.568   1.575   1.581
  1.611   1.619   1.630   1.641   1.688   1.696   1.707   1.781
  1.803   1.911   1.919   1.957   1.990   2.286   2.384   2.450
  2.493   2.500   2.552   2.590   2.630   2.640   2.665   2.689
  2.719   2.723   2.741   2.798   2.812   2.821   2.834   2.881
  2.894   2.907   2.924   2.930   2.938   2.958   2.967   2.997
  3.001   3.034   3.062   3.086   3.117   3.151   3.153   3.158
  3.170   3.223   3.242   3.254   3.281   3.290   3.314   3.332
  3.350   3.367   3.391   3.401   3.404   3.425   3.430   3.444
  3.500   3.522   3.560   3.574   3.586   3.612   3.628   3.654
  3.665   3.704   3.714   3.761   3.769   3.788   3.814   3.828
  3.859   3.889   3.900   3.905   3.929   3.949   3.976   3.994
  4.017   4.032   4.054   4.125   4.131   4.146   4.153   4.167
  4.178   4.180   4.199   4.211   4.232   4.258   4.301   4.340
  4.359   4.377   4.390   4.421   4.439   4.453   4.499   4.536
  4.558   4.588   4.632   4.636   4.662   4.723   4.741   4.817
  4.994   5.067   5.080   5.093   5.110   5.144   5.161   5.252
  5.298   5.316   5.355   5.369   5.474   5.504   5.536   5.585
  5.605   5.609   5.633   5.653   5.674   5.912   6.876   6.899
  7.001   7.032   7.179   7.424  23.942  24.104  24.160  24.252
 24.593  49.671
 --------------------------------------------------------------
 
          Ground-State Mulliken Net Atomic Charges

     Atom                 Charge (a.u.)    Spin (a.u.)
  --------------------------------------------------------
      1 C                    -0.100352      -0.021116
      2 H                     0.285704      -0.000415
      3 C                    -0.671256       0.000392
      4 H                     0.183751       0.000213
      5 H                     0.192878       0.002591
      6 H                     0.208814       0.000234
      7 C                    -0.737908       0.004746
      8 H                     0.191101       0.001031
      9 H                     0.187108      -0.000113
     10 H                     0.226833      -0.000344
     11 C                     0.248181       0.288709
     12 H                     0.345228      -0.020602
     13 C                    -0.989077      -0.047779
     14 H                     0.240946       0.002327
     15 H                     0.275054       0.006024
     16 O                    -0.356091       0.803972
     17 H                     0.269088      -0.019873
  --------------------------------------------------------
  Sum of atomic charges =     0.000000
  Sum of spin   charges =     1.000000

 -----------------------------------------------------------------
                    Cartesian Multipole Moments
 -----------------------------------------------------------------
    Charge (ESU x 10^10)
                 0.0000
    Dipole Moment (Debye)
         X      -2.0350      Y       0.4368      Z       1.0516
       Tot       2.3319
    Quadrupole Moments (Debye-Ang)
        XX     -46.1493     XY       2.3094     YY     -39.5082
        XZ       2.5960     YZ      -1.3468     ZZ     -38.1654
    Octopole Moments (Debye-Ang^2)
       XXX     -14.1585    XXY       3.0508    XYY       6.7425
       YYY      -6.1878    XXZ       3.3994    XYZ      -3.4331
       YYZ       0.3046    XZZ       3.3602    YZZ      -0.5266
       ZZZ      -0.2659
    Hexadecapole Moments (Debye-Ang^3)
      XXXX    -733.0231   XXXY       8.2853   XXYY    -150.9995
      XYYY      -8.2847   YYYY    -316.8402   XXXZ      13.4707
      XXYZ      -3.6992   XYYZ       6.2689   YYYZ      -0.1254
      XXZZ    -122.8895   XYZZ      -0.8248   YYZZ     -66.8005
      XZZZ      -2.6943   YZZZ      -0.6695   ZZZZ     -91.8284
 -----------------------------------------------------------------
 Calculating analytic gradient of the SCF energy
 Gradient of Coulomb and Exchange Energy
            1           2           3           4           5           6
    1   2.2757607  -0.6894673   4.2102790   0.8299955   3.1670308   1.7164704
    2   1.5555188  -0.1749882  -1.0257858  -3.8746007   1.4462925  -0.3289162
    3   1.5741756   4.8779631   0.0489689   1.0030054   1.7923951  -3.4490449
            7           8           9          10          11          12
    1   1.7965033   2.8623243  -2.9801623   0.6188497   2.9144767   0.2948931
    2   3.8665579   2.4189481   2.5852560   1.1868725  -3.0401158  -0.2392348
    3   0.1967580   1.6403351   0.4757559  -3.6388600  -3.9975245  -4.6414065
           13          14          15          16          17
    1  -5.2295808  -3.2883973  -0.8987932  -8.8012488   1.2010661
    2  -5.1469038  -2.3981336  -0.4841106   1.6782289   1.9751148
    3   1.4122898  -2.4114895   4.5640027   3.9112857  -3.3586100
 Gradient of SCF Energy
            1           2           3           4           5           6
    1   0.0011364  -0.0005760  -0.0030015  -0.0000336   0.0007057   0.0000452
    2   0.0001795  -0.0002484   0.0014437  -0.0010194   0.0006899   0.0001811
    3  -0.0024334   0.0014909   0.0006115   0.0002043   0.0004952  -0.0012345
            7           8           9          10          11          12
    1   0.0001181   0.0008014  -0.0008364   0.0000624   0.0009537   0.0001804
    2  -0.0045347   0.0005436   0.0014176   0.0000232   0.0020439  -0.0000952
    3   0.0006842   0.0006252   0.0002371  -0.0011572   0.0020315  -0.0013441
           13          14          15          16          17
    1   0.0015260  -0.0009640  -0.0001913  -0.0005594   0.0006329
    2  -0.0004157   0.0003376   0.0001000  -0.0019562   0.0013094
    3   0.0005268  -0.0008820   0.0006856   0.0034013  -0.0039423
 Max gradient component =       4.535E-03
 RMS gradient           =       1.409E-03
 Gradient time:  CPU 125.70 s  wall 125.71 s
 Geometry Optimization Parameters
   NAtoms,    NIC,     NZ,  NCons,   NDum,   NFix, NCnnct, MaxDiis
       17     120       0       0       0       0       0       0

 Cartesian Hessian Update
 Hessian Updated using Powell/Murtagh-Sargent Update
  Mixing factors:     0.960446 Powell
                      0.039554 Murtagh-Sargent


** GEOMETRY OPTIMIZATION IN DELOCALIZED INTERNAL COORDINATES **
   Searching for a Transition State

   Optimization Cycle:   4

                       Coordinates (Angstroms)
     ATOM                X               Y               Z
      1  C        -0.8199116741   -0.0380097538   -0.3010164570
      2  H        -0.5697457678    0.0158016123   -1.3681751688
      3  C        -2.1973886345    0.6159459892   -0.0716942068
      4  H        -2.1986638689    1.6625311479   -0.3932588069
      5  H        -2.9735534175    0.0806877256   -0.6301840936
      6  H        -2.4653992171    0.5853643402    0.9919926960
      7  C        -0.8447274908   -1.5218660462    0.1197306681
      8  H        -1.6391622473   -2.0589254208   -0.4105467109
      9  H         0.1139583171   -1.9958806070   -0.1108784211
     10  H        -1.0380230340   -1.6130684941    1.1966493647
     11  C         0.2423081455    0.7070647537    0.4657976273
     12  H         0.1127526258    0.7430120598    1.5510102214
     13  C         1.3213124709    1.2938737225   -0.0879757318
     14  H         2.0411233091    1.8455630913    0.5073488801
     15  H         1.4497171788    1.3138596622   -1.1670782586
     16  O         2.4574880852   -0.6603518546   -0.1454146826
     17  H         2.0727348845   -1.0523161294    0.6532386301
   Point Group: c1    Number of degrees of freedom:    45


   Energy is   -272.162444485

 GETINT wrote B to file, NVib is           45
 Hessian Updated using Powell/Murtagh-Sargent Update
  Mixing factors:     0.997313 Powell
                      0.002687 Murtagh-Sargent

 43 Hessian modes will be used to form the next step
  Hessian Eigenvalues:
     0.000544    0.003362    0.003381    0.008166    0.019111    0.029328
     0.036428    0.040860    0.047181    0.047393    0.054925    0.055974
     0.056134    0.056482    0.058582    0.062847    0.075443    0.093914
     0.116264    0.159889    0.159922    0.159974    0.159996    0.159999
     0.160001    0.166044    0.178699    0.220000    0.281349    0.281705
     0.315640    0.328996    0.339981    0.340683    0.340854    0.342318
     0.342329    0.343234    0.344842    0.345238    0.354428    0.539379
     0.555207
**WARNING** Hessian does not have the Desired Local Structure

 Transition State Search - Taking P-RFO Step
 Searching for Lamda that Maximizes Along the Lowest mode
 Value Taken    Lamda =   0.00111094
 Searching for Lamda that Minimizes Along All other modes
 Value Taken    Lamda =  -0.00029007
 Calculated Step too Large.  Step scaled by  0.213546
 Step Taken.  Stepsize is  0.300000

                             Maximum     Tolerance    Cnvgd?
         Gradient           0.003172      0.000300      NO
         Displacement       0.239874      0.003000      NO
         Energy change      0.000158      0.000000      NO


 New Cartesian Coordinates Obtained by Inverse Iteration

 Displacement from previous Coordinates is:  0.198575
 ----------------------------------------------------------------
[...]
 H          0.114  0.245 -0.001    0.029  0.068 -0.007   -0.167 -0.234  0.023
 C          0.013 -0.002  0.046    0.072 -0.081 -0.003    0.041 -0.051 -0.022
 H          0.410  0.168  0.062   -0.464  0.672  0.215   -0.127  0.136  0.032
 C         -0.047 -0.012 -0.069   -0.021  0.028  0.001   -0.020 -0.003  0.000
 H         -0.215 -0.230  0.313    0.228 -0.293 -0.064   -0.052 -0.002  0.039
 H          0.382  0.207 -0.025   -0.159  0.259  0.074    0.013 -0.008 -0.003
 O         -0.001  0.000  0.000    0.005  0.000 -0.004    0.001  0.001 -0.001
 H         -0.002 -0.001 -0.003    0.035 -0.035 -0.003    0.007 -0.006 -0.002
 TransDip   0.085  0.013  0.013   -0.066  0.114  0.025   -0.014  0.049  0.015

 Mode:                22                     23                     24
 Frequency:      1174.29                1209.17                1291.32
 Force Cnst:      1.5049                 1.5667                 1.2878
 Red. Mass:       1.8523                 1.8187                 1.3107
 IR Active:          YES                    YES                    YES
 IR Intens:        1.857                  0.238                  3.116
 Raman Active:       YES                    YES                    YES
               X      Y      Z        X      Y      Z        X      Y      Z
 C          0.146  0.083 -0.117    0.079  0.022  0.164   -0.011 -0.005 -0.033
 H          0.240  0.203 -0.093    0.541  0.152  0.269    0.182  0.113  0.009
 C         -0.068 -0.070  0.073   -0.037 -0.016 -0.031   -0.002  0.002  0.020
 H          0.298 -0.160 -0.134    0.097  0.004  0.101    0.012 -0.021 -0.052
 H         -0.092  0.232 -0.118   -0.141  0.074  0.085    0.044 -0.008 -0.046
 H         -0.196  0.327  0.047    0.132  0.012  0.013   -0.022  0.010  0.011
 C         -0.097 -0.013  0.093   -0.044 -0.012 -0.053   -0.003 -0.003  0.022
 H          0.137 -0.216 -0.117   -0.044 -0.201  0.111    0.026  0.036 -0.055
 H          0.052  0.281 -0.164    0.078  0.104  0.118   -0.005  0.020 -0.046
 H          0.092 -0.463  0.087    0.129  0.160  0.004    0.004 -0.027  0.014
 C          0.008  0.004  0.014   -0.061 -0.016 -0.159   -0.016  0.017 -0.105
 H         -0.074 -0.091 -0.010   -0.384 -0.211 -0.188    0.639  0.544 -0.031
 C         -0.026 -0.012 -0.028    0.035  0.017  0.046   -0.015 -0.045  0.108
 H         -0.069 -0.092  0.083    0.112  0.131 -0.148    0.034  0.022 -0.022
 H          0.065  0.054 -0.012   -0.192 -0.154  0.003   -0.331 -0.300  0.056
 O         -0.001  0.000  0.000    0.001 -0.001  0.000   -0.002  0.001  0.001
 H         -0.004  0.001 -0.003    0.000  0.004  0.005    0.000  0.004  0.005
 TransDip   0.042 -0.007  0.008   -0.011 -0.003  0.011    0.037 -0.034  0.026

 Mode:                25                     26                     27
 Frequency:      1299.79                1318.63                1375.67
 Force Cnst:      1.4620                 1.4615                 1.4014
 Red. Mass:       1.4688                 1.4266                 1.2569
 IR Active:          YES                    YES                    YES
 IR Intens:       10.588                 10.295                 10.298
 Raman Active:       YES                    YES                    YES
               X      Y      Z        X      Y      Z        X      Y      Z
 C         -0.149  0.066 -0.055   -0.038 -0.151 -0.031    0.009 -0.028  0.001
 H          0.781 -0.317  0.111    0.207  0.791  0.082   -0.022  0.055  0.001
 C          0.028 -0.013  0.075    0.015  0.037 -0.010   -0.091  0.063  0.015
 H          0.064 -0.090 -0.168   -0.112  0.046 -0.015    0.408 -0.051 -0.130
 H          0.179 -0.055 -0.137    0.007 -0.066  0.068    0.227 -0.338 -0.158
 H         -0.148  0.050  0.031   -0.045 -0.115 -0.025    0.348 -0.269  0.087
 C          0.045 -0.015  0.002    0.005  0.022  0.067    0.010  0.093 -0.019
 H         -0.046  0.088  0.048    0.057  0.207 -0.148    0.093 -0.310  0.134
 H         -0.049 -0.137 -0.022    0.017  0.132 -0.167   -0.203 -0.287  0.126
 H         -0.133  0.009 -0.031   -0.044 -0.063  0.041    0.006 -0.354 -0.044
 C         -0.016 -0.039  0.016   -0.046 -0.040  0.016   -0.010 -0.006  0.003
 H         -0.039 -0.040  0.022   -0.038 -0.025  0.025    0.011  0.014  0.007
 C          0.021  0.026 -0.018    0.033  0.032 -0.014    0.004  0.001  0.001
 H          0.045  0.113 -0.100    0.123  0.135 -0.188    0.027  0.025 -0.045
 H          0.153  0.104 -0.012    0.161  0.169  0.005    0.028  0.039  0.008
 O          0.003 -0.002  0.000    0.002 -0.002 -0.001    0.000  0.000  0.000
 H         -0.001 -0.003 -0.005    0.001 -0.002  0.000   -0.001  0.000 -0.001
 TransDip  -0.085  0.060  0.011   -0.099  0.023  0.014    0.026 -0.099 -0.005

 Mode:                28                     29                     30
 Frequency:      1394.95                1433.79                1464.69
 Force Cnst:      1.4459                 1.4857                 1.3254
 Red. Mass:       1.2612                 1.2266                 1.0486
 IR Active:          YES                    YES                    YES
 IR Intens:        6.824                  6.769                  6.081
 Raman Active:       YES                    YES                    YES
               X      Y      Z        X      Y      Z        X      Y      Z
 C          0.022  0.026 -0.003   -0.052 -0.047 -0.014    0.018 -0.023  0.001
 H         -0.063 -0.079 -0.030    0.169  0.149  0.038   -0.036  0.067 -0.004
 C         -0.082  0.038  0.017   -0.001  0.024  0.012   -0.017 -0.022  0.017
 H          0.342 -0.051 -0.095    0.053 -0.031 -0.136   -0.243  0.008 -0.015
 H          0.196 -0.239 -0.195    0.022 -0.050  0.023    0.105  0.200 -0.345
 H          0.334 -0.151  0.091   -0.027 -0.168  0.001    0.310  0.158  0.081
 C         -0.021 -0.111  0.023    0.012  0.001  0.014    0.036  0.001 -0.021
 H         -0.088  0.353 -0.202   -0.017  0.033  0.027   -0.298  0.044  0.458
 H          0.240  0.345 -0.143    0.010  0.049 -0.111    0.185  0.234 -0.010
 H          0.047  0.424  0.070   -0.122  0.027 -0.012   -0.439 -0.191 -0.121
 C         -0.008 -0.009  0.011    0.085  0.063  0.003   -0.005 -0.001 -0.002
 H          0.012  0.000  0.016   -0.217 -0.162 -0.029    0.010  0.011 -0.001
 C         -0.001  0.001 -0.005    0.021  0.031 -0.034    0.000  0.000  0.002
 H          0.008  0.020 -0.028   -0.207 -0.358  0.523    0.010  0.004 -0.014
 H          0.044  0.039  0.002   -0.435 -0.348 -0.103    0.003  0.006  0.003
 O          0.000  0.000  0.000    0.000  0.000  0.000    0.000  0.000  0.000
 H          0.002 -0.001  0.002   -0.003  0.003 -0.001    0.002 -0.001  0.002
 TransDip   0.043  0.059 -0.041   -0.008 -0.078  0.028   -0.032  0.072  0.008

 Mode:                31                     32                     33
 Frequency:      1467.35                1478.14                1491.30
 Force Cnst:      1.3257                 1.3554                 1.3933
 Red. Mass:       1.0450                 1.0529                 1.0633
 IR Active:          YES                    YES                    YES
 IR Intens:        0.938                  5.549                 13.246
 Raman Active:       YES                    YES                    YES
               X      Y      Z        X      Y      Z        X      Y      Z
 C         -0.003 -0.005 -0.008    0.028  0.020 -0.014   -0.035 -0.019 -0.030
 H          0.029 -0.010 -0.002   -0.018 -0.029 -0.031    0.074  0.053 -0.009
 C         -0.018 -0.013 -0.039    0.009  0.033 -0.017   -0.009 -0.012 -0.019
 H          0.184  0.128  0.537    0.329 -0.030 -0.049    0.068  0.092  0.370
 H          0.096 -0.355  0.075   -0.163 -0.220  0.444    0.112 -0.223 -0.033
 H         -0.034  0.421 -0.017   -0.394 -0.260 -0.099    0.027  0.331  0.003
 C          0.023  0.005  0.027    0.016 -0.016 -0.020   -0.019 -0.002 -0.031
 H          0.082 -0.200  0.060   -0.259  0.097  0.322   -0.158  0.321 -0.029
 H         -0.100 -0.015 -0.394    0.189  0.212  0.086    0.159  0.046  0.540
 H         -0.304  0.163 -0.038   -0.252 -0.168 -0.076    0.338 -0.284  0.031
 C          0.001  0.002  0.001   -0.006 -0.002 -0.003    0.006  0.001  0.011
 H          0.004  0.006  0.001    0.046  0.032 -0.003    0.000 -0.008  0.012
 C          0.003  0.002 -0.001   -0.009 -0.010  0.008    0.012  0.014 -0.010
 H         -0.003 -0.013  0.018    0.019  0.035 -0.060   -0.027 -0.052  0.089
 H         -0.020 -0.012 -0.004    0.045  0.036  0.017   -0.069 -0.052 -0.024
 O          0.000  0.000  0.000    0.000  0.000  0.000    0.000  0.000 -0.001
 H         -0.001  0.001 -0.001    0.001  0.000  0.002    0.000  0.000  0.001
 TransDip  -0.006 -0.012  0.028   -0.024 -0.014  0.070    0.029  0.033  0.108

 Mode:                34                     35                     36
 Frequency:      1643.05                2970.46                2976.18
 Force Cnst:      6.6521                 5.3952                 5.4657
 Red. Mass:       4.1822                 1.0378                 1.0473
 IR Active:          YES                    YES                    YES
 IR Intens:      106.716                 21.667                 14.532
 Raman Active:       YES                    YES                    YES
               X      Y      Z        X      Y      Z        X      Y      Z
 C         -0.074 -0.061 -0.009   -0.003  0.000  0.013   -0.006 -0.003  0.032
 H          0.179  0.121  0.048    0.034  0.010 -0.159    0.078  0.026 -0.380
 C         -0.007  0.007  0.002    0.040 -0.018 -0.025   -0.002  0.001 -0.004
 H          0.004  0.016  0.037    0.062  0.434 -0.132   -0.008 -0.038  0.011
 H          0.054 -0.063 -0.044   -0.393 -0.200 -0.258    0.036  0.021  0.023
 H          0.030  0.026  0.014   -0.134 -0.022  0.693   -0.004  0.001  0.016
 C         -0.005 -0.003 -0.002   -0.001 -0.002 -0.001    0.020  0.034 -0.032
 H         -0.013  0.053 -0.031    0.030  0.012  0.020   -0.366 -0.172 -0.248
 H          0.023  0.031  0.025   -0.019  0.010  0.005    0.268 -0.174 -0.074
 H          0.028  0.011  0.009    0.003 -0.001 -0.017   -0.138 -0.044  0.698
 C          0.296  0.254 -0.084   -0.001 -0.001  0.000   -0.001  0.000 -0.001
 H         -0.330 -0.191 -0.187    0.002  0.001  0.000    0.002 -0.002  0.016
 C         -0.228 -0.235  0.116    0.000  0.000  0.000    0.000  0.000  0.000
 H         -0.042  0.095 -0.428    0.001  0.001  0.000    0.000  0.000 -0.002
 H          0.385  0.240  0.251    0.000  0.001 -0.001    0.000  0.000  0.003
 O         -0.007  0.006  0.002    0.000  0.000  0.000    0.000  0.000  0.000
 H         -0.005  0.008  0.000    0.000  0.000  0.000    0.001  0.000  0.000
 TransDip   0.303 -0.120 -0.057    0.129 -0.069 -0.028    0.071  0.096 -0.026

 Mode:                37                     38                     39
 Frequency:      2984.23                3039.03                3043.49
 Force Cnst:      5.6319                 5.9867                 6.0011
 Red. Mass:       1.0733                 1.1002                 1.0996
 IR Active:          YES                    YES                    YES
 IR Intens:       22.323                  3.182                 49.904
 Raman Active:       YES                    YES                    YES
               X      Y      Z        X      Y      Z        X      Y      Z
 C          0.014  0.004 -0.071    0.001  0.000 -0.003    0.003  0.001 -0.018
 H         -0.173 -0.054  0.849   -0.010  0.001  0.036   -0.042 -0.014  0.197
 C          0.009 -0.007  0.009   -0.020  0.006 -0.069   -0.015  0.005 -0.053
 H          0.023  0.148 -0.041   -0.037 -0.249  0.055   -0.027 -0.194  0.045
 H         -0.129 -0.067 -0.081    0.391  0.198  0.234    0.300  0.148  0.177
 H         -0.005  0.000  0.020   -0.114 -0.015  0.530   -0.090 -0.009  0.410
 C          0.011  0.019 -0.001    0.018  0.016  0.052   -0.023 -0.019 -0.064
 H         -0.245 -0.111 -0.161   -0.375 -0.173 -0.233    0.462  0.218  0.287
 H          0.162 -0.101 -0.040    0.077 -0.044 -0.005   -0.081  0.048  0.005
 H         -0.041 -0.015  0.216    0.084  0.028 -0.377   -0.104 -0.040  0.474
 C          0.001 -0.001  0.004    0.000  0.000  0.000    0.001 -0.001  0.003
 H         -0.001  0.014 -0.054    0.000  0.000 -0.002    0.001  0.011 -0.035
 C          0.000  0.000  0.000    0.000  0.000  0.000    0.000  0.000  0.000
 H          0.001  0.000  0.003    0.000  0.000  0.000    0.002  0.001  0.003
 H         -0.002 -0.003 -0.002    0.000  0.000  0.000   -0.001  0.000 -0.002
 O          0.000  0.000  0.000    0.000  0.000  0.000    0.000  0.000  0.000
 H         -0.001  0.000 -0.001    0.000  0.000  0.000    0.000  0.000  0.000
 TransDip   0.090  0.059 -0.106   -0.006  0.052 -0.024   -0.090 -0.028 -0.206

 Mode:                40                     41                     42
 Frequency:      3058.28                3083.57                3084.58
 Force Cnst:      6.0769                 5.9453                 6.1641
 Red. Mass:       1.1027                 1.0612                 1.0996
 IR Active:          YES                    YES                    YES
 IR Intens:       20.459                  6.316                  5.704
 Raman Active:       YES                    YES                    YES
               X      Y      Z        X      Y      Z        X      Y      Z
 C         -0.001 -0.001  0.002    0.001  0.001 -0.003   -0.002  0.000  0.002
 H          0.007  0.002 -0.029   -0.005 -0.001  0.038    0.006  0.003 -0.025
 C         -0.045 -0.081  0.005    0.000  0.000 -0.001    0.001  0.000  0.000
 H          0.093  0.774 -0.227    0.000 -0.004  0.001    0.000 -0.003  0.001
 H          0.439  0.206  0.285   -0.001  0.000  0.000   -0.002 -0.002 -0.001
 H          0.014 -0.014 -0.119   -0.004  0.000  0.012    0.001 -0.001 -0.001
 C          0.000  0.000 -0.001    0.006 -0.003 -0.002   -0.084  0.031  0.018
 H          0.007  0.006  0.005   -0.013 -0.007 -0.009    0.246  0.125  0.171
 H         -0.001  0.000  0.001   -0.058  0.039  0.014    0.742 -0.503 -0.186
 H         -0.001  0.001  0.001   -0.005 -0.004  0.025    0.025  0.018 -0.200
 C          0.000  0.000 -0.001   -0.006  0.008 -0.042    0.000  0.001 -0.004
 H          0.001 -0.004  0.014    0.037 -0.122  0.510    0.003 -0.012  0.053
 C          0.000  0.000  0.000    0.030  0.036 -0.027    0.002  0.003 -0.002
 H         -0.001 -0.001 -0.001   -0.374 -0.224 -0.313   -0.028 -0.017 -0.024
 H          0.001  0.000 -0.002    0.037 -0.170  0.626    0.003 -0.011  0.043
 O          0.000  0.000  0.000    0.000  0.000  0.000    0.000  0.000  0.000
 H          0.000  0.000  0.000   -0.002  0.000  0.001    0.001  0.000 -0.001
 TransDip  -0.080 -0.120  0.012    0.000  0.042 -0.069   -0.062  0.043  0.014

 Mode:                43                     44                     45
 Frequency:      3089.13                3179.76                3775.98
 Force Cnst:      6.1124                 6.6502                 8.9657
 Red. Mass:       1.0871                 1.1163                 1.0673
 IR Active:          YES                    YES                    YES
 IR Intens:        9.330                  5.074                 44.051
 Raman Active:       YES                    YES                    YES
               X      Y      Z        X      Y      Z        X      Y      Z
 C          0.002  0.001 -0.004    0.001  0.000  0.000    0.000  0.000  0.000
 H         -0.010 -0.003  0.050    0.002  0.002  0.006    0.000  0.000  0.000
 C          0.000  0.001 -0.001    0.000  0.000  0.000    0.000  0.000  0.000
 H         -0.001 -0.009  0.002    0.001  0.001 -0.001    0.000  0.000  0.000
 H         -0.003  0.000 -0.001    0.001  0.000  0.000    0.001  0.000  0.000
 H         -0.005  0.000  0.014   -0.001  0.000  0.001    0.000  0.000  0.000
 C          0.001 -0.001 -0.002    0.000  0.000  0.000    0.000  0.000  0.000
 H          0.002  0.000  0.002    0.001  0.000  0.001    0.000  0.001  0.000
 H         -0.009  0.006  0.002    0.001 -0.001  0.000   -0.001  0.001  0.001
 H         -0.004 -0.004  0.017    0.000 -0.001  0.000    0.000  0.000  0.000
 C          0.000  0.020 -0.070    0.000  0.003 -0.010    0.000  0.000  0.000
 H          0.055 -0.194  0.805    0.005 -0.025  0.099    0.000  0.000 -0.001
 C         -0.017 -0.025  0.030   -0.051 -0.017 -0.083    0.000  0.000  0.000
 H          0.173  0.104  0.144    0.569  0.348  0.454    0.000 -0.001 -0.001
 H         -0.028  0.129 -0.471    0.023 -0.158  0.551    0.001 -0.001  0.002
 O          0.000  0.000  0.000    0.000  0.000  0.000   -0.042 -0.035  0.031
 H          0.002  0.001 -0.001   -0.001 -0.001 -0.002    0.670  0.559 -0.484
 TransDip   0.043 -0.073 -0.049   -0.025 -0.028 -0.062    0.189 -0.059 -0.078

 STANDARD THERMODYNAMIC QUANTITIES AT   298.15 K  AND     1.00 ATM

   This Molecule has  0 Imaginary Frequencies
   Zero point vibrational energy:       91.399 kcal/mol

   Atom    1 Element C  Has Mass   12.00000
   Atom    2 Element H  Has Mass    1.00783
   Atom    3 Element C  Has Mass   12.00000
   Atom    4 Element H  Has Mass    1.00783
   Atom    5 Element H  Has Mass    1.00783
   Atom    6 Element H  Has Mass    1.00783
   Atom    7 Element C  Has Mass   12.00000
   Atom    8 Element H  Has Mass    1.00783
   Atom    9 Element H  Has Mass    1.00783
   Atom   10 Element H  Has Mass    1.00783
   Atom   11 Element C  Has Mass   12.00000
   Atom   12 Element H  Has Mass    1.00783
   Atom   13 Element C  Has Mass   12.00000
   Atom   14 Element H  Has Mass    1.00783
   Atom   15 Element H  Has Mass    1.00783
   Atom   16 Element O  Has Mass   15.99491
   Atom   17 Element H  Has Mass    1.00783
   Molecular Mass:    87.081040 amu
   Principal axes and moments of inertia in amu*Bohr^2:
                             1           2           3
    Eigenvalues --      408.40255   728.57430  1045.20735
          X               0.99885     0.04773    -0.00515
          Y              -0.04778     0.99882    -0.00880
          Z               0.00472     0.00904     0.99995
   Rotational Symmetry Number is   1
   The Molecule is an Asymmetric Top
   Translational Enthalpy:        0.889 kcal/mol
   Rotational Enthalpy:           0.889 kcal/mol
   Vibrational Enthalpy:         95.507 kcal/mol
   gas constant (RT):             0.592 kcal/mol
   Translational Entropy:        39.306  cal/mol.K
   Rotational Entropy:           27.233  cal/mol.K
   Vibrational Entropy:          26.018  cal/mol.K

   Total Enthalpy:               97.877 kcal/mol
   Total Entropy:                92.556  cal/mol.K
Archival summary:
1\1\node09\FREQ\ProcedureUnspecified\BasisUnspecified\1511(2)\edames\MonJun2323:29:252014MonJun2323:29:252014\0\\#,FREQ,ProcedureUnspecified,BasisUnspecified,\\0,2\C\H,1,1.10055\C,1,1.50622,2,107.986\H,3,1.09293,1,116.237,2,162.655,0\C,3,1.34718,1,124.438,2,-23.9689,0\H,5,1.08756,3,121.508,1,-174.384,0\H,5,1.09052,3,120.68,1,5.36755,0\C,1,1.53264,2,109.438,3,121.607,0\H,8,1.09425,1,110.968,2,-59.6959,0\H,8,1.09761,1,110.379,2,61.6066,0\H,8,1.09996,1,110.03,2,-179.626,0\C,1,1.54016,2,108.908,3,-117.826,0\H,12,1.09679,1,111.443,2,57.8431,0\H,12,1.09774,1,110.316,2,-63.0367,0\H,12,1.09934,1,110.321,2,177.909,0\O,3,2.31466,1,100.125,2,66.9364,0\H,16,0.973757,3,102.244,1,-118.261,0\\\@

 Total job time:  107053.69s(wall), 106312.49s(cpu) 
 Mon Jun 23 23:29:25 2014

        *************************************************************
        *                                                           *
        *  Thank you very much for using Q-Chem.  Have a nice day.  *
        *                                                           *
        *************************************************************


0 sent ACK to 0 
now end server 0 ... 
cleanup process ... done
remove work dirs /scratch/edames/qchem21516.0 -- /scratch/edames/qchem21516.7
rm -rf /scratch/edames/qchem21516.0
rm -rf /scratch/edames/qchem21516.1
rm -rf /scratch/edames/qchem21516.2
rm -rf /scratch/edames/qchem21516.3
rm -rf /scratch/edames/qchem21516.4
rm -rf /scratch/edames/qchem21516.5
rm -rf /scratch/edames/qchem21516.6
rm -rf /scratch/edames/qchem21516.7
rm -rf /scratch/edames/qchem21516
