
Running Job 1 of 2 iC5H11O-2_betasc_CH2CHOHm08aaron.in
qchem iC5H11O-2_betasc_CH2CHOHm08aaron.in_27899.0 /scratch/edames/qchem27899/ 8
/opt/qchem/bin/mpi/mpirun_qchem -machinefile /tmp/319464.1.normal2/hostfile -np 8 /opt/qchem/exe/qcprog.exe iC5H11O-2_betasc_CH2CHOHm08aaron.in_27899.0 /scratch/edames/qchem27899/

Process 4 of 8 is on node54.cluster - thread support 0
Process 1 of 8 is on node54.cluster - thread support 0
Process 2 of 8 is on node54.cluster - thread support 0
Process 6 of 8 is on node54.cluster - thread support 0
Process 3 of 8 is on node54.cluster - thread support 0
Process 7 of 8 is on node54.cluster - thread support 0
Process 0 of 8 is on node54.cluster - thread support 0
Process 5 of 8 is on node54.cluster - thread support 0
initial socket setup ...start
initial socket setup ...done 
now start server 0 ... 
set process cleaner
set process cleaner
set process cleaner
set process cleaner
set process cleaner
set process cleaner
                  Welcome to Q-Chem
     A Quantum Leap Into The Future Of Chemistry


 Q-Chem 4.2, Q-Chem, Inc., Pleasanton, CA (2014).

 Y. Shao,  Z. Gan,  E. Epifanovsky,  A. T. B. Gilbert,  M. Wormit,  
 J. Kussmann,  A. W. Lange,  A. Behn,  J. Deng,  X. Feng,  D. Ghosh,  
 M. Goldey,  P. R. Horn,  L. D. Jacobson,  I. Kaliman,  R. Z. Khaliullin,  
 T. Kus,  A. Landau,  J. Liu,  E. I. Proynov,  Y. M. Rhee,  R. M. Richard,  
 M. A. Rohrdanz,  R. P. Steele,  E. J. Sundstrom,  H. L. Woodcock III,  
 P. M. Zimmerman,  D. Zuev,  B. Albrecht,  E. Alguire,  B. Austin,  
 G. J. O. Beran,  Y. A. Bernard,  E. Berquist,  K. Brandhorst,  
 K. B. Bravaya,  S. T. Brown,  D. Casanova,  C.-M. Chang,  Y. Chen,  
 S. H. Chien,  K. D. Closser,  D. L. Crittenden,  M. Diedenhofen,  
 R. A. DiStasio Jr.,  H. Do,  A. D. Dutoi,  R. G. Edgar,  S. Fatehi,  
 L. Fusti-Molnar,  A. Ghysels,  A. Golubeva-Zadorozhnaya,  J. Gomes,  
 M. W. D. Hanson-Heine,  P. H. P. Harbach,  A. W. Hauser,  E. G. Hohenstein,  
 Z. C. Holden,  T.-C. Jagau,  H. Ji,  B. Kaduk,  K. Khistyaev,  Jaehoon Kim,  
 Jihan Kim,  R. A. King,  P. Klunzinger,  D. Kosenkov,  T. Kowalczyk,  
 C. M. Krauter,  K. U. Lao,  A. Laurent,  K. V. Lawler,  S. V. Levchenko,  
 C. Y. Lin,  F. Liu,  E. Livshits,  R. C. Lochan,  A. Luenser,  P. Manohar,  
 S. F. Manzer,  S.-P. Mao,  N. Mardirossian,  A. V. Marenich,  S. A. Maurer,  
 N. J. Mayhall,  C. M. Oana,  R. Olivares-Amaya,  D. P. O'Neill,  
 J. A. Parkhill,  T. M. Perrine,  R. Peverati,  P. A. Pieniazek,  A. Prociuk,  
 D. R. Rehn,  E. Rosta,  N. J. Russ,  N. Sergueev,  S. M. Sharada,  
 S. Sharma,  D. W. Small,  A. Sodt,  T. Stein,  D. Stuck,  Y.-C. Su,  
 A. J. W. Thom,  T. Tsuchimochi,  L. Vogt,  O. Vydrov,  T. Wang,  
 M. A. Watson,  J. Wenzel,  A. White,  C. F. Williams,  V. Vanovschi,  
 S. Yeganeh,  S. R. Yost,  Z.-Q. You,  I. Y. Zhang,  X. Zhang,  Y. Zhao,  
 B. R. Brooks,  G. K. L. Chan,  D. M. Chipman,  C. J. Cramer,  
 W. A. Goddard III,  M. S. Gordon,  W. J. Hehre,  A. Klamt,  
 H. F. Schaefer III,  M. W. Schmidt,  C. D. Sherrill,  D. G. Truhlar,  
 A. Warshel,  X. Xu,  A. Aspuru-Guzik,  R. Baer,  A. T. Bell,  N. A. Besley,  
 J.-D. Chai,  A. Dreuw,  B. D. Dunietz,  T. R. Furlani,  S. R. Gwaltney,  
 C.-P. Hsu,  Y. Jung,  J. Kong,  D. S. Lambrecht,  W. Liang,  C. Ochsenfeld,  
 V. A. Rassolov,  L. V. Slipchenko,  J. E. Subotnik,  T. Van Voorhis,  
 J. M. Herbert,  A. I. Krylov,  P. M. W. Gill,  M. Head-Gordon

 Contributors to earlier versions of Q-Chem not listed above: 
 R. D. Adamson,  J. Baker,  E. F. C. Byrd,  A. K. Chakraborty,  C.-L. Cheng,  
 H. Dachsel,  R. J. Doerksen,  G. Hawkins,  A. Heyden,  S. Hirata,  
 G. Kedziora,  F. J. Keil,  C. Kelley,  P. P. Korambath,  W. Kurlancheek,  
 A. M. Lee,  M. S. Lee,  D. Liotard,  I. Lotan,  P. E. Maslen,  N. Nair,  
 D. Neuhauser,  R. Olson,  B. Peters,  J. Ritchie,  N. E. Schultz,  
 N. Shenvi,  A. C. Simmonett,  K. S. Thanthiriwatte,  Q. Wu,  W. Zhang

 Q-Chem 4.2.0 for Intel X86 Linux

 Parts of Q-Chem use Armadillo 4.100.2 (Dirt Cruiser).
 http://arma.sourceforge.net/

 Q-Chem begins on Tue Jul  8 13:45:44 2014  

Host: 
0

     Scratch files written to /scratch/edames/qchem27899.0//
 May2514 8580_ilyak 4150   
 Parallel job on  8  processors
Processing $rem in /opt/qchem/config/preferences.
 MEM_TOTAL  2000 

 Q-Chem warning in module /home/scratch/svnadmin/8580_ilyak/qchem/forms1/BasisType.C, line 1209:

 Setting pure/cartesian flag to 2111 for general basis


Finally everything over in PARseQInput

--------------------------------------------------------------
User input:
--------------------------------------------------------------
$rem
XC_GRID 000075000434
JOBTYPE ts
EXCHANGE M08SO
incdft false
varthresh false
BASIS gen
GUI=2
UNRESTRICTED TRUE
CORRELATION NONE
$end

$comment
c5h11o-2
$end

$molecule
0 2
C  1.837057 -0.904513 -0.635932
C  1.350720  0.035401  0.425752
C  1.137242  1.469540  0.039745
C -0.748339 -0.704779  0.928915
C -1.576184 -0.610742 -0.147853
O -2.240165  0.519606 -0.537128
H  1.760924 -0.126565  1.420944
H  1.172936 -0.892245 -1.507847
H  2.839468 -0.626314 -0.997275
H  1.899447 -1.934561 -0.273627
H  0.454556  1.552571 -0.813427
H  0.726452  2.059356  0.865491
H  2.078605  1.955791 -0.261387
H -0.802271  0.035730  1.721247
H -0.394763 -1.685691  1.217724
H -1.699394 -1.403357 -0.874575
H -2.117612  1.198985  0.136001
$end

$basis
H  0
S  3 1.00
3.386500000000E+01 2.549380000000E-02
5.094790000000E+00 1.903730000000E-01
1.158790000000E+00 8.521610000000E-01
S  1 1.00
3.258400000000E-01 1.000000000000E+00
S  1 1.00
1.027410000000E-01 1.000000000000E+00
S  1 1.00
3.600000000000E-02 1.000000000000E+00
P  1 1.00
1.500000000000E+00 1.000000000000E+00
P  1 1.00
3.750000000000E-01 1.000000000000E+00
****
C 0
S  6 1.00
4.563240000000E+03 1.966650000000E-03
6.820240000000E+02 1.523060000000E-02
1.549730000000E+02 7.612690000000E-02
4.445530000000E+01 2.608010000000E-01
1.302900000000E+01 6.164620000000E-01
1.827730000000E+00 2.210060000000E-01
S  3 1.00
2.096420000000E+01 1.146600000000E-01
4.803310000000E+00 9.199990000000E-01
1.459330000000E+00 -3.030680000000E-03
S  1 1.00
4.834560000000E-01 1.000000000000E+00
S  1 1.00
1.455850000000E-01 1.000000000000E+00
S  1 1.00
4.380000000000E-02 1.000000000000E+00
P  3 1.00
2.096420000000E+01 4.024870000000E-02
4.803310000000E+00 2.375940000000E-01
1.459330000000E+00 8.158540000000E-01
P  1 1.00
4.834560000000E-01 1.000000000000E+00
P  1 1.00
1.455850000000E-01 1.000000000000E+00
P  1 1.00
4.380000000000E-02 1.000000000000E+00
D  1 1.00
1.252000000000E+00 1.000000000000E+00
D  1 1.00
3.130000000000E-01 1.000000000000E+00
F  1 1.00
8.000000000000E-01 1.000000000000E+00
****
O  0
S  6 1.00
8.588500000000E+03 1.895150000000E-03
1.297230000000E+03 1.438590000000E-02
2.992960000000E+02 7.073200000000E-02
8.737710000000E+01 2.400010000000E-01
2.567890000000E+01 5.947970000000E-01
3.740040000000E+00 2.808020000000E-01
S  3 1.00
4.211750000000E+01 1.138890000000E-01
9.628370000000E+00 9.208110000000E-01
2.853320000000E+00 -3.274470000000E-03
S  1 1.00
9.056610000000E-01 1.000000000000E+00
S  1 1.00
2.556110000000E-01 1.000000000000E+00
S  1 1.00
8.450000000000E-02 1.000000000000E+00
P  3 1.00
4.211750000000E+01 3.651140000000E-02
9.628370000000E+00 2.371530000000E-01
2.853320000000E+00 8.197020000000E-01
P  1 1.00
9.056610000000E-01 1.000000000000E+00
P  1 1.00
2.556110000000E-01 1.000000000000E+00
P  1 1.00
8.450000000000E-02 1.000000000000E+00
D  1 1.00
2.584000000000E+00 1.000000000000E+00
D  1 1.00
6.460000000000E-01 1.000000000000E+00
F  1 1.00
1.400000000000E+00 1.000000000000E+00
****
$end

--------------------------------------------------------------
 ----------------------------------------------------------------
             Standard Nuclear Orientation (Angstroms)
    I     Atom           X                Y                Z
 ----------------------------------------------------------------
    1      C      -1.8370568055    -0.9045129439     0.6359322583
    2      C      -1.3507199575     0.0354011383    -0.4257517385
    3      C      -1.1372420157     1.4695401334    -0.0397446879
    4      C       0.7483390462    -0.7047787034    -0.9289149559
    5      C       1.5761841334    -0.6107417024     0.1478529770
    6      O       2.2401650950     0.5196063213     0.5371279739
    7      H      -1.7609240333    -0.1265648399    -1.4209437108
    8      H      -1.1729357308    -0.8922449435     1.5078472014
    9      H      -2.8394677920    -0.6263140253     0.9972753585
   10      H      -1.8994467711    -1.9345609304     0.2736272141
   11      H      -0.4545559471     1.5525711359     0.8134272570
   12      H      -0.7264521248     2.0593561994    -0.8654906950
   13      H      -2.0786050206     1.9557910587     0.2613874171
   14      H       0.8022709303     0.0357303382    -1.7212469249
   15      H       0.3947630839    -1.6856907120    -1.2177239725
   16      H       1.6993942470    -1.4033567295     0.8745749281
   17      H       2.1176119933     1.1989853459    -0.1360009827
 ----------------------------------------------------------------
 Molecular Point Group                 C1    NOp =  1
 Largest Abelian Subgroup              C1    NOp =  1
 Nuclear Repulsion Energy =   238.9180991451 hartrees
 There are       25 alpha and       24 beta electrons
 Requested basis set is non-standard
 There are 138 shells and 314 basis functions

Total QAlloc Memory Limit   2000 MB
Mega-Array Size        61 MB
MEM_STATIC part        62 MB
 A cutoff of  1.0D-11 yielded   8970 shell pairs
 There are     46338 function pairs (     55713 Cartesian)
 Smallest overlap matrix eigenvalue = 2.91E-05

  Scale SEOQF with 1.000000e-01/1.000000e-01/1.000000e-01

 Standard Electronic Orientation quadrupole field applied
 Nucleus-field energy     =     0.0000000054 hartrees
 Guess MOs from core Hamiltonian diagonalization
 An unrestricted hybrid HF-DFT SCF calculation will be
 performed using Pulay DIIS extrapolation
 Exchange:     0.5679 Hartree-Fock + 1.0000 M08SO
 SCF converges when DIIS error is below 1.0E-08
 ---------------------------------------
  Cycle       Energy         DIIS Error
 ---------------------------------------
    1    -193.5501519354      9.10E-02
    2    -175.6936384519      4.84E-02
    3    -166.5306381940      6.27E-02
    4    -248.4808015606      3.21E-02
    5    -268.3153527755      1.62E-02
    6    -270.8551729773      9.56E-03
    7    -271.9080596625      4.89E-03
    8    -272.1526336778      7.87E-04
    9    -272.1625752940      3.73E-04
   10    -272.1654298308      9.10E-05
   11    -272.1659961178      3.68E-05
   12    -272.1661030701      1.54E-05
   13    -272.1661420602      5.88E-06
   14    -272.1661555508      2.46E-06
   15    -272.1661587063      1.54E-06
   16    -272.1661593289      5.62E-07
   17    -272.1661595349      3.12E-07
   18    -272.1661596150      1.60E-07
   19    -272.1661596320      5.07E-08
   20    -272.1661596320      2.71E-08
   21    -272.1661596317      8.53E-09 Convergence criterion met
 ---------------------------------------
 <S^2> = 0.7787
 SCF time:  CPU 1284.31 s  wall 1303.80 s
 SCF   energy in the final basis set = -272.1661596317
 Total energy in the final basis set = -272.1661596317
 Analysis of SCF Wavefunction
 
 --------------------------------------------------------------
                    Orbital Energies (a.u.)
 --------------------------------------------------------------
 
 Alpha MOs
 -- Occupied --
-19.595 -10.552 -10.507 -10.494 -10.486 -10.483  -1.173  -0.884
 -0.843  -0.781  -0.711  -0.653  -0.574  -0.567  -0.530  -0.512
 -0.485  -0.482  -0.459  -0.450  -0.446  -0.416  -0.408  -0.333
 -0.211
 -- Virtual --
 -0.027  -0.014  -0.008  -0.006   0.011   0.016   0.019   0.020
  0.026   0.050   0.054   0.058   0.067   0.069   0.080   0.087
  0.089   0.103   0.110   0.117   0.123   0.129   0.131   0.134
  0.137   0.139   0.143   0.150   0.154   0.162   0.173   0.189
  0.210   0.213   0.219   0.224   0.231   0.242   0.246   0.261
  0.281   0.292   0.300   0.305   0.314   0.327   0.333   0.352
  0.370   0.378   0.400   0.427   0.437   0.467   0.477   0.492
  0.500   0.516   0.528   0.532   0.553   0.558   0.562   0.572
  0.580   0.585   0.591   0.605   0.609   0.613   0.638   0.643
  0.652   0.660   0.671   0.694   0.701   0.707   0.711   0.723
  0.739   0.752   0.780   0.793   0.801   0.811   0.856   0.878
  0.883   0.905   0.928   0.953   0.961   0.987   1.008   1.029
  1.044   1.052   1.066   1.083   1.101   1.120   1.139   1.146
  1.152   1.164   1.185   1.193   1.207   1.217   1.238   1.246
  1.260   1.271   1.283   1.297   1.328   1.333   1.344   1.360
  1.367   1.379   1.390   1.396   1.398   1.441   1.464   1.470
  1.483   1.488   1.505   1.519   1.531   1.539   1.563   1.569
  1.601   1.607   1.628   1.644   1.686   1.704   1.741   1.833
  1.907   1.994   2.233   2.252   2.334   2.343   2.436   2.453
  2.467   2.494   2.538   2.576   2.619   2.634   2.674   2.690
  2.712   2.747   2.760   2.784   2.804   2.825   2.830   2.878
  2.897   2.918   2.932   2.954   2.964   2.985   2.990   3.006
  3.031   3.054   3.082   3.091   3.118   3.131   3.166   3.198
  3.210   3.219   3.222   3.240   3.262   3.285   3.294   3.326
  3.341   3.347   3.363   3.369   3.389   3.413   3.436   3.456
  3.483   3.510   3.522   3.538   3.545   3.567   3.584   3.594
  3.634   3.662   3.684   3.714   3.735   3.752   3.755   3.767
  3.827   3.832   3.871   3.878   3.896   3.908   3.975   3.988
  4.003   4.024   4.028   4.052   4.079   4.088   4.145   4.156
  4.169   4.198   4.210   4.215   4.224   4.252   4.274   4.282
  4.309   4.350   4.372   4.392   4.433   4.441   4.465   4.495
  4.517   4.523   4.532   4.541   4.593   4.628   4.768   4.812
  4.912   5.026   5.125   5.130   5.158   5.170   5.199   5.362
  5.401   5.447   5.501   5.540   5.608   5.619   5.628   5.635
  5.665   5.753   5.840   6.194   6.665   6.910   7.102   7.132
  7.250   7.482   7.571  23.988  23.995  24.180  24.291  24.604
 49.801
 
 Beta MOs
 -- Occupied --
-19.593 -10.546 -10.498 -10.492 -10.487 -10.484  -1.168  -0.878
 -0.840  -0.780  -0.707  -0.641  -0.571  -0.564  -0.522  -0.496
 -0.479  -0.466  -0.456  -0.447  -0.444  -0.418  -0.408  -0.305
 -- Virtual --
 -0.033  -0.022  -0.019  -0.013  -0.010   0.006   0.013   0.015
  0.017   0.023   0.045   0.051   0.056   0.065   0.071   0.078
  0.083   0.091   0.104   0.109   0.114   0.119   0.124   0.129
  0.133   0.135   0.137   0.139   0.148   0.153   0.158   0.176
  0.190   0.209   0.213   0.219   0.225   0.231   0.242   0.247
  0.264   0.281   0.291   0.301   0.306   0.317   0.338   0.345
  0.352   0.374   0.380   0.403   0.428   0.438   0.465   0.483
  0.495   0.500   0.518   0.533   0.542   0.553   0.563   0.566
  0.575   0.580   0.593   0.595   0.608   0.622   0.623   0.648
  0.657   0.658   0.666   0.682   0.698   0.703   0.707   0.712
  0.727   0.747   0.753   0.786   0.796   0.807   0.814   0.863
  0.882   0.887   0.910   0.931   0.959   0.965   0.992   1.012
  1.034   1.050   1.054   1.070   1.086   1.105   1.123   1.143
  1.152   1.159   1.168   1.189   1.198   1.213   1.225   1.251
  1.259   1.267   1.279   1.295   1.312   1.337   1.342   1.356
  1.374   1.386   1.394   1.398   1.400   1.402   1.449   1.470
  1.473   1.485   1.490   1.513   1.527   1.541   1.548   1.572
  1.573   1.605   1.609   1.638   1.655   1.699   1.718   1.752
  1.838   1.913   2.002   2.237   2.256   2.344   2.350   2.442
  2.464   2.488   2.511   2.546   2.584   2.636   2.638   2.704
  2.729   2.754   2.785   2.813   2.837   2.864   2.880   2.889
  2.899   2.927   2.937   2.946   2.960   2.978   3.005   3.014
  3.033   3.057   3.083   3.101   3.128   3.134   3.149   3.176
  3.203   3.217   3.232   3.253   3.267   3.280   3.300   3.318
  3.339   3.358   3.369   3.380   3.393   3.407   3.426   3.441
  3.480   3.497   3.530   3.533   3.559   3.566   3.592   3.598
  3.616   3.649   3.685   3.736   3.745   3.758   3.773   3.779
  3.810   3.840   3.854   3.876   3.891   3.904   3.915   3.980
  3.986   4.002   4.032   4.050   4.070   4.089   4.113   4.165
  4.169   4.190   4.206   4.215   4.219   4.242   4.275   4.291
  4.308   4.319   4.362   4.376   4.400   4.450   4.472   4.493
  4.509   4.533   4.555   4.575   4.598   4.639   4.737   4.868
  4.895   4.952   5.033   5.130   5.144   5.170   5.191   5.230
  5.363   5.499   5.526   5.545   5.550   5.599   5.616   5.639
  5.641   5.678   5.755   5.837   6.190   6.665   6.911   7.104
  7.139   7.250   7.477   7.562  23.993  23.999  24.185  24.312
 24.611  49.804
 --------------------------------------------------------------
 
          Ground-State Mulliken Net Atomic Charges

     Atom                 Charge (a.u.)    Spin (a.u.)
  --------------------------------------------------------
      1 C                    -0.684464      -0.016457
      2 C                    -0.023401       0.726609
      3 C                    -0.759025      -0.034177
      4 C                    -0.472820      -0.196464
      5 C                    -0.219137       0.407411
      6 O                    -0.266355       0.030898
      7 H                     0.257594      -0.035625
      8 H                     0.215226       0.012829
      9 H                     0.187480       0.034144
     10 H                     0.183360       0.004298
     11 H                     0.231861       0.010867
     12 H                     0.200135       0.005826
     13 H                     0.193007       0.039401
     14 H                     0.233209       0.017729
     15 H                     0.220834       0.013661
     16 H                     0.221580      -0.019835
     17 H                     0.280917      -0.001114
  --------------------------------------------------------
  Sum of atomic charges =     0.000000
  Sum of spin   charges =     1.000000

 -----------------------------------------------------------------
                    Cartesian Multipole Moments
 -----------------------------------------------------------------
    Charge (ESU x 10^10)
                 0.0000
    Dipole Moment (Debye)
         X      -0.8027      Y       0.2865      Z      -1.0636
       Tot       1.3630
    Quadrupole Moments (Debye-Ang)
        XX     -44.1981     XY       1.1330     YY     -37.8041
        XZ      -1.7958     YZ      -2.0608     ZZ     -40.5403
    Octopole Moments (Debye-Ang^2)
       XXX      -3.4027    XXY       4.0748    XYY       7.3942
       YYY       2.6805    XXZ      -3.1993    XYZ      -6.0841
       YYZ      -0.5819    XZZ       1.7916    YZZ       0.3797
       ZZZ       0.2436
    Hexadecapole Moments (Debye-Ang^3)
      XXXX    -692.4977   XXXY       9.5338   XXYY    -147.4564
      XYYY      15.4695   YYYY    -271.2893   XXXZ      -9.0197
      XXYZ     -10.0163   XYYZ       3.6981   YYYZ      -0.6097
      XXZZ    -141.8698   XYZZ       1.4740   YYZZ     -72.1662
      XZZZ       8.0590   YZZZ      -2.6403   ZZZZ    -158.3051
 -----------------------------------------------------------------
 Calculating analytic gradient of the SCF energy
 Gradient of Coulomb and Exchange Energy
            1           2           3           4           5           6
    1   3.2625029   2.1568071   2.3592552  -0.1161985  -3.2961376  -9.0290933
    2   2.1343888  -0.3064761  -3.2275364   2.0573356   3.9893236  -4.1756947
    3  -1.3548691   0.7895122   0.5631832   4.9659955  -1.5746409  -6.5408437
            7           8           9          10          11          12
    1   1.7131141  -1.6252112   3.5669953   0.5579889  -1.9842929  -1.3780210
    2   0.7346338   0.5676534  -0.4859806   3.8171295  -1.2035112  -2.6462277
    3   4.1949998  -3.3203363  -1.5822348   0.7408473  -2.7740746   2.5123930
           13          14          15          16          17
    1   3.2850055  -0.0987904   1.5740561  -0.7994468  -0.1485337
    2  -2.1743017  -2.8635154   4.2981344   3.5784651  -4.0938205
    3  -1.1227813   3.5478283   1.5483677  -3.2814721   2.6881259
 Gradient of SCF Energy
            1           2           3           4           5           6
    1  -0.0017080   0.0036979  -0.0009845  -0.0066216   0.0038394   0.0026159
    2  -0.0007949  -0.0015268   0.0022294  -0.0001871  -0.0035211   0.0027164
    3   0.0012174  -0.0016364   0.0008345  -0.0045666  -0.0003667   0.0040079
            7           8           9          10          11          12
    1  -0.0001883  -0.0024921   0.0016142  -0.0002685  -0.0023192  -0.0013003
    2   0.0009783  -0.0005072  -0.0010726   0.0023435   0.0006616  -0.0010646
    3   0.0033461  -0.0020372  -0.0003549   0.0010678  -0.0027473   0.0020807
           13          14          15          16          17
    1   0.0018266   0.0008837   0.0022173  -0.0000797  -0.0007328
    2  -0.0002695  -0.0037575   0.0028190   0.0033082  -0.0023552
    3  -0.0005575   0.0015408  -0.0004359  -0.0011775  -0.0002154
 Max gradient component =       6.622E-03
 RMS gradient           =       2.254E-03
 Gradient time:  CPU 62.90 s  wall 63.33 s
 Geometry Optimization Parameters
   NAtoms,    NIC,     NZ,  NCons,   NDum,   NFix, NCnnct, MaxDiis
       17     113       0       0       0       0       0       0


** GEOMETRY OPTIMIZATION IN DELOCALIZED INTERNAL COORDINATES **
   Searching for a Transition State

   Optimization Cycle:   1

                       Coordinates (Angstroms)
     ATOM                X               Y               Z
      1  C        -1.8370568055   -0.9045129439    0.6359322583
      2  C        -1.3507199575    0.0354011383   -0.4257517385
      3  C        -1.1372420157    1.4695401334   -0.0397446879
      4  C         0.7483390462   -0.7047787034   -0.9289149559
      5  C         1.5761841334   -0.6107417024    0.1478529770
      6  O         2.2401650950    0.5196063213    0.5371279739
      7  H        -1.7609240333   -0.1265648399   -1.4209437108
      8  H        -1.1729357308   -0.8922449435    1.5078472014
      9  H        -2.8394677920   -0.6263140253    0.9972753585
     10  H        -1.8994467711   -1.9345609304    0.2736272141
     11  H        -0.4545559471    1.5525711359    0.8134272570
     12  H        -0.7264521248    2.0593561994   -0.8654906950
     13  H        -2.0786050206    1.9557910587    0.2613874171
     14  H         0.8022709303    0.0357303382   -1.7212469249
     15  H         0.3947630839   -1.6856907120   -1.2177239725
     16  H         1.6993942470   -1.4033567295    0.8745749281
     17  H         2.1176119933    1.1989853459   -0.1360009827
   Point Group: c1    Number of degrees of freedom:    45


   Energy is   -272.166159632


 Attempting to Generate Delocalized Internal Coordinates
 GETINT wrote B to file, NVib is           45
 calling HSSCONV
 HCONV 3*NATOMS:           51
 wrote HINT to file
  writing hessian 

 45 Hessian modes will be used to form the next step
  Hessian Eigenvalues:
     0.002000    0.009120    0.009305    0.019943    0.026156    0.027504
     0.032587    0.049662    0.051592    0.055842    0.057249    0.057429
     0.057818    0.058262    0.058537    0.066394    0.091962    0.121225
     0.144086    0.159597    0.160000    0.160000    0.160000    0.160000
     0.160000    0.160000    0.160000    0.167753    0.220158    0.220887
     0.323309    0.324777    0.335176    0.335423    0.341167    0.341468
     0.342689    0.343897    0.349825    0.352976    0.357084    0.357598
     0.514574    0.526516    0.545802
**WARNING** Hessian does not have the Desired Local Structure

 Transition State Search - Taking P-RFO Step
 Searching for Lamda that Maximizes Along the Lowest mode
 Value Taken    Lamda =   0.00200351
 Searching for Lamda that Minimizes Along All other modes
 Value Taken    Lamda =  -0.00133995
 Calculated Step too Large.  Step scaled by  0.012552
 Step Taken.  Stepsize is  0.300000

                             Maximum     Tolerance    Cnvgd?
         Gradient           0.006886      0.000300      NO
         Displacement       0.128667      0.001200      NO
         Energy change     *********      0.000001      NO


 New Cartesian Coordinates Obtained by Inverse Iteration

 Displacement from previous Coordinates is:  0.592535
 ----------------------------------------------------------------
             Standard Nuclear Orientation (Angstroms)
    I     Atom           X                Y                Z
 ----------------------------------------------------------------
    1      C      -1.7999582822    -0.8887637180     0.6683064632
    2      C      -1.3538159746     0.0316022229    -0.4275794515
    3      C      -1.1634450820     1.4798164257    -0.0845018682
    4      C       0.7506688227    -0.6781202194    -0.9501425683
    5      C       1.5641062353    -0.6554240889     0.1412899667
    6      O       2.2238159760     0.4462626697     0.6114826577
    7      H      -1.7787018609    -0.1661451533    -1.4101293949
    8      H      -1.1199614048    -0.8386048180     1.5265982305
    9      H      -2.8011884466    -0.6217130143     1.0412593862
   10      H      -1.8469894778    -1.9295002740     0.3352613893
   11      H      -0.4669098203     1.6000197116     0.7529923956
   12      H      -0.7804696766     2.0551709436    -0.9335577479
   13      H      -2.1091287115     1.9546669823     0.2213804845
   14      H       0.8156169074     0.1122211781    -1.6919935671
   15      H       0.3998722613    -1.6376697108    -1.3064404159
   16      H       1.6770084657    -1.4937312048     0.8166916722
   17      H       2.1108023995     1.1681282084    -0.0176827148
 ----------------------------------------------------------------
 Molecular Point Group                 C1    NOp =  1
 Largest Abelian Subgroup              C1    NOp =  1
 Nuclear Repulsion Energy =   238.9425243344 hartrees
 There are       25 alpha and       24 beta electrons
 Applying Cartesian multipole field
    Component          Value
    ---------          -----
     (2,0,0)        1.00000E-11
     (0,2,0)        2.00000E-11
     (0,0,2)       -3.00000E-11
 Nucleus-field energy     =     0.0000000052 hartrees
 Requested basis set is non-standard
 There are 138 shells and 314 basis functions
 A cutoff of  1.0D-11 yielded   8968 shell pairs
 There are     46344 function pairs (     55713 Cartesian)
 Smallest overlap matrix eigenvalue = 2.94E-05
 Guess MOs from SCF MO coefficient file
Reading MOs from coefficient file
Reading MOs from coefficient file
 An unrestricted hybrid HF-DFT SCF calculation will be
 performed using Pulay DIIS extrapolation
 Exchange:     0.5679 Hartree-Fock + 1.0000 M08SO
 SCF converges when DIIS error is below 1.0E-08
Geometry optimization detected.  Setting ReadMinima to 0
Setting SaveMinima to 0
 Inaccurate integrated density:
   Number of electrons =    49
   Numerical integral  =    48.976415948843
   Relative error      =    -0.0481307166 %
 ---------------------------------------
  Cycle       Energy         DIIS Error
 ---------------------------------------
    1    -272.1503364672      9.26E-04
    2    -272.1657837805      1.34E-04
    3    -272.1659645228      1.22E-04
    4    -272.1661109842      2.91E-05
    5    -272.1661205076      1.15E-05
    6    -272.1661223290      2.70E-06
    7    -272.1661224745      5.83E-07
    8    -272.1661224931      2.04E-07
    9    -272.1661224956      1.13E-07
   10    -272.1661224961      2.83E-08
   11    -272.1661224962      1.10E-08
   12    -272.1661224969      6.59E-09 Convergence criterion met
 ---------------------------------------
 <S^2> = 0.7787
 SCF time:  CPU 722.10 s  wall 726.66 s
 SCF   energy in the final basis set = -272.1661224969
 Total energy in the final basis set = -272.1661224969
 Analysis of SCF Wavefunction
 
 --------------------------------------------------------------
                    Orbital Energies (a.u.)
 --------------------------------------------------------------
 
 Alpha MOs
 -- Occupied --
-19.596 -10.552 -10.507 -10.494 -10.487 -10.483  -1.173  -0.884
 -0.843  -0.781  -0.711  -0.653  -0.574  -0.567  -0.530  -0.512
 -0.486  -0.482  -0.459  -0.451  -0.446  -0.416  -0.408  -0.333
 -0.211
 -- Virtual --
 -0.027  -0.014  -0.008  -0.006   0.011   0.016   0.019   0.019
  0.026   0.050   0.054   0.058   0.068   0.070   0.080   0.085
  0.089   0.103   0.111   0.118   0.123   0.129   0.131   0.133
  0.137   0.139   0.143   0.150   0.154   0.162   0.172   0.188
  0.210   0.211   0.220   0.222   0.231   0.242   0.250   0.261
  0.281   0.291   0.301   0.304   0.312   0.326   0.333   0.353
  0.372   0.379   0.401   0.427   0.437   0.467   0.478   0.493
  0.499   0.515   0.530   0.531   0.551   0.557   0.565   0.571
  0.579   0.582   0.590   0.607   0.610   0.613   0.638   0.644
  0.651   0.660   0.671   0.691   0.698   0.705   0.711   0.726
  0.735   0.754   0.782   0.795   0.801   0.809   0.856   0.875
  0.880   0.905   0.928   0.953   0.956   0.986   1.008   1.034
  1.045   1.052   1.068   1.085   1.102   1.117   1.138   1.149
  1.153   1.166   1.182   1.194   1.210   1.217   1.238   1.243
  1.255   1.271   1.279   1.302   1.327   1.331   1.346   1.358
  1.366   1.380   1.386   1.399   1.400   1.443   1.463   1.471
  1.482   1.486   1.503   1.519   1.528   1.543   1.562   1.569
  1.600   1.610   1.626   1.645   1.683   1.706   1.740   1.833
  1.906   1.994   2.235   2.252   2.332   2.344   2.435   2.450
  2.467   2.497   2.537   2.578   2.619   2.635   2.678   2.685
  2.709   2.746   2.759   2.784   2.806   2.825   2.830   2.877
  2.899   2.915   2.933   2.956   2.962   2.986   2.991   3.008
  3.031   3.053   3.078   3.095   3.117   3.130   3.169   3.196
  3.212   3.219   3.224   3.241   3.253   3.285   3.296   3.322
  3.339   3.350   3.366   3.368   3.388   3.412   3.438   3.456
  3.488   3.509   3.520   3.540   3.545   3.571   3.584   3.593
  3.631   3.663   3.684   3.718   3.728   3.749   3.756   3.766
  3.830   3.831   3.867   3.877   3.895   3.909   3.972   3.987
  4.007   4.023   4.028   4.048   4.075   4.091   4.145   4.155
  4.171   4.199   4.209   4.214   4.226   4.248   4.276   4.282
  4.312   4.352   4.369   4.390   4.432   4.441   4.469   4.491
  4.519   4.522   4.531   4.542   4.592   4.627   4.769   4.812
  4.912   5.025   5.125   5.131   5.156   5.171   5.201   5.360
  5.401   5.447   5.501   5.540   5.608   5.619   5.627   5.634
  5.664   5.753   5.841   6.194   6.664   6.909   7.102   7.132
  7.250   7.480   7.570  23.988  23.996  24.179  24.291  24.604
 49.802
 
 Beta MOs
 -- Occupied --
-19.593 -10.546 -10.498 -10.493 -10.487 -10.484  -1.168  -0.878
 -0.840  -0.780  -0.707  -0.641  -0.571  -0.564  -0.522  -0.496
 -0.479  -0.466  -0.456  -0.447  -0.443  -0.418  -0.409  -0.304
 -- Virtual --
 -0.033  -0.022  -0.019  -0.012  -0.010   0.006   0.013   0.015
  0.017   0.023   0.045   0.052   0.056   0.065   0.071   0.078
  0.082   0.091   0.104   0.110   0.115   0.120   0.124   0.129
  0.133   0.135   0.136   0.139   0.148   0.153   0.158   0.176
  0.189   0.209   0.210   0.219   0.223   0.232   0.244   0.250
  0.264   0.281   0.292   0.302   0.305   0.314   0.337   0.345
  0.353   0.377   0.381   0.404   0.428   0.437   0.465   0.483
  0.495   0.499   0.517   0.532   0.544   0.551   0.565   0.567
  0.574   0.579   0.591   0.595   0.610   0.621   0.626   0.649
  0.656   0.660   0.668   0.680   0.694   0.700   0.709   0.710
  0.729   0.742   0.755   0.790   0.797   0.806   0.813   0.861
  0.879   0.886   0.910   0.932   0.959   0.961   0.991   1.013
  1.039   1.050   1.056   1.072   1.087   1.106   1.120   1.142
  1.155   1.159   1.170   1.186   1.200   1.217   1.224   1.249
  1.260   1.263   1.280   1.290   1.315   1.335   1.340   1.357
  1.372   1.385   1.393   1.400   1.402   1.403   1.449   1.470
  1.474   1.485   1.487   1.510   1.527   1.537   1.552   1.571
  1.573   1.604   1.612   1.637   1.656   1.697   1.719   1.750
  1.838   1.912   2.003   2.238   2.256   2.342   2.351   2.441
  2.461   2.489   2.513   2.544   2.585   2.634   2.641   2.702
  2.727   2.752   2.785   2.813   2.836   2.865   2.882   2.889
  2.898   2.925   2.934   2.947   2.963   2.979   3.005   3.015
  3.035   3.054   3.084   3.097   3.131   3.135   3.147   3.178
  3.199   3.220   3.230   3.255   3.266   3.277   3.299   3.316
  3.337   3.357   3.367   3.382   3.394   3.408   3.423   3.444
  3.482   3.501   3.529   3.535   3.559   3.568   3.596   3.598
  3.612   3.646   3.686   3.736   3.745   3.756   3.770   3.778
  3.809   3.843   3.853   3.873   3.887   3.905   3.916   3.977
  3.987   4.006   4.031   4.050   4.066   4.086   4.113   4.164
  4.170   4.192   4.205   4.213   4.220   4.243   4.270   4.298
  4.311   4.319   4.363   4.375   4.395   4.452   4.471   4.496
  4.504   4.534   4.555   4.576   4.597   4.638   4.738   4.869
  4.895   4.953   5.031   5.129   5.145   5.170   5.191   5.232
  5.361   5.499   5.525   5.545   5.551   5.599   5.616   5.638
  5.641   5.678   5.755   5.839   6.190   6.665   6.910   7.105
  7.138   7.250   7.475   7.562  23.993  23.999  24.185  24.312
 24.612  49.804
 --------------------------------------------------------------
 
          Ground-State Mulliken Net Atomic Charges

     Atom                 Charge (a.u.)    Spin (a.u.)
  --------------------------------------------------------
      1 C                    -0.677689      -0.017103
      2 C                    -0.027263       0.728877
      3 C                    -0.758546      -0.033177
      4 C                    -0.469383      -0.197556
      5 C                    -0.223186       0.408731
      6 O                    -0.265982       0.030765
      7 H                     0.256933      -0.036276
      8 H                     0.219479       0.012099
      9 H                     0.189190       0.033219
     10 H                     0.185047       0.004386
     11 H                     0.223767       0.010783
     12 H                     0.198976       0.005443
     13 H                     0.191628       0.039659
     14 H                     0.226617       0.017580
     15 H                     0.224858       0.013698
     16 H                     0.223993      -0.020065
     17 H                     0.281561      -0.001063
  --------------------------------------------------------
  Sum of atomic charges =     0.000000
  Sum of spin   charges =     1.000000

 -----------------------------------------------------------------
                    Cartesian Multipole Moments
 -----------------------------------------------------------------
    Charge (ESU x 10^10)
                 0.0000
    Dipole Moment (Debye)
         X      -0.7952      Y       0.3534      Z      -1.0540
       Tot       1.3669
    Quadrupole Moments (Debye-Ang)
        XX     -44.1214     XY       1.3025     YY     -37.5559
        XZ      -1.7493     YZ      -1.7921     ZZ     -40.8909
    Octopole Moments (Debye-Ang^2)
       XXX      -2.8876    XXY       4.9474    XYY       8.0237
       YYY       3.2729    XXZ      -3.2741    XYZ      -5.4508
       YYZ      -0.2664    XZZ       1.0042    YZZ       0.5880
       ZZZ      -0.5332
    Hexadecapole Moments (Debye-Ang^3)
      XXXX    -684.1468   XXXY      17.5721   XXYY    -144.8697
      XYYY      21.1509   YYYY    -269.8196   XXXZ     -11.7949
      XXYZ      -7.9937   XYYZ       3.9104   YYYZ       1.9826
      XXZZ    -143.4797   XYZZ       3.5475   YYZZ     -72.6097
      XZZZ       4.8216   YZZZ      -0.1873   ZZZZ    -165.7777
 -----------------------------------------------------------------
 Calculating analytic gradient of the SCF energy
 Gradient of Coulomb and Exchange Energy
            1           2           3           4           5           6
    1   3.2112468   2.2956147   2.2570369  -0.1977820  -3.2639945  -8.9689691
    2   2.0927568  -0.1883769  -3.3020092   1.7047748   4.1314463  -3.7131588
    3  -1.3957103   0.8664483   0.5325173   5.1269376  -1.3886393  -6.9505652
            7           8           9          10          11          12
    1   1.7753317  -1.7106157   3.5570932   0.5000059  -1.9810370  -1.2807425
    2   0.8684424   0.4386190  -0.4587245   3.8594365  -1.3420077  -2.5925430
    3   4.1503334  -3.3101288  -1.6403078   0.6368278  -2.6715076   2.6052240
           13          14          15          16          17
    1   3.2953295  -0.1458495   1.5717633  -0.7354010  -0.1790307
    2  -2.1489563  -3.0609032   4.2100824   3.7641454  -4.2630239
    3  -1.1037265   3.3463574   1.8425650  -3.0618983   2.4152730
 Gradient of SCF Energy
            1           2           3           4           5           6
    1  -0.0015321   0.0036966  -0.0010532  -0.0064339   0.0037235   0.0026309
    2  -0.0008612  -0.0012916   0.0020831   0.0001306  -0.0035774   0.0023370
    3   0.0013025  -0.0017013   0.0010446  -0.0045404  -0.0003777   0.0040447
            7           8           9          10          11          12
    1  -0.0001779  -0.0025253   0.0015861  -0.0003781  -0.0022850  -0.0011832
    2   0.0009700  -0.0005729  -0.0010369   0.0023303   0.0005267  -0.0009919
    3   0.0032680  -0.0019959  -0.0003062   0.0010034  -0.0028867   0.0020715
           13          14          15          16          17
    1   0.0017485   0.0008927   0.0021399  -0.0000722  -0.0007772
    2  -0.0002620  -0.0037849   0.0028517   0.0034364  -0.0022868
    3  -0.0006787   0.0013194  -0.0002720  -0.0010167  -0.0002785
 Max gradient component =       6.434E-03
 RMS gradient           =       2.224E-03
 Gradient time:  CPU 62.85 s  wall 62.91 s
 Geometry Optimization Parameters
   NAtoms,    NIC,     NZ,  NCons,   NDum,   NFix, NCnnct, MaxDiis
       17     113       0       0       0       0       0       0

 Cartesian Hessian Update
 Hessian Updated using Powell/Murtagh-Sargent Update
  Mixing factors:     0.000002 Powell
                      0.999998 Murtagh-Sargent


** GEOMETRY OPTIMIZATION IN DELOCALIZED INTERNAL COORDINATES **
   Searching for a Transition State

   Optimization Cycle:   2

                       Coordinates (Angstroms)
     ATOM                X               Y               Z
      1  C        -1.7999582822   -0.8887637180    0.6683064632
      2  C        -1.3538159746    0.0316022229   -0.4275794515
      3  C        -1.1634450820    1.4798164257   -0.0845018682
      4  C         0.7506688227   -0.6781202194   -0.9501425683
      5  C         1.5641062353   -0.6554240889    0.1412899667
      6  O         2.2238159760    0.4462626697    0.6114826577
      7  H        -1.7787018609   -0.1661451533   -1.4101293949
      8  H        -1.1199614048   -0.8386048180    1.5265982305
      9  H        -2.8011884466   -0.6217130143    1.0412593862
     10  H        -1.8469894778   -1.9295002740    0.3352613893
     11  H        -0.4669098203    1.6000197116    0.7529923956
     12  H        -0.7804696766    2.0551709436   -0.9335577479
     13  H        -2.1091287115    1.9546669823    0.2213804845
     14  H         0.8156169074    0.1122211781   -1.6919935671
     15  H         0.3998722613   -1.6376697108   -1.3064404159
     16  H         1.6770084657   -1.4937312048    0.8166916722
     17  H         2.1108023995    1.1681282084   -0.0176827148
   Point Group: c1    Number of degrees of freedom:    45


   Energy is   -272.166122497

 GETINT wrote B to file, NVib is           45
 Hessian Updated using Powell/Murtagh-Sargent Update
  Mixing factors:     0.527352 Powell
                      0.472648 Murtagh-Sargent

 40 Hessian modes will be used to form the next step
  Hessian Eigenvalues:
     0.000597    0.009116    0.009300    0.019899    0.026149    0.027504
     0.032587    0.049658    0.051589    0.055829    0.057244    0.057424
     0.057786    0.058161    0.058530    0.066392    0.091961    0.121215
     0.144059    0.159594    0.159921    0.160000    0.167722    0.220114
     0.220857    0.323245    0.324754    0.335176    0.335418    0.341153
     0.341422    0.342677    0.343897    0.349820    0.352976    0.357029
     0.357598    0.514570    0.526511    0.545796
**WARNING** Hessian does not have the Desired Local Structure

 Transition State Search - Taking P-RFO Step
 Searching for Lamda that Maximizes Along the Lowest mode
 Value Taken    Lamda =   0.00070280
 Searching for Lamda that Minimizes Along All other modes
 Value Taken    Lamda =  -0.00130524
 Calculated Step too Large.  Step scaled by  0.116057
 Step Taken.  Stepsize is  0.300000

                             Maximum     Tolerance    Cnvgd?
         Gradient           0.006825      0.000300      NO
         Displacement       0.131350      0.001200      NO
         Energy change      0.000037      0.000001      NO


 New Cartesian Coordinates Obtained by Inverse Iteration

 Displacement from previous Coordinates is:  0.587621
 ----------------------------------------------------------------
             Standard Nuclear Orientation (Angstroms)
    I     Atom           X                Y                Z
 ----------------------------------------------------------------
    1      C      -1.7599488900    -0.8712267752     0.6991225770
    2      C      -1.3562810342     0.0277179416    -0.4300845863
    3      C      -1.1879313436     1.4879314555    -0.1286664029
    4      C       0.7517016136    -0.6507672668    -0.9686693349
    5      C       1.5476651562    -0.6985059382     0.1339833130
    6      O       2.1991069460     0.3715833731     0.6816297046
    7      H      -1.7928217167    -0.2065510538    -1.3999424172
    8      H      -1.0646781089    -0.7806417119     1.5425712921
    9      H      -2.7605241456    -0.6168830837     1.0833374279
   10      H      -1.7872619049    -1.9221324258     0.3956853791
   11      H      -0.4805946371     1.6420172880     0.6951910737
   12      H      -0.8294449921     2.0481154613    -0.9987663686
   13      H      -2.1374982612     1.9527918012     0.1816498492
   14      H       0.8264274537     0.1873330061    -1.6561185285
   15      H       0.4043052615    -1.5852001401    -1.3906612431
   16      H       1.6505414085    -1.5791027468     0.7562826435
   17      H       2.0985595256     1.1317369563     0.0966905385
 ----------------------------------------------------------------
 Molecular Point Group                 C1    NOp =  1
 Largest Abelian Subgroup              C1    NOp =  1
 Nuclear Repulsion Energy =   239.1397864578 hartrees
 There are       25 alpha and       24 beta electrons
 Applying Cartesian multipole field
    Component          Value
    ---------          -----
     (2,0,0)        1.00000E-11
     (0,2,0)        2.00000E-11
     (0,0,2)       -3.00000E-11
 Nucleus-field energy     =     0.0000000049 hartrees
 Requested basis set is non-standard
 There are 138 shells and 314 basis functions
 A cutoff of  1.0D-11 yielded   8976 shell pairs
 There are     46362 function pairs (     55720 Cartesian)
 Smallest overlap matrix eigenvalue = 2.88E-05
 Guess MOs from SCF MO coefficient file
Reading MOs from coefficient file
Reading MOs from coefficient file
 An unrestricted hybrid HF-DFT SCF calculation will be
 performed using Pulay DIIS extrapolation
 Exchange:     0.5679 Hartree-Fock + 1.0000 M08SO
 SCF converges when DIIS error is below 1.0E-08
Geometry optimization detected.  Setting ReadMinima to 0
Setting SaveMinima to 0
 Inaccurate integrated density:
   Number of electrons =    49
   Numerical integral  =    48.973531923076
   Relative error      =    -0.0540164835 %
 ---------------------------------------
  Cycle       Energy         DIIS Error
 ---------------------------------------
    1    -272.1493901889      9.19E-04
    2    -272.1658231433      1.33E-04
    3    -272.1660026986      1.22E-04
    4    -272.1661490382      2.82E-05
    5    -272.1661578661      1.20E-05
    6    -272.1661598398      2.65E-06
    7    -272.1661599832      5.68E-07
    8    -272.1661600027      2.00E-07
    9    -272.1661600059      1.16E-07
   10    -272.1661600068      4.31E-08
   11    -272.1661600071      2.08E-08
   12    -272.1661600073      1.47E-08
   13    -272.1661600074      6.29E-09 Convergence criterion met
 ---------------------------------------
 <S^2> = 0.7787
 SCF time:  CPU 779.25 s  wall 784.31 s
 SCF   energy in the final basis set = -272.1661600074
 Total energy in the final basis set = -272.1661600074
 Analysis of SCF Wavefunction
 
 --------------------------------------------------------------
                    Orbital Energies (a.u.)
 --------------------------------------------------------------
 
 Alpha MOs
 -- Occupied --
-19.595 -10.552 -10.507 -10.494 -10.487 -10.483  -1.173  -0.884
 -0.843  -0.781  -0.711  -0.653  -0.574  -0.567  -0.530  -0.512
 -0.486  -0.482  -0.459  -0.451  -0.445  -0.416  -0.409  -0.332
 -0.211
 -- Virtual --
 -0.027  -0.014  -0.008  -0.006   0.012   0.016   0.019   0.019
  0.026   0.050   0.054   0.058   0.068   0.071   0.080   0.084
  0.089   0.102   0.113   0.119   0.124   0.129   0.131   0.132
  0.137   0.139   0.143   0.150   0.155   0.162   0.172   0.187
  0.206   0.211   0.219   0.221   0.231   0.244   0.253   0.260
  0.282   0.290   0.300   0.304   0.312   0.326   0.332   0.353
  0.373   0.379   0.403   0.426   0.436   0.468   0.479   0.493
  0.496   0.515   0.528   0.534   0.550   0.556   0.567   0.571
  0.577   0.581   0.589   0.609   0.610   0.615   0.639   0.644
  0.652   0.660   0.670   0.687   0.695   0.704   0.712   0.727
  0.731   0.758   0.784   0.797   0.802   0.807   0.854   0.875
  0.878   0.904   0.930   0.951   0.954   0.986   1.009   1.033
  1.048   1.054   1.068   1.090   1.102   1.113   1.136   1.151
  1.157   1.170   1.183   1.196   1.212   1.219   1.235   1.236
  1.257   1.271   1.277   1.311   1.327   1.329   1.348   1.355
  1.367   1.380   1.381   1.400   1.401   1.443   1.463   1.470
  1.480   1.484   1.501   1.518   1.527   1.548   1.561   1.569
  1.596   1.613   1.622   1.646   1.681   1.707   1.741   1.833
  1.906   1.994   2.236   2.253   2.332   2.345   2.435   2.448
  2.468   2.499   2.536   2.581   2.616   2.638   2.675   2.683
  2.705   2.746   2.758   2.784   2.811   2.825   2.830   2.877
  2.897   2.912   2.934   2.953   2.961   2.987   2.990   3.011
  3.031   3.053   3.073   3.099   3.117   3.130   3.172   3.192
  3.213   3.219   3.227   3.244   3.246   3.282   3.297   3.315
  3.338   3.352   3.366   3.370   3.388   3.413   3.441   3.456
  3.493   3.509   3.518   3.541   3.550   3.575   3.586   3.593
  3.628   3.662   3.687   3.719   3.726   3.746   3.757   3.765
  3.830   3.832   3.865   3.878   3.894   3.910   3.969   3.986
  4.010   4.022   4.028   4.044   4.070   4.095   4.144   4.155
  4.171   4.199   4.205   4.212   4.226   4.242   4.280   4.285
  4.316   4.355   4.365   4.389   4.432   4.441   4.471   4.485
  4.520   4.522   4.532   4.543   4.589   4.626   4.772   4.814
  4.914   5.025   5.124   5.132   5.155   5.171   5.204   5.359
  5.400   5.447   5.501   5.537   5.608   5.616   5.625   5.630
  5.661   5.753   5.841   6.197   6.663   6.908   7.103   7.131
  7.249   7.481   7.570  23.987  23.995  24.177  24.290  24.606
 49.803
 
 Beta MOs
 -- Occupied --
-19.593 -10.545 -10.497 -10.493 -10.488 -10.483  -1.168  -0.878
 -0.840  -0.780  -0.707  -0.641  -0.571  -0.564  -0.522  -0.496
 -0.479  -0.466  -0.456  -0.448  -0.443  -0.418  -0.409  -0.304
 -- Virtual --
 -0.033  -0.022  -0.019  -0.012  -0.010   0.007   0.013   0.014
  0.017   0.023   0.045   0.052   0.056   0.066   0.071   0.078
  0.082   0.091   0.103   0.111   0.116   0.121   0.124   0.129
  0.133   0.135   0.136   0.139   0.148   0.154   0.158   0.175
  0.188   0.206   0.211   0.219   0.222   0.232   0.245   0.253
  0.263   0.283   0.292   0.303   0.304   0.313   0.336   0.345
  0.353   0.378   0.382   0.406   0.427   0.437   0.466   0.484
  0.494   0.498   0.517   0.531   0.546   0.551   0.564   0.570
  0.573   0.578   0.589   0.595   0.611   0.620   0.629   0.649
  0.654   0.662   0.668   0.678   0.690   0.698   0.710   0.712
  0.730   0.738   0.758   0.793   0.798   0.806   0.813   0.856
  0.878   0.886   0.910   0.934   0.956   0.960   0.991   1.014
  1.038   1.051   1.059   1.072   1.093   1.107   1.116   1.140
  1.156   1.161   1.175   1.188   1.202   1.219   1.225   1.241
  1.256   1.265   1.281   1.287   1.323   1.335   1.339   1.358
  1.371   1.383   1.393   1.399   1.404   1.405   1.449   1.469
  1.474   1.484   1.486   1.508   1.525   1.536   1.557   1.570
  1.574   1.600   1.615   1.633   1.656   1.697   1.719   1.751
  1.838   1.912   2.002   2.240   2.257   2.341   2.352   2.442
  2.460   2.491   2.515   2.543   2.588   2.631   2.646   2.696
  2.727   2.749   2.785   2.816   2.835   2.867   2.883   2.890
  2.898   2.922   2.931   2.948   2.964   2.977   3.005   3.015
  3.037   3.051   3.084   3.094   3.133   3.137   3.147   3.179
  3.196   3.224   3.229   3.256   3.262   3.280   3.297   3.314
  3.332   3.354   3.368   3.383   3.398   3.408   3.423   3.447
  3.485   3.506   3.527   3.537   3.558   3.572   3.597   3.603
  3.612   3.644   3.686   3.734   3.743   3.756   3.767   3.778
  3.811   3.846   3.852   3.874   3.886   3.905   3.916   3.974
  3.987   4.010   4.028   4.050   4.063   4.083   4.116   4.164
  4.169   4.193   4.201   4.211   4.220   4.242   4.264   4.306
  4.318   4.319   4.365   4.373   4.391   4.451   4.468   4.497
  4.499   4.536   4.556   4.577   4.598   4.635   4.738   4.872
  4.898   4.955   5.031   5.129   5.146   5.170   5.189   5.236
  5.359   5.499   5.523   5.545   5.551   5.597   5.614   5.636
  5.638   5.675   5.755   5.839   6.193   6.664   6.909   7.105
  7.137   7.249   7.476   7.562  23.993  23.998  24.183  24.311
 24.613  49.805
 --------------------------------------------------------------
 
          Ground-State Mulliken Net Atomic Charges

     Atom                 Charge (a.u.)    Spin (a.u.)
  --------------------------------------------------------
      1 C                    -0.673014      -0.018020
      2 C                    -0.027778       0.731303
      3 C                    -0.757880      -0.033110
      4 C                    -0.455066      -0.198117
      5 C                    -0.235784       0.410692
      6 O                    -0.264369       0.030799
      7 H                     0.254609      -0.037048
      8 H                     0.223162       0.011309
      9 H                     0.191317       0.032213
     10 H                     0.187966       0.004549
     11 H                     0.215726       0.010776
     12 H                     0.197709       0.005122
     13 H                     0.190186       0.039758
     14 H                     0.217356       0.017469
     15 H                     0.226939       0.013792
     16 H                     0.226590      -0.020471
     17 H                     0.282332      -0.001016
  --------------------------------------------------------
  Sum of atomic charges =     0.000000
  Sum of spin   charges =     1.000000

 -----------------------------------------------------------------
                    Cartesian Multipole Moments
 -----------------------------------------------------------------
    Charge (ESU x 10^10)
                 0.0000
    Dipole Moment (Debye)
         X      -0.7849      Y       0.4163      Z      -1.0429
       Tot       1.3700
    Quadrupole Moments (Debye-Ang)
        XX     -44.0363     XY       1.4631     YY     -37.3587
        XZ      -1.6862     YZ      -1.4962     ZZ     -41.2077
    Octopole Moments (Debye-Ang^2)
       XXX      -2.1143    XXY       5.7980    XYY       8.5833
       YYY       3.7594    XXZ      -3.2583    XYZ      -4.7499
       YYZ       0.0377    XZZ       0.3471    YZZ       0.8927
       ZZZ      -1.3175
    Hexadecapole Moments (Debye-Ang^3)
      XXXX    -672.9762   XXXY      25.4368   XXYY    -142.2483
      XYYY      26.4832   YYYY    -268.3804   XXXZ     -14.2891
      XXYZ      -5.7236   XYYZ       4.0026   YYYZ       4.5957
      XXZZ    -144.4958   XYZZ       5.8352   YYZZ     -73.0474
      XZZZ       1.5813   YZZZ       2.5578   ZZZZ    -173.5625
 -----------------------------------------------------------------
 Calculating analytic gradient of the SCF energy
 Gradient of Coulomb and Exchange Energy
            1           2           3           4           5           6
    1   3.1491827   2.4558424   2.1849302  -0.2909300  -3.2473803  -8.8754547
    2   2.0175230  -0.0614936  -3.3853372   1.3792982   4.2708076  -3.2549155
    3  -1.4857483   0.9903464   0.4931086   5.3010614  -1.2121215  -7.3351551
            7           8           9          10          11          12
    1   1.8316585  -1.7892378   3.5527271   0.4251658  -1.9798165  -1.1983697
    2   1.0058878   0.3087314  -0.4336237   3.9010193  -1.4636557  -2.5315668
    3   4.1141235  -3.2862652  -1.6997434   0.5346621  -2.5789544   2.6977798
           13          14          15          16          17
    1   3.3089092  -0.1866769   1.5586621  -0.6730395  -0.2261725
    2  -2.1264588  -3.2515682   4.0972856   3.9388679  -4.4108014
    3  -1.0885036   3.1306323   2.1211492  -2.8368979   2.1405261
 Gradient of SCF Energy
            1           2           3           4           5           6
    1  -0.0012819   0.0034012  -0.0010126  -0.0056404   0.0032808   0.0023296
    2  -0.0006856  -0.0011758   0.0018997   0.0005328  -0.0032410   0.0018210
    3   0.0012243  -0.0015520   0.0009184  -0.0038461  -0.0006252   0.0037645
            7           8           9          10          11          12
    1  -0.0001738  -0.0022910   0.0014168  -0.0004013  -0.0020586  -0.0010167
    2   0.0008076  -0.0006306  -0.0008650   0.0020910   0.0003860  -0.0008378
    3   0.0028287  -0.0016566  -0.0002724   0.0008147  -0.0025124   0.0018032
           13          14          15          16          17
    1   0.0015418   0.0008334   0.0018189  -0.0000868  -0.0006595
    2  -0.0002428  -0.0034031   0.0024639   0.0029414  -0.0018617
    3  -0.0006373   0.0010177  -0.0001412  -0.0006853  -0.0004428
 Max gradient component =       5.640E-03
 RMS gradient           =       1.958E-03
 Gradient time:  CPU 63.66 s  wall 63.61 s
 Geometry Optimization Parameters
   NAtoms,    NIC,     NZ,  NCons,   NDum,   NFix, NCnnct, MaxDiis
       17     113       0       0       0       0       0       0

 Cartesian Hessian Update
 Hessian Updated using Powell/Murtagh-Sargent Update
  Mixing factors:     0.994402 Powell
                      0.005598 Murtagh-Sargent


** GEOMETRY OPTIMIZATION IN DELOCALIZED INTERNAL COORDINATES **
   Searching for a Transition State

   Optimization Cycle:   3

                       Coordinates (Angstroms)
     ATOM                X               Y               Z
      1  C        -1.7599488900   -0.8712267752    0.6991225770
      2  C        -1.3562810342    0.0277179416   -0.4300845863
      3  C        -1.1879313436    1.4879314555   -0.1286664029
      4  C         0.7517016136   -0.6507672668   -0.9686693349
      5  C         1.5476651562   -0.6985059382    0.1339833130
      6  O         2.1991069460    0.3715833731    0.6816297046
      7  H        -1.7928217167   -0.2065510538   -1.3999424172
      8  H        -1.0646781089   -0.7806417119    1.5425712921
      9  H        -2.7605241456   -0.6168830837    1.0833374279
     10  H        -1.7872619049   -1.9221324258    0.3956853791
     11  H        -0.4805946371    1.6420172880    0.6951910737
     12  H        -0.8294449921    2.0481154613   -0.9987663686
     13  H        -2.1374982612    1.9527918012    0.1816498492
     14  H         0.8264274537    0.1873330061   -1.6561185285
     15  H         0.4043052615   -1.5852001401   -1.3906612431
     16  H         1.6505414085   -1.5791027468    0.7562826435
     17  H         2.0985595256    1.1317369563    0.0966905385
   Point Group: c1    Number of degrees of freedom:    45


   Energy is   -272.166160007

 GETINT wrote B to file, NVib is           45
 Hessian Updated using Powell/Murtagh-Sargent Update
  Mixing factors:     0.996638 Powell
                      0.003362 Murtagh-Sargent

 41 Hessian modes will be used to form the next step
  Hessian Eigenvalues:
     0.000500    0.009116    0.009301    0.019899    0.026152    0.027503
     0.032567    0.049643    0.051590    0.055832    0.057243    0.057422
     0.057773    0.058161    0.058530    0.066392    0.091959    0.121213
     0.144056    0.159593    0.159921    0.159993    0.160003    0.167722
     0.220111    0.220810    0.323244    0.324754    0.335176    0.335418
     0.341153    0.341422    0.342677    0.343897    0.349820    0.352975
     0.357027    0.357596    0.514564    0.526511    0.545791
**WARNING** Hessian does not have the Desired Local Structure

 Transition State Search - Taking P-RFO Step
 Searching for Lamda that Maximizes Along the Lowest mode
 Value Taken    Lamda =   0.00069690
 Searching for Lamda that Minimizes Along All other modes
 Value Taken    Lamda =  -0.00105997
 Calculated Step too Large.  Step scaled by  0.158916
 Step Taken.  Stepsize is  0.300000

                             Maximum     Tolerance    Cnvgd?
         Gradient           0.005990      0.000300      NO
         Displacement       0.131239      0.001200      NO
         Energy change     -0.000038      0.000001      NO


 New Cartesian Coordinates Obtained by Inverse Iteration

 Displacement from previous Coordinates is:  0.589907
 ----------------------------------------------------------------
             Standard Nuclear Orientation (Angstroms)
    I     Atom           X                Y                Z
 ----------------------------------------------------------------
    1      C      -1.7178793193    -0.8518539204     0.7286730178
    2      C      -1.3583541777     0.0238767060    -0.4327887687
    3      C      -1.2115084459     1.4942039945    -0.1724388217
    4      C       0.7526139731    -0.6231637534    -0.9853848504
    5      C       1.5288470988    -0.7405906440     0.1252771791
    6      O       2.1675579817     0.2944464733     0.7489274657
    7      H      -1.8047866031    -0.2468145177    -1.3890704570
    8      H      -1.0077000905    -0.7190022776     1.5549100765
    9      H      -2.7174315532    -0.6113908483     1.1252220421
   10      H      -1.7226825723    -1.9119067843     0.4554027800
   11      H      -0.4944799012     1.6802421069     0.6375482167
   12      H      -0.8757038468     2.0383306224    -1.0620170639
   13      H      -2.1642726483     1.9504373271     0.1423361660
   14      H       0.8360597808     0.2594926821    -1.6149088399
   15      H       0.4102360130    -1.5283799417    -1.4714871942
   16      H       1.6226267554    -1.6592136100     0.6927530581
   17      H       2.0781798858     1.0895025258     0.2102809112
 ----------------------------------------------------------------
 Molecular Point Group                 C1    NOp =  1
 Largest Abelian Subgroup              C1    NOp =  1
 Nuclear Repulsion Energy =   239.4565501762 hartrees
 There are       25 alpha and       24 beta electrons
 Applying Cartesian multipole field
    Component          Value
    ---------          -----
     (2,0,0)        1.00000E-11
     (0,2,0)        2.00000E-11
     (0,0,2)       -3.00000E-11
 Nucleus-field energy     =     0.0000000046 hartrees
 Requested basis set is non-standard
 There are 138 shells and 314 basis functions
 A cutoff of  1.0D-11 yielded   8981 shell pairs
 There are     46433 function pairs (     55813 Cartesian)
 Smallest overlap matrix eigenvalue = 2.68E-05
 Guess MOs from SCF MO coefficient file
Reading MOs from coefficient file
Reading MOs from coefficient file
 An unrestricted hybrid HF-DFT SCF calculation will be
 performed using Pulay DIIS extrapolation
 Exchange:     0.5679 Hartree-Fock + 1.0000 M08SO
 SCF converges when DIIS error is below 1.0E-08
Geometry optimization detected.  Setting ReadMinima to 0
Setting SaveMinima to 0
 Inaccurate integrated density:
   Number of electrons =    49
   Numerical integral  =    48.972360512079
   Relative error      =    -0.0564071182 %
 ---------------------------------------
  Cycle       Energy         DIIS Error
 ---------------------------------------
    1    -272.1490017538      9.26E-04
    2    -272.1658409520      1.36E-04
    3    -272.1660207037      1.26E-04
    4    -272.1661781532      2.78E-05
    5    -272.1661867252      1.26E-05
    6    -272.1661888788      2.62E-06
    7    -272.1661890253      5.77E-07
    8    -272.1661890466      2.06E-07
    9    -272.1661890503      1.19E-07
   10    -272.1661890514      5.06E-08
   11    -272.1661890520      2.44E-08
   12    -272.1661890523      1.53E-08
   13    -272.1661890523      7.06E-09 Convergence criterion met
 ---------------------------------------
 <S^2> = 0.7787
 SCF time:  CPU 790.42 s  wall 798.30 s
 SCF   energy in the final basis set = -272.1661890523
 Total energy in the final basis set = -272.1661890523
 Analysis of SCF Wavefunction
 
 --------------------------------------------------------------
                    Orbital Energies (a.u.)
 --------------------------------------------------------------
 
 Alpha MOs
 -- Occupied --
-19.595 -10.552 -10.507 -10.494 -10.488 -10.483  -1.173  -0.885
 -0.843  -0.781  -0.711  -0.653  -0.574  -0.567  -0.530  -0.512
 -0.486  -0.482  -0.459  -0.451  -0.445  -0.416  -0.409  -0.332
 -0.211
 -- Virtual --
 -0.027  -0.014  -0.008  -0.007   0.012   0.016   0.019   0.020
  0.026   0.050   0.054   0.059   0.068   0.072   0.080   0.083
  0.089   0.101   0.114   0.120   0.124   0.129   0.130   0.132
  0.137   0.139   0.143   0.151   0.156   0.162   0.172   0.187
  0.203   0.212   0.217   0.222   0.230   0.246   0.254   0.258
  0.283   0.287   0.298   0.305   0.313   0.325   0.332   0.354
  0.372   0.381   0.407   0.425   0.434   0.468   0.480   0.493
  0.495   0.516   0.526   0.538   0.550   0.555   0.568   0.571
  0.576   0.581   0.588   0.609   0.610   0.617   0.640   0.643
  0.655   0.659   0.670   0.685   0.692   0.705   0.712   0.726
  0.728   0.761   0.785   0.796   0.805   0.808   0.850   0.877
  0.879   0.903   0.933   0.948   0.953   0.987   1.010   1.029
  1.050   1.056   1.069   1.097   1.103   1.114   1.134   1.153
  1.159   1.178   1.185   1.197   1.213   1.218   1.229   1.235
  1.261   1.270   1.277   1.322   1.328   1.330   1.350   1.354
  1.367   1.378   1.379   1.399   1.402   1.443   1.463   1.470
  1.480   1.483   1.500   1.516   1.528   1.553   1.562   1.571
  1.592   1.613   1.617   1.644   1.679   1.707   1.745   1.832
  1.908   1.993   2.238   2.257   2.332   2.345   2.436   2.449
  2.471   2.500   2.534   2.584   2.612   2.643   2.668   2.685
  2.701   2.747   2.756   2.786   2.817   2.827   2.832   2.877
  2.894   2.908   2.934   2.949   2.960   2.988   2.991   3.013
  3.030   3.053   3.070   3.103   3.119   3.131   3.173   3.189
  3.215   3.220   3.228   3.239   3.251   3.279   3.298   3.308
  3.337   3.354   3.367   3.376   3.388   3.414   3.443   3.455
  3.497   3.507   3.518   3.540   3.556   3.579   3.589   3.595
  3.627   3.660   3.692   3.715   3.729   3.744   3.759   3.766
  3.829   3.833   3.864   3.880   3.898   3.911   3.967   3.983
  4.011   4.020   4.029   4.042   4.066   4.099   4.143   4.156
  4.170   4.197   4.203   4.210   4.226   4.239   4.283   4.289
  4.322   4.359   4.360   4.389   4.433   4.440   4.469   4.485
  4.520   4.523   4.534   4.544   4.585   4.624   4.777   4.817
  4.916   5.027   5.122   5.134   5.154   5.171   5.207   5.358
  5.400   5.447   5.502   5.535   5.608   5.612   5.624   5.627
  5.658   5.753   5.842   6.200   6.663   6.908   7.104   7.130
  7.249   7.483   7.570  23.987  23.996  24.175  24.289  24.607
 49.804
 
 Beta MOs
 -- Occupied --
-19.593 -10.545 -10.497 -10.493 -10.489 -10.483  -1.168  -0.878
 -0.840  -0.780  -0.707  -0.641  -0.571  -0.564  -0.522  -0.496
 -0.479  -0.466  -0.456  -0.448  -0.443  -0.418  -0.409  -0.304
 -- Virtual --
 -0.032  -0.022  -0.019  -0.012  -0.010   0.007   0.013   0.014
  0.018   0.023   0.045   0.052   0.057   0.067   0.071   0.077
  0.082   0.091   0.103   0.112   0.116   0.121   0.125   0.130
  0.132   0.135   0.137   0.139   0.148   0.155   0.158   0.175
  0.187   0.204   0.211   0.217   0.223   0.231   0.248   0.254
  0.261   0.285   0.290   0.301   0.305   0.314   0.335   0.344
  0.354   0.377   0.384   0.410   0.426   0.435   0.467   0.485
  0.492   0.498   0.517   0.530   0.548   0.551   0.563   0.570
  0.574   0.577   0.587   0.595   0.612   0.620   0.631   0.649
  0.653   0.666   0.667   0.675   0.689   0.695   0.710   0.714
  0.730   0.734   0.761   0.793   0.797   0.808   0.815   0.851
  0.880   0.887   0.909   0.937   0.952   0.959   0.992   1.015
  1.034   1.054   1.060   1.072   1.101   1.108   1.118   1.138
  1.158   1.162   1.183   1.192   1.203   1.221   1.224   1.236
  1.254   1.269   1.279   1.286   1.333   1.337   1.338   1.359
  1.371   1.381   1.393   1.398   1.403   1.407   1.448   1.467
  1.475   1.484   1.486   1.507   1.524   1.535   1.562   1.570
  1.576   1.595   1.616   1.628   1.655   1.696   1.719   1.754
  1.838   1.914   2.002   2.242   2.260   2.342   2.353   2.443
  2.461   2.494   2.515   2.542   2.591   2.627   2.651   2.687
  2.727   2.748   2.784   2.821   2.834   2.870   2.884   2.891
  2.898   2.916   2.926   2.949   2.965   2.975   3.005   3.016
  3.040   3.049   3.083   3.093   3.133   3.141   3.148   3.178
  3.195   3.226   3.230   3.255   3.260   3.285   3.295   3.312
  3.327   3.352   3.370   3.385   3.405   3.407   3.423   3.450
  3.487   3.508   3.527   3.539   3.558   3.577   3.598   3.608
  3.613   3.643   3.687   3.732   3.741   3.755   3.766   3.780
  3.814   3.846   3.851   3.874   3.889   3.908   3.917   3.973
  3.985   4.013   4.023   4.049   4.063   4.079   4.120   4.164
  4.166   4.194   4.199   4.211   4.220   4.241   4.261   4.312
  4.320   4.328   4.367   4.369   4.389   4.449   4.465   4.492
  4.504   4.537   4.558   4.579   4.599   4.631   4.738   4.876
  4.901   4.957   5.033   5.128   5.147   5.170   5.189   5.240
  5.359   5.499   5.520   5.544   5.551   5.597   5.611   5.634
  5.636   5.672   5.755   5.839   6.196   6.664   6.909   7.106
  7.137   7.249   7.478   7.562  23.994  23.997  24.180  24.310
 24.615  49.807
 --------------------------------------------------------------
 
          Ground-State Mulliken Net Atomic Charges

     Atom                 Charge (a.u.)    Spin (a.u.)
  --------------------------------------------------------
      1 C                    -0.670891      -0.019304
      2 C                    -0.024136       0.734389
      3 C                    -0.757661      -0.033598
      4 C                    -0.434977      -0.198673
      5 C                    -0.253218       0.413020
      6 O                    -0.262367       0.030907
      7 H                     0.250980      -0.037974
      8 H                     0.225637       0.010447
      9 H                     0.193736       0.031233
     10 H                     0.192042       0.004819
     11 H                     0.208430       0.010838
     12 H                     0.196967       0.004859
     13 H                     0.188631       0.039761
     14 H                     0.207135       0.017396
     15 H                     0.227387       0.013926
     16 H                     0.228941      -0.021066
     17 H                     0.283363      -0.000981
  --------------------------------------------------------
  Sum of atomic charges =     0.000000
  Sum of spin   charges =     1.000000

 -----------------------------------------------------------------
                    Cartesian Multipole Moments
 -----------------------------------------------------------------
    Charge (ESU x 10^10)
                 0.0000
    Dipole Moment (Debye)
         X      -0.7748      Y       0.4768      Z      -1.0274
       Tot       1.3723
    Quadrupole Moments (Debye-Ang)
        XX     -43.9551     XY       1.6060     YY     -37.2069
        XZ      -1.5994     YZ      -1.1694     ZZ     -41.4881
    Octopole Moments (Debye-Ang^2)
       XXX      -1.2304    XXY       6.5849    XYY       9.0406
       YYY       4.1821    XXZ      -3.1336    XYZ      -3.9753
       YYZ       0.3234    XZZ      -0.1871    YZZ       1.2918
       ZZZ      -2.1114
    Hexadecapole Moments (Debye-Ang^3)
      XXXX    -660.0403   XXXY      33.0683   XXYY    -139.7237
      XYYY      31.5914   YYYY    -266.9541   XXXZ     -16.4235
      XXYZ      -3.2732   XYYZ       3.9637   YYYZ       7.2232
      XXZZ    -145.0159   XYZZ       8.3451   YYZZ     -73.5183
      XZZZ      -1.6027   YZZZ       5.5891   ZZZZ    -181.6284
 -----------------------------------------------------------------
 Calculating analytic gradient of the SCF energy
 Gradient of Coulomb and Exchange Energy
            1           2           3           4           5           6
    1   3.0751882   2.6004924   2.1544767  -0.3865622  -3.2310052  -8.7685420
    2   1.9040862   0.0849968  -3.4708110   1.0799973   4.3937582  -2.7853649
    3  -1.6101626   1.1446266   0.4507148   5.4646561  -1.0087081  -7.7032981
            7           8           9          10          11          12
    1   1.8897489  -1.8561930   3.5507959   0.3402310  -1.9900919  -1.1259444
    2   1.1422279   0.1788441  -0.4100154   3.9396966  -1.5753191  -2.4644519
    3   4.0812714  -3.2433679  -1.7653297   0.4302203  -2.4878446   2.7863830
           13          14          15          16          17
    1   3.3240016  -0.2226231   1.5316017  -0.6223050  -0.2632696
    2  -2.1072314  -3.4334157   3.9572334   4.1044097  -4.5386408
    3  -1.0743688   2.9029272   2.3865295  -2.6083668   1.8541179
 Gradient of SCF Energy
            1           2           3           4           5           6
    1  -0.0010622   0.0030590  -0.0008463  -0.0048182   0.0028736   0.0019038
    2  -0.0004873  -0.0010360   0.0016805   0.0007167  -0.0027645   0.0014219
    3   0.0010500  -0.0013760   0.0007204  -0.0031093  -0.0008190   0.0033399
            7           8           9          10          11          12
    1  -0.0001186  -0.0019781   0.0012047  -0.0003902  -0.0018224  -0.0008452
    2   0.0006057  -0.0006129  -0.0006867   0.0017769   0.0002175  -0.0006826
    3   0.0023441  -0.0012782  -0.0002329   0.0006318  -0.0020867   0.0015123
           13          14          15          16          17
    1   0.0012880   0.0007190   0.0014345  -0.0000453  -0.0005562
    2  -0.0002055  -0.0028496   0.0021369   0.0024354  -0.0016664
    3  -0.0005458   0.0007467  -0.0000526  -0.0003189  -0.0005258
 Max gradient component =       4.818E-03
 RMS gradient           =       1.666E-03
 Gradient time:  CPU 64.40 s  wall 64.37 s
 Geometry Optimization Parameters
   NAtoms,    NIC,     NZ,  NCons,   NDum,   NFix, NCnnct, MaxDiis
       17     113       0       0       0       0       0       0

 Cartesian Hessian Update
 Hessian Updated using Powell/Murtagh-Sargent Update
  Mixing factors:     0.995969 Powell
                      0.004031 Murtagh-Sargent


** GEOMETRY OPTIMIZATION IN DELOCALIZED INTERNAL COORDINATES **
   Searching for a Transition State

   Optimization Cycle:   4

                       Coordinates (Angstroms)
     ATOM                X               Y               Z
      1  C        -1.7178793193   -0.8518539204    0.7286730178
      2  C        -1.3583541777    0.0238767060   -0.4327887687
      3  C        -1.2115084459    1.4942039945   -0.1724388217
      4  C         0.7526139731   -0.6231637534   -0.9853848504
      5  C         1.5288470988   -0.7405906440    0.1252771791
      6  O         2.1675579817    0.2944464733    0.7489274657
      7  H        -1.8047866031   -0.2468145177   -1.3890704570
      8  H        -1.0077000905   -0.7190022776    1.5549100765
      9  H        -2.7174315532   -0.6113908483    1.1252220421
     10  H        -1.7226825723   -1.9119067843    0.4554027800
     11  H        -0.4944799012    1.6802421069    0.6375482167
     12  H        -0.8757038468    2.0383306224   -1.0620170639
     13  H        -2.1642726483    1.9504373271    0.1423361660
     14  H         0.8360597808    0.2594926821   -1.6149088399
     15  H         0.4102360130   -1.5283799417   -1.4714871942
     16  H         1.6226267554   -1.6592136100    0.6927530581
     17  H         2.0781798858    1.0895025258    0.2102809112
   Point Group: c1    Number of degrees of freedom:    45


   Energy is   -272.166189052

 GETINT wrote B to file, NVib is           45
 Hessian Updated using Powell/Murtagh-Sargent Update
  Mixing factors:     0.993669 Powell
                      0.006331 Murtagh-Sargent

 42 Hessian modes will be used to form the next step
  Hessian Eigenvalues:
     0.000364    0.009116    0.009301    0.019898    0.026152    0.027503
     0.032549    0.049616    0.051603    0.055833    0.057242    0.057419
     0.057771    0.058161    0.058530    0.066392    0.091960    0.121206
     0.144043    0.159590    0.159909    0.159984    0.159993    0.160002
     0.167716    0.220112    0.220723    0.323244    0.324754    0.335176
     0.335418    0.341153    0.341421    0.342677    0.343897    0.349820
     0.352976    0.357025    0.357597    0.514564    0.526510    0.545788
**WARNING** Hessian does not have the Desired Local Structure

 Transition State Search - Taking P-RFO Step
 Searching for Lamda that Maximizes Along the Lowest mode
 Value Taken    Lamda =   0.00064358
 Searching for Lamda that Minimizes Along All other modes
 Value Taken    Lamda =  -0.00078956
 Calculated Step too Large.  Step scaled by  0.197233
 Step Taken.  Stepsize is  0.300000

                             Maximum     Tolerance    Cnvgd?
         Gradient           0.005028      0.000300      NO
         Displacement       0.130358      0.001200      NO
         Energy change     -0.000029      0.000001      NO


 New Cartesian Coordinates Obtained by Inverse Iteration

 Displacement from previous Coordinates is:  0.598444
 ----------------------------------------------------------------
             Standard Nuclear Orientation (Angstroms)
    I     Atom           X                Y                Z
 ----------------------------------------------------------------
    1      C      -1.6740856428    -0.8304243055     0.7573111531
    2      C      -1.3605913980     0.0202195436    -0.4353168345
    3      C      -1.2356796245     1.4991162627    -0.2160938162
    4      C       0.7543619374    -0.5952657327    -1.0004757698
    5      C       1.5086861212    -0.7819760605     0.1149165467
    6      O       2.1315081269     0.2134587274     0.8136860639
    7      H      -1.8159024376    -0.2867816783    -1.3767753929
    8      H      -0.9490573705    -0.6546371835     1.5633743009
    9      H      -2.6716624102    -0.6043931404     1.1680041302
   10      H      -1.6546843291    -1.8982147352     0.5141656336
   11      H      -0.5092524604     1.7169017719     0.5788352460
   12      H      -0.9221748646     2.0260751866    -1.1243843952
   13      H      -2.1911719619     1.9473821025     0.1033415865
   14      H       0.8458753470     0.3278680905    -1.5693165467
   15      H       0.4192975285    -1.4677816590    -1.5485443865
   16      H       1.5937104229    -1.7351350996     0.6247958956
   17      H       2.0521453463     1.0418040502     0.3257115025
 ----------------------------------------------------------------
 Molecular Point Group                 C1    NOp =  1
 Largest Abelian Subgroup              C1    NOp =  1
 Nuclear Repulsion Energy =   239.8225402571 hartrees
 There are       25 alpha and       24 beta electrons
 Applying Cartesian multipole field
    Component          Value
    ---------          -----
     (2,0,0)        1.00000E-11
     (0,2,0)        2.00000E-11
     (0,0,2)       -3.00000E-11
 Nucleus-field energy     =     0.0000000043 hartrees
 Requested basis set is non-standard
 There are 138 shells and 314 basis functions
 A cutoff of  1.0D-11 yielded   8999 shell pairs
 There are     46509 function pairs (     55910 Cartesian)
 Smallest overlap matrix eigenvalue = 2.39E-05
 Guess MOs from SCF MO coefficient file
Reading MOs from coefficient file
Reading MOs from coefficient file
 An unrestricted hybrid HF-DFT SCF calculation will be
 performed using Pulay DIIS extrapolation
 Exchange:     0.5679 Hartree-Fock + 1.0000 M08SO
 SCF converges when DIIS error is below 1.0E-08
Geometry optimization detected.  Setting ReadMinima to 0
Setting SaveMinima to 0
 Inaccurate integrated density:
   Number of electrons =    49
   Numerical integral  =    48.970632110492
   Relative error      =    -0.0599344684 %
 ---------------------------------------
  Cycle       Energy         DIIS Error
 ---------------------------------------
    1    -272.1478868129      9.42E-04
    2    -272.1658190255      1.42E-04
    3    -272.1659980107      1.36E-04
    4    -272.1661825747      2.75E-05
    5    -272.1661910912      1.31E-05
    6    -272.1661934620      2.64E-06
    7    -272.1661936122      6.07E-07
    8    -272.1661936323      2.21E-07
    9    -272.1661936350      1.32E-07
   10    -272.1661936358      3.21E-08
   11    -272.1661936362      1.10E-08
   12    -272.1661936365      6.81E-09 Convergence criterion met
 ---------------------------------------
 <S^2> = 0.7786
 SCF time:  CPU 735.80 s  wall 743.28 s
 SCF   energy in the final basis set = -272.1661936365
 Total energy in the final basis set = -272.1661936365
 Analysis of SCF Wavefunction
 
 --------------------------------------------------------------
                    Orbital Energies (a.u.)
 --------------------------------------------------------------
 
 Alpha MOs
 -- Occupied --
-19.595 -10.552 -10.507 -10.494 -10.489 -10.483  -1.173  -0.885
 -0.843  -0.781  -0.711  -0.653  -0.574  -0.567  -0.531  -0.513
 -0.486  -0.481  -0.459  -0.451  -0.444  -0.416  -0.409  -0.332
 -0.211
 -- Virtual --
 -0.027  -0.015  -0.008  -0.007   0.011   0.016   0.019   0.020
  0.026   0.049   0.054   0.060   0.068   0.074   0.079   0.083
  0.088   0.100   0.116   0.121   0.125   0.129   0.130   0.132
  0.137   0.140   0.144   0.151   0.157   0.162   0.172   0.187
  0.201   0.212   0.215   0.223   0.230   0.248   0.255   0.258
  0.282   0.286   0.297   0.306   0.315   0.325   0.332   0.355
  0.370   0.383   0.410   0.424   0.432   0.469   0.480   0.492
  0.494   0.516   0.525   0.541   0.551   0.556   0.568   0.571
  0.577   0.581   0.586   0.609   0.611   0.618   0.640   0.642
  0.656   0.658   0.671   0.684   0.689   0.706   0.712   0.723
  0.727   0.763   0.786   0.793   0.808   0.812   0.847   0.878
  0.882   0.903   0.934   0.946   0.953   0.990   1.012   1.024
  1.049   1.058   1.071   1.101   1.107   1.121   1.131   1.155
  1.160   1.180   1.188   1.200   1.205   1.222   1.229   1.238
  1.265   1.268   1.279   1.325   1.333   1.337   1.353   1.355
  1.367   1.377   1.379   1.397   1.402   1.440   1.462   1.470
  1.481   1.482   1.501   1.513   1.529   1.556   1.563   1.574
  1.587   1.610   1.616   1.642   1.678   1.708   1.753   1.832
  1.910   1.993   2.239   2.261   2.333   2.345   2.437   2.451
  2.475   2.499   2.534   2.587   2.610   2.647   2.661   2.687
  2.698   2.750   2.753   2.788   2.822   2.831   2.834   2.876
  2.888   2.905   2.929   2.949   2.959   2.987   2.996   3.015
  3.029   3.052   3.069   3.107   3.120   3.135   3.173   3.187
  3.217   3.222   3.229   3.235   3.258   3.277   3.299   3.302
  3.336   3.356   3.368   3.382   3.387   3.417   3.444   3.454
  3.499   3.503   3.520   3.540   3.563   3.583   3.590   3.599
  3.628   3.659   3.698   3.712   3.732   3.744   3.758   3.769
  3.829   3.832   3.864   3.882   3.904   3.912   3.965   3.978
  4.010   4.021   4.031   4.040   4.065   4.103   4.141   4.157
  4.168   4.195   4.203   4.208   4.227   4.240   4.285   4.291
  4.327   4.356   4.365   4.388   4.433   4.438   4.464   4.490
  4.521   4.523   4.538   4.546   4.583   4.623   4.781   4.821
  4.918   5.029   5.121   5.135   5.154   5.171   5.212   5.357
  5.400   5.448   5.503   5.532   5.607   5.608   5.624   5.625
  5.656   5.754   5.842   6.204   6.665   6.908   7.105   7.130
[...]
 H         -0.032 -0.018  0.039    0.239  0.049 -0.113   -0.026  0.006 -0.012
 H          0.008  0.032  0.004    0.102 -0.249 -0.145   -0.010  0.047  0.026
 H         -0.001  0.023  0.006    0.135 -0.230 -0.033   -0.021  0.043  0.009
 H          0.016  0.035  0.008    0.200  0.398  0.135   -0.033 -0.058 -0.030
 H         -0.463 -0.037 -0.098   -0.284  0.065  0.005   -0.360 -0.145 -0.292
 H          0.608 -0.205  0.379   -0.146  0.040  0.072    0.059 -0.042 -0.002
 H         -0.357  0.022  0.017   -0.025 -0.023  0.016   -0.218 -0.315 -0.083
 H         -0.141 -0.127 -0.062   -0.045 -0.049 -0.045   -0.429 -0.404 -0.402
 TransDip   0.082  0.061  0.071    0.061 -0.025  0.017   -0.366 -0.240 -0.127

 Mode:                22                     23                     24
 Frequency:      1143.49                1176.67                1277.75
 Force Cnst:      1.4699                 1.5460                 1.2655
 Red. Mass:       1.9079                 1.8952                 1.3156
 IR Active:          YES                    YES                    YES
 IR Intens:        1.401                  1.384                 16.800
 Raman Active:       YES                    YES                    YES
               X      Y      Z        X      Y      Z        X      Y      Z
 C          0.003 -0.077  0.113   -0.033 -0.054 -0.123    0.007 -0.005  0.003
 C          0.066  0.192 -0.056    0.033  0.047  0.198   -0.023  0.011  0.004
 C         -0.064 -0.103 -0.062   -0.015 -0.006 -0.137    0.008 -0.003  0.000
 C         -0.001 -0.002 -0.003   -0.003  0.003  0.001   -0.009  0.056 -0.095
 C          0.000 -0.006  0.004   -0.002 -0.003  0.000    0.024 -0.059  0.094
 O          0.006  0.007  0.004   -0.001  0.000 -0.001   -0.021 -0.028 -0.019
 H          0.249  0.714 -0.208   -0.049  0.074  0.239    0.044 -0.012 -0.021
 H         -0.140 -0.182  0.233    0.104  0.403 -0.215   -0.008  0.005  0.015
 H         -0.030 -0.026  0.000    0.150  0.241  0.081    0.001  0.025 -0.030
 H         -0.102 -0.072  0.136   -0.004 -0.190  0.288   -0.013  0.004 -0.010
 H         -0.036 -0.314 -0.085   -0.187 -0.435  0.015   -0.008  0.007  0.012
 H          0.014 -0.167 -0.062    0.158  0.261  0.163   -0.018  0.004 -0.009
 H          0.008 -0.033  0.019   -0.007 -0.181  0.217   -0.015 -0.028 -0.015
 H         -0.093  0.008 -0.002    0.034 -0.029 -0.026   -0.370 -0.142 -0.307
 H          0.064 -0.028 -0.008    0.037 -0.008 -0.023   -0.003  0.035 -0.060
 H         -0.047 -0.024 -0.008    0.004  0.003  0.004    0.482  0.380  0.509
 H         -0.041 -0.037 -0.034    0.010  0.012  0.009    0.154  0.161  0.156
 TransDip  -0.024 -0.029  0.001   -0.022  0.015  0.027    0.066  0.100  0.054

 Mode:                25                     26                     27
 Frequency:      1316.31                1346.12                1393.84
 Force Cnst:      1.6366                 1.4028                 1.4312
 Red. Mass:       1.6032                 1.3140                 1.2504
 IR Active:          YES                    YES                    YES
 IR Intens:        8.228                  0.334                  8.945
 Raman Active:       YES                    YES                    YES
               X      Y      Z        X      Y      Z        X      Y      Z
 C          0.006  0.003  0.000    0.013  0.006  0.056    0.031  0.054 -0.077
 C         -0.011 -0.010  0.009   -0.045 -0.132  0.039    0.004  0.004  0.008
 C          0.002 -0.011 -0.012   -0.016 -0.014 -0.052   -0.019 -0.100 -0.033
 C         -0.025 -0.045 -0.015    0.003  0.006  0.000   -0.006  0.005 -0.008
 C          0.073  0.177 -0.003   -0.006 -0.017  0.001   -0.008 -0.017 -0.002
 O         -0.008 -0.086  0.051    0.000  0.009 -0.004    0.004  0.008  0.001
 H          0.038  0.049 -0.019    0.194  0.567 -0.162   -0.016  0.007  0.025
 H          0.001 -0.005  0.003    0.196  0.084 -0.120   -0.288 -0.182  0.208
 H         -0.003  0.014 -0.028   -0.075  0.154 -0.282    0.065 -0.287  0.291
 H         -0.002  0.007 -0.010    0.055  0.144 -0.330   -0.122 -0.076  0.320
 H         -0.044  0.058  0.031   -0.077  0.207  0.015   -0.078  0.407  0.028
 H         -0.010  0.057  0.026    0.090  0.279  0.202   -0.025  0.311  0.233
 H          0.049  0.040  0.045    0.181  0.193  0.174    0.276  0.324  0.102
 H          0.000 -0.044 -0.037    0.020 -0.002 -0.003    0.026  0.026  0.017
 H         -0.188  0.095 -0.288   -0.005 -0.001  0.035    0.028 -0.027  0.058
 H          0.211  0.299  0.098   -0.023 -0.034 -0.013    0.027  0.010  0.023
 H         -0.452 -0.558 -0.373    0.050  0.050  0.031    0.018  0.017  0.008
 TransDip   0.088  0.002  0.026   -0.015 -0.011 -0.001    0.054  0.000  0.079

 Mode:                28                     29                     30
 Frequency:      1400.95                1412.52                1455.37
 Force Cnst:      1.8539                 1.4004                 1.3233
 Red. Mass:       1.6032                 1.1913                 1.0604
 IR Active:          YES                    YES                    YES
 IR Intens:        9.080                 29.308                  0.177
 Raman Active:       YES                    YES                    YES
               X      Y      Z        X      Y      Z        X      Y      Z
 C         -0.066 -0.092  0.068    0.001  0.002  0.002    0.033 -0.038  0.011
 C          0.047  0.132 -0.040    0.003 -0.011  0.005    0.011  0.020 -0.008
 C         -0.009 -0.123  0.004   -0.002  0.016  0.004   -0.038 -0.010  0.001
 C         -0.003 -0.002 -0.005   -0.026  0.005 -0.067    0.001 -0.002  0.003
 C         -0.006 -0.005 -0.007   -0.053 -0.043 -0.062    0.002  0.005  0.000
 O          0.002  0.002  0.003    0.025  0.012  0.034   -0.001 -0.003  0.000
 H         -0.143 -0.419  0.119    0.012  0.037 -0.005   -0.022 -0.059  0.016
 H          0.222  0.217 -0.185    0.017  0.012 -0.012   -0.064  0.515  0.094
 H          0.021  0.375 -0.133   -0.012 -0.016 -0.015   -0.014 -0.240  0.105
 H          0.216 -0.004 -0.246   -0.017  0.007 -0.009   -0.467  0.130 -0.267
 H         -0.007  0.310  0.010    0.039 -0.072 -0.031    0.247  0.194 -0.217
 H         -0.162  0.225  0.140    0.022 -0.021 -0.009    0.348 -0.049  0.186
 H          0.199  0.299 -0.100   -0.044 -0.039 -0.033   -0.097 -0.148  0.031
 H          0.018  0.040  0.037    0.252  0.379  0.306   -0.010 -0.010 -0.007
 H          0.022 -0.027  0.051    0.152 -0.230  0.573   -0.002  0.007 -0.022
 H          0.017  0.024  0.019    0.260  0.281  0.233    0.001  0.002 -0.004
 H         -0.006 -0.006 -0.005   -0.142 -0.164 -0.125   -0.013 -0.001  0.004
 TransDip   0.019  0.089 -0.034   -0.130 -0.115  0.001   -0.007  0.011  0.001

 Mode:                31                     32                     33
 Frequency:      1465.09                1467.57                1477.14
 Force Cnst:      1.3261                 1.3329                 1.3488
 Red. Mass:       1.0486                 1.0504                 1.0492
 IR Active:          YES                    YES                    YES
 IR Intens:        1.974                  8.726                 10.718
 Raman Active:       YES                    YES                    YES
               X      Y      Z        X      Y      Z        X      Y      Z
 C         -0.014 -0.018 -0.027   -0.025  0.018 -0.001   -0.010 -0.030 -0.004
 C         -0.017 -0.035  0.005   -0.012  0.020 -0.004   -0.001 -0.003 -0.033
 C         -0.011  0.004  0.026   -0.044 -0.004 -0.012    0.014  0.022 -0.030
 C          0.001  0.001  0.005    0.001  0.004  0.009   -0.002 -0.001 -0.007
 C         -0.001  0.003 -0.002   -0.007 -0.004 -0.009    0.000 -0.004  0.001
 O          0.000 -0.002  0.001    0.002  0.001  0.002    0.001  0.002  0.000
 H          0.044  0.131 -0.046   -0.010 -0.050  0.005   -0.025 -0.020 -0.027
 H         -0.319  0.036  0.261    0.076 -0.353 -0.093   -0.228  0.137  0.201
 H          0.270  0.318  0.366   -0.011  0.169 -0.112    0.186  0.197  0.278
 H          0.349  0.021 -0.215    0.310 -0.103  0.205    0.171  0.044 -0.237
 H          0.274 -0.142 -0.215    0.231  0.323 -0.218   -0.339  0.203  0.271
 H         -0.001  0.185  0.137    0.521 -0.147  0.209    0.080 -0.309 -0.194
 H         -0.109  0.038 -0.344   -0.114 -0.260  0.200    0.104 -0.114  0.498
 H          0.002 -0.018 -0.012   -0.006 -0.021 -0.014    0.004  0.034  0.026
 H         -0.012  0.012 -0.018    0.010  0.008 -0.019   -0.002 -0.014  0.044
 H          0.008  0.006 -0.003    0.016  0.023  0.015    0.005 -0.001  0.003
 H         -0.011 -0.004 -0.001   -0.020 -0.008 -0.003    0.009 -0.001 -0.003
 TransDip   0.039  0.022  0.005    0.077 -0.051  0.021    0.012  0.017  0.103

 Mode:                34                     35                     36
 Frequency:      1581.86                2935.62                2939.39
 Force Cnst:      4.5240                 5.2938                 5.2938
 Red. Mass:       3.0686                 1.0426                 1.0399
 IR Active:          YES                    YES                    YES
 IR Intens:      115.381                 39.411                 48.309
 Raman Active:       YES                    YES                    YES
               X      Y      Z        X      Y      Z        X      Y      Z
 C          0.005 -0.001 -0.005   -0.035 -0.005  0.039   -0.015 -0.002  0.015
 C         -0.041  0.020  0.014    0.000  0.000  0.001   -0.001  0.001  0.001
 C          0.001 -0.005 -0.001    0.005 -0.017 -0.008   -0.011  0.044  0.021
 C         -0.111 -0.058 -0.226    0.000  0.000  0.000    0.001  0.000  0.000
 C          0.201  0.107  0.243    0.000  0.000  0.000    0.000  0.000  0.000
 O         -0.043 -0.038 -0.047    0.000  0.000  0.000    0.000  0.000  0.000
 H          0.057 -0.033 -0.015   -0.001 -0.003  0.000    0.002  0.001 -0.001
 H         -0.004 -0.035  0.005   -0.278  0.007 -0.293   -0.105  0.004 -0.111
 H          0.007  0.039 -0.028    0.678 -0.233 -0.289    0.275 -0.092 -0.119
 H          0.022 -0.016  0.030    0.024  0.291  0.113    0.010  0.116  0.043
 H          0.055  0.027 -0.042    0.116 -0.007  0.139   -0.290  0.014 -0.344
 H          0.051  0.014  0.037    0.067  0.072 -0.117   -0.167 -0.183  0.289
 H         -0.037 -0.054 -0.026   -0.236  0.139  0.079    0.588 -0.358 -0.198
 H          0.140  0.433  0.201    0.000  0.001  0.000    0.000  0.003 -0.003
 H         -0.092 -0.245  0.342   -0.001 -0.002  0.000   -0.001  0.000  0.000
 H         -0.300 -0.424 -0.193    0.000  0.000 -0.001    0.000  0.002 -0.002
 H          0.129  0.141  0.120    0.001  0.000  0.000   -0.001 -0.001  0.002
 TransDip   0.231  0.185  0.177   -0.127 -0.114  0.107   -0.133  0.155  0.090

 Mode:                37                     38                     39
 Frequency:      2987.79                2989.41                3023.45
 Force Cnst:      5.7467                 5.7541                 5.9280
 Red. Mass:       1.0926                 1.0928                 1.1007
 IR Active:          YES                    YES                    YES
 IR Intens:       32.884                  4.755                 22.028
 Raman Active:       YES                    YES                    YES
               X      Y      Z        X      Y      Z        X      Y      Z
 C         -0.048  0.024 -0.016   -0.057  0.028 -0.018    0.001 -0.004 -0.001
 C          0.000  0.001  0.003    0.000 -0.001  0.000    0.003  0.001  0.006
 C         -0.067  0.006 -0.004    0.057 -0.005  0.001    0.005  0.031 -0.086
 C          0.000  0.000  0.001    0.000  0.000  0.000    0.000  0.000  0.000
 C          0.000  0.000  0.000    0.000  0.000  0.000    0.000  0.000  0.000
 O          0.000  0.000  0.000    0.000  0.000  0.000    0.000  0.000  0.000
 H         -0.016 -0.002 -0.027   -0.004 -0.001 -0.005   -0.038 -0.009 -0.083
 H          0.333 -0.003  0.392    0.393  0.000  0.458    0.002 -0.003  0.003
 H          0.287 -0.095 -0.135    0.340 -0.115 -0.159   -0.012  0.003  0.005
 H         -0.035 -0.189 -0.072   -0.042 -0.221 -0.087    0.005  0.037  0.014
 H          0.315  0.000  0.411   -0.257  0.004 -0.337    0.361 -0.002  0.425
 H          0.115  0.159 -0.231   -0.101 -0.140  0.206   -0.349 -0.412  0.611
 H          0.372 -0.241 -0.135   -0.326  0.209  0.117   -0.063  0.048 -0.002
 H          0.001  0.001 -0.004   -0.002 -0.002  0.003   -0.001 -0.002  0.004
 H         -0.001 -0.003 -0.002    0.001  0.000 -0.001    0.002  0.003  0.002
 H          0.000 -0.001  0.001    0.000  0.003 -0.003    0.000  0.002 -0.002
 H          0.002  0.001 -0.001   -0.002  0.000  0.001    0.000 -0.002  0.001
 TransDip  -0.172  0.065 -0.004    0.005  0.052 -0.046    0.043  0.065 -0.129

 Mode:                40                     41                     42
 Frequency:      3034.21                3074.93                3109.43
 Force Cnst:      5.9617                 5.9180                 6.1998
 Red. Mass:       1.0991                 1.0623                 1.0883
 IR Active:          YES                    YES                    YES
 IR Intens:       19.407                  7.345                 27.982
 Raman Active:       YES                    YES                    YES
               X      Y      Z        X      Y      Z        X      Y      Z
 C         -0.022 -0.070 -0.053    0.000  0.001  0.001   -0.005 -0.006 -0.004
 C          0.003  0.001  0.005    0.000  0.000  0.001   -0.030 -0.012 -0.078
 C          0.000 -0.002  0.004   -0.001  0.000  0.001   -0.002  0.005 -0.007
 C          0.000  0.000 -0.001   -0.014  0.013 -0.068    0.000  0.000  0.000
 C          0.000  0.000  0.000    0.004  0.003  0.003    0.000  0.000  0.000
 O          0.000  0.000  0.000    0.000  0.000  0.000    0.000  0.000  0.000
 H         -0.037 -0.012 -0.079   -0.001 -0.002 -0.009    0.374  0.132  0.905
 H          0.287 -0.020  0.315   -0.005  0.001 -0.006    0.037 -0.002  0.043
 H         -0.119  0.021  0.034    0.004 -0.001 -0.002    0.000 -0.002 -0.002
 H          0.098  0.828  0.299   -0.002 -0.014 -0.005    0.010  0.069  0.021
 H         -0.016  0.002 -0.021    0.000  0.000 -0.001    0.039  0.001  0.048
 H          0.017  0.020 -0.029    0.003  0.002 -0.004   -0.026 -0.035  0.044
 H          0.001  0.000  0.001    0.005 -0.004 -0.002    0.004 -0.002 -0.003
 H          0.000 -0.010  0.012   -0.050 -0.591  0.646   -0.002 -0.007  0.007
 H          0.001  0.007  0.003    0.175  0.428  0.103    0.001  0.006  0.001
 H         -0.001  0.002 -0.003    0.001 -0.018  0.012    0.000 -0.001  0.001
 H          0.000  0.000  0.000   -0.002 -0.007  0.000    0.001  0.000  0.000
 TransDip  -0.035 -0.122 -0.061    0.055  0.043 -0.052   -0.050 -0.023 -0.160

 Mode:                43                     44                     45
 Frequency:      3148.83                3183.03                3872.23
 Force Cnst:      6.3754                 6.6380                 9.4134
 Red. Mass:       1.0913                 1.1120                 1.0655
 IR Active:          YES                    YES                    YES
 IR Intens:        2.959                  6.752                 46.750
 Raman Active:       YES                    YES                    YES
               X      Y      Z        X      Y      Z        X      Y      Z
 C          0.000  0.000  0.000    0.000  0.000  0.000    0.000  0.000  0.000
 C         -0.001  0.000  0.000    0.000  0.000  0.000    0.000  0.000  0.000
 C          0.000  0.000  0.000    0.000  0.000  0.000    0.000  0.000  0.000
 C          0.006  0.023 -0.007   -0.030 -0.089  0.007    0.000  0.001 -0.001
 C          0.010 -0.058  0.059    0.003 -0.017  0.017    0.001 -0.002  0.003
 O         -0.001  0.001 -0.001    0.000  0.001  0.000    0.006 -0.045  0.043
 H          0.001  0.000  0.001    0.001  0.000  0.000    0.000  0.000  0.000
 H         -0.002  0.000 -0.003    0.001 -0.001  0.000    0.000  0.000  0.000
 H         -0.002  0.001  0.000    0.001  0.000 -0.001    0.000  0.000  0.000
 H          0.000 -0.003 -0.001    0.001 -0.001 -0.001    0.000  0.000  0.000
 H          0.001  0.000  0.002    0.000  0.000  0.001   -0.001  0.000  0.000
 H          0.002  0.002 -0.003    0.001  0.002 -0.002   -0.001 -0.002  0.002
 H          0.002 -0.001  0.000   -0.001  0.001  0.000    0.000 -0.001  0.000
 H         -0.009 -0.084  0.097    0.022  0.291 -0.329   -0.003 -0.005  0.003
 H         -0.079 -0.192 -0.048    0.319  0.767  0.208    0.001  0.000  0.001
 H         -0.093  0.696 -0.661   -0.027  0.180 -0.173   -0.002  0.012 -0.011
 H          0.005 -0.009  0.016    0.003  0.003  0.005   -0.100  0.711 -0.693
 TransDip  -0.035 -0.039  0.016   -0.032 -0.074  0.021    0.101  0.177 -0.079

 STANDARD THERMODYNAMIC QUANTITIES AT   298.15 K  AND     1.00 ATM

   This Molecule has  1 Imaginary Frequencies
   Zero point vibrational energy:       91.317 kcal/mol

   Atom    1 Element C  Has Mass   12.00000
   Atom    2 Element C  Has Mass   12.00000
   Atom    3 Element C  Has Mass   12.00000
   Atom    4 Element C  Has Mass   12.00000
   Atom    5 Element C  Has Mass   12.00000
   Atom    6 Element O  Has Mass   15.99491
   Atom    7 Element H  Has Mass    1.00783
   Atom    8 Element H  Has Mass    1.00783
   Atom    9 Element H  Has Mass    1.00783
   Atom   10 Element H  Has Mass    1.00783
   Atom   11 Element H  Has Mass    1.00783
   Atom   12 Element H  Has Mass    1.00783
   Atom   13 Element H  Has Mass    1.00783
   Atom   14 Element H  Has Mass    1.00783
   Atom   15 Element H  Has Mass    1.00783
   Atom   16 Element H  Has Mass    1.00783
   Atom   17 Element H  Has Mass    1.00783
   Molecular Mass:    87.081040 amu
   Principal axes and moments of inertia in amu*Bohr^2:
                             1           2           3
    Eigenvalues --      378.79142   872.10858  1007.08138
          X               0.99981     0.00180    -0.01926
          Y              -0.00265     0.99900    -0.04455
          Z               0.01916     0.04459     0.99882
   Rotational Symmetry Number is   1
   The Molecule is an Asymmetric Top
   Translational Enthalpy:        0.889 kcal/mol
   Rotational Enthalpy:           0.889 kcal/mol
   Vibrational Enthalpy:         94.890 kcal/mol
   gas constant (RT):             0.592 kcal/mol
   Translational Entropy:        39.306  cal/mol.K
   Rotational Entropy:           27.300  cal/mol.K
   Vibrational Entropy:          22.194  cal/mol.K

   Total Enthalpy:               97.260 kcal/mol
   Total Entropy:                88.800  cal/mol.K
Archival summary:
1\1\node54\FREQ\ProcedureUnspecified\BasisUnspecified\1511(2)\edames\WedJul912:08:382014WedJul912:08:382014\0\\#,FREQ,ProcedureUnspecified,BasisUnspecified,\\0,2\O\H,1,0.965134\C,1,1.36377,2,109.97\H,3,1.08686,1,111.833,2,-179.923,0\C,3,1.35787,1,124.739,2,4.44335,0\H,5,1.08639,3,118.544,1,-171.622,0\H,5,1.09114,3,119.958,1,-16.1281,0\C,5,2.25466,3,109.38,1,83.9808,0\H,8,1.09228,5,96.6496,3,-177.214,0\C,8,1.49766,5,102.272,3,63.2059,0\H,10,1.09774,8,112.058,5,64.649,0\H,10,1.10175,8,110.131,5,-55.737,0\H,10,1.10391,8,111.894,5,-174.52,0\C,8,1.49879,5,100.888,3,-58.1324,0\H,14,1.09948,8,112.032,5,-61.5969,0\H,14,1.10128,8,110.265,5,59.2841,0\H,14,1.10412,8,111.985,5,178.11,0\\\@

 Total job time:  60397.70s(wall), 59898.09s(cpu) 
 Wed Jul  9 12:08:38 2014

        *************************************************************
        *                                                           *
        *  Thank you very much for using Q-Chem.  Have a nice day.  *
        *                                                           *
        *************************************************************


0 sent ACK to 0 
now end server 0 ... 
cleanup process ... done
remove work dirs /scratch/edames/qchem27899.0 -- /scratch/edames/qchem27899.7
rm -rf /scratch/edames/qchem27899.0
rm -rf /scratch/edames/qchem27899.1
rm -rf /scratch/edames/qchem27899.2
rm -rf /scratch/edames/qchem27899.3
rm -rf /scratch/edames/qchem27899.4
rm -rf /scratch/edames/qchem27899.5
rm -rf /scratch/edames/qchem27899.6
rm -rf /scratch/edames/qchem27899.7
rm -rf /scratch/edames/qchem27899
