
Running Job 1 of 2 iC5H11O-2_betasc_CH2CHOHm08.in
qchem iC5H11O-2_betasc_CH2CHOHm08.in_16837.0 /scratch/edames/qchem16837/ 8
/opt/qchem/bin/mpi/mpirun_qchem -machinefile /tmp/314614.1.normal2/hostfile -np 8 /opt/qchem/exe/qcprog.exe iC5H11O-2_betasc_CH2CHOHm08.in_16837.0 /scratch/edames/qchem16837/

Process 4 of 8 is on node48.cluster - thread support 0
Process 1 of 8 is on node48.cluster - thread support 0
Process 3 of 8 is on node48.cluster - thread support 0
Process 0 of 8 is on node48.cluster - thread support 0
Process 2 of 8 is on node48.cluster - thread support 0
Process 5 of 8 is on node48.cluster - thread support 0
Process 6 of 8 is on node48.cluster - thread support 0
Process 7 of 8 is on node48.cluster - thread support 0
initial socket setup ...start
initial socket setup ...done 
now start server 0 ... 
set process cleaner
set process cleaner
set process cleaner
set process cleaner
set process cleaner
set process cleaner
set process cleaner
                  Welcome to Q-Chem
     A Quantum Leap Into The Future Of Chemistry


 Q-Chem 4.2, Q-Chem, Inc., Pleasanton, CA (2014).

 Y. Shao,  Z. Gan,  E. Epifanovsky,  A. T. B. Gilbert,  M. Wormit,  
 J. Kussmann,  A. W. Lange,  A. Behn,  J. Deng,  X. Feng,  D. Ghosh,  
 M. Goldey,  P. R. Horn,  L. D. Jacobson,  I. Kaliman,  R. Z. Khaliullin,  
 T. Kus,  A. Landau,  J. Liu,  E. I. Proynov,  Y. M. Rhee,  R. M. Richard,  
 M. A. Rohrdanz,  R. P. Steele,  E. J. Sundstrom,  H. L. Woodcock III,  
 P. M. Zimmerman,  D. Zuev,  B. Albrecht,  E. Alguire,  B. Austin,  
 G. J. O. Beran,  Y. A. Bernard,  E. Berquist,  K. Brandhorst,  
 K. B. Bravaya,  S. T. Brown,  D. Casanova,  C.-M. Chang,  Y. Chen,  
 S. H. Chien,  K. D. Closser,  D. L. Crittenden,  M. Diedenhofen,  
 R. A. DiStasio Jr.,  H. Do,  A. D. Dutoi,  R. G. Edgar,  S. Fatehi,  
 L. Fusti-Molnar,  A. Ghysels,  A. Golubeva-Zadorozhnaya,  J. Gomes,  
 M. W. D. Hanson-Heine,  P. H. P. Harbach,  A. W. Hauser,  E. G. Hohenstein,  
 Z. C. Holden,  T.-C. Jagau,  H. Ji,  B. Kaduk,  K. Khistyaev,  Jaehoon Kim,  
 Jihan Kim,  R. A. King,  P. Klunzinger,  D. Kosenkov,  T. Kowalczyk,  
 C. M. Krauter,  K. U. Lao,  A. Laurent,  K. V. Lawler,  S. V. Levchenko,  
 C. Y. Lin,  F. Liu,  E. Livshits,  R. C. Lochan,  A. Luenser,  P. Manohar,  
 S. F. Manzer,  S.-P. Mao,  N. Mardirossian,  A. V. Marenich,  S. A. Maurer,  
 N. J. Mayhall,  C. M. Oana,  R. Olivares-Amaya,  D. P. O'Neill,  
 J. A. Parkhill,  T. M. Perrine,  R. Peverati,  P. A. Pieniazek,  A. Prociuk,  
 D. R. Rehn,  E. Rosta,  N. J. Russ,  N. Sergueev,  S. M. Sharada,  
 S. Sharma,  D. W. Small,  A. Sodt,  T. Stein,  D. Stuck,  Y.-C. Su,  
 A. J. W. Thom,  T. Tsuchimochi,  L. Vogt,  O. Vydrov,  T. Wang,  
 M. A. Watson,  J. Wenzel,  A. White,  C. F. Williams,  V. Vanovschi,  
 S. Yeganeh,  S. R. Yost,  Z.-Q. You,  I. Y. Zhang,  X. Zhang,  Y. Zhao,  
 B. R. Brooks,  G. K. L. Chan,  D. M. Chipman,  C. J. Cramer,  
 W. A. Goddard III,  M. S. Gordon,  W. J. Hehre,  A. Klamt,  
 H. F. Schaefer III,  M. W. Schmidt,  C. D. Sherrill,  D. G. Truhlar,  
 A. Warshel,  X. Xu,  A. Aspuru-Guzik,  R. Baer,  A. T. Bell,  N. A. Besley,  
 J.-D. Chai,  A. Dreuw,  B. D. Dunietz,  T. R. Furlani,  S. R. Gwaltney,  
 C.-P. Hsu,  Y. Jung,  J. Kong,  D. S. Lambrecht,  W. Liang,  C. Ochsenfeld,  
 V. A. Rassolov,  L. V. Slipchenko,  J. E. Subotnik,  T. Van Voorhis,  
 J. M. Herbert,  A. I. Krylov,  P. M. W. Gill,  M. Head-Gordon

 Contributors to earlier versions of Q-Chem not listed above: 
 R. D. Adamson,  J. Baker,  E. F. C. Byrd,  A. K. Chakraborty,  C.-L. Cheng,  
 H. Dachsel,  R. J. Doerksen,  G. Hawkins,  A. Heyden,  S. Hirata,  
 G. Kedziora,  F. J. Keil,  C. Kelley,  P. P. Korambath,  W. Kurlancheek,  
 A. M. Lee,  M. S. Lee,  D. Liotard,  I. Lotan,  P. E. Maslen,  N. Nair,  
 D. Neuhauser,  R. Olson,  B. Peters,  J. Ritchie,  N. E. Schultz,  
 N. Shenvi,  A. C. Simmonett,  K. S. Thanthiriwatte,  Q. Wu,  W. Zhang

 Q-Chem 4.2.0 for Intel X86 Linux

 Parts of Q-Chem use Armadillo 4.100.2 (Dirt Cruiser).
 http://arma.sourceforge.net/

 Q-Chem begins on Mon Jun  9 11:31:58 2014  

Host: 
0

     Scratch files written to /scratch/edames/qchem16837.0//
 May2514 8580_ilyak 4150   
 Parallel job on  8  processors
Processing $rem in /opt/qchem/config/preferences.
 MEM_TOTAL  2000 

 Q-Chem warning in module /home/scratch/svnadmin/8580_ilyak/qchem/forms1/BasisType.C, line 1209:

 Setting pure/cartesian flag to 2111 for general basis


Finally everything over in PARseQInput

--------------------------------------------------------------
User input:
--------------------------------------------------------------
$rem
XC_GRID 000075000434
JOBTYPE ts
EXCHANGE M08SO
incdft false
varthresh false
BASIS gen
GUI=2
UNRESTRICTED TRUE
CORRELATION NONE
$end

$comment
c5h11o-2
$end

$molecule
read iC5H11O-2_betasc_CH2CHOH.out
$end

$basis
H  0
S  3 1.00
3.386500000000E+01 2.549380000000E-02
5.094790000000E+00 1.903730000000E-01
1.158790000000E+00 8.521610000000E-01
S  1 1.00
3.258400000000E-01 1.000000000000E+00
S  1 1.00
1.027410000000E-01 1.000000000000E+00
S  1 1.00
3.600000000000E-02 1.000000000000E+00
P  1 1.00
1.500000000000E+00 1.000000000000E+00
P  1 1.00
3.750000000000E-01 1.000000000000E+00
****
C 0
S  6 1.00
4.563240000000E+03 1.966650000000E-03
6.820240000000E+02 1.523060000000E-02
1.549730000000E+02 7.612690000000E-02
4.445530000000E+01 2.608010000000E-01
1.302900000000E+01 6.164620000000E-01
1.827730000000E+00 2.210060000000E-01
S  3 1.00
2.096420000000E+01 1.146600000000E-01
4.803310000000E+00 9.199990000000E-01
1.459330000000E+00 -3.030680000000E-03
S  1 1.00
4.834560000000E-01 1.000000000000E+00
S  1 1.00
1.455850000000E-01 1.000000000000E+00
S  1 1.00
4.380000000000E-02 1.000000000000E+00
P  3 1.00
2.096420000000E+01 4.024870000000E-02
4.803310000000E+00 2.375940000000E-01
1.459330000000E+00 8.158540000000E-01
P  1 1.00
4.834560000000E-01 1.000000000000E+00
P  1 1.00
1.455850000000E-01 1.000000000000E+00
P  1 1.00
4.380000000000E-02 1.000000000000E+00
D  1 1.00
1.252000000000E+00 1.000000000000E+00
D  1 1.00
3.130000000000E-01 1.000000000000E+00
F  1 1.00
8.000000000000E-01 1.000000000000E+00
****
O  0
S  6 1.00
8.588500000000E+03 1.895150000000E-03
1.297230000000E+03 1.438590000000E-02
2.992960000000E+02 7.073200000000E-02
8.737710000000E+01 2.400010000000E-01
2.567890000000E+01 5.947970000000E-01
3.740040000000E+00 2.808020000000E-01
S  3 1.00
4.211750000000E+01 1.138890000000E-01
9.628370000000E+00 9.208110000000E-01
2.853320000000E+00 -3.274470000000E-03
S  1 1.00
9.056610000000E-01 1.000000000000E+00
S  1 1.00
2.556110000000E-01 1.000000000000E+00
S  1 1.00
8.450000000000E-02 1.000000000000E+00
P  3 1.00
4.211750000000E+01 3.651140000000E-02
9.628370000000E+00 2.371530000000E-01
2.853320000000E+00 8.197020000000E-01
P  1 1.00
9.056610000000E-01 1.000000000000E+00
P  1 1.00
2.556110000000E-01 1.000000000000E+00
P  1 1.00
8.450000000000E-02 1.000000000000E+00
D  1 1.00
2.584000000000E+00 1.000000000000E+00
D  1 1.00
6.460000000000E-01 1.000000000000E+00
F  1 1.00
1.400000000000E+00 1.000000000000E+00
****
$end

--------------------------------------------------------------
 ----------------------------------------------------------------
             Standard Nuclear Orientation (Angstroms)
    I     Atom           X                Y                Z
 ----------------------------------------------------------------
    1      C      -0.9414828052    -1.4945899053    -0.0331302004
    2      C      -1.2304511920    -0.0846196360    -0.4549304056
    3      C      -2.3536702224     0.6407718220     0.2250196406
    4      H      -1.1276211280     0.1084100525    -1.5200204559
    5      H      -0.8587627327    -1.5764298102     1.0581398012
    6      H      -1.7445736747    -2.1853590027    -0.3353299528
    7      H      -0.0132533174    -1.8671210888    -0.4743702789
    8      H      -2.2437300771     0.6201018847     1.3160496272
    9      H      -2.4145490248     1.6873918391    -0.0872605356
   10      H      -3.3302608033     0.1820929452     0.0016698741
   11      C       0.6250102915     1.0761682702     0.1958690995
   12      C       1.7694395861     0.5512868159    -0.3203509856
   13      O       2.4575984022    -0.5108039115     0.1979590956
   14      H       0.3499302092     0.8721787806     1.2268791785
   15      H       0.2544413313     2.0038086376    -0.2198210074
   16      H       2.1869198017     0.8567161501    -1.2713111048
   17      H       2.0675982502    -0.7494632965     1.0468391987
 ----------------------------------------------------------------
 Molecular Point Group                 C1    NOp =  1
 Largest Abelian Subgroup              C1    NOp =  1
 Nuclear Repulsion Energy =   236.4982162139 hartrees
 There are       25 alpha and       24 beta electrons
 Requested basis set is non-standard
 There are 138 shells and 314 basis functions

Total QAlloc Memory Limit   2000 MB
Mega-Array Size        61 MB
MEM_STATIC part        62 MB
 A cutoff of  1.0D-11 yielded   8887 shell pairs
 There are     45715 function pairs (     54891 Cartesian)
 Smallest overlap matrix eigenvalue = 2.05E-05

  Scale SEOQF with 1.000000e-01/1.000000e-01/1.000000e-01

 Standard Electronic Orientation quadrupole field applied
 Nucleus-field energy     =     0.0000000075 hartrees
 Guess MOs from core Hamiltonian diagonalization
 An unrestricted hybrid HF-DFT SCF calculation will be
 performed using Pulay DIIS extrapolation
 Exchange:     0.5679 Hartree-Fock + 1.0000 M08SO
 SCF converges when DIIS error is below 1.0E-08
 ---------------------------------------
  Cycle       Energy         DIIS Error
 ---------------------------------------
    1    -192.9528119053      9.11E-02
    2    -166.1114571574      5.24E-02
    3    -163.3416229311      6.27E-02
    4    -248.4205330619      3.36E-02
    5    -258.9606600574      2.12E-02
    6    -235.1002231133      3.40E-02
    7    -271.7690704365      5.39E-03
    8    -272.0408535844      3.43E-03
    9    -272.1420046614      1.30E-03
   10    -272.1616304497      4.35E-04
   11    -272.1646543505      1.73E-04
   12    -272.1652704772      5.02E-05
   13    -272.1653995359      2.53E-05
   14    -272.1654334016      1.32E-05
   15    -272.1654503061      5.46E-06
   16    -272.1654570150      2.39E-06
   17    -272.1654581041      1.62E-06
   18    -272.1654583935      7.28E-07
   19    -272.1654585037      2.60E-07
   20    -272.1654585308      9.51E-08
   21    -272.1654585410      4.05E-08
   22    -272.1654585434      1.07E-08
   23    -272.1654585433      2.07E-09 Convergence criterion met
 ---------------------------------------
 <S^2> = 0.7790
 SCF time:  CPU 1294.45 s  wall 1310.61 s
 SCF   energy in the final basis set = -272.1654585433
 Total energy in the final basis set = -272.1654585433
 Analysis of SCF Wavefunction
 
 --------------------------------------------------------------
                    Orbital Energies (a.u.)
 --------------------------------------------------------------
 
 Alpha MOs
 -- Occupied --
-19.595 -10.552 -10.506 -10.495 -10.487 -10.486  -1.173  -0.885
 -0.844  -0.783  -0.710  -0.653  -0.578  -0.567  -0.529  -0.512
 -0.488  -0.478  -0.459  -0.454  -0.445  -0.417  -0.410  -0.334
 -0.210
 -- Virtual --
 -0.027  -0.015  -0.008  -0.006   0.013   0.016   0.018   0.023
  0.024   0.046   0.050   0.058   0.063   0.070   0.080   0.087
  0.097   0.100   0.110   0.117   0.120   0.129   0.133   0.135
  0.140   0.143   0.150   0.157   0.165   0.167   0.174   0.181
  0.199   0.206   0.219   0.227   0.230   0.242   0.247   0.256
  0.272   0.284   0.302   0.307   0.318   0.322   0.333   0.349
  0.355   0.371   0.386   0.429   0.449   0.467   0.482   0.496
  0.503   0.513   0.522   0.528   0.555   0.558   0.561   0.569
  0.579   0.584   0.595   0.602   0.618   0.621   0.631   0.640
  0.645   0.654   0.671   0.684   0.702   0.703   0.712   0.725
  0.731   0.765   0.773   0.779   0.805   0.816   0.838   0.864
  0.881   0.894   0.927   0.948   0.978   0.987   0.998   1.014
  1.034   1.073   1.078   1.083   1.093   1.105   1.121   1.135
  1.147   1.163   1.177   1.179   1.201   1.209   1.222   1.250
  1.260   1.282   1.294   1.303   1.318   1.333   1.344   1.349
  1.358   1.380   1.387   1.408   1.413   1.422   1.457   1.464
  1.480   1.490   1.503   1.520   1.535   1.544   1.557   1.570
  1.580   1.610   1.616   1.652   1.688   1.709   1.719   1.830
  1.902   1.985   2.234   2.247   2.331   2.344   2.430   2.467
  2.490   2.507   2.528   2.554   2.601   2.646   2.668   2.686
  2.717   2.735   2.758   2.773   2.801   2.819   2.845   2.875
  2.906   2.915   2.926   2.948   2.952   2.983   2.998   3.009
  3.024   3.047   3.071   3.094   3.125   3.134   3.150   3.175
  3.192   3.207   3.233   3.240   3.246   3.289   3.293   3.308
  3.342   3.346   3.362   3.374   3.397   3.416   3.435   3.451
  3.489   3.510   3.524   3.545   3.561   3.564   3.576   3.585
  3.626   3.640   3.664   3.692   3.739   3.747   3.770   3.792
  3.815   3.829   3.871   3.888   3.896   3.922   3.963   3.976
  4.002   4.016   4.048   4.054   4.080   4.085   4.144   4.151
  4.157   4.198   4.201   4.209   4.224   4.234   4.277   4.281
  4.326   4.349   4.366   4.391   4.426   4.434   4.484   4.490
  4.516   4.530   4.538   4.559   4.579   4.622   4.769   4.819
  4.917   5.025   5.120   5.131   5.153   5.175   5.195   5.356
  5.398   5.450   5.502   5.537   5.608   5.613   5.626   5.637
  5.664   5.754   5.838   6.194   6.666   6.910   7.100   7.133
  7.250   7.480   7.567  23.977  24.003  24.176  24.291  24.606
 49.801
 
 Beta MOs
 -- Occupied --
-19.593 -10.545 -10.498 -10.491 -10.488 -10.486  -1.168  -0.878
 -0.841  -0.781  -0.707  -0.641  -0.574  -0.564  -0.522  -0.494
 -0.478  -0.467  -0.457  -0.448  -0.444  -0.418  -0.411  -0.305
 -- Virtual --
 -0.033  -0.022  -0.020  -0.013  -0.011   0.008   0.012   0.015
  0.020   0.021   0.043   0.048   0.058   0.059   0.064   0.078
  0.082   0.096   0.098   0.113   0.115   0.117   0.126   0.130
  0.132   0.137   0.143   0.148   0.155   0.161   0.165   0.174
  0.178   0.201   0.205   0.219   0.227   0.230   0.243   0.248
  0.259   0.271   0.287   0.302   0.308   0.324   0.332   0.342
  0.350   0.355   0.374   0.388   0.432   0.449   0.467   0.485
  0.496   0.507   0.514   0.528   0.537   0.558   0.560   0.566
  0.573   0.584   0.587   0.604   0.611   0.626   0.636   0.640
  0.643   0.655   0.662   0.671   0.687   0.704   0.708   0.716
  0.728   0.734   0.770   0.779   0.783   0.808   0.823   0.843
  0.866   0.886   0.896   0.930   0.953   0.984   0.996   1.003
  1.020   1.038   1.077   1.080   1.087   1.096   1.111   1.125
  1.138   1.149   1.171   1.181   1.182   1.213   1.214   1.231
  1.262   1.273   1.289   1.305   1.314   1.330   1.348   1.358
  1.364   1.371   1.387   1.393   1.414   1.422   1.429   1.460
  1.469   1.483   1.492   1.511   1.526   1.541   1.557   1.563
  1.573   1.584   1.621   1.625   1.659   1.705   1.718   1.734
  1.834   1.907   1.994   2.238   2.250   2.341   2.352   2.439
  2.478   2.508   2.517   2.543   2.561   2.613   2.648   2.693
  2.727   2.750   2.767   2.821   2.842   2.866   2.879   2.899
  2.902   2.919   2.929   2.942   2.963   2.972   3.009   3.015
  3.030   3.045   3.064   3.098   3.119   3.145   3.156   3.169
  3.178   3.194   3.224   3.252   3.261   3.269   3.303   3.317
  3.324   3.352   3.374   3.376   3.399   3.410   3.431   3.449
  3.486   3.505   3.522   3.544   3.548   3.573   3.575   3.588
  3.614   3.643   3.675   3.709   3.744   3.759   3.770   3.783
  3.825   3.834   3.852   3.880   3.899   3.908   3.923   3.967
  3.982   4.005   4.036   4.053   4.069   4.091   4.111   4.153
  4.171   4.191   4.203   4.205   4.213   4.233   4.252   4.291
  4.305   4.338   4.361   4.372   4.411   4.444   4.468   4.506
  4.510   4.530   4.558   4.587   4.601   4.633   4.728   4.866
  4.902   4.956   5.033   5.127   5.138   5.169   5.187   5.235
  5.355   5.498   5.520   5.541   5.553   5.600   5.609   5.635
  5.644   5.677   5.756   5.836   6.190   6.667   6.911   7.102
  7.139   7.250   7.475   7.559  23.980  24.008  24.181  24.312
 24.614  49.804
 --------------------------------------------------------------
 
          Ground-State Mulliken Net Atomic Charges

     Atom                 Charge (a.u.)    Spin (a.u.)
  --------------------------------------------------------
      1 C                    -0.754271      -0.032095
      2 C                    -0.042176       0.729863
      3 C                    -0.632776      -0.032478
      4 H                     0.235569      -0.037036
      5 H                     0.210090       0.010852
      6 H                     0.196582       0.039526
      7 H                     0.215916       0.005621
      8 H                     0.195110       0.009903
      9 H                     0.188230       0.006120
     10 H                     0.185723       0.044296
     11 C                    -0.438003      -0.182850
     12 C                    -0.186290       0.398014
     13 O                    -0.269517       0.031230
     14 H                     0.215094       0.018345
     15 H                     0.192162       0.012540
     16 H                     0.208145      -0.021074
     17 H                     0.280411      -0.000778
  --------------------------------------------------------
  Sum of atomic charges =     0.000000
  Sum of spin   charges =     1.000000

 -----------------------------------------------------------------
                    Cartesian Multipole Moments
 -----------------------------------------------------------------
    Charge (ESU x 10^10)
                 0.0000
    Dipole Moment (Debye)
         X      -1.1500      Y       0.1930      Z       0.6239
       Tot       1.3225
    Quadrupole Moments (Debye-Ang)
        XX     -45.3762     XY       0.3400     YY     -40.6329
        XZ       0.6879     YZ      -2.2418     ZZ     -37.5201
    Octopole Moments (Debye-Ang^2)
       XXX      -7.0914    XXY       0.8251    XYY       0.8913
       YYY      -1.9903    XXZ      -0.7256    XYZ      -4.4190
       YYZ      -1.1814    XZZ       9.5933    YZZ      -1.8001
       ZZZ       3.3847
    Hexadecapole Moments (Debye-Ang^3)
      XXXX    -841.6425   XXXY       6.8063   XXYY    -182.1648
      XYYY     -13.4955   YYYY    -283.2612   XXXZ       2.0254
      XXYZ      -9.7273   XYYZ       2.8680   YYYZ      -6.3167
      XXZZ    -137.0086   XYZZ      -4.6570   YYZZ     -63.4359
      XZZZ       3.6950   YZZZ      -5.9369   ZZZZ     -96.0556
 -----------------------------------------------------------------
 Calculating analytic gradient of the SCF energy
 Gradient of Coulomb and Exchange Energy
            1           2           3           4           5           6
    1   2.3135486   1.8407953   3.0507474  -0.2157474  -0.3301168   2.7411014
    2   2.8223837   0.5114576  -1.2804630  -0.9282800   1.1361510   2.9000214
    3  -0.0315610   0.6459265  -0.5811915   4.7002940  -3.4985126   0.9829933
            7           8           9          10          11          12
    1  -2.9619825   0.4399994   0.8059851   3.5820682   1.0831052  -3.7631438
    2   2.0079802  -0.4185401  -3.6481801   1.1403939  -4.5521476  -2.4063680
    3   1.2906419  -3.6543345   0.7251618   0.4910651  -2.4123021   3.4819907
           13          14          15          16          17
    1 -10.3389993   1.2184188   1.5803639  -2.0749330   1.0287895
    2   5.6131233   0.5547125  -4.0500885  -1.4352969   2.0331407
    3   0.3762552  -4.2046126   1.7941966   4.1701995  -4.2762102
 Gradient of SCF Energy
            1           2           3           4           5           6
    1  -0.0004024   0.0038107  -0.0022656  -0.0015920  -0.0002815   0.0016211
    2  -0.0025960   0.0024895   0.0003063  -0.0013771  -0.0005579   0.0007045
    3  -0.0007173   0.0006639  -0.0000834   0.0027545  -0.0029623   0.0006245
            7           8           9          10          11          12
    1  -0.0030027  -0.0009538  -0.0003559   0.0013244  -0.0076133   0.0031761
    2   0.0005468   0.0003496  -0.0025247   0.0012910   0.0014584   0.0034139
    3   0.0014736  -0.0027587   0.0007498   0.0006093   0.0008217  -0.0006060
           13          14          15          16          17
    1   0.0037027   0.0020443   0.0019802  -0.0006486  -0.0005436
    2  -0.0040359   0.0025289  -0.0019133  -0.0021279   0.0020440
    3  -0.0009097  -0.0031776   0.0023299   0.0024774  -0.0012896
 Max gradient component =       7.613E-03
 RMS gradient           =       2.232E-03
 Gradient time:  CPU 61.87 s  wall 62.28 s
 Geometry Optimization Parameters
   NAtoms,    NIC,     NZ,  NCons,   NDum,   NFix, NCnnct, MaxDiis
       17     132       0       0       0       0       0       0


** GEOMETRY OPTIMIZATION IN DELOCALIZED INTERNAL COORDINATES **
   Searching for a Transition State

   Optimization Cycle:   1

                       Coordinates (Angstroms)
     ATOM                X               Y               Z
      1  C        -0.9414828052   -1.4945899053   -0.0331302004
      2  C        -1.2304511920   -0.0846196360   -0.4549304056
      3  C        -2.3536702224    0.6407718220    0.2250196406
      4  H        -1.1276211280    0.1084100525   -1.5200204559
      5  H        -0.8587627327   -1.5764298102    1.0581398012
      6  H        -1.7445736747   -2.1853590027   -0.3353299528
      7  H        -0.0132533174   -1.8671210888   -0.4743702789
      8  H        -2.2437300771    0.6201018847    1.3160496272
      9  H        -2.4145490248    1.6873918391   -0.0872605356
     10  H        -3.3302608033    0.1820929452    0.0016698741
     11  C         0.6250102915    1.0761682702    0.1958690995
     12  C         1.7694395861    0.5512868159   -0.3203509856
     13  O         2.4575984022   -0.5108039115    0.1979590956
     14  H         0.3499302092    0.8721787806    1.2268791785
     15  H         0.2544413313    2.0038086376   -0.2198210074
     16  H         2.1869198017    0.8567161501   -1.2713111048
     17  H         2.0675982502   -0.7494632965    1.0468391987
   Point Group: c1    Number of degrees of freedom:    45


   Energy is   -272.165458543


 Attempting to Generate Delocalized Internal Coordinates
 GETINT wrote B to file, NVib is           45
 calling HSSCONV
 HCONV 3*NATOMS:           51
 wrote HINT to file
  writing hessian 

 45 Hessian modes will be used to form the next step
  Hessian Eigenvalues:
     0.004339    0.009172    0.009204    0.019935    0.026232    0.027596
     0.034190    0.040973    0.042942    0.044546    0.048218    0.048478
     0.049074    0.049217    0.054841    0.058756    0.066364    0.089053
     0.116623    0.118933    0.146018    0.159587    0.160000    0.160000
     0.160000    0.160000    0.160000    0.160000    0.160000    0.220163
     0.297643    0.323722    0.323971    0.334820    0.335098    0.339650
     0.340441    0.343647    0.344456    0.351249    0.356887    0.357586
     0.514466    0.527917    0.545826
**WARNING** Hessian does not have the Desired Local Structure

 Transition State Search - Taking P-RFO Step
 Searching for Lamda that Maximizes Along the Lowest mode
 Value Taken    Lamda =   0.00437439
 Searching for Lamda that Minimizes Along All other modes
 Value Taken    Lamda =  -0.00101722
 Calculated Step too Large.  Step scaled by  0.026971
 Step Taken.  Stepsize is  0.300000

                             Maximum     Tolerance    Cnvgd?
         Gradient           0.006646      0.000300      NO
         Displacement       0.125904      0.001200      NO
         Energy change     *********      0.000001      NO


 New Cartesian Coordinates Obtained by Inverse Iteration

 Displacement from previous Coordinates is:  0.500590
 ----------------------------------------------------------------
             Standard Nuclear Orientation (Angstroms)
    I     Atom           X                Y                Z
 ----------------------------------------------------------------
    1      C      -0.9646718714    -1.5104638825     0.0029600304
    2      C      -1.2196060617    -0.1031173509    -0.4483644876
    3      C      -2.3458641473     0.6527262735     0.1921757620
    4      H      -1.0852779577     0.0682278140    -1.5137849359
    5      H      -0.9086528498    -1.5753108406     1.0971886438
    6      H      -1.7723455677    -2.1926395451    -0.3067319079
    7      H      -0.0328201731    -1.9057152633    -0.4103339513
    8      H      -2.2632093907     0.6469918124     1.2859109325
    9      H      -2.3798077257     1.6953924689    -0.1373240910
   10      H      -3.3248585828     0.2080281270    -0.0486269183
   11      C       0.6226787653     1.0618318417     0.2299633188
   12      C       1.7681979140     0.5873814009    -0.3303974777
   13      O       2.4865768801    -0.4839707669     0.1237022360
   14      H       0.3667837652     0.8047263748     1.2545930996
   15      H       0.2262811836     2.0009514130    -0.1331295164
   16      H       2.1628311090     0.9482335609    -1.2717866014
   17      H       2.1163476052    -0.7727328910     0.9658864526
 ----------------------------------------------------------------
 Molecular Point Group                 C1    NOp =  1
 Largest Abelian Subgroup              C1    NOp =  1
 Nuclear Repulsion Energy =   236.1981821619 hartrees
 There are       25 alpha and       24 beta electrons
 Applying Cartesian multipole field
    Component          Value
    ---------          -----
     (2,0,0)        1.00000E-11
     (0,2,0)        2.00000E-11
     (0,0,2)       -3.00000E-11
 Nucleus-field energy     =     0.0000000076 hartrees
 Requested basis set is non-standard
 There are 138 shells and 314 basis functions
 A cutoff of  1.0D-11 yielded   8878 shell pairs
 There are     45708 function pairs (     54888 Cartesian)
 Smallest overlap matrix eigenvalue = 2.05E-05
 Guess MOs from SCF MO coefficient file
Reading MOs from coefficient file
Reading MOs from coefficient file
 An unrestricted hybrid HF-DFT SCF calculation will be
 performed using Pulay DIIS extrapolation
 Exchange:     0.5679 Hartree-Fock + 1.0000 M08SO
 SCF converges when DIIS error is below 1.0E-08
Geometry optimization detected.  Setting ReadMinima to 0
Setting SaveMinima to 0
 Inaccurate integrated density:
   Number of electrons =    49
   Numerical integral  =    48.981131883811
   Relative error      =    -0.0385063596 %
 ---------------------------------------
  Cycle       Energy         DIIS Error
 ---------------------------------------
    1    -272.1519602574      7.88E-04
    2    -272.1650867938      1.16E-04
    3    -272.1651899222      1.16E-04
    4    -272.1653267006      2.31E-05
    5    -272.1653331039      8.51E-06
    6    -272.1653341140      2.05E-06
    7    -272.1653341963      4.90E-07
    8    -272.1653342077      2.03E-07
    9    -272.1653342099      9.35E-08
   10    -272.1653342103      2.41E-08
   11    -272.1653342106      9.59E-09 Convergence criterion met
 ---------------------------------------
 <S^2> = 0.7791
 SCF time:  CPU 611.74 s  wall 618.16 s
 SCF   energy in the final basis set = -272.1653342106
 Total energy in the final basis set = -272.1653342106
 Analysis of SCF Wavefunction
 
 --------------------------------------------------------------
                    Orbital Energies (a.u.)
 --------------------------------------------------------------
 
 Alpha MOs
 -- Occupied --
-19.595 -10.552 -10.506 -10.495 -10.487 -10.486  -1.173  -0.885
 -0.844  -0.783  -0.710  -0.653  -0.578  -0.567  -0.529  -0.512
 -0.488  -0.479  -0.460  -0.453  -0.445  -0.417  -0.410  -0.334
 -0.210
 -- Virtual --
 -0.027  -0.015  -0.008  -0.006   0.012   0.016   0.017   0.023
  0.025   0.046   0.049   0.057   0.063   0.070   0.079   0.087
  0.097   0.101   0.110   0.117   0.120   0.130   0.133   0.135
  0.141   0.144   0.151   0.156   0.164   0.167   0.172   0.180
  0.199   0.205   0.219   0.226   0.230   0.243   0.246   0.257
  0.271   0.283   0.302   0.306   0.316   0.321   0.333   0.351
  0.357   0.372   0.387   0.430   0.450   0.467   0.483   0.495
  0.503   0.513   0.524   0.528   0.556   0.560   0.562   0.569
  0.580   0.585   0.593   0.599   0.618   0.621   0.632   0.640
  0.646   0.655   0.673   0.684   0.700   0.702   0.710   0.722
  0.731   0.767   0.772   0.783   0.801   0.815   0.843   0.861
  0.883   0.891   0.927   0.944   0.977   0.984   0.998   1.009
  1.037   1.072   1.079   1.085   1.095   1.104   1.123   1.135
  1.145   1.161   1.173   1.180   1.205   1.208   1.219   1.246
  1.263   1.282   1.293   1.303   1.313   1.335   1.344   1.349
  1.357   1.379   1.384   1.404   1.417   1.425   1.459   1.465
  1.480   1.489   1.503   1.522   1.533   1.543   1.557   1.569
  1.580   1.609   1.617   1.648   1.689   1.710   1.716   1.829
  1.901   1.987   2.234   2.245   2.334   2.343   2.432   2.466
  2.491   2.509   2.527   2.551   2.602   2.644   2.669   2.685
  2.715   2.733   2.758   2.775   2.801   2.820   2.844   2.876
  2.906   2.911   2.928   2.947   2.950   2.984   3.000   3.011
  3.023   3.046   3.065   3.093   3.124   3.135   3.151   3.175
  3.190   3.205   3.232   3.240   3.246   3.289   3.295   3.303
  3.338   3.348   3.366   3.373   3.395   3.412   3.437   3.451
  3.487   3.508   3.522   3.546   3.563   3.565   3.572   3.589
  3.626   3.641   3.662   3.693   3.734   3.746   3.770   3.789
  3.815   3.830   3.868   3.890   3.891   3.927   3.965   3.975
  3.998   4.018   4.045   4.052   4.081   4.084   4.144   4.152
  4.156   4.198   4.200   4.208   4.221   4.230   4.276   4.279
  4.327   4.349   4.369   4.390   4.426   4.434   4.483   4.487
  4.514   4.525   4.537   4.560   4.579   4.622   4.768   4.819
  4.917   5.025   5.119   5.130   5.153   5.174   5.193   5.355
  5.398   5.451   5.502   5.537   5.606   5.612   5.626   5.635
  5.664   5.754   5.839   6.194   6.665   6.909   7.101   7.133
  7.250   7.481   7.568  23.978  24.002  24.175  24.291  24.607
 49.801
 
 Beta MOs
 -- Occupied --
-19.593 -10.545 -10.498 -10.491 -10.488 -10.487  -1.168  -0.878
 -0.841  -0.782  -0.707  -0.641  -0.574  -0.564  -0.523  -0.494
 -0.478  -0.467  -0.457  -0.448  -0.444  -0.419  -0.411  -0.305
 -- Virtual --
 -0.033  -0.022  -0.020  -0.013  -0.011   0.008   0.012   0.015
  0.020   0.021   0.043   0.048   0.057   0.059   0.064   0.077
  0.082   0.095   0.100   0.113   0.115   0.117   0.126   0.130
  0.132   0.139   0.143   0.148   0.155   0.161   0.166   0.170
  0.179   0.201   0.205   0.218   0.227   0.230   0.243   0.247
  0.260   0.270   0.287   0.302   0.306   0.323   0.332   0.340
  0.353   0.356   0.376   0.389   0.432   0.450   0.466   0.486
  0.496   0.507   0.515   0.528   0.540   0.559   0.563   0.565
  0.573   0.585   0.588   0.603   0.608   0.627   0.634   0.641
  0.645   0.654   0.662   0.673   0.687   0.703   0.707   0.713
  0.725   0.734   0.772   0.777   0.788   0.805   0.822   0.850
  0.863   0.888   0.892   0.930   0.949   0.982   0.996   1.002
  1.016   1.041   1.076   1.082   1.088   1.099   1.109   1.127
  1.138   1.147   1.168   1.177   1.184   1.212   1.218   1.229
  1.258   1.277   1.290   1.303   1.316   1.324   1.351   1.357
  1.363   1.371   1.386   1.389   1.413   1.425   1.433   1.461
  1.470   1.483   1.490   1.511   1.527   1.539   1.555   1.565
  1.573   1.584   1.620   1.626   1.655   1.705   1.720   1.730
  1.834   1.907   1.996   2.239   2.248   2.344   2.350   2.441
  2.477   2.508   2.522   2.540   2.558   2.616   2.647   2.691
  2.727   2.749   2.769   2.820   2.843   2.867   2.878   2.899
  2.903   2.918   2.930   2.939   2.961   2.970   3.010   3.016
  3.033   3.047   3.065   3.091   3.120   3.143   3.159   3.169
  3.177   3.192   3.219   3.253   3.262   3.271   3.300   3.312
  3.325   3.352   3.375   3.379   3.398   3.407   3.426   3.450
  3.486   3.505   3.516   3.543   3.546   3.572   3.582   3.587
  3.613   3.644   3.676   3.707   3.743   3.757   3.770   3.784
  3.821   3.835   3.853   3.877   3.892   3.909   3.928   3.969
  3.982   4.001   4.038   4.052   4.064   4.093   4.110   4.152
  4.174   4.189   4.203   4.205   4.212   4.228   4.250   4.291
  4.303   4.340   4.361   4.373   4.410   4.445   4.464   4.504
  4.507   4.528   4.558   4.586   4.601   4.634   4.728   4.866
  4.901   4.956   5.033   5.126   5.136   5.169   5.186   5.234
  5.355   5.498   5.521   5.541   5.553   5.598   5.608   5.635
  5.643   5.677   5.756   5.836   6.190   6.666   6.910   7.103
  7.139   7.250   7.476   7.560  23.981  24.007  24.180  24.312
 24.614  49.804
 --------------------------------------------------------------
 
          Ground-State Mulliken Net Atomic Charges

     Atom                 Charge (a.u.)    Spin (a.u.)
  --------------------------------------------------------
      1 C                    -0.738894      -0.029604
      2 C                    -0.051102       0.729252
      3 C                    -0.637263      -0.033364
      4 H                     0.235647      -0.037851
      5 H                     0.207368       0.010626
      6 H                     0.196676       0.040083
      7 H                     0.209970       0.005537
      8 H                     0.197385       0.009570
      9 H                     0.187933       0.006407
     10 H                     0.186602       0.043983
     11 C                    -0.430169      -0.184031
     12 C                    -0.186534       0.399500
     13 O                    -0.273745       0.030954
     14 H                     0.217417       0.018399
     15 H                     0.188450       0.012497
     16 H                     0.210000      -0.021228
     17 H                     0.280257      -0.000729
  --------------------------------------------------------
  Sum of atomic charges =     0.000000
  Sum of spin   charges =     1.000000

 -----------------------------------------------------------------
                    Cartesian Multipole Moments
 -----------------------------------------------------------------
    Charge (ESU x 10^10)
                 0.0000
    Dipole Moment (Debye)
         X      -1.1440      Y       0.1345      Z       0.6539
       Tot       1.3245
    Quadrupole Moments (Debye-Ang)
        XX     -45.4087     XY       0.2026     YY     -40.4032
        XZ       0.8819     YZ      -2.3692     ZZ     -37.7818
    Octopole Moments (Debye-Ang^2)
       XXX      -7.7012    XXY       0.2818    XYY       1.4219
       YYY      -2.4719    XXZ       0.3490    XYZ      -4.9309
       YYZ      -1.0216    XZZ       9.0589    YZZ      -1.7655
       ZZZ       3.4882
    Hexadecapole Moments (Debye-Ang^3)
      XXXX    -848.0828   XXXY       3.2110   XXYY    -182.0031
      XYYY     -16.6273   YYYY    -285.7744   XXXZ       7.0789
      XXYZ     -10.8280   XYYZ       3.4751   YYYZ      -5.7529
      XXZZ    -137.9330   XYZZ      -5.1147   YYZZ     -63.9677
      XZZZ       4.7114   YZZZ      -5.1519   ZZZZ     -95.3246
 -----------------------------------------------------------------
 Calculating analytic gradient of the SCF energy
 Gradient of Coulomb and Exchange Energy
            1           2           3           4           5           6
    1   2.2202976   1.9043529   3.0282671  -0.3630487  -0.2434579   2.7516516
    2   2.8925464   0.4308933  -1.2394707  -0.8174604   1.0806233   2.8603171
    3  -0.1008104   0.6240249  -0.5243616   4.7127784  -3.5188496   0.9707731
            7           8           9          10          11          12
    1  -2.9294704   0.5240778   0.7189356   3.5909614   1.0724345  -3.6201304
    2   2.0852693  -0.4870751  -3.6543437   1.0953593  -4.2864560  -2.6281203
    3   1.1737319  -3.6358649   0.7896127   0.5620486  -2.7239971   3.5421064
           13          14          15          16          17
    1 -10.4301333   1.1207972   1.7068419  -1.9689895   0.9166125
    2   5.4030722   0.7774746  -4.1018659  -1.6827822   2.2720188
    3   0.8250477  -4.1883614   1.5500032   4.1185870  -4.1764690
 Gradient of SCF Energy
            1           2           3           4           5           6
    1  -0.0005877   0.0036581  -0.0019165  -0.0013947  -0.0001899   0.0015343
    2  -0.0027539   0.0021273   0.0005418  -0.0015614  -0.0005291   0.0006951
    3  -0.0012829   0.0010084  -0.0000059   0.0026074  -0.0028236   0.0007023
            7           8           9          10          11          12
    1  -0.0030091  -0.0009388  -0.0003811   0.0013023  -0.0072257   0.0028960
    2   0.0006549   0.0003008  -0.0023953   0.0012172   0.0011022   0.0035957
    3   0.0015181  -0.0026927   0.0007899   0.0005541   0.0008183  -0.0009091
           13          14          15          16          17
    1   0.0036759   0.0016008   0.0020389  -0.0004976  -0.0005652
    2  -0.0037357   0.0028766  -0.0019133  -0.0022163   0.0019934
    3  -0.0010764  -0.0027848   0.0024319   0.0023278  -0.0011828
 Max gradient component =       7.226E-03
 RMS gradient           =       2.164E-03
 Gradient time:  CPU 61.36 s  wall 61.44 s
 Geometry Optimization Parameters
   NAtoms,    NIC,     NZ,  NCons,   NDum,   NFix, NCnnct, MaxDiis
       17     132       0       0       0       0       0       0

 Cartesian Hessian Update
 Hessian Updated using Powell/Murtagh-Sargent Update
  Mixing factors:     0.000009 Powell
                      0.999991 Murtagh-Sargent


** GEOMETRY OPTIMIZATION IN DELOCALIZED INTERNAL COORDINATES **
   Searching for a Transition State

   Optimization Cycle:   2

                       Coordinates (Angstroms)
     ATOM                X               Y               Z
      1  C        -0.9646718714   -1.5104638825    0.0029600304
      2  C        -1.2196060617   -0.1031173509   -0.4483644876
      3  C        -2.3458641473    0.6527262735    0.1921757620
      4  H        -1.0852779577    0.0682278140   -1.5137849359
      5  H        -0.9086528498   -1.5753108406    1.0971886438
      6  H        -1.7723455677   -2.1926395451   -0.3067319079
      7  H        -0.0328201731   -1.9057152633   -0.4103339513
      8  H        -2.2632093907    0.6469918124    1.2859109325
      9  H        -2.3798077257    1.6953924689   -0.1373240910
     10  H        -3.3248585828    0.2080281270   -0.0486269183
     11  C         0.6226787653    1.0618318417    0.2299633188
     12  C         1.7681979140    0.5873814009   -0.3303974777
     13  O         2.4865768801   -0.4839707669    0.1237022360
     14  H         0.3667837652    0.8047263748    1.2545930996
     15  H         0.2262811836    2.0009514130   -0.1331295164
     16  H         2.1628311090    0.9482335609   -1.2717866014
     17  H         2.1163476052   -0.7727328910    0.9658864526
   Point Group: c1    Number of degrees of freedom:    45


   Energy is   -272.165334211

 GETINT wrote B to file, NVib is           45
 Hessian Updated using Powell/Murtagh-Sargent Update
  Mixing factors:     0.486602 Powell
                      0.513398 Murtagh-Sargent

 40 Hessian modes will be used to form the next step
  Hessian Eigenvalues:
     0.000667    0.009171    0.009204    0.019934    0.026230    0.027596
     0.034161    0.040863    0.042941    0.044544    0.048216    0.048454
     0.049074    0.049212    0.054820    0.058737    0.066348    0.088937
     0.116623    0.118931    0.144997    0.159577    0.159935    0.160000
     0.220161    0.297546    0.323722    0.323966    0.334819    0.335098
     0.339645    0.340441    0.343645    0.344428    0.351247    0.356887
     0.357571    0.514466    0.527908    0.545825
**WARNING** Hessian does not have the Desired Local Structure

 Transition State Search - Taking P-RFO Step
 Searching for Lamda that Maximizes Along the Lowest mode
 Value Taken    Lamda =   0.00097262
 Searching for Lamda that Minimizes Along All other modes
 Value Taken    Lamda =  -0.00100365
 Calculated Step too Large.  Step scaled by  0.167797
 Step Taken.  Stepsize is  0.300000

                             Maximum     Tolerance    Cnvgd?
         Gradient           0.006504      0.000300      NO
         Displacement       0.131979      0.001200      NO
         Energy change      0.000124      0.000001      NO


 New Cartesian Coordinates Obtained by Inverse Iteration

 Displacement from previous Coordinates is:  0.477944
 ----------------------------------------------------------------
             Standard Nuclear Orientation (Angstroms)
    I     Atom           X                Y                Z
 ----------------------------------------------------------------
    1      C      -0.9838458039    -1.5223486784     0.0382359209
    2      C      -1.2089466769    -0.1203620994    -0.4441138237
    3      C      -2.3353971298     0.6645106651     0.1597116565
    4      H      -1.0448562402     0.0309117403    -1.5091108159
    5      H      -0.9516305753    -1.5680019321     1.1350351546
    6      H      -1.7947289146    -2.1987934629    -0.2772651055
    7      H      -0.0484685018    -1.9375684342    -0.3495905757
    8      H      -2.2740614868     0.6746809689     1.2555179215
    9      H      -2.3441253853     1.7026826095    -0.1871300323
   10      H      -3.3169842266     0.2319760012    -0.0943547023
   11      C       0.6187090535     1.0452734179     0.2620152498
   12      C       1.7623683766     0.6207236127    -0.3384729258
   13      O       2.5056370635    -0.4574947509     0.0539217856
   14      H       0.3837094146     0.7313421290     1.2775603154
   15      H       0.1955939465     1.9924267277    -0.0491655433
   16      H       2.1350087510     1.0355232000    -1.2673572013
   17      H       2.1546012299    -0.7949411674     0.8864633100
 ----------------------------------------------------------------
 Molecular Point Group                 C1    NOp =  1
 Largest Abelian Subgroup              C1    NOp =  1
 Nuclear Repulsion Energy =   236.0949514475 hartrees
 There are       25 alpha and       24 beta electrons
 Applying Cartesian multipole field
    Component          Value
    ---------          -----
     (2,0,0)        1.00000E-11
     (0,2,0)        2.00000E-11
     (0,0,2)       -3.00000E-11
 Nucleus-field energy     =     0.0000000077 hartrees
 Requested basis set is non-standard
 There are 138 shells and 314 basis functions
 A cutoff of  1.0D-11 yielded   8878 shell pairs
 There are     45646 function pairs (     54799 Cartesian)
 Smallest overlap matrix eigenvalue = 2.05E-05
 Guess MOs from SCF MO coefficient file
Reading MOs from coefficient file
Reading MOs from coefficient file
 An unrestricted hybrid HF-DFT SCF calculation will be
 performed using Pulay DIIS extrapolation
 Exchange:     0.5679 Hartree-Fock + 1.0000 M08SO
 SCF converges when DIIS error is below 1.0E-08
Geometry optimization detected.  Setting ReadMinima to 0
Setting SaveMinima to 0
 Inaccurate integrated density:
   Number of electrons =    49
   Numerical integral  =    48.977215953667
   Relative error      =    -0.0464980537 %
 ---------------------------------------
  Cycle       Energy         DIIS Error
 ---------------------------------------
    1    -272.1504991713      7.53E-04
    2    -272.1650713640      1.12E-04
    3    -272.1651786442      1.07E-04
    4    -272.1652933831      2.31E-05
    5    -272.1652994229      9.09E-06
    6    -272.1653005627      1.99E-06
    7    -272.1653006413      4.50E-07
    8    -272.1653006517      1.45E-07
    9    -272.1653006536      6.74E-08
   10    -272.1653006540      2.33E-08
   11    -272.1653006544      9.16E-09 Convergence criterion met
 ---------------------------------------
 <S^2> = 0.7790
 SCF time:  CPU 610.46 s  wall 614.88 s
 SCF   energy in the final basis set = -272.1653006544
 Total energy in the final basis set = -272.1653006544
 Analysis of SCF Wavefunction
 
 --------------------------------------------------------------
                    Orbital Energies (a.u.)
 --------------------------------------------------------------
 
 Alpha MOs
 -- Occupied --
-19.595 -10.552 -10.506 -10.495 -10.487 -10.487  -1.173  -0.885
 -0.844  -0.783  -0.710  -0.652  -0.578  -0.567  -0.529  -0.511
 -0.488  -0.480  -0.461  -0.452  -0.444  -0.417  -0.411  -0.334
 -0.209
 -- Virtual --
 -0.026  -0.015  -0.008  -0.006   0.012   0.017   0.017   0.023
  0.025   0.047   0.049   0.056   0.063   0.069   0.078   0.086
  0.097   0.103   0.109   0.117   0.120   0.130   0.133   0.135
  0.140   0.146   0.152   0.155   0.163   0.167   0.169   0.181
  0.200   0.205   0.218   0.225   0.231   0.243   0.245   0.257
  0.271   0.282   0.303   0.304   0.315   0.321   0.331   0.353
  0.360   0.375   0.388   0.429   0.451   0.467   0.483   0.495
  0.503   0.513   0.524   0.530   0.557   0.561   0.564   0.568
  0.580   0.586   0.591   0.596   0.618   0.622   0.633   0.640
  0.649   0.655   0.676   0.682   0.695   0.702   0.710   0.719
  0.732   0.763   0.772   0.790   0.797   0.815   0.846   0.860
  0.883   0.889   0.927   0.939   0.972   0.985   0.999   1.008
  1.041   1.071   1.079   1.089   1.096   1.101   1.125   1.134
  1.143   1.160   1.172   1.181   1.207   1.209   1.217   1.243
  1.266   1.282   1.291   1.304   1.312   1.336   1.345   1.349
  1.357   1.376   1.381   1.401   1.421   1.428   1.461   1.466
  1.479   1.489   1.503   1.523   1.532   1.541   1.558   1.569
  1.580   1.607   1.618   1.643   1.689   1.706   1.716   1.829
  1.900   1.990   2.235   2.245   2.337   2.342   2.435   2.465
  2.492   2.511   2.528   2.550   2.605   2.642   2.670   2.685
  2.713   2.732   2.759   2.776   2.801   2.822   2.843   2.878
  2.904   2.910   2.929   2.942   2.952   2.986   3.002   3.013
  3.024   3.045   3.059   3.094   3.124   3.137   3.153   3.172
  3.188   3.203   3.231   3.239   3.248   3.290   3.295   3.299
  3.334   3.350   3.366   3.373   3.393   3.409   3.438   3.452
  3.485   3.505   3.522   3.547   3.563   3.567   3.572   3.594
  3.626   3.642   3.663   3.698   3.729   3.745   3.770   3.787
  3.814   3.831   3.865   3.888   3.891   3.931   3.967   3.973
  3.995   4.020   4.042   4.048   4.077   4.086   4.141   4.151
  4.156   4.196   4.200   4.208   4.214   4.230   4.273   4.278
  4.327   4.349   4.373   4.391   4.426   4.433   4.480   4.486
  4.511   4.522   4.537   4.563   4.578   4.621   4.769   4.819
  4.917   5.027   5.118   5.128   5.152   5.174   5.192   5.355
  5.398   5.450   5.502   5.533   5.602   5.610   5.624   5.631
  5.660   5.754   5.838   6.198   6.664   6.909   7.101   7.132
  7.249   7.482   7.568  23.977  23.998  24.172  24.289  24.608
 49.803
 
 Beta MOs
 -- Occupied --
-19.593 -10.545 -10.498 -10.491 -10.488 -10.488  -1.167  -0.878
 -0.841  -0.782  -0.706  -0.641  -0.574  -0.564  -0.523  -0.493
 -0.478  -0.467  -0.458  -0.448  -0.443  -0.419  -0.411  -0.305
 -- Virtual --
 -0.033  -0.022  -0.020  -0.013  -0.011   0.007   0.012   0.015
  0.021   0.021   0.043   0.047   0.056   0.060   0.064   0.076
  0.082   0.095   0.101   0.113   0.115   0.117   0.126   0.130
  0.131   0.139   0.144   0.149   0.154   0.160   0.165   0.167
  0.181   0.202   0.204   0.218   0.226   0.230   0.243   0.246
  0.261   0.270   0.286   0.303   0.304   0.322   0.332   0.338
  0.355   0.358   0.379   0.391   0.432   0.450   0.466   0.485
  0.495   0.505   0.516   0.527   0.542   0.560   0.564   0.565
  0.572   0.584   0.590   0.601   0.606   0.628   0.633   0.642
  0.648   0.653   0.662   0.677   0.686   0.699   0.707   0.713
  0.722   0.735   0.769   0.777   0.795   0.801   0.820   0.855
  0.861   0.887   0.892   0.929   0.945   0.979   0.994   1.001
  1.016   1.045   1.074   1.082   1.092   1.100   1.107   1.130
  1.137   1.146   1.165   1.177   1.186   1.212   1.221   1.227
  1.255   1.278   1.291   1.299   1.317   1.322   1.353   1.357
  1.363   1.371   1.384   1.386   1.410   1.428   1.437   1.462
  1.471   1.483   1.490   1.512   1.528   1.537   1.551   1.567
  1.575   1.583   1.619   1.627   1.650   1.705   1.719   1.727
  1.834   1.905   1.999   2.239   2.247   2.348   2.349   2.443
  2.476   2.509   2.527   2.538   2.558   2.620   2.645   2.689
  2.728   2.747   2.769   2.819   2.843   2.867   2.879   2.898
  2.904   2.918   2.930   2.939   2.958   2.968   3.010   3.016
  3.036   3.048   3.065   3.087   3.122   3.141   3.162   3.169
  3.176   3.191   3.216   3.252   3.261   3.273   3.295   3.309
  3.327   3.352   3.374   3.381   3.398   3.406   3.424   3.451
  3.486   3.504   3.511   3.543   3.549   3.572   3.587   3.591
  3.614   3.644   3.678   3.706   3.742   3.755   3.770   3.788
  3.817   3.835   3.854   3.873   3.889   3.909   3.933   3.969
  3.981   3.997   4.039   4.051   4.061   4.092   4.108   4.149
  4.176   4.186   4.200   4.205   4.210   4.223   4.249   4.292
  4.300   4.342   4.361   4.376   4.410   4.444   4.462   4.501
  4.504   4.527   4.557   4.585   4.603   4.634   4.728   4.867
  4.902   4.957   5.034   5.125   5.134   5.168   5.185   5.234
  5.355   5.497   5.518   5.541   5.550   5.595   5.605   5.632
  5.640   5.675   5.756   5.835   6.194   6.665   6.910   7.103
  7.138   7.249   7.477   7.560  23.980  24.004  24.177  24.310
 24.616  49.805
 --------------------------------------------------------------
 
          Ground-State Mulliken Net Atomic Charges

     Atom                 Charge (a.u.)    Spin (a.u.)
  --------------------------------------------------------
      1 C                    -0.726669      -0.027871
      2 C                    -0.058179       0.728671
      3 C                    -0.641344      -0.034263
      4 H                     0.235605      -0.038880
      5 H                     0.205035       0.010471
      6 H                     0.196691       0.040383
      7 H                     0.204270       0.005536
      8 H                     0.199713       0.009384
      9 H                     0.187801       0.006802
     10 H                     0.187109       0.043512
     11 C                    -0.421402      -0.185063
     12 C                    -0.184634       0.401170
     13 O                    -0.277836       0.030744
     14 H                     0.216405       0.018789
     15 H                     0.186186       0.012653
     16 H                     0.211117      -0.021383
     17 H                     0.280133      -0.000654
  --------------------------------------------------------
  Sum of atomic charges =     0.000000
  Sum of spin   charges =     1.000000

 -----------------------------------------------------------------
                    Cartesian Multipole Moments
 -----------------------------------------------------------------
    Charge (ESU x 10^10)
                 0.0000
    Dipole Moment (Debye)
         X      -1.1372      Y       0.0758      Z       0.6754
       Tot       1.3248
    Quadrupole Moments (Debye-Ang)
        XX     -45.4318     XY       0.0575     YY     -40.1828
        XZ       1.0493     YZ      -2.4832     ZZ     -38.0649
    Octopole Moments (Debye-Ang^2)
       XXX      -7.9970    XXY      -0.3137    XYY       2.0089
       YYY      -2.9204    XXZ       1.3352    XYZ      -5.3426
       YYZ      -0.9174    XZZ       8.4948    YZZ      -1.7178
       ZZZ       3.6111
    Hexadecapole Moments (Debye-Ang^3)
      XXXX    -850.4973   XXXY      -0.2626   XXYY    -181.1054
      XYYY     -19.3013   YYYY    -287.6462   XXXZ      11.7997
      XXYZ     -11.6260   XYYZ       3.9285   YYYZ      -5.0173
      XXZZ    -138.8213   XYZZ      -5.4261   YYZZ     -64.4990
      XZZZ       5.7283   YZZZ      -4.2747   ZZZZ     -95.3539
 -----------------------------------------------------------------
 Calculating analytic gradient of the SCF energy
 Gradient of Coulomb and Exchange Energy
            1           2           3           4           5           6
    1   2.1234190   1.9983110   3.0503898  -0.5054961  -0.1693243   2.7624517
    2   2.9821939   0.3482929  -1.1935794  -0.7186312   1.0150643   2.8308678
    3  -0.1913702   0.6374240  -0.4560513   4.7214712  -3.5417987   0.9639939
            7           8           9          10          11          12
    1  -2.9023947   0.5807916   0.6319662   3.6025912   1.0460465  -3.5172764
    2   2.1450622  -0.5569433  -3.6622052   1.0590515  -4.0811288  -2.8277244
    3   1.0612139  -3.6150636   0.8535564   0.6209221  -3.0058792   3.5754447
           13          14          15          16          17
    1 -10.4912368   1.0122833   1.8367057  -1.8632788   0.8040511
    2   5.1906041   1.0314380  -4.1412668  -1.9264066   2.5053110
    3   1.2284220  -4.1611778   1.3170205   4.0569285  -4.0650563
 Gradient of SCF Energy
            1           2           3           4           5           6
    1  -0.0009282   0.0033584  -0.0014381  -0.0011277  -0.0001268   0.0012528
    2  -0.0025102   0.0015751   0.0006619  -0.0014451  -0.0005432   0.0006096
    3  -0.0012541   0.0013833  -0.0000746   0.0020902  -0.0023238   0.0005963
            7           8           9          10          11          12
    1  -0.0024679  -0.0007760  -0.0003454   0.0010870  -0.0058286   0.0022609
    2   0.0006179   0.0001816  -0.0019475   0.0010067   0.0006443   0.0034122
    3   0.0011970  -0.0022981   0.0007122   0.0004079  -0.0000076  -0.0006878
           13          14          15          16          17
    1   0.0032094   0.0011895   0.0016831  -0.0004553  -0.0005471
    2  -0.0031037   0.0025525  -0.0014227  -0.0018975   0.0016081
    3  -0.0011827  -0.0016754   0.0020713   0.0018289  -0.0007827
 Max gradient component =       5.829E-03
 RMS gradient           =       1.808E-03
 Gradient time:  CPU 60.03 s  wall 60.11 s
 Geometry Optimization Parameters
   NAtoms,    NIC,     NZ,  NCons,   NDum,   NFix, NCnnct, MaxDiis
       17     132       0       0       0       0       0       0

 Cartesian Hessian Update
 Hessian Updated using Powell/Murtagh-Sargent Update
  Mixing factors:     0.990493 Powell
                      0.009507 Murtagh-Sargent


** GEOMETRY OPTIMIZATION IN DELOCALIZED INTERNAL COORDINATES **
   Searching for a Transition State

   Optimization Cycle:   3

                       Coordinates (Angstroms)
     ATOM                X               Y               Z
      1  C        -0.9838458039   -1.5223486784    0.0382359209
      2  C        -1.2089466769   -0.1203620994   -0.4441138237
      3  C        -2.3353971298    0.6645106651    0.1597116565
      4  H        -1.0448562402    0.0309117403   -1.5091108159
      5  H        -0.9516305753   -1.5680019321    1.1350351546
      6  H        -1.7947289146   -2.1987934629   -0.2772651055
      7  H        -0.0484685018   -1.9375684342   -0.3495905757
      8  H        -2.2740614868    0.6746809689    1.2555179215
      9  H        -2.3441253853    1.7026826095   -0.1871300323
     10  H        -3.3169842266    0.2319760012   -0.0943547023
     11  C         0.6187090535    1.0452734179    0.2620152498
     12  C         1.7623683766    0.6207236127   -0.3384729258
     13  O         2.5056370635   -0.4574947509    0.0539217856
     14  H         0.3837094146    0.7313421290    1.2775603154
     15  H         0.1955939465    1.9924267277   -0.0491655433
     16  H         2.1350087510    1.0355232000   -1.2673572013
     17  H         2.1546012299   -0.7949411674    0.8864633100
   Point Group: c1    Number of degrees of freedom:    45


   Energy is   -272.165300654

 GETINT wrote B to file, NVib is           45
 Hessian Updated using Powell/Murtagh-Sargent Update
  Mixing factors:     0.998286 Powell
                      0.001714 Murtagh-Sargent

 41 Hessian modes will be used to form the next step
  Hessian Eigenvalues:
     0.000511    0.009179    0.009204    0.019936    0.026225    0.027597
     0.034139    0.040853    0.042889    0.044544    0.048215    0.048453
     0.049074    0.049212    0.054820    0.058718    0.066347    0.088936
     0.116626    0.118923    0.144942    0.159582    0.159935    0.159995
     0.160010    0.220151    0.297541    0.323722    0.323965    0.334820
     0.335098    0.339646    0.340439    0.343646    0.344429    0.351249
     0.356887    0.357574    0.514459    0.527911    0.545824
**WARNING** Hessian does not have the Desired Local Structure

 Transition State Search - Taking P-RFO Step
 Searching for Lamda that Maximizes Along the Lowest mode
 Value Taken    Lamda =   0.00088841
 Searching for Lamda that Minimizes Along All other modes
 Value Taken    Lamda =  -0.00077554
 Calculated Step too Large.  Step scaled by  0.194989
 Step Taken.  Stepsize is  0.300000

                             Maximum     Tolerance    Cnvgd?
         Gradient           0.005380      0.000300      NO
         Displacement       0.134876      0.001200      NO
         Energy change      0.000034      0.000001      NO


 New Cartesian Coordinates Obtained by Inverse Iteration

 Displacement from previous Coordinates is:  0.463635
 ----------------------------------------------------------------
             Standard Nuclear Orientation (Angstroms)
    I     Atom           X                Y                Z
 ----------------------------------------------------------------
    1      C      -1.0014853680    -1.5311455632     0.0716888791
    2      C      -1.1997604369    -0.1366174857    -0.4421800295
    3      C      -2.3242857507     0.6758457603     0.1275537338
    4      H      -1.0080806089    -0.0053362720    -1.5057914655
    5      H      -0.9894065765    -1.5549183098     1.1701595597
    6      H      -1.8150912947    -2.2040277850    -0.2460585456
    7      H      -0.0639442001    -1.9652465848    -0.2922675701
    8      H      -2.2793792203     0.7043773321     1.2245915022
    9      H      -2.3105189252     1.7081520120    -0.2378256710
   10      H      -3.3085372607     0.2535284729    -0.1349714734
   11      C       0.6143891303     1.0260579168     0.2929533626
   12      C       1.7548964844     0.6519973134    -0.3443149868
   13      O       2.5209539583    -0.4297760999    -0.0123658748
   14      H       0.4012409472     0.6538135037     1.2951237878
   15      H       0.1656782851     1.9779890515     0.0346412790
   16      H       2.1073936230     1.1189954899    -1.2569738634
   17      H       2.1885201082    -0.8131482050     0.8079379644
 ----------------------------------------------------------------
 Molecular Point Group                 C1    NOp =  1
 Largest Abelian Subgroup              C1    NOp =  1
 Nuclear Repulsion Energy =   236.0654816129 hartrees
 There are       25 alpha and       24 beta electrons
 Applying Cartesian multipole field
    Component          Value
    ---------          -----
     (2,0,0)        1.00000E-11
     (0,2,0)        2.00000E-11
     (0,0,2)       -3.00000E-11
 Nucleus-field energy     =     0.0000000077 hartrees
 Requested basis set is non-standard
 There are 138 shells and 314 basis functions
 A cutoff of  1.0D-11 yielded   8876 shell pairs
 There are     45610 function pairs (     54757 Cartesian)
 Smallest overlap matrix eigenvalue = 2.09E-05
 Guess MOs from SCF MO coefficient file
Reading MOs from coefficient file
Reading MOs from coefficient file
 An unrestricted hybrid HF-DFT SCF calculation will be
 performed using Pulay DIIS extrapolation
 Exchange:     0.5679 Hartree-Fock + 1.0000 M08SO
 SCF converges when DIIS error is below 1.0E-08
Geometry optimization detected.  Setting ReadMinima to 0
Setting SaveMinima to 0
 Inaccurate integrated density:
   Number of electrons =    49
   Numerical integral  =    48.977436922090
   Relative error      =    -0.0460470978 %
 ---------------------------------------
  Cycle       Energy         DIIS Error
 ---------------------------------------
    1    -272.1506503308      7.33E-04
    2    -272.1650349101      1.08E-04
    3    -272.1651428461      1.01E-04
    4    -272.1652444572      2.27E-05
    5    -272.1652502414      9.22E-06
    6    -272.1652514055      1.95E-06
    7    -272.1652514812      4.37E-07
    8    -272.1652514910      1.35E-07
    9    -272.1652514926      5.49E-08
   10    -272.1652514928      2.43E-08
   11    -272.1652514932      6.74E-09 Convergence criterion met
 ---------------------------------------
 <S^2> = 0.7789
 SCF time:  CPU 608.80 s  wall 617.26 s
 SCF   energy in the final basis set = -272.1652514932
 Total energy in the final basis set = -272.1652514932
 Analysis of SCF Wavefunction
 
 --------------------------------------------------------------
                    Orbital Energies (a.u.)
 --------------------------------------------------------------
 
 Alpha MOs
 -- Occupied --
-19.595 -10.552 -10.506 -10.495 -10.488 -10.487  -1.173  -0.885
 -0.844  -0.783  -0.710  -0.652  -0.579  -0.567  -0.529  -0.511
 -0.488  -0.480  -0.462  -0.451  -0.444  -0.418  -0.411  -0.334
 -0.209
 -- Virtual --
 -0.026  -0.015  -0.008  -0.006   0.012   0.017   0.017   0.023
  0.025   0.048   0.049   0.055   0.064   0.069   0.077   0.086
  0.096   0.105   0.109   0.117   0.120   0.130   0.133   0.134
  0.140   0.147   0.153   0.154   0.162   0.166   0.168   0.181
  0.201   0.205   0.218   0.223   0.232   0.242   0.244   0.257
  0.272   0.281   0.302   0.304   0.313   0.320   0.330   0.355
  0.362   0.377   0.390   0.428   0.451   0.466   0.482   0.494
  0.502   0.512   0.523   0.532   0.557   0.562   0.565   0.568
  0.580   0.587   0.589   0.593   0.617   0.623   0.634   0.639
  0.651   0.655   0.679   0.681   0.690   0.703   0.711   0.718
  0.734   0.758   0.771   0.789   0.801   0.815   0.847   0.860
  0.883   0.890   0.925   0.935   0.967   0.982   0.999   1.010
  1.047   1.070   1.080   1.094   1.097   1.098   1.129   1.134
  1.143   1.161   1.173   1.182   1.207   1.210   1.216   1.241
  1.266   1.278   1.291   1.306   1.314   1.336   1.346   1.351
  1.357   1.372   1.381   1.398   1.425   1.430   1.462   1.467
  1.479   1.489   1.504   1.524   1.530   1.538   1.559   1.568
  1.581   1.605   1.617   1.641   1.688   1.702   1.718   1.830
  1.899   1.991   2.235   2.245   2.339   2.342   2.437   2.463
  2.492   2.512   2.527   2.551   2.608   2.639   2.672   2.685
  2.710   2.731   2.760   2.776   2.801   2.825   2.843   2.880
  2.899   2.912   2.928   2.937   2.952   2.987   3.005   3.016
  3.026   3.044   3.053   3.097   3.124   3.139   3.154   3.170
  3.188   3.201   3.229   3.238   3.250   3.287   3.291   3.301
  3.331   3.352   3.363   3.375   3.392   3.410   3.438   3.452
  3.484   3.501   3.522   3.549   3.564   3.567   3.578   3.599
  3.625   3.644   3.666   3.702   3.726   3.743   3.769   3.786
  3.811   3.832   3.863   3.887   3.891   3.935   3.967   3.970
  3.994   4.022   4.040   4.045   4.072   4.089   4.137   4.149
  4.157   4.194   4.200   4.207   4.209   4.231   4.271   4.278
  4.325   4.348   4.378   4.393   4.426   4.433   4.475   4.487
  4.510   4.521   4.536   4.566   4.576   4.621   4.771   4.821
  4.918   5.029   5.117   5.127   5.151   5.174   5.192   5.356
  5.398   5.449   5.502   5.530   5.598   5.608   5.621   5.628
  5.657   5.754   5.837   6.201   6.664   6.908   7.102   7.132
  7.249   7.483   7.569  23.977  23.995  24.169  24.288  24.610
 49.804
 
 Beta MOs
 -- Occupied --
-19.593 -10.545 -10.498 -10.491 -10.488 -10.488  -1.168  -0.879
 -0.840  -0.782  -0.706  -0.641  -0.574  -0.564  -0.523  -0.493
 -0.478  -0.468  -0.459  -0.447  -0.443  -0.419  -0.411  -0.305
 -- Virtual --
 -0.033  -0.022  -0.020  -0.013  -0.011   0.007   0.012   0.016
  0.021   0.021   0.044   0.047   0.055   0.060   0.064   0.075
  0.082   0.094   0.103   0.113   0.115   0.117   0.126   0.130
  0.131   0.139   0.145   0.150   0.153   0.159   0.163   0.166
  0.181   0.202   0.205   0.217   0.224   0.230   0.243   0.245
  0.261   0.271   0.285   0.301   0.304   0.321   0.330   0.337
  0.357   0.361   0.382   0.393   0.431   0.451   0.466   0.484
  0.495   0.504   0.516   0.526   0.544   0.562   0.562   0.567
  0.572   0.584   0.592   0.600   0.604   0.629   0.631   0.644
  0.651   0.653   0.662   0.681   0.685   0.695   0.707   0.713
  0.721   0.737   0.764   0.776   0.792   0.807   0.819   0.856
  0.862   0.886   0.893   0.927   0.943   0.975   0.988   1.000
  1.020   1.050   1.072   1.083   1.097   1.100   1.104   1.135
  1.136   1.145   1.165   1.179   1.187   1.213   1.220   1.228
  1.253   1.278   1.288   1.298   1.318   1.323   1.355   1.357
  1.365   1.370   1.381   1.385   1.408   1.431   1.440   1.463
  1.472   1.483   1.489   1.513   1.530   1.535   1.547   1.568
  1.576   1.583   1.618   1.626   1.648   1.704   1.716   1.728
  1.834   1.905   2.000   2.240   2.247   2.347   2.352   2.446
  2.474   2.507   2.531   2.536   2.559   2.625   2.642   2.689
  2.729   2.745   2.769   2.819   2.843   2.865   2.880   2.896
  2.906   2.917   2.929   2.940   2.955   2.968   3.011   3.017
  3.039   3.050   3.064   3.086   3.125   3.140   3.164   3.169
  3.176   3.191   3.213   3.251   3.260   3.275   3.289   3.307
  3.330   3.351   3.372   3.381   3.397   3.407   3.424   3.451
  3.486   3.503   3.507   3.544   3.552   3.572   3.591   3.598
  3.615   3.644   3.679   3.706   3.739   3.753   3.771   3.792
  3.813   3.832   3.855   3.873   3.887   3.909   3.938   3.969
  3.981   3.994   4.039   4.051   4.058   4.091   4.105   4.146
  4.178   4.184   4.199   4.203   4.211   4.217   4.250   4.293
  4.299   4.343   4.360   4.380   4.410   4.441   4.464   4.497
  4.503   4.527   4.557   4.585   4.606   4.634   4.728   4.869
  4.905   4.958   5.037   5.125   5.132   5.168   5.184   5.236
  5.356   5.496   5.516   5.541   5.548   5.593   5.603   5.630
  5.637   5.672   5.757   5.834   6.198   6.665   6.909   7.104
  7.138   7.249   7.478   7.561  23.979  24.001  24.174  24.309
 24.618  49.807
 --------------------------------------------------------------
 
          Ground-State Mulliken Net Atomic Charges

     Atom                 Charge (a.u.)    Spin (a.u.)
  --------------------------------------------------------
      1 C                    -0.717424      -0.026768
      2 C                    -0.061430       0.729105
      3 C                    -0.648333      -0.035099
      4 H                     0.235838      -0.040116
      5 H                     0.203016       0.010356
      6 H                     0.196557       0.040516
      7 H                     0.199306       0.005562
      8 H                     0.202633       0.009325
      9 H                     0.188278       0.007198
     10 H                     0.187300       0.042917
     11 C                    -0.413711      -0.186141
     12 C                    -0.181370       0.402425
     13 O                    -0.281254       0.030623
     14 H                     0.212843       0.019257
     15 H                     0.186701       0.012932
     16 H                     0.211149      -0.021505
     17 H                     0.279900      -0.000589
  --------------------------------------------------------
  Sum of atomic charges =     0.000000
  Sum of spin   charges =     1.000000

 -----------------------------------------------------------------
                    Cartesian Multipole Moments
 -----------------------------------------------------------------
    Charge (ESU x 10^10)
                 0.0000
    Dipole Moment (Debye)
         X      -1.1286      Y       0.0194      Z       0.6925
       Tot       1.3242
    Quadrupole Moments (Debye-Ang)
        XX     -45.4343     XY      -0.0935     YY     -39.9632
        XZ       1.1938     YZ      -2.5672     ZZ     -38.3644
    Octopole Moments (Debye-Ang^2)
       XXX      -8.1339    XXY      -0.9330    XYY       2.6213
       YYY      -3.3313    XXZ       2.2590    XYZ      -5.6625
       YYZ      -0.8511    XZZ       7.8971    YZZ      -1.6593
       ZZZ       3.7687
    Hexadecapole Moments (Debye-Ang^3)
      XXXX    -851.3809   XXXY      -3.7847   XXYY    -179.8644
      XYYY     -21.6957   YYYY    -288.7700   XXXZ      16.1179
      XXYZ     -12.1683   XYYZ       4.2065   YYYZ      -4.1626
      XXZZ    -139.9017   XYZZ      -5.7060   YYZZ     -64.9996
      XZZZ       6.7297   YZZZ      -3.3538   ZZZZ     -95.9760
 -----------------------------------------------------------------
 Calculating analytic gradient of the SCF energy
 Gradient of Coulomb and Exchange Energy
            1           2           3           4           5           6
    1   2.0258004   2.0916908   3.1134844  -0.6409540  -0.1094310   2.7739292
    2   3.0835148   0.2446425  -1.1405713  -0.6194705   0.9379204   2.8110005
    3  -0.2759245   0.6600269  -0.3752183   4.7282022  -3.5643610   0.9517019
            7           8           9          10          11          12
    1  -2.8808795   0.6164958   0.5494633   3.6159566   1.0265854  -3.4324637
    2   2.1971186  -0.6338134  -3.6680317   1.0287833  -3.9004396  -3.0002929
    3   0.9506791  -3.5908287   0.9185279   0.6643124  -3.2620510   3.5880975
           13          14          15          16          17
    1 -10.5428288   0.9023176   1.9631353  -1.7676856   0.6953837
    2   4.9716928   1.2982642  -4.1707336  -2.1596444   2.7200604
    3   1.6071239  -4.1196789   1.0833098   3.9808506  -3.9447699
 Gradient of SCF Energy
            1           2           3           4           5           6
    1  -0.0011378   0.0030913  -0.0010300  -0.0008414  -0.0000936   0.0010008
    2  -0.0021570   0.0010581   0.0008187  -0.0013258  -0.0004935   0.0005025
    3  -0.0010849   0.0015490  -0.0001132   0.0016283  -0.0018749   0.0004578
            7           8           9          10          11          12
    1  -0.0019595  -0.0006338  -0.0002943   0.0008896  -0.0049168   0.0017331
    2   0.0005606   0.0000798  -0.0015504   0.0008283   0.0006938   0.0028957
    3   0.0008753  -0.0018785   0.0006424   0.0002793  -0.0006115  -0.0004947
           13          14          15          16          17
    1   0.0026960   0.0009766   0.0013555  -0.0002888  -0.0005470
    2  -0.0025154   0.0019965  -0.0012126  -0.0015835   0.0014043
    3  -0.0010801  -0.0007794   0.0017714   0.0013127  -0.0005990
 Max gradient component =       4.917E-03
 RMS gradient           =       1.508E-03
 Gradient time:  CPU 61.43 s  wall 61.34 s
 Geometry Optimization Parameters
   NAtoms,    NIC,     NZ,  NCons,   NDum,   NFix, NCnnct, MaxDiis
       17     132       0       0       0       0       0       0

 Cartesian Hessian Update
 Hessian Updated using Powell/Murtagh-Sargent Update
  Mixing factors:     0.994100 Powell
                      0.005900 Murtagh-Sargent


** GEOMETRY OPTIMIZATION IN DELOCALIZED INTERNAL COORDINATES **
   Searching for a Transition State

   Optimization Cycle:   4

                       Coordinates (Angstroms)
     ATOM                X               Y               Z
      1  C        -1.0014853680   -1.5311455632    0.0716888791
      2  C        -1.1997604369   -0.1366174857   -0.4421800295
      3  C        -2.3242857507    0.6758457603    0.1275537338
      4  H        -1.0080806089   -0.0053362720   -1.5057914655
      5  H        -0.9894065765   -1.5549183098    1.1701595597
      6  H        -1.8150912947   -2.2040277850   -0.2460585456
      7  H        -0.0639442001   -1.9652465848   -0.2922675701
      8  H        -2.2793792203    0.7043773321    1.2245915022
      9  H        -2.3105189252    1.7081520120   -0.2378256710
     10  H        -3.3085372607    0.2535284729   -0.1349714734
     11  C         0.6143891303    1.0260579168    0.2929533626
     12  C         1.7548964844    0.6519973134   -0.3443149868
     13  O         2.5209539583   -0.4297760999   -0.0123658748
     14  H         0.4012409472    0.6538135037    1.2951237878
     15  H         0.1656782851    1.9779890515    0.0346412790
     16  H         2.1073936230    1.1189954899   -1.2569738634
     17  H         2.1885201082   -0.8131482050    0.8079379644
   Point Group: c1    Number of degrees of freedom:    45


   Energy is   -272.165251493

 GETINT wrote B to file, NVib is           45
 Hessian Updated using Powell/Murtagh-Sargent Update
  Mixing factors:     0.995883 Powell
                      0.004117 Murtagh-Sargent

 42 Hessian modes will be used to form the next step
  Hessian Eigenvalues:
     0.000307    0.009182    0.009204    0.019937    0.026224    0.027597
     0.034145    0.040843    0.042846    0.044541    0.048215    0.048453
     0.049074    0.049212    0.054820    0.058694    0.066346    0.088936
     0.116632    0.118921    0.144824    0.159582    0.159927    0.159984
     0.159999    0.160008    0.220157    0.297513    0.323722    0.323965
     0.334820    0.335098    0.339646    0.340439    0.343645    0.344430
     0.351250    0.356888    0.357573    0.514459    0.527910    0.545823
**WARNING** Hessian does not have the Desired Local Structure

 Transition State Search - Taking P-RFO Step
 Searching for Lamda that Maximizes Along the Lowest mode
 Value Taken    Lamda =   0.00075383
 Searching for Lamda that Minimizes Along All other modes
 Value Taken    Lamda =  -0.00056282
 Calculated Step too Large.  Step scaled by  0.230227
 Step Taken.  Stepsize is  0.300000

                             Maximum     Tolerance    Cnvgd?
         Gradient           0.004318      0.000300      NO
         Displacement       0.137230      0.001200      NO
         Energy change      0.000049      0.000001      NO


 New Cartesian Coordinates Obtained by Inverse Iteration

 Displacement from previous Coordinates is:  0.460933
 ----------------------------------------------------------------
             Standard Nuclear Orientation (Angstroms)
    I     Atom           X                Y                Z
 ----------------------------------------------------------------
    1      C      -1.0186794356    -1.5373457772     0.1040021100
    2      C      -1.1923078110    -0.1521702160    -0.4423500022
    3      C      -2.3133241279     0.6865022746     0.0949439480
    4      H      -0.9751669592    -0.0411576455    -1.5038207714
    5      H      -1.0235162808    -1.5367414431     1.2033499412
    6      H      -1.8352171159    -2.2080564540    -0.2123457052
    7      H      -0.0802820410    -1.9900723640    -0.2369202500
    8      H      -2.2803481719     0.7366258705     1.1923914148
    9      H      -2.2799444886     1.7113089858    -0.2912850048
   10      H      -3.3003418904     0.2720592061    -0.1713131874
   11      C       0.6107558442     1.0044301108     0.3237581465
   12      C       1.7469850881     0.6823146104    -0.3470451226
   13      O       2.5346898896    -0.4003658265    -0.0770456086
   14      H       0.4190317272     0.5736972698     1.3080690865
   15      H       0.1383082168     1.9586002475     0.1189475381
   16      H       2.0794802764     1.2011803893    -1.2395781304
   17      H       2.2224601747    -0.8302686916     0.7281421857
 ----------------------------------------------------------------
 Molecular Point Group                 C1    NOp =  1
 Largest Abelian Subgroup              C1    NOp =  1
 Nuclear Repulsion Energy =   236.0403999043 hartrees
 There are       25 alpha and       24 beta electrons
 Applying Cartesian multipole field
    Component          Value
    ---------          -----
     (2,0,0)        1.00000E-11
     (0,2,0)        2.00000E-11
     (0,0,2)       -3.00000E-11
 Nucleus-field energy     =     0.0000000077 hartrees
 Requested basis set is non-standard
 There are 138 shells and 314 basis functions
 A cutoff of  1.0D-11 yielded   8877 shell pairs
 There are     45611 function pairs (     54761 Cartesian)
 Smallest overlap matrix eigenvalue = 2.15E-05
 Guess MOs from SCF MO coefficient file
Reading MOs from coefficient file
Reading MOs from coefficient file
 An unrestricted hybrid HF-DFT SCF calculation will be
 performed using Pulay DIIS extrapolation
 Exchange:     0.5679 Hartree-Fock + 1.0000 M08SO
 SCF converges when DIIS error is below 1.0E-08
Geometry optimization detected.  Setting ReadMinima to 0
Setting SaveMinima to 0
 Inaccurate integrated density:
   Number of electrons =    49
   Numerical integral  =    48.977278409163
   Relative error      =    -0.0463705935 %
 ---------------------------------------
  Cycle       Energy         DIIS Error
 ---------------------------------------
    1    -272.1501034213      7.36E-04
    2    -272.1649677731      1.08E-04
    3    -272.1650808953      9.92E-05
    4    -272.1651782208      2.30E-05
    5    -272.1651841527      9.37E-06
    6    -272.1651853702      1.99E-06
    7    -272.1651854578      4.79E-07
    8    -272.1651854741      1.62E-07
    9    -272.1651854789      8.84E-08
   10    -272.1651854808      5.01E-08
   11    -272.1651854820      2.99E-08
   12    -272.1651854825      1.17E-08
   13    -272.1651854822      5.29E-09 Convergence criterion met
 ---------------------------------------
 <S^2> = 0.7787
 SCF time:  CPU 703.64 s  wall 711.29 s
 SCF   energy in the final basis set = -272.1651854822
 Total energy in the final basis set = -272.1651854822
 Analysis of SCF Wavefunction
 
 --------------------------------------------------------------
                    Orbital Energies (a.u.)
 --------------------------------------------------------------
 
 Alpha MOs
 -- Occupied --
-19.595 -10.551 -10.506 -10.495 -10.488 -10.488  -1.173  -0.885
 -0.843  -0.783  -0.710  -0.652  -0.579  -0.568  -0.529  -0.510
 -0.488  -0.481  -0.463  -0.450  -0.444  -0.418  -0.411  -0.334
 -0.209
 -- Virtual --
 -0.026  -0.015  -0.008  -0.006   0.011   0.017   0.018   0.024
  0.025   0.048   0.049   0.054   0.065   0.069   0.076   0.086
  0.096   0.107   0.109   0.117   0.120   0.130   0.133   0.134
  0.139   0.148   0.153   0.154   0.161   0.165   0.168   0.181
  0.202   0.205   0.217   0.222   0.232   0.242   0.244   0.258
  0.273   0.279   0.300   0.305   0.312   0.320   0.329   0.356
  0.363   0.380   0.391   0.427   0.452   0.466   0.481   0.494
  0.500   0.510   0.522   0.535   0.556   0.563   0.566   0.568
  0.580   0.586   0.588   0.591   0.617   0.624   0.634   0.639
  0.654   0.654   0.677   0.682   0.687   0.704   0.711   0.719
  0.735   0.753   0.769   0.784   0.806   0.818   0.845   0.861
  0.884   0.892   0.920   0.935   0.963   0.977   0.997   1.014
  1.052   1.070   1.081   1.093   1.097   1.100   1.131   1.135
  1.144   1.163   1.175   1.184   1.205   1.211   1.218   1.239
  1.263   1.272   1.291   1.308   1.318   1.336   1.347   1.353
  1.358   1.368   1.382   1.397   1.427   1.432   1.462   1.468
  1.480   1.488   1.504   1.525   1.527   1.535   1.560   1.567
  1.584   1.605   1.615   1.640   1.686   1.698   1.720   1.830
  1.898   1.992   2.234   2.247   2.338   2.346   2.439   2.461
  2.490   2.512   2.526   2.556   2.610   2.636   2.674   2.686
  2.706   2.730   2.760   2.776   2.802   2.829   2.844   2.880
  2.896   2.912   2.926   2.933   2.953   2.988   3.007   3.019
  3.030   3.045   3.047   3.100   3.124   3.140   3.155   3.169
  3.188   3.198   3.227   3.237   3.252   3.279   3.292   3.304
  3.328   3.352   3.359   3.375   3.391   3.413   3.436   3.453
  3.483   3.499   3.522   3.550   3.561   3.572   3.582   3.602
  3.624   3.645   3.672   3.705   3.726   3.742   3.768   3.785
  3.808   3.833   3.863   3.887   3.892   3.938   3.963   3.969
  3.995   4.023   4.039   4.041   4.066   4.091   4.133   4.148
  4.160   4.191   4.196   4.205   4.211   4.232   4.271   4.279
  4.323   4.348   4.383   4.396   4.424   4.434   4.471   4.489
  4.509   4.522   4.537   4.570   4.575   4.621   4.775   4.824
  4.919   5.032   5.116   5.126   5.151   5.174   5.193   5.356
  5.397   5.449   5.503   5.526   5.595   5.606   5.619   5.624
  5.654   5.755   5.837   6.206   6.663   6.908   7.102   7.131
  7.248   7.485   7.569  23.978  23.992  24.167  24.287  24.611
 49.806
 
 Beta MOs
 -- Occupied --
-19.593 -10.545 -10.498 -10.491 -10.489 -10.488  -1.168  -0.879
 -0.840  -0.782  -0.707  -0.640  -0.574  -0.564  -0.523  -0.493
 -0.478  -0.468  -0.460  -0.446  -0.443  -0.420  -0.411  -0.304
 -- Virtual --
 -0.033  -0.022  -0.020  -0.013  -0.011   0.006   0.012   0.016
  0.021   0.021   0.044   0.046   0.054   0.061   0.064   0.074
  0.082   0.093   0.105   0.113   0.115   0.117   0.127   0.129
  0.130   0.139   0.146   0.149   0.152   0.159   0.161   0.166
[...]
 H          0.036 -0.041 -0.033   -0.257  0.256  0.282   -0.039  0.035  0.030
 C          0.058 -0.106  0.019    0.031  0.032  0.034    0.065 -0.022 -0.077
 C          0.025 -0.017  0.057    0.016 -0.014 -0.014   -0.026 -0.068  0.123
 O         -0.057  0.089 -0.035    0.000  0.003 -0.001   -0.105  0.126 -0.053
 H         -0.455 -0.038 -0.144   -0.299 -0.157 -0.112    0.448 -0.188  0.011
 H          0.709  0.088 -0.125   -0.075 -0.083 -0.100   -0.050 -0.046 -0.001
 H         -0.348 -0.127 -0.163   -0.036 -0.010 -0.039    0.207 -0.266  0.180
 H         -0.126  0.097 -0.074   -0.047  0.049 -0.012    0.525 -0.504  0.083
 TransDip   0.079 -0.091 -0.019    0.077  0.004 -0.025    0.380 -0.224  0.153

 Mode:                22                     23                     24
 Frequency:      1147.38                1172.71                1275.52
 Force Cnst:      1.4832                 1.5166                 1.2845
 Red. Mass:       1.9122                 1.8717                 1.3400
 IR Active:          YES                    YES                    YES
 IR Intens:        0.593                  2.915                 16.451
 Raman Active:       YES                    YES                    YES
               X      Y      Z        X      Y      Z        X      Y      Z
 C          0.049 -0.101  0.069    0.041  0.023 -0.132    0.008  0.003  0.002
 C         -0.118  0.171  0.042   -0.034 -0.071  0.187   -0.018 -0.019 -0.003
 C          0.063 -0.055 -0.113    0.010  0.066 -0.115    0.008  0.008 -0.003
 H         -0.477  0.616  0.117   -0.112 -0.165  0.172    0.004  0.034  0.011
 H          0.048 -0.292  0.064   -0.263  0.440 -0.051   -0.017  0.006  0.005
 H          0.012 -0.043  0.007   -0.139  0.119  0.205   -0.023  0.038 -0.014
 H          0.010 -0.187  0.057    0.121 -0.223  0.189   -0.006 -0.002 -0.014
 H          0.288 -0.146 -0.161    0.273 -0.334 -0.171   -0.029 -0.027  0.005
 H          0.155 -0.031 -0.056   -0.157  0.136  0.264   -0.020  0.004  0.000
 H          0.027 -0.028  0.024    0.096 -0.205  0.155    0.018 -0.021  0.015
 C          0.003 -0.002 -0.001    0.001 -0.002 -0.007   -0.051 -0.001  0.101
 C          0.002  0.000  0.003   -0.004  0.005  0.003    0.064  0.012 -0.102
 O         -0.001  0.001 -0.001    0.003 -0.002  0.002   -0.025  0.027 -0.003
 H          0.001 -0.021 -0.005   -0.019 -0.031 -0.017   -0.463  0.220  0.010
 H         -0.038 -0.034 -0.028    0.052  0.028  0.010   -0.012 -0.001  0.048
 H          0.008 -0.005  0.005   -0.037  0.010 -0.012    0.597 -0.495 -0.011
 H          0.005 -0.003  0.001   -0.015  0.005 -0.005    0.212 -0.222  0.037
 TransDip   0.006 -0.023 -0.007   -0.051 -0.016  0.012    0.061 -0.113  0.022

 Mode:                25                     26                     27
 Frequency:      1310.75                1350.24                1397.17
 Force Cnst:      1.6391                 1.4124                 1.4681
 Red. Mass:       1.6193                 1.3149                 1.2765
 IR Active:          YES                    YES                    YES
 IR Intens:       11.376                  0.701                  7.624
 Raman Active:       YES                    YES                    YES
               X      Y      Z        X      Y      Z        X      Y      Z
 C          0.003  0.013 -0.005   -0.006 -0.019  0.054    0.032 -0.124  0.031
 C         -0.010 -0.002  0.003    0.084 -0.117 -0.021   -0.019  0.032 -0.009
 C          0.008  0.001 -0.001    0.011  0.013 -0.053   -0.050  0.022  0.048
 H          0.027 -0.016  0.003   -0.363  0.505  0.086    0.083 -0.067 -0.032
 H         -0.033 -0.032  0.003    0.029  0.216  0.039   -0.032  0.444  0.049
 H          0.033 -0.030  0.020   -0.123  0.196 -0.233   -0.324  0.335 -0.179
 H         -0.020 -0.060 -0.003   -0.047  0.293 -0.205    0.093  0.411 -0.179
 H         -0.014 -0.006  0.004   -0.223  0.046  0.009    0.294 -0.086 -0.033
 H         -0.025 -0.002 -0.002   -0.226  0.079  0.265    0.228 -0.022 -0.202
 H          0.006  0.004 -0.006   -0.102  0.116  0.283    0.108 -0.182 -0.260
 C         -0.027  0.043 -0.017    0.006  0.000 -0.009    0.003  0.004  0.001
 C          0.049 -0.142  0.122    0.001 -0.010  0.009    0.002 -0.009  0.008
 O          0.019  0.052 -0.089   -0.001  0.003 -0.003    0.000  0.005 -0.006
 H         -0.028  0.061  0.005   -0.003  0.029 -0.005   -0.009 -0.014 -0.004
 H         -0.293  0.043  0.196   -0.027  0.017  0.052   -0.015 -0.006 -0.003
 H          0.255 -0.326  0.171   -0.036  0.027  0.004    0.008 -0.020  0.009
 H         -0.490  0.575 -0.188   -0.020  0.016 -0.009   -0.032  0.032 -0.014
 TransDip   0.104 -0.029  0.010    0.024 -0.011  0.005   -0.058  0.030 -0.060

 Mode:                28                     29                     30
 Frequency:      1400.47                1411.18                1451.61
 Force Cnst:      1.7958                 1.4032                 1.3128
 Red. Mass:       1.5540                 1.1959                 1.0575
 IR Active:          YES                    YES                    YES
 IR Intens:       10.504                 23.507                  0.811
 Raman Active:       YES                    YES                    YES
               X      Y      Z        X      Y      Z        X      Y      Z
 C          0.028 -0.088 -0.015    0.004  0.000 -0.001    0.039 -0.001  0.010
 C         -0.077  0.108  0.022   -0.011  0.009  0.004   -0.013  0.010  0.001
 C          0.122 -0.079 -0.042    0.004  0.001  0.005   -0.016 -0.041 -0.024
 H          0.234 -0.339 -0.053    0.034 -0.034 -0.002    0.023 -0.026 -0.005
 H         -0.061  0.174  0.009   -0.013  0.015  0.001   -0.415  0.025  0.084
 H         -0.207  0.155  0.075    0.017 -0.014 -0.012    0.093 -0.114  0.133
 H          0.131  0.189  0.009   -0.015 -0.039 -0.010   -0.173  0.001 -0.348
 H         -0.372  0.182  0.072    0.013 -0.051  0.000    0.082  0.534 -0.008
 H         -0.413 -0.068  0.143   -0.021 -0.018 -0.061    0.172  0.117  0.473
 H         -0.183  0.428  0.172   -0.004  0.020 -0.009    0.083 -0.153 -0.180
 C         -0.002 -0.002  0.000    0.052 -0.025 -0.042   -0.002  0.001  0.002
 C         -0.001  0.003  0.000    0.072 -0.063 -0.003    0.008 -0.004 -0.004
 O          0.001 -0.001  0.000   -0.035  0.024  0.009   -0.002  0.000  0.002
 H          0.009 -0.006  0.003   -0.328  0.441 -0.067   -0.014  0.013  0.001
 H          0.011 -0.005 -0.013   -0.393  0.078  0.494   -0.013  0.003  0.010
 H          0.007 -0.008  0.000   -0.309  0.322 -0.072   -0.015  0.020 -0.009
 H         -0.005  0.004 -0.001    0.155 -0.172  0.044    0.022 -0.008  0.012
 TransDip  -0.057  0.081  0.032    0.083 -0.094  0.091    0.006  0.010  0.026

 Mode:                31                     32                     33
 Frequency:      1463.92                1466.57                1474.64
 Force Cnst:      1.3291                 1.3495                 1.3341
 Red. Mass:       1.0526                 1.0649                 1.0413
 IR Active:          YES                    YES                    YES
 IR Intens:        6.264                  4.056                 13.896
 Raman Active:       YES                    YES                    YES
               X      Y      Z        X      Y      Z        X      Y      Z
 C         -0.040 -0.006 -0.005   -0.012  0.011 -0.039    0.014 -0.012 -0.024
 C         -0.028  0.006  0.002    0.022 -0.044 -0.008    0.004  0.011 -0.029
 C         -0.009 -0.020 -0.031   -0.013 -0.016  0.020   -0.009  0.025 -0.020
 H          0.052 -0.052 -0.004   -0.090  0.131  0.023    0.004 -0.004 -0.037
 H          0.520  0.074 -0.103    0.053 -0.355 -0.042   -0.173 -0.288  0.014
 H         -0.078  0.129 -0.276   -0.236  0.144  0.379   -0.185  0.080  0.408
 H          0.170 -0.097  0.397    0.258  0.298  0.270    0.154  0.305  0.044
 H         -0.099  0.343  0.014    0.335  0.192 -0.051   -0.371 -0.116  0.058
 H          0.263  0.107  0.353   -0.232  0.002  0.117    0.372  0.045 -0.028
 H          0.101 -0.243  0.032   -0.043  0.182 -0.363    0.087 -0.311  0.393
 C          0.005 -0.007 -0.006    0.003 -0.004 -0.002    0.002  0.000 -0.003
 C         -0.003  0.001  0.003   -0.001 -0.002  0.001    0.003 -0.005  0.003
 O          0.001  0.001 -0.001   -0.001  0.002 -0.001   -0.001  0.002 -0.001
 H         -0.019  0.048 -0.002   -0.024  0.037 -0.003    0.012  0.017  0.003
 H         -0.025  0.009  0.049   -0.010  0.010  0.035   -0.027 -0.001  0.017
 H          0.008 -0.011  0.006    0.002 -0.005  0.002   -0.015  0.016  0.001
 H         -0.015  0.001 -0.010   -0.004 -0.006 -0.005    0.003 -0.004  0.001
 TransDip   0.064  0.036  0.031    0.012  0.054  0.034    0.014 -0.015  0.118

 Mode:                34                     35                     36
 Frequency:      1578.41                2931.53                2935.19
 Force Cnst:      4.4874                 5.2676                 5.2976
 Red. Mass:       3.0571                 1.0403                 1.0437
 IR Active:          YES                    YES                    YES
 IR Intens:      119.108                 30.156                 64.700
 Raman Active:       YES                    YES                    YES
               X      Y      Z        X      Y      Z        X      Y      Z
 C          0.000  0.006 -0.001    0.009  0.042 -0.024   -0.004 -0.019  0.011
 C         -0.037 -0.030 -0.010    0.000  0.000  0.000   -0.001  0.000  0.000
 C          0.011  0.004  0.000   -0.022 -0.003  0.008   -0.049 -0.007  0.017
 H          0.040  0.043  0.011   -0.003  0.004 -0.007    0.000  0.001  0.007
 H          0.067 -0.018 -0.010    0.107 -0.003  0.567   -0.048  0.003 -0.252
 H         -0.036  0.053 -0.030   -0.462 -0.425 -0.129    0.205  0.193  0.057
 H          0.034 -0.009  0.065    0.249 -0.077 -0.145   -0.111  0.036  0.064
 H         -0.016  0.011  0.004   -0.044  0.008 -0.179   -0.093  0.013 -0.396
 H         -0.022  0.004  0.020    0.004 -0.122  0.034    0.012 -0.271  0.072
 H          0.021 -0.017 -0.021    0.299  0.151  0.053    0.679  0.335  0.116
 C         -0.185  0.150  0.097    0.000  0.000  0.000    0.001  0.000  0.000
 C          0.269 -0.188 -0.049    0.000  0.000  0.000    0.000  0.000  0.000
 O         -0.054  0.050 -0.002    0.000  0.000  0.000    0.000  0.000  0.000
 H          0.178 -0.453  0.130    0.001  0.001  0.001   -0.001 -0.001  0.002
 H          0.079  0.018 -0.427   -0.001  0.002  0.000    0.000  0.000 -0.001
 H         -0.313  0.416 -0.188    0.001  0.000 -0.001   -0.001 -0.001  0.003
 H          0.145 -0.155  0.032    0.000  0.000  0.002    0.000  0.000 -0.002
 TransDip   0.280 -0.207  0.028   -0.036  0.167 -0.043   -0.229 -0.066  0.098

 Mode:                37                     38                     39
 Frequency:      2972.99                2984.33                3036.07
 Force Cnst:      5.7170                 5.7306                 5.9589
 Red. Mass:       1.0978                 1.0921                 1.0972
 IR Active:          YES                    YES                    YES
 IR Intens:       37.434                 19.872                 20.543
 Raman Active:       YES                    YES                    YES
               X      Y      Z        X      Y      Z        X      Y      Z
 C         -0.055 -0.032 -0.063    0.005  0.003  0.006   -0.020  0.004  0.015
 C         -0.001 -0.002  0.002   -0.001  0.000  0.002    0.000  0.001 -0.007
 C         -0.004 -0.003 -0.006   -0.046 -0.035 -0.065    0.004 -0.074  0.044
 H         -0.001  0.005 -0.036   -0.001  0.004 -0.029   -0.001 -0.020  0.100
 H          0.112 -0.026  0.706   -0.008 -0.001 -0.062   -0.018  0.003 -0.071
 H          0.487  0.461  0.110   -0.046 -0.042 -0.011    0.031  0.034  0.014
 H          0.062 -0.038 -0.060   -0.003  0.002  0.006    0.216 -0.077 -0.125
 H          0.011 -0.002  0.072    0.151 -0.049  0.795   -0.073  0.002 -0.342
 H         -0.003  0.022 -0.006   -0.037  0.248 -0.083   -0.076  0.844 -0.224
 H          0.040  0.017  0.004    0.452  0.220  0.057    0.112  0.035  0.032
 C          0.001  0.000 -0.001    0.001  0.000 -0.001    0.000  0.000  0.000
 C          0.000  0.000  0.000    0.000  0.000  0.000    0.000  0.000  0.000
 O          0.000  0.000  0.000    0.000  0.000  0.000    0.000  0.000  0.000
 H         -0.002  0.001  0.012   -0.003 -0.003  0.020   -0.001 -0.001  0.003
 H         -0.003  0.005 -0.002   -0.003  0.009 -0.005    0.001  0.002 -0.001
 H          0.002  0.001 -0.004    0.000  0.001 -0.002    0.001  0.000 -0.002
 H          0.002  0.000  0.003    0.000 -0.001  0.000    0.000  0.000  0.000
 TransDip  -0.113 -0.087 -0.135   -0.057 -0.066 -0.113    0.007 -0.119  0.082

 Mode:                40                     41                     42
 Frequency:      3038.16                3062.62                3111.66
 Force Cnst:      5.9625                 5.8746                 6.2086
 Red. Mass:       1.0964                 1.0630                 1.0883
 IR Active:          YES                    YES                    YES
 IR Intens:       13.186                  7.409                 24.029
 Raman Active:       YES                    YES                    YES
               X      Y      Z        X      Y      Z        X      Y      Z
 C         -0.066  0.013  0.053    0.000  0.000  0.001    0.003 -0.004 -0.006
 C          0.000  0.000 -0.003    0.000  0.000  0.001    0.006  0.019 -0.082
 C         -0.001  0.022 -0.013    0.001  0.001  0.001   -0.003  0.006 -0.005
 H         -0.002 -0.007  0.047    0.000  0.001 -0.010   -0.055 -0.206  0.966
 H         -0.059  0.005 -0.255   -0.002 -0.001 -0.009    0.009 -0.003  0.049
 H          0.103  0.113  0.046   -0.005 -0.006 -0.001    0.002  0.002 -0.001
 H          0.749 -0.266 -0.429    0.002  0.000 -0.001   -0.051  0.023  0.028
 H          0.023 -0.002  0.102   -0.004  0.001 -0.016    0.010 -0.002  0.057
 H          0.023 -0.249  0.065    0.000 -0.008  0.002    0.009 -0.064  0.014
 H         -0.032 -0.011 -0.009   -0.014 -0.006 -0.001    0.003  0.002 -0.001
 C          0.000  0.000  0.000    0.041 -0.020 -0.054    0.001 -0.002  0.001
 C          0.000  0.000  0.000   -0.005  0.004  0.000    0.000  0.000  0.000
 O          0.000  0.000  0.000    0.000  0.000  0.000    0.000  0.000  0.000
 H          0.001  0.001 -0.003   -0.273 -0.164  0.830    0.002  0.001  0.004
 H          0.000 -0.002  0.000   -0.153  0.373 -0.205   -0.009  0.016 -0.010
 H          0.000  0.000 -0.001   -0.004 -0.007  0.010    0.002  0.002 -0.005
 H          0.001  0.001  0.000    0.001 -0.006  0.005    0.000  0.000  0.001
 TransDip  -0.078  0.065  0.057   -0.021  0.001 -0.085    0.022  0.042 -0.150

 Mode:                43                     44                     45
 Frequency:      3150.32                3176.33                3857.60
 Force Cnst:      6.3837                 6.6015                 9.3423
 Red. Mass:       1.0917                 1.1106                 1.0655
 IR Active:          YES                    YES                    YES
 IR Intens:        1.939                  7.298                 39.276
 Raman Active:       YES                    YES                    YES
               X      Y      Z        X      Y      Z        X      Y      Z
 C          0.000  0.000  0.000    0.000  0.000  0.000    0.000  0.000  0.000
 C         -0.001 -0.001  0.000    0.000  0.000  0.002    0.000  0.000  0.000
 C          0.000  0.000  0.000    0.000  0.000  0.000    0.000  0.000  0.000
 H          0.001  0.000  0.000    0.000  0.003 -0.018    0.000  0.000 -0.001
 H          0.001  0.000  0.004    0.000  0.001 -0.004    0.000  0.000 -0.003
 H          0.001  0.001  0.000    0.000  0.001  0.000    0.000  0.001 -0.001
 H          0.002 -0.001 -0.001    0.000  0.000  0.001   -0.001  0.000  0.000
 H          0.000  0.000  0.002    0.000  0.000 -0.002    0.000  0.000 -0.001
 H         -0.001  0.003 -0.001   -0.001  0.000  0.000    0.000  0.000  0.000
 H         -0.001  0.000  0.000    0.000  0.000  0.000    0.001  0.000  0.000
 C          0.003 -0.022  0.025    0.017 -0.066  0.060    0.000  0.000  0.001
 C          0.037  0.020 -0.069   -0.015 -0.008  0.028    0.002  0.000 -0.003
 O         -0.001  0.000  0.001    0.000  0.001 -0.001    0.027  0.017 -0.053
 H          0.048  0.025 -0.148    0.130  0.068 -0.379   -0.001  0.002 -0.006
 H         -0.106  0.255 -0.136   -0.295  0.697 -0.360    0.001 -0.001 -0.001
 H         -0.401 -0.255  0.804    0.153  0.094 -0.300   -0.008 -0.005  0.014
 H          0.012  0.001 -0.015   -0.006  0.004  0.003   -0.449 -0.271  0.849
 TransDip  -0.018  0.017 -0.037    0.013 -0.052  0.068    0.045 -0.100  0.168

 STANDARD THERMODYNAMIC QUANTITIES AT   298.15 K  AND     1.00 ATM

   This Molecule has  1 Imaginary Frequencies
   Zero point vibrational energy:       91.092 kcal/mol

   Atom    1 Element C  Has Mass   12.00000
   Atom    2 Element C  Has Mass   12.00000
   Atom    3 Element C  Has Mass   12.00000
   Atom    4 Element H  Has Mass    1.00783
   Atom    5 Element H  Has Mass    1.00783
   Atom    6 Element H  Has Mass    1.00783
   Atom    7 Element H  Has Mass    1.00783
   Atom    8 Element H  Has Mass    1.00783
   Atom    9 Element H  Has Mass    1.00783
   Atom   10 Element H  Has Mass    1.00783
   Atom   11 Element C  Has Mass   12.00000
   Atom   12 Element C  Has Mass   12.00000
   Atom   13 Element O  Has Mass   15.99491
   Atom   14 Element H  Has Mass    1.00783
   Atom   15 Element H  Has Mass    1.00783
   Atom   16 Element H  Has Mass    1.00783
   Atom   17 Element H  Has Mass    1.00783
   Molecular Mass:    87.081040 amu
   Principal axes and moments of inertia in amu*Bohr^2:
                             1           2           3
    Eigenvalues --      317.06652   968.35135  1166.16116
          X               0.99996    -0.00118    -0.00932
          Y               0.00106     0.99991    -0.01321
          Z               0.00933     0.01320     0.99987
   Rotational Symmetry Number is   1
   The Molecule is an Asymmetric Top
   Translational Enthalpy:        0.889 kcal/mol
   Rotational Enthalpy:           0.889 kcal/mol
   Vibrational Enthalpy:         94.766 kcal/mol
   gas constant (RT):             0.592 kcal/mol
   Translational Entropy:        39.306  cal/mol.K
   Rotational Entropy:           27.373  cal/mol.K
   Vibrational Entropy:          23.161  cal/mol.K

   Total Enthalpy:               97.136 kcal/mol
   Total Entropy:                89.840  cal/mol.K
Archival summary:
1\1\node48\FREQ\ProcedureUnspecified\BasisUnspecified\1511(2)\edames\TueJun1007:53:492014TueJun1007:53:492014\0\\#,FREQ,ProcedureUnspecified,BasisUnspecified,\\0,2\O\H,1,0.965127\C,1,1.36341,2,109.969\H,3,1.08675,1,111.821,2,178.687,0\C,3,1.3574,1,124.687,2,3.30634,0\H,5,1.08634,3,118.804,1,-171.767,0\H,5,1.0924,3,119.883,1,-16.5238,0\C,5,2.25336,3,111.81,1,81.8448,0\H,8,1.09101,5,97.9412,3,68.5443,0\C,8,1.49781,5,100.965,3,-50.4874,0\H,10,1.09792,8,111.626,5,61.0009,0\H,10,1.10353,8,110.555,5,-59.5909,0\H,10,1.10421,8,112.221,5,-178.183,0\C,8,1.4986,5,100.657,3,-172.258,0\H,14,1.09816,8,111.959,5,-61.2637,0\H,14,1.1017,8,110.802,5,59.332,0\H,14,1.10427,8,111.996,5,178.203,0\\\@

 Total job time:  56251.14s(wall), 55744.69s(cpu) 
 Tue Jun 10 07:53:49 2014

        *************************************************************
        *                                                           *
        *  Thank you very much for using Q-Chem.  Have a nice day.  *
        *                                                           *
        *************************************************************


0 sent ACK to 0 
now end server 0 ... 
cleanup process ... done
remove work dirs /scratch/edames/qchem16837.0 -- /scratch/edames/qchem16837.7
rm -rf /scratch/edames/qchem16837.0
rm -rf /scratch/edames/qchem16837.1
rm -rf /scratch/edames/qchem16837.2
rm -rf /scratch/edames/qchem16837.3
rm -rf /scratch/edames/qchem16837.4
rm -rf /scratch/edames/qchem16837.5
rm -rf /scratch/edames/qchem16837.6
rm -rf /scratch/edames/qchem16837.7
rm -rf /scratch/edames/qchem16837
