
Running Job 1 of 2 iC5H11O-3_betasc_CH3m08c.in
qchem iC5H11O-3_betasc_CH3m08c.in_16267.0 /scratch/edames/qchem16267/ 8
/opt/qchem/bin/mpi/mpirun_qchem -machinefile /tmp/318209.1.normal3/hostfile -np 8 /opt/qchem/exe/qcprog.exe iC5H11O-3_betasc_CH3m08c.in_16267.0 /scratch/edames/qchem16267/

Process 5 of 8 is on node65.cluster - thread support 0
Process 6 of 8 is on node65.cluster - thread support 0
Process 2 of 8 is on node65.cluster - thread support 0
Process 3 of 8 is on node65.cluster - thread support 0
Process 1 of 8 is on node65.cluster - thread support 0
Process 7 of 8 is on node65.cluster - thread support 0
Process 4 of 8 is on node65.cluster - thread support 0
initial socket setup ...start
initial socket setup ...done 
now start server 0 ... 
set process cleaner
set process cleaner
set process cleaner
set process cleaner
set process cleaner
                  Welcome to Q-Chem
     A Quantum Leap Into The Future Of Chemistry


 Q-Chem 4.2, Q-Chem, Inc., Pleasanton, CA (2014).

 Y. Shao,  Z. Gan,  E. Epifanovsky,  A. T. B. Gilbert,  M. Wormit,  
 J. Kussmann,  A. W. Lange,  A. Behn,  J. Deng,  X. Feng,  D. Ghosh,  
 M. Goldey,  P. R. Horn,  L. D. Jacobson,  I. Kaliman,  R. Z. Khaliullin,  
 T. Kus,  A. Landau,  J. Liu,  E. I. Proynov,  Y. M. Rhee,  R. M. Richard,  
 M. A. Rohrdanz,  R. P. Steele,  E. J. Sundstrom,  H. L. Woodcock III,  
 P. M. Zimmerman,  D. Zuev,  B. Albrecht,  E. Alguire,  B. Austin,  
 G. J. O. Beran,  Y. A. Bernard,  E. Berquist,  K. Brandhorst,  
 K. B. Bravaya,  S. T. Brown,  D. Casanova,  C.-M. Chang,  Y. Chen,  
 S. H. Chien,  K. D. Closser,  D. L. Crittenden,  M. Diedenhofen,  
 R. A. DiStasio Jr.,  H. Do,  A. D. Dutoi,  R. G. Edgar,  S. Fatehi,  
 L. Fusti-Molnar,  A. Ghysels,  A. Golubeva-Zadorozhnaya,  J. Gomes,  
 M. W. D. Hanson-Heine,  P. H. P. Harbach,  A. W. Hauser,  E. G. Hohenstein,  
 Z. C. Holden,  T.-C. Jagau,  H. Ji,  B. Kaduk,  K. Khistyaev,  Jaehoon Kim,  
 Jihan Kim,  R. A. King,  P. Klunzinger,  D. Kosenkov,  T. Kowalczyk,  
 C. M. Krauter,  K. U. Lao,  A. Laurent,  K. V. Lawler,  S. V. Levchenko,  
 C. Y. Lin,  F. Liu,  E. Livshits,  R. C. Lochan,  A. Luenser,  P. Manohar,  
 S. F. Manzer,  S.-P. Mao,  N. Mardirossian,  A. V. Marenich,  S. A. Maurer,  
 N. J. Mayhall,  C. M. Oana,  R. Olivares-Amaya,  D. P. O'Neill,  
 J. A. Parkhill,  T. M. Perrine,  R. Peverati,  P. A. Pieniazek,  A. Prociuk,  
 D. R. Rehn,  E. Rosta,  N. J. Russ,  N. Sergueev,  S. M. Sharada,  
 S. Sharma,  D. W. Small,  A. Sodt,  T. Stein,  D. Stuck,  Y.-C. Su,  
 A. J. W. Thom,  T. Tsuchimochi,  L. Vogt,  O. Vydrov,  T. Wang,  
 M. A. Watson,  J. Wenzel,  A. White,  C. F. Williams,  V. Vanovschi,  
 S. Yeganeh,  S. R. Yost,  Z.-Q. You,  I. Y. Zhang,  X. Zhang,  Y. Zhao,  
 B. R. Brooks,  G. K. L. Chan,  D. M. Chipman,  C. J. Cramer,  
 W. A. Goddard III,  M. S. Gordon,  W. J. Hehre,  A. Klamt,  
 H. F. Schaefer III,  M. W. Schmidt,  C. D. Sherrill,  D. G. Truhlar,  
 A. Warshel,  X. Xu,  A. Aspuru-Guzik,  R. Baer,  A. T. Bell,  N. A. Besley,  
 J.-D. Chai,  A. Dreuw,  B. D. Dunietz,  T. R. Furlani,  S. R. Gwaltney,  
 C.-P. Hsu,  Y. Jung,  J. Kong,  D. S. Lambrecht,  W. Liang,  C. Ochsenfeld,  
 V. A. Rassolov,  L. V. Slipchenko,  J. E. Subotnik,  T. Van Voorhis,  
 J. M. Herbert,  A. I. Krylov,  P. M. W. Gill,  M. Head-Gordon

 Contributors to earlier versions of Q-Chem not listed above: 
 R. D. Adamson,  J. Baker,  E. F. C. Byrd,  A. K. Chakraborty,  C.-L. Cheng,  
 H. Dachsel,  R. J. Doerksen,  G. Hawkins,  A. Heyden,  S. Hirata,  
 G. Kedziora,  F. J. Keil,  C. Kelley,  P. P. Korambath,  W. Kurlancheek,  
 A. M. Lee,  M. S. Lee,  D. Liotard,  I. Lotan,  P. E. Maslen,  N. Nair,  
 D. Neuhauser,  R. Olson,  B. Peters,  J. Ritchie,  N. E. Schultz,  
 N. Shenvi,  A. C. Simmonett,  K. S. Thanthiriwatte,  Q. Wu,  W. Zhang

 Q-Chem 4.2.0 for Intel X86 Linux

 Parts of Q-Chem use Armadillo 4.100.2 (Dirt Cruiser).
 http://arma.sourceforge.net/

 Q-Chem begins on Thu Jun 26 18:55:05 2014  

Host: 
0

     Scratch files written to /scratch/edames/qchem16267.0//
 May2514 8580_ilyak 4150   
 Parallel job on  8  processors
Processing $rem in /opt/qchem/config/preferences.
 MEM_TOTAL  2000 

 Q-Chem warning in module /home/scratch/svnadmin/8580_ilyak/qchem/forms1/BasisType.C, line 1209:

 Setting pure/cartesian flag to 2111 for general basis


Finally everything over in PARseQInput

--------------------------------------------------------------
User input:
--------------------------------------------------------------
$rem
XC_GRID 000075000434
JOBTYPE ts
EXCHANGE M08SO
BASIS gen
GEOM_OPT_TOL_DISPLACEMENT 3000
SCF_ALGORITHM DIIS_GDM
GEOM_OPT_MAX_CYCLES 100
incdft false
!   varthresh false
GUI=2
UNRESTRICTED TRUE
CORRELATION NONE
$end

$comment
c5h11o-2
$end

$molecule
read iC5H11O-3_betasc_CH3.out
$end

$basis
H  0
S  3 1.00
3.386500000000E+01 2.549380000000E-02
5.094790000000E+00 1.903730000000E-01
1.158790000000E+00 8.521610000000E-01
S  1 1.00
3.258400000000E-01 1.000000000000E+00
S  1 1.00
1.027410000000E-01 1.000000000000E+00
S  1 1.00
3.600000000000E-02 1.000000000000E+00
P  1 1.00
1.500000000000E+00 1.000000000000E+00
P  1 1.00
3.750000000000E-01 1.000000000000E+00
****
C 0
S  6 1.00
4.563240000000E+03 1.966650000000E-03
6.820240000000E+02 1.523060000000E-02
1.549730000000E+02 7.612690000000E-02
4.445530000000E+01 2.608010000000E-01
1.302900000000E+01 6.164620000000E-01
1.827730000000E+00 2.210060000000E-01
S  3 1.00
2.096420000000E+01 1.146600000000E-01
4.803310000000E+00 9.199990000000E-01
1.459330000000E+00 -3.030680000000E-03
S  1 1.00
4.834560000000E-01 1.000000000000E+00
S  1 1.00
1.455850000000E-01 1.000000000000E+00
S  1 1.00
4.380000000000E-02 1.000000000000E+00
P  3 1.00
2.096420000000E+01 4.024870000000E-02
4.803310000000E+00 2.375940000000E-01
1.459330000000E+00 8.158540000000E-01
P  1 1.00
4.834560000000E-01 1.000000000000E+00
P  1 1.00
1.455850000000E-01 1.000000000000E+00
P  1 1.00
4.380000000000E-02 1.000000000000E+00
D  1 1.00
1.252000000000E+00 1.000000000000E+00
D  1 1.00
3.130000000000E-01 1.000000000000E+00
F  1 1.00
8.000000000000E-01 1.000000000000E+00
****
O  0
S  6 1.00
8.588500000000E+03 1.895150000000E-03
1.297230000000E+03 1.438590000000E-02
2.992960000000E+02 7.073200000000E-02
8.737710000000E+01 2.400010000000E-01
2.567890000000E+01 5.947970000000E-01
3.740040000000E+00 2.808020000000E-01
S  3 1.00
4.211750000000E+01 1.138890000000E-01
9.628370000000E+00 9.208110000000E-01
2.853320000000E+00 -3.274470000000E-03
S  1 1.00
9.056610000000E-01 1.000000000000E+00
S  1 1.00
2.556110000000E-01 1.000000000000E+00
S  1 1.00
8.450000000000E-02 1.000000000000E+00
P  3 1.00
4.211750000000E+01 3.651140000000E-02
9.628370000000E+00 2.371530000000E-01
2.853320000000E+00 8.197020000000E-01
P  1 1.00
9.056610000000E-01 1.000000000000E+00
P  1 1.00
2.556110000000E-01 1.000000000000E+00
P  1 1.00
8.450000000000E-02 1.000000000000E+00
D  1 1.00
2.584000000000E+00 1.000000000000E+00
D  1 1.00
6.460000000000E-01 1.000000000000E+00
F  1 1.00
1.400000000000E+00 1.000000000000E+00
****
$end

--------------------------------------------------------------
 ----------------------------------------------------------------
             Standard Nuclear Orientation (Angstroms)
    I     Atom           X                Y                Z
 ----------------------------------------------------------------
    1      C       2.2356911362     0.8271576550    -0.2132685068
    2      H       2.5167820231     1.8173774254     0.1628914348
    3      H       3.0360403240     0.1366968720     0.0589118953
    4      H       2.1928215946     0.8881175228    -1.3035285322
    5      C       0.9035004986     0.4124291251     0.3630510772
    6      H       0.8968698726     0.1795393040     1.4256311125
    7      C      -0.2830589329     0.7604502581    -0.2126994094
    8      H      -0.2975881840     1.1252601071    -1.2380594738
    9      C      -1.6197393866     0.5437217420     0.4208201409
   10      H      -2.1733384409     1.4849923262     0.4952097877
   11      H      -1.4962701601     0.1532817796     1.4410902489
   12      O      -2.4635799869    -0.3117075126    -0.3616400267
   13      H      -1.9639407513    -1.1145280581    -0.5415997155
   14      C       1.0569882593    -1.8689810864     0.0366515022
   15      H       0.1196077293    -2.2432200537     0.4317912229
   16      H       1.1789186116    -1.9055913865    -1.0389784476
   17      H       1.9384478284    -2.0769319009     0.6324318556
 ----------------------------------------------------------------
 Molecular Point Group                 C1    NOp =  1
 Largest Abelian Subgroup              C1    NOp =  1
 Nuclear Repulsion Energy =   236.6153145380 hartrees
 There are       25 alpha and       24 beta electrons
 Requested basis set is non-standard
 There are 138 shells and 314 basis functions

Total QAlloc Memory Limit   2000 MB
Mega-Array Size        61 MB
MEM_STATIC part        62 MB
 A cutoff of  1.0D-12 yielded   8995 shell pairs
 There are     46325 function pairs (     55662 Cartesian)
 Smallest overlap matrix eigenvalue = 1.11E-05

  Scale SEOQF with 1.000000e-01/1.000000e-01/1.000000e-01

 Standard Electronic Orientation quadrupole field applied
 Nucleus-field energy     =     0.0000000076 hartrees
 Guess MOs from core Hamiltonian diagonalization
 An unrestricted hybrid HF-DFT SCF calculation will be
 performed using Pulay DIIS + Geometric Direct Minimization
 Exchange:     0.5679 Hartree-Fock + 1.0000 M08SO
 SCF converges when RMS gradient is below 1.0E-08
 ---------------------------------------
  Cycle       Energy         DIIS Error
 ---------------------------------------
    1    -184.1323883918      9.27E-02
    2    -125.9858732426      7.59E-02
    3    -216.8099414585      4.50E-02
    4    -181.8296223631      5.63E-02
    5    -263.7197366494      2.01E-02
    6    -252.5695360870      2.97E-02
    7    -271.5975068508      6.24E-03 Done DIIS. Switching to GDM
    8    -271.6716324593      6.67E-01 Descent step
    9    -272.0453787285      8.52E-02 Descent step
   10    -272.1229631523      7.05E-02 Normal BFGS step
   11    -272.1484824319      1.26E-02 Normal BFGS step
   12    -272.1513050496      6.15E-03 Normal BFGS step
   13    -272.1520058553      3.22E-03 Normal BFGS step
   14    -272.1521369284      8.77E-04 Normal BFGS step
   15    -272.1521563508      9.36E-04 Normal BFGS step
   16    -272.1521620985      7.35E-04 Normal BFGS step
   17    -272.1521646564      2.58E-04 Normal BFGS step
   18    -272.1521659136      1.19E-04 Normal BFGS step
   19    -272.1521660499      1.39E-05 Normal BFGS step
   20    -272.1521660621      6.21E-06 Normal BFGS step
   21    -272.1521660634      1.94E-06 Normal BFGS step
   22    -272.1521660636      6.65E-07 Normal BFGS step
   23    -272.1521660636      3.04E-07 Normal BFGS step
   GDM::WARNING energy changes are now smaller than effective accuracy.
   GDM::        calculation will continue, but THRESH should be increased
   GDM::        or SCF_CONVERGENCE decreased.
   GDM::        effective_thresh =   6.636973715404282E-009
   24    -272.1521660636      7.45E-08 Normal BFGS step
   GDM::WARNING energy changes are now smaller than effective accuracy.
   GDM::        calculation will continue, but THRESH should be increased
   GDM::        or SCF_CONVERGENCE decreased.
   GDM::        effective_thresh =   6.636973715404282E-009
   25    -272.1521660635      3.09E-08 Normal BFGS step
   26    -272.1521660636      1.83E-08 Normal BFGS step
   GDM::WARNING energy changes are now smaller than effective accuracy.
   GDM::        calculation will continue, but THRESH should be increased
   GDM::        or SCF_CONVERGENCE decreased.
   GDM::        effective_thresh =   6.636973715404282E-009
   27    -272.1521660635      5.31E-09 Convergence criterion met
 ---------------------------------------
 <S^2> = 0.7756
 SCF time:  CPU 2542.62 s  wall 2584.64 s
 SCF   energy in the final basis set = -272.1521660635
 Total energy in the final basis set = -272.1521660635
 Analysis of SCF Wavefunction
 
 --------------------------------------------------------------
                    Orbital Energies (a.u.)
 --------------------------------------------------------------
 
 Alpha MOs
 -- Occupied --
-19.563 -10.544 -10.519 -10.510 -10.500 -10.497  -1.132  -0.906
 -0.821  -0.777  -0.735  -0.648  -0.592  -0.543  -0.519  -0.504
 -0.489  -0.488  -0.481  -0.465  -0.429  -0.407  -0.372  -0.355
 -0.250
 -- Virtual --
 -0.028  -0.013  -0.011  -0.007   0.010   0.014   0.015   0.017
  0.023   0.045   0.050   0.056   0.063   0.070   0.073   0.083
  0.089   0.105   0.110   0.113   0.123   0.125   0.128   0.134
  0.140   0.144   0.151   0.154   0.156   0.167   0.182   0.193
  0.200   0.212   0.216   0.218   0.232   0.248   0.257   0.259
  0.269   0.271   0.282   0.294   0.310   0.320   0.334   0.334
  0.366   0.380   0.401   0.416   0.439   0.459   0.473   0.492
  0.504   0.507   0.519   0.538   0.543   0.552   0.559   0.569
  0.572   0.580   0.588   0.593   0.598   0.609   0.616   0.624
  0.643   0.649   0.658   0.661   0.683   0.701   0.705   0.713
  0.737   0.754   0.766   0.787   0.813   0.816   0.848   0.872
  0.883   0.903   0.926   0.933   0.968   0.978   1.001   1.013
  1.031   1.042   1.061   1.070   1.083   1.097   1.108   1.134
  1.144   1.151   1.165   1.177   1.193   1.215   1.232   1.243
  1.263   1.269   1.272   1.289   1.299   1.308   1.334   1.355
  1.360   1.375   1.396   1.416   1.426   1.433   1.446   1.454
  1.463   1.467   1.483   1.496   1.508   1.512   1.540   1.562
  1.584   1.613   1.619   1.648   1.699   1.731   1.784   1.864
  1.949   2.039   2.106   2.267   2.291   2.384   2.404   2.435
  2.454   2.463   2.502   2.542   2.567   2.595   2.668   2.681
  2.743   2.773   2.787   2.807   2.833   2.845   2.860   2.870
  2.886   2.892   2.912   2.924   2.937   2.954   2.987   2.995
  3.033   3.054   3.064   3.073   3.108   3.117   3.132   3.153
  3.163   3.197   3.221   3.228   3.234   3.244   3.267   3.285
  3.303   3.318   3.334   3.355   3.366   3.382   3.417   3.434
  3.449   3.490   3.516   3.525   3.570   3.580   3.602   3.618
  3.646   3.669   3.700   3.707   3.724   3.731   3.781   3.785
  3.821   3.826   3.849   3.867   3.897   3.926   3.946   3.958
  3.974   3.986   4.021   4.043   4.064   4.078   4.083   4.092
  4.153   4.172   4.191   4.192   4.201   4.250   4.261   4.278
  4.289   4.306   4.339   4.342   4.390   4.406   4.417   4.483
  4.511   4.523   4.572   4.599   4.625   4.658   4.696   4.757
  5.040   5.092   5.134   5.166   5.186   5.254   5.318   5.362
  5.435   5.440   5.455   5.483   5.526   5.551   5.572   5.624
  5.642   5.749   5.805   5.872   6.423   6.952   7.133   7.175
  7.182   7.453   7.593  23.951  24.060  24.195  24.232  24.569
 49.782
 
 Beta MOs
 -- Occupied --
-19.562 -10.544 -10.522 -10.496 -10.494 -10.493  -1.131  -0.904
 -0.820  -0.757  -0.733  -0.644  -0.591  -0.542  -0.513  -0.501
 -0.487  -0.483  -0.476  -0.464  -0.428  -0.406  -0.366  -0.321
 -- Virtual --
 -0.054  -0.029  -0.014  -0.012  -0.009   0.005   0.008   0.014
  0.015   0.017   0.044   0.046   0.056   0.059   0.068   0.070
  0.079   0.086   0.106   0.107   0.111   0.121   0.123   0.125
  0.131   0.132   0.141   0.149   0.151   0.153   0.166   0.183
  0.193   0.201   0.212   0.215   0.220   0.233   0.249   0.257
  0.260   0.269   0.271   0.284   0.294   0.309   0.320   0.332
  0.336   0.368   0.382   0.401   0.418   0.440   0.459   0.474
  0.494   0.508   0.515   0.527   0.543   0.547   0.555   0.562
  0.570   0.584   0.589   0.596   0.599   0.608   0.611   0.623
  0.631   0.651   0.659   0.659   0.670   0.688   0.706   0.708
  0.725   0.739   0.763   0.774   0.793   0.818   0.819   0.854
  0.876   0.885   0.906   0.929   0.938   0.972   0.980   1.004
  1.017   1.038   1.046   1.065   1.074   1.087   1.103   1.115
  1.139   1.146   1.154   1.168   1.183   1.197   1.224   1.236
  1.249   1.270   1.277   1.280   1.295   1.307   1.313   1.343
  1.362   1.366   1.381   1.402   1.423   1.430   1.445   1.452
  1.458   1.471   1.475   1.490   1.497   1.511   1.513   1.547
  1.566   1.587   1.617   1.624   1.674   1.704   1.736   1.789
  1.866   1.951   2.046   2.109   2.267   2.293   2.399   2.418
  2.464   2.481   2.487   2.512   2.549   2.584   2.606   2.678
  2.691   2.762   2.789   2.803   2.829   2.846   2.879   2.897
  2.912   2.921   2.927   2.933   2.961   2.972   2.992   3.013
  3.018   3.051   3.075   3.082   3.103   3.127   3.139   3.155
  3.189   3.202   3.211   3.226   3.252   3.256   3.286   3.300
  3.314   3.326   3.346   3.353   3.372   3.393   3.418   3.434
  3.463   3.476   3.522   3.534   3.548   3.591   3.605   3.623
  3.638   3.663   3.674   3.708   3.722   3.728   3.733   3.789
  3.798   3.833   3.841   3.860   3.879   3.923   3.931   3.948
  3.968   3.989   3.993   4.025   4.063   4.069   4.091   4.097
  4.102   4.161   4.182   4.197   4.210   4.233   4.259   4.272
  4.290   4.307   4.324   4.347   4.352   4.397   4.421   4.429
  4.484   4.508   4.545   4.587   4.641   4.652   4.656   4.706
  4.800   5.103   5.132   5.167   5.171   5.188   5.269   5.320
  5.377   5.465   5.482   5.525   5.552   5.559   5.568   5.583
  5.627   5.645   5.759   5.822   5.880   6.423   6.953   7.135
  7.176   7.182   7.453   7.594  23.952  24.075  24.195  24.236
 24.576  49.782
 --------------------------------------------------------------
 
          Ground-State Mulliken Net Atomic Charges

     Atom                 Charge (a.u.)    Spin (a.u.)
  --------------------------------------------------------
      1 C                    -0.705198       0.021658
      2 H                     0.174185      -0.004617
      3 H                     0.187516       0.000735
      4 H                     0.191340       0.000893
      5 C                    -0.033784      -0.246787
      6 H                     0.334677       0.015321
      7 C                    -0.111746       0.429845
      8 H                     0.296432      -0.022500
      9 C                    -0.701947      -0.018186
     10 H                     0.177960       0.010490
     11 H                     0.233998       0.000454
     12 O                    -0.287688       0.007874
     13 H                     0.254678       0.000685
     14 C                    -0.535095       0.888946
     15 H                     0.162193      -0.029609
     16 H                     0.192170      -0.030013
     17 H                     0.170308      -0.025190
  --------------------------------------------------------
  Sum of atomic charges =     0.000000
  Sum of spin   charges =     1.000000

 -----------------------------------------------------------------
                    Cartesian Multipole Moments
 -----------------------------------------------------------------
    Charge (ESU x 10^10)
                 0.0000
    Dipole Moment (Debye)
         X       2.2483      Y      -0.0897      Z       0.6069
       Tot       2.3305
    Quadrupole Moments (Debye-Ang)
        XX     -46.2133     XY       0.1806     YY     -39.7586
        XZ      -1.4065     YZ       0.0547     ZZ     -39.2001
    Octopole Moments (Debye-Ang^2)
       XXX      19.7934    XXY       3.1249    XYY      -9.4387
       YYY       2.6369    XXZ       5.8914    XYZ      -2.0470
       YYZ      -1.4149    XZZ      -1.6087    YZZ      -0.7061
       ZZZ      -1.4353
    Hexadecapole Moments (Debye-Ang^3)
      XXXX    -804.1379   XXXY      -8.5344   XXYY    -162.0083
      XYYY      17.3370   YYYY    -344.2468   XXXZ      -5.7241
      XXYZ       2.4122   XYYZ       5.2199   YYYZ       0.4782
      XXZZ    -140.0509   XYZZ       1.9020   YYZZ     -69.6994
      XZZZ       0.0543   YZZZ      -0.4728   ZZZZ    -100.8501
 -----------------------------------------------------------------
 Calculating analytic gradient of the SCF energy
 Gradient of Coulomb and Exchange Energy
            1           2           3           4           5           6
    1  -3.6464304  -1.6883046  -3.1476975  -0.6732079  -7.0773271  -0.3255036
    2  -0.7528788  -3.6226421   1.8640934  -0.4582447  -0.7736820   1.1158421
    3   0.5520550  -1.0602791  -0.6436444   3.7634712  -1.6481832  -4.5929096
            7           8           9          10          11          12
    1   3.8442329   0.1563123   2.5834584   2.4678992   0.1305793  10.8657764
    2  -4.5829721  -1.7449530  -0.8498777  -4.0559183   1.2943163   1.3132944
    3   1.1224247   4.2592241  -1.2242908  -0.5885841  -4.1349190   2.8705597
           13          14          15          16          17
    1  -1.3530242  -1.4228581   3.0241399  -0.6167994  -3.1212455
    2   4.2347997   3.1873285   1.8747822   0.7741407   1.1825714
    3   1.3261030  -0.3996763  -1.3494048   3.7282016  -1.9801481
 Gradient of SCF Energy
            1           2           3           4           5           6
    1   0.0011950   0.0000050  -0.0016519   0.0007871   0.0068151   0.0006614
    2   0.0015255  -0.0015100   0.0025441   0.0000569  -0.0101074   0.0026582
    3   0.0005043  -0.0010108  -0.0007751   0.0026637   0.0019374  -0.0030170
            7           8           9          10          11          12
    1  -0.0066297  -0.0007772   0.0043615   0.0008311  -0.0001984  -0.0059098
    2   0.0048308  -0.0014753   0.0011371  -0.0024182   0.0018002  -0.0024090
    3  -0.0011475   0.0028737   0.0021906  -0.0004578  -0.0018183  -0.0041858
           13          14          15          16          17
    1   0.0009146  -0.0006771   0.0032564  -0.0002955  -0.0026878
    2   0.0021273   0.0040492  -0.0003074  -0.0015806  -0.0009214
    3   0.0017954   0.0009130  -0.0016082   0.0032249  -0.0020826
 Max gradient component =       1.011E-02
 RMS gradient           =       2.921E-03
 Gradient time:  CPU 136.27 s  wall 136.55 s
 Geometry Optimization Parameters
   NAtoms,    NIC,     NZ,  NCons,   NDum,   NFix, NCnnct, MaxDiis
       17     135       0       0       0       0       0       0


** GEOMETRY OPTIMIZATION IN DELOCALIZED INTERNAL COORDINATES **
   Searching for a Transition State

   Optimization Cycle:   1

                       Coordinates (Angstroms)
     ATOM                X               Y               Z
      1  C         2.2356911362    0.8271576550   -0.2132685068
      2  H         2.5167820231    1.8173774254    0.1628914348
      3  H         3.0360403240    0.1366968720    0.0589118953
      4  H         2.1928215946    0.8881175228   -1.3035285322
      5  C         0.9035004986    0.4124291251    0.3630510772
      6  H         0.8968698726    0.1795393040    1.4256311125
      7  C        -0.2830589329    0.7604502581   -0.2126994094
      8  H        -0.2975881840    1.1252601071   -1.2380594738
      9  C        -1.6197393866    0.5437217420    0.4208201409
     10  H        -2.1733384409    1.4849923262    0.4952097877
     11  H        -1.4962701601    0.1532817796    1.4410902489
     12  O        -2.4635799869   -0.3117075126   -0.3616400267
     13  H        -1.9639407513   -1.1145280581   -0.5415997155
     14  C         1.0569882593   -1.8689810864    0.0366515022
     15  H         0.1196077293   -2.2432200537    0.4317912229
     16  H         1.1789186116   -1.9055913865   -1.0389784476
     17  H         1.9384478284   -2.0769319009    0.6324318556
   Point Group: c1    Number of degrees of freedom:    45


   Energy is   -272.152166064


 Attempting to Generate Delocalized Internal Coordinates
 GETINT wrote B to file, NVib is           45
 calling HSSCONV
 HCONV 3*NATOMS:           51
 wrote HINT to file
  writing hessian 

 45 Hessian modes will be used to form the next step
  Hessian Eigenvalues:
     0.006593    0.007760    0.009840    0.011161    0.018970    0.022707
     0.027167    0.034561    0.036447    0.039433    0.046915    0.058341
     0.059095    0.060426    0.063319    0.063987    0.073822    0.086249
     0.095299    0.108968    0.114054    0.117016    0.118157    0.140097
     0.141404    0.144121    0.159214    0.160000    0.220157    0.220601
     0.288219    0.313256    0.327575    0.329073    0.337506    0.341372
     0.342943    0.344906    0.346854    0.349957    0.355254    0.356179
     0.404340    0.521446    0.549238
**WARNING** Hessian does not have the Desired Local Structure

 Transition State Search - Taking P-RFO Step
 Searching for Lamda that Maximizes Along the Lowest mode
 Value Taken    Lamda =   0.00659698
 Searching for Lamda that Minimizes Along All other modes
 Value Taken    Lamda =  -0.00115729
 Calculated Step too Large.  Step scaled by  0.007423
 Step Taken.  Stepsize is  0.300000

                             Maximum     Tolerance    Cnvgd?
         Gradient           0.005691      0.000300      NO
         Displacement       0.200236      0.003000      NO
         Energy change     *********      0.000001      NO


 New Cartesian Coordinates Obtained by Inverse Iteration

 Displacement from previous Coordinates is:  0.244253
 ----------------------------------------------------------------
             Standard Nuclear Orientation (Angstroms)
    I     Atom           X                Y                Z
 ----------------------------------------------------------------
    1      C       2.2352069958     0.8266377877    -0.2080132206
    2      H       2.4918635917     1.8423361650     0.1138108246
    3      H       3.0353640889     0.1654198840     0.1256120961
    4      H       2.2138384959     0.8193382409    -1.3006144708
    5      C       0.9032694370     0.4139337307     0.3673486029
    6      H       0.8981731949     0.1749555799     1.4287963735
    7      C      -0.2827288290     0.7646687952    -0.2077743201
    8      H      -0.2964214195     1.1339302207    -1.2315891714
    9      C      -1.6198732175     0.5453737371     0.4239104534
   10      H      -2.1734583633     1.4863849709     0.5020174511
   11      H      -1.4971125735     0.1504447090     1.4425663397
   12      O      -2.4631380336    -0.3066589141    -0.3627866214
   13      H      -1.9634828860    -1.1087418942    -0.5460234414
   14      C       1.0579974996    -1.8682105186     0.0255357069
   15      H       0.1304666272    -2.2498188632     0.4366474396
   16      H       1.1562469565    -1.8988695894    -1.0527360232
   17      H       1.9519404697    -2.0830599225     0.6019981471
 ----------------------------------------------------------------
 Molecular Point Group                 C1    NOp =  1
 Largest Abelian Subgroup              C1    NOp =  1
 Nuclear Repulsion Energy =   236.6111863398 hartrees
 There are       25 alpha and       24 beta electrons
 Applying Cartesian multipole field
    Component          Value
    ---------          -----
     (2,0,0)        1.00000E-11
     (0,2,0)        2.00000E-11
     (0,0,2)       -3.00000E-11
 Nucleus-field energy     =     0.0000000076 hartrees
 Requested basis set is non-standard
 There are 138 shells and 314 basis functions
 A cutoff of  1.0D-12 yielded   8993 shell pairs
 There are     46309 function pairs (     55639 Cartesian)
 Smallest overlap matrix eigenvalue = 1.13E-05
 Guess MOs from SCF MO coefficient file
Reading MOs from coefficient file
Reading MOs from coefficient file
 An unrestricted hybrid HF-DFT SCF calculation will be
 performed using Pulay DIIS + Geometric Direct Minimization
 Exchange:     0.5679 Hartree-Fock + 1.0000 M08SO
 SCF converges when RMS gradient is below 1.0E-08
Geometry optimization detected.  Setting ReadMinima to 0
Setting SaveMinima to 0
 ---------------------------------------
  Cycle       Energy        RMS Gradient
 ---------------------------------------
    1    -272.1486999552      2.51E-04 Done DIIS. Switching to GDM
    2    -272.1520280458      1.07E-03 Normal BFGS step
    3    -272.1520767870      4.33E-04 Normal BFGS step
    4    -272.1520799544      5.69E-04 Normal BFGS step
    5    -272.1520830228      9.42E-05 Normal BFGS step
    6    -272.1520830808      7.17E-05 Normal BFGS step
    7    -272.1520831603      2.24E-05 Normal BFGS step
    8    -272.1520831623      9.38E-06 Normal BFGS step
    9    -272.1520831630      3.16E-06 Normal BFGS step
   10    -272.1520831630      3.42E-06 Normal BFGS step
   11    -272.1520831631      2.21E-06 Normal BFGS step
   12    -272.1520831631      4.53E-07 Normal BFGS step
   13    -272.1520831631      1.41E-07 Normal BFGS step
   14    -272.1520831631      6.07E-08 Normal BFGS step
   15    -272.1520831631      2.90E-08 Normal BFGS step
   GDM::WARNING energy changes are now smaller than effective accuracy.
   GDM::        calculation will continue, but THRESH should be increased
   GDM::        or SCF_CONVERGENCE decreased.
   GDM::        effective_thresh =   3.850869966653958E-009
   16    -272.1520831631      1.47E-08 Normal BFGS step
   17    -272.1520831634      5.75E-09 Convergence criterion met
 ---------------------------------------
 <S^2> = 0.7757
 SCF time:  CPU 1871.93 s  wall 1893.86 s
 SCF   energy in the final basis set = -272.1520831634
 Total energy in the final basis set = -272.1520831634
 Analysis of SCF Wavefunction
 
 --------------------------------------------------------------
                    Orbital Energies (a.u.)
 --------------------------------------------------------------
 
 Alpha MOs
 -- Occupied --
-19.563 -10.544 -10.519 -10.510 -10.499 -10.496  -1.132  -0.906
 -0.821  -0.777  -0.734  -0.647  -0.592  -0.543  -0.519  -0.504
 -0.489  -0.488  -0.481  -0.465  -0.429  -0.407  -0.372  -0.355
 -0.250
 -- Virtual --
 -0.028  -0.013  -0.011  -0.008   0.010   0.013   0.016   0.017
  0.023   0.045   0.049   0.056   0.063   0.070   0.072   0.082
  0.089   0.105   0.110   0.114   0.123   0.125   0.128   0.135
  0.140   0.143   0.151   0.154   0.156   0.168   0.180   0.193
  0.201   0.212   0.215   0.218   0.232   0.247   0.257   0.258
  0.270   0.272   0.282   0.292   0.310   0.320   0.334   0.335
  0.367   0.379   0.401   0.415   0.438   0.462   0.472   0.495
  0.505   0.507   0.519   0.538   0.544   0.550   0.560   0.569
  0.571   0.580   0.590   0.594   0.599   0.608   0.617   0.622
  0.645   0.649   0.658   0.660   0.685   0.700   0.705   0.712
  0.737   0.756   0.765   0.786   0.813   0.818   0.844   0.873
  0.887   0.903   0.925   0.932   0.967   0.978   1.003   1.013
  1.030   1.041   1.061   1.067   1.087   1.097   1.111   1.131
  1.146   1.149   1.164   1.176   1.196   1.209   1.232   1.242
  1.261   1.271   1.278   1.289   1.300   1.308   1.336   1.357
  1.363   1.375   1.396   1.417   1.426   1.431   1.447   1.454
  1.465   1.467   1.482   1.494   1.508   1.512   1.540   1.564
  1.585   1.612   1.621   1.650   1.695   1.727   1.784   1.866
  1.950   2.039   2.106   2.267   2.291   2.384   2.405   2.438
  2.450   2.470   2.502   2.544   2.573   2.595   2.669   2.681
  2.742   2.774   2.788   2.808   2.834   2.847   2.862   2.869
  2.887   2.893   2.914   2.924   2.934   2.955   2.988   2.999
  3.032   3.056   3.065   3.072   3.108   3.118   3.131   3.153
  3.162   3.199   3.220   3.228   3.238   3.243   3.265   3.287
  3.301   3.316   3.340   3.354   3.367   3.382   3.418   3.434
  3.449   3.485   3.516   3.530   3.572   3.579   3.601   3.615
  3.645   3.664   3.700   3.705   3.725   3.730   3.779   3.782
  3.820   3.826   3.850   3.870   3.900   3.926   3.948   3.963
  3.978   3.991   4.023   4.044   4.068   4.074   4.080   4.093
  4.152   4.170   4.189   4.196   4.204   4.249   4.261   4.281
  4.287   4.305   4.336   4.343   4.388   4.400   4.419   4.480
  4.514   4.531   4.571   4.594   4.628   4.660   4.695   4.762
  5.037   5.092   5.130   5.166   5.186   5.254   5.318   5.362
  5.435   5.439   5.456   5.484   5.528   5.553   5.572   5.623
  5.648   5.750   5.803   5.872   6.423   6.952   7.133   7.175
  7.182   7.453   7.593  23.950  24.058  24.199  24.234  24.570
 49.782
 
 Beta MOs
 -- Occupied --
-19.562 -10.544 -10.522 -10.496 -10.494 -10.493  -1.131  -0.904
 -0.820  -0.756  -0.733  -0.644  -0.591  -0.543  -0.513  -0.502
 -0.487  -0.483  -0.476  -0.465  -0.428  -0.406  -0.366  -0.321
 -- Virtual --
 -0.054  -0.029  -0.014  -0.012  -0.009   0.005   0.008   0.014
  0.015   0.017   0.044   0.046   0.056   0.060   0.067   0.070
  0.078   0.086   0.106   0.108   0.111   0.121   0.123   0.125
  0.131   0.133   0.141   0.149   0.151   0.153   0.167   0.181
  0.193   0.203   0.212   0.215   0.220   0.233   0.247   0.257
  0.260   0.271   0.271   0.284   0.293   0.309   0.321   0.333
  0.338   0.369   0.380   0.401   0.417   0.439   0.462   0.473
  0.497   0.508   0.514   0.528   0.542   0.548   0.553   0.562
  0.570   0.585   0.589   0.597   0.599   0.608   0.611   0.623
  0.630   0.653   0.658   0.660   0.670   0.690   0.705   0.708
  0.724   0.739   0.764   0.772   0.792   0.818   0.821   0.851
  0.877   0.889   0.905   0.928   0.936   0.970   0.980   1.006
  1.017   1.037   1.046   1.064   1.071   1.091   1.101   1.118
  1.136   1.148   1.153   1.168   1.182   1.201   1.217   1.237
  1.248   1.268   1.281   1.281   1.296   1.308   1.313   1.348
  1.359   1.371   1.380   1.402   1.423   1.429   1.443   1.453
  1.459   1.473   1.474   1.488   1.497   1.511   1.514   1.548
  1.569   1.587   1.616   1.626   1.674   1.700   1.733   1.790
  1.868   1.953   2.046   2.110   2.268   2.294   2.399   2.424
  2.463   2.480   2.489   2.512   2.551   2.590   2.607   2.680
  2.691   2.762   2.789   2.804   2.830   2.851   2.879   2.897
  2.912   2.923   2.926   2.933   2.959   2.973   2.993   3.015
  3.018   3.056   3.075   3.082   3.104   3.126   3.138   3.153
  3.188   3.201   3.211   3.230   3.251   3.258   3.286   3.297
  3.318   3.325   3.347   3.350   3.371   3.393   3.421   3.435
  3.461   3.478   3.521   3.532   3.553   3.590   3.603   3.626
  3.634   3.659   3.671   3.708   3.721   3.729   3.733   3.788
  3.795   3.832   3.841   3.861   3.883   3.925   3.930   3.950
  3.971   3.994   4.000   4.028   4.063   4.072   4.090   4.097
  4.101   4.158   4.179   4.198   4.212   4.234   4.257   4.272
  4.294   4.307   4.323   4.346   4.351   4.395   4.414   4.431
  4.483   4.515   4.547   4.588   4.645   4.646   4.659   4.704
  4.804   5.103   5.129   5.167   5.169   5.188   5.269   5.320
  5.376   5.468   5.484   5.526   5.552   5.559   5.568   5.583
  5.625   5.650   5.760   5.820   5.880   6.424   6.953   7.135
  7.176   7.182   7.453   7.594  23.951  24.073  24.198  24.237
 24.577  49.783
 --------------------------------------------------------------
 
          Ground-State Mulliken Net Atomic Charges

     Atom                 Charge (a.u.)    Spin (a.u.)
  --------------------------------------------------------
      1 C                    -0.697080       0.020429
      2 H                     0.175940      -0.004879
      3 H                     0.188135       0.001503
      4 H                     0.194297       0.001107
      5 C                    -0.070556      -0.246711
      6 H                     0.332792       0.015330
      7 C                    -0.090842       0.429260
      8 H                     0.296927      -0.022488
      9 C                    -0.701981      -0.018477
     10 H                     0.178009       0.010499
     11 H                     0.233672       0.000458
     12 O                    -0.287782       0.007831
     13 H                     0.255077       0.000673
     14 C                    -0.529617       0.889572
     15 H                     0.162752      -0.029343
     16 H                     0.190200      -0.029784
     17 H                     0.170057      -0.024981
  --------------------------------------------------------
  Sum of atomic charges =     0.000000
  Sum of spin   charges =     1.000000

 -----------------------------------------------------------------
                    Cartesian Multipole Moments
 -----------------------------------------------------------------
    Charge (ESU x 10^10)
                 0.0000
    Dipole Moment (Debye)
         X       2.2465      Y      -0.0974      Z       0.6029
       Tot       2.3281
    Quadrupole Moments (Debye-Ang)
        XX     -46.2503     XY       0.1852     YY     -39.7192
        XZ      -1.3972     YZ       0.0395     ZZ     -39.1974
    Octopole Moments (Debye-Ang^2)
       XXX      19.6549    XXY       3.0002    XYY      -9.3910
       YYY       2.5364    XXZ       5.9714    XYZ      -2.1386
       YYZ      -1.4088    XZZ      -1.6322    YZZ      -0.8738
       ZZZ      -1.5419
    Hexadecapole Moments (Debye-Ang^3)
      XXXX    -804.3876   XXXY      -8.0832   XXYY    -162.0463
      XYYY      17.7737   YYYY    -343.5385   XXXZ      -5.4086
      XXYZ       2.0211   XYYZ       5.1789   YYYZ      -0.6387
      XXZZ    -139.9353   XYZZ       1.9707   YYZZ     -69.9509
      XZZZ      -0.0422   YZZZ      -1.0364   ZZZZ    -100.8661
 -----------------------------------------------------------------
 Calculating analytic gradient of the SCF energy
 Gradient of Coulomb and Exchange Energy
            1           2           3           4           5           6
    1  -3.6291166  -1.5971084  -3.1278233  -0.7494756  -6.9245378  -0.3345206
    2  -0.8314237  -3.7211243   1.7998671  -0.2313061  -0.7199783   1.1570038
    3   0.5796108  -0.8543753  -0.8553228   3.7676225  -1.9211661  -4.5913997
            7           8           9          10          11          12
    1   3.6805929   0.1651009   2.5622933   2.4686886   0.1327768  10.8631827
    2  -4.6208260  -1.7613430  -0.8500022  -4.0520260   1.3140180   1.2967970
    3   1.2799940   4.2462261  -1.1987444  -0.6066823  -4.1296240   2.8786061
           13          14          15          16          17
    1  -1.3547719  -1.4739117   2.9842050  -0.5164116  -3.1491627
    2   4.2290320   3.1208437   1.9018888   0.7565614   1.2120180
    3   1.3431805  -0.3590181  -1.3977718   3.7410598  -1.9221951
 Gradient of SCF Energy
            1           2           3           4           5           6
    1   0.0011642   0.0001696  -0.0029236   0.0004906   0.0078786   0.0009383
    2   0.0019196  -0.0014289   0.0024867   0.0001000  -0.0104871   0.0025256
    3   0.0004226  -0.0009886  -0.0004184   0.0026252   0.0017294  -0.0028628
            7           8           9          10          11          12
    1  -0.0065166  -0.0007709   0.0043484   0.0008366  -0.0002139  -0.0058481
    2   0.0050690  -0.0014680   0.0011174  -0.0023931   0.0017835  -0.0023856
    3  -0.0013956   0.0028652   0.0022125  -0.0004615  -0.0017842  -0.0041685
           13          14          15          16          17
    1   0.0008766  -0.0011024   0.0033955  -0.0004302  -0.0022926
    2   0.0021192   0.0044640  -0.0004970  -0.0016989  -0.0012265
    3   0.0017644   0.0004956  -0.0017351   0.0032237  -0.0015239
 Max gradient component =       1.049E-02
 RMS gradient           =       3.017E-03
 Gradient time:  CPU 149.34 s  wall 149.55 s
 Geometry Optimization Parameters
   NAtoms,    NIC,     NZ,  NCons,   NDum,   NFix, NCnnct, MaxDiis
       17     135       0       0       0       0       0       0

 Cartesian Hessian Update
 Hessian Updated using Powell/Murtagh-Sargent Update
  Mixing factors:     0.000081 Powell
                      0.999919 Murtagh-Sargent


** GEOMETRY OPTIMIZATION IN DELOCALIZED INTERNAL COORDINATES **
   Searching for a Transition State

   Optimization Cycle:   2

                       Coordinates (Angstroms)
     ATOM                X               Y               Z
      1  C         2.2352069958    0.8266377877   -0.2080132206
      2  H         2.4918635917    1.8423361650    0.1138108246
      3  H         3.0353640889    0.1654198840    0.1256120961
      4  H         2.2138384959    0.8193382409   -1.3006144708
      5  C         0.9032694370    0.4139337307    0.3673486029
      6  H         0.8981731949    0.1749555799    1.4287963735
      7  C        -0.2827288290    0.7646687952   -0.2077743201
      8  H        -0.2964214195    1.1339302207   -1.2315891714
      9  C        -1.6198732175    0.5453737371    0.4239104534
     10  H        -2.1734583633    1.4863849709    0.5020174511
     11  H        -1.4971125735    0.1504447090    1.4425663397
     12  O        -2.4631380336   -0.3066589141   -0.3627866214
     13  H        -1.9634828860   -1.1087418942   -0.5460234414
     14  C         1.0579974996   -1.8682105186    0.0255357069
     15  H         0.1304666272   -2.2498188632    0.4366474396
     16  H         1.1562469565   -1.8988695894   -1.0527360232
     17  H         1.9519404697   -2.0830599225    0.6019981471
   Point Group: c1    Number of degrees of freedom:    45


   Energy is   -272.152083163

 GETINT wrote B to file, NVib is           45
 Hessian Updated using Powell/Murtagh-Sargent Update
  Mixing factors:     0.579807 Powell
                      0.420193 Murtagh-Sargent

 45 Hessian modes will be used to form the next step
  Hessian Eigenvalues:
     0.000681    0.007766    0.009841    0.011161    0.018969    0.022706
     0.027167    0.034556    0.036432    0.039432    0.046914    0.058308
     0.059078    0.060424    0.063297    0.063980    0.073822    0.086221
     0.095274    0.108967    0.114005    0.116920    0.118157    0.139112
     0.141404    0.143684    0.159214    0.159998    0.220157    0.220601
     0.287732    0.312937    0.327171    0.329073    0.337506    0.341361
     0.342943    0.344905    0.346849    0.349957    0.355243    0.356177
     0.404339    0.521436    0.549237
**WARNING** Hessian does not have the Desired Local Structure

 Transition State Search - Taking P-RFO Step
 Searching for Lamda that Maximizes Along the Lowest mode
 Value Taken    Lamda =   0.00080233
 Searching for Lamda that Minimizes Along All other modes
 Value Taken    Lamda =  -0.00119887
 Calculated Step too Large.  Step scaled by  0.116298
 Step Taken.  Stepsize is  0.300000

                             Maximum     Tolerance    Cnvgd?
         Gradient           0.005839      0.000300      NO
         Displacement       0.198523      0.003000      NO
         Energy change      0.000083      0.000001      NO


 New Cartesian Coordinates Obtained by Inverse Iteration

 Displacement from previous Coordinates is:  0.247580
 ----------------------------------------------------------------
             Standard Nuclear Orientation (Angstroms)
    I     Atom           X                Y                Z
 ----------------------------------------------------------------
    1      C       2.2366363789     0.8227900449    -0.2016672531
    2      H       2.4722915091     1.8599034477     0.0631728837
    3      H       3.0350636763     0.1915945575     0.1902101976
    4      H       2.2386466276     0.7481429578    -1.2923696870
    5      C       0.9007251990     0.4191705811     0.3729057111
    6      H       0.8936863840     0.1720294849     1.4331318256
    7      C      -0.2833272524     0.7712132496    -0.2029921882
    8      H      -0.2954051833     1.1437819428    -1.2262484073
    9      C      -1.6206732905     0.5470301204     0.4269740689
   10      H      -2.1783585845     1.4860847897     0.5057942024
   11      H      -1.4971310456     0.1504533567     1.4453249037
   12      O      -2.4576182188    -0.3089158192    -0.3609512315
   13      H      -1.9550681118    -1.1091567555    -0.5454069120
   14      C       1.0563717464    -1.8639485570     0.0125316825
   15      H       0.1381827173    -2.2522339074     0.4400497816
   16      H       1.1301872227    -1.8852733392    -1.0685271913
   17      H       1.9639422607    -2.0846020356     0.5667737792
 ----------------------------------------------------------------
 Molecular Point Group                 C1    NOp =  1
 Largest Abelian Subgroup              C1    NOp =  1
 Nuclear Repulsion Energy =   236.6699938009 hartrees
 There are       25 alpha and       24 beta electrons
 Applying Cartesian multipole field
    Component          Value
    ---------          -----
     (2,0,0)        1.00000E-11
     (0,2,0)        2.00000E-11
     (0,0,2)       -3.00000E-11
 Nucleus-field energy     =     0.0000000076 hartrees
 Requested basis set is non-standard
 There are 138 shells and 314 basis functions
 A cutoff of  1.0D-12 yielded   8998 shell pairs
 There are     46328 function pairs (     55662 Cartesian)
 Smallest overlap matrix eigenvalue = 1.14E-05
 Guess MOs from SCF MO coefficient file
Reading MOs from coefficient file
Reading MOs from coefficient file
 An unrestricted hybrid HF-DFT SCF calculation will be
 performed using Pulay DIIS + Geometric Direct Minimization
 Exchange:     0.5679 Hartree-Fock + 1.0000 M08SO
 SCF converges when RMS gradient is below 1.0E-08
Geometry optimization detected.  Setting ReadMinima to 0
Setting SaveMinima to 0
 Inaccurate integrated density:
   Number of electrons =    49
   Numerical integral  =    48.991765640057
   Relative error      =    -0.0168048162 %
 ---------------------------------------
  Cycle       Energy        RMS Gradient
 ---------------------------------------
    1    -272.1473630087      2.58E-04 Done DIIS. Switching to GDM
    2    -272.1520382567      9.97E-04 Normal BFGS step
    3    -272.1520880046      5.61E-04 Normal BFGS step
    4    -272.1520926411      7.77E-04 Normal BFGS step
    5    -272.1520959766      1.77E-04 Normal BFGS step
    6    -272.1520961819      2.10E-04 Normal BFGS step
    7    -272.1520963520      1.18E-04 Normal BFGS step
    8    -272.1520964309      4.86E-05 Normal BFGS step
    9    -272.1520964484      2.04E-05 Normal BFGS step
   10    -272.1520964519      1.15E-05 Normal BFGS step
   11    -272.1520964528      3.58E-06 Normal BFGS step
   12    -272.1520964529      1.25E-06 Normal BFGS step
   13    -272.1520964529      3.42E-07 Normal BFGS step
   GDM::WARNING energy changes are now smaller than effective accuracy.
   GDM::        calculation will continue, but THRESH should be increased
   GDM::        or SCF_CONVERGENCE decreased.
   GDM::        effective_thresh =   2.266627857627768E-009
   14    -272.1520964529      1.81E-07 Normal BFGS step
   GDM::WARNING energy changes are now smaller than effective accuracy.
   GDM::        calculation will continue, but THRESH should be increased
   GDM::        or SCF_CONVERGENCE decreased.
   GDM::        effective_thresh =   2.266627857627768E-009
   15    -272.1520964529      9.04E-08 Normal BFGS step
   16    -272.1520964529      3.97E-08 Normal BFGS step
   17    -272.1520964530      8.58E-09 Convergence criterion met
 ---------------------------------------
 <S^2> = 0.7753
 SCF time:  CPU 1783.40 s  wall 1815.10 s
 SCF   energy in the final basis set = -272.1520964530
 Total energy in the final basis set = -272.1520964530
 Analysis of SCF Wavefunction
 
 --------------------------------------------------------------
                    Orbital Energies (a.u.)
 --------------------------------------------------------------
 
 Alpha MOs
 -- Occupied --
-19.563 -10.544 -10.519 -10.510 -10.499 -10.497  -1.132  -0.906
 -0.821  -0.777  -0.734  -0.647  -0.591  -0.543  -0.519  -0.504
 -0.489  -0.488  -0.480  -0.466  -0.429  -0.406  -0.372  -0.355
 -0.251
 -- Virtual --
 -0.028  -0.013  -0.011  -0.008   0.010   0.013   0.016   0.017
  0.023   0.045   0.049   0.057   0.063   0.070   0.072   0.082
  0.090   0.106   0.109   0.114   0.123   0.125   0.127   0.135
  0.140   0.143   0.151   0.154   0.156   0.169   0.178   0.193
  0.202   0.213   0.215   0.219   0.232   0.245   0.257   0.258
  0.270   0.273   0.281   0.291   0.310   0.319   0.334   0.337
  0.368   0.378   0.401   0.414   0.438   0.465   0.471   0.496
  0.505   0.508   0.520   0.538   0.544   0.548   0.560   0.568
  0.571   0.580   0.591   0.594   0.601   0.608   0.618   0.621
  0.646   0.650   0.657   0.660   0.687   0.699   0.704   0.712
  0.737   0.756   0.765   0.785   0.813   0.820   0.840   0.873
  0.888   0.904   0.924   0.930   0.965   0.979   1.005   1.012
  1.029   1.040   1.061   1.064   1.089   1.098   1.115   1.129
  1.147   1.148   1.165   1.175   1.195   1.206   1.233   1.240
  1.259   1.273   1.280   1.290   1.298   1.309   1.338   1.354
  1.371   1.378   1.396   1.417   1.426   1.430   1.447   1.455
  1.465   1.468   1.479   1.494   1.508   1.512   1.540   1.564
  1.585   1.609   1.623   1.652   1.690   1.724   1.784   1.870
  1.953   2.040   2.106   2.268   2.292   2.384   2.404   2.441
  2.447   2.478   2.501   2.545   2.579   2.596   2.670   2.681
  2.741   2.775   2.789   2.809   2.833   2.848   2.864   2.870
  2.887   2.895   2.916   2.925   2.931   2.957   2.988   3.001
  3.031   3.060   3.066   3.072   3.107   3.118   3.131   3.152
  3.161   3.196   3.219   3.227   3.238   3.248   3.263   3.291
  3.297   3.316   3.342   3.355   3.368   3.383   3.420   3.432
  3.452   3.481   3.516   3.534   3.569   3.580   3.599   3.612
  3.644   3.662   3.699   3.704   3.724   3.730   3.776   3.782
  3.819   3.824   3.849   3.870   3.903   3.924   3.949   3.968
  3.981   3.996   4.024   4.044   4.069   4.071   4.078   4.093
  4.150   4.167   4.186   4.198   4.206   4.247   4.259   4.284
  4.288   4.303   4.330   4.344   4.382   4.390   4.424   4.474
  4.516   4.540   4.571   4.589   4.632   4.663   4.695   4.767
  5.033   5.093   5.125   5.166   5.185   5.255   5.318   5.363
  5.433   5.435   5.455   5.483   5.529   5.554   5.570   5.619
  5.649   5.751   5.801   5.873   6.425   6.953   7.133   7.175
  7.181   7.455   7.593  23.947  24.054  24.198  24.234  24.572
 49.783
 
 Beta MOs
 -- Occupied --
-19.562 -10.544 -10.522 -10.496 -10.494 -10.493  -1.131  -0.903
 -0.820  -0.756  -0.733  -0.644  -0.591  -0.543  -0.513  -0.502
 -0.487  -0.483  -0.476  -0.465  -0.428  -0.406  -0.366  -0.321
 -- Virtual --
 -0.054  -0.028  -0.014  -0.012  -0.009   0.004   0.008   0.014
  0.015   0.017   0.044   0.046   0.057   0.060   0.067   0.070
  0.078   0.086   0.106   0.108   0.112   0.121   0.123   0.125
  0.131   0.133   0.140   0.149   0.151   0.153   0.168   0.179
  0.193   0.204   0.212   0.215   0.220   0.234   0.245   0.257
  0.260   0.271   0.273   0.284   0.291   0.309   0.320   0.333
  0.339   0.370   0.380   0.401   0.417   0.439   0.465   0.472
  0.499   0.508   0.514   0.528   0.542   0.549   0.551   0.563
  0.570   0.585   0.589   0.597   0.599   0.609   0.611   0.623
  0.629   0.654   0.657   0.661   0.670   0.693   0.703   0.707
  0.724   0.738   0.765   0.773   0.791   0.818   0.824   0.847
  0.877   0.891   0.906   0.928   0.933   0.969   0.981   1.008
  1.014   1.036   1.046   1.064   1.068   1.093   1.102   1.120
  1.134   1.150   1.151   1.168   1.181   1.202   1.211   1.237
  1.246   1.266   1.282   1.284   1.297   1.307   1.314   1.352
  1.356   1.376   1.383   1.402   1.423   1.429   1.442   1.454
  1.460   1.474   1.475   1.486   1.497   1.511   1.514   1.548
  1.570   1.587   1.614   1.629   1.674   1.695   1.731   1.790
  1.872   1.955   2.046   2.109   2.269   2.294   2.399   2.427
  2.464   2.479   2.494   2.510   2.553   2.596   2.608   2.684
  2.690   2.761   2.789   2.804   2.831   2.856   2.877   2.897
  2.912   2.924   2.927   2.933   2.957   2.973   2.993   3.015
  3.017   3.060   3.075   3.083   3.105   3.126   3.138   3.151
  3.186   3.200   3.207   3.237   3.250   3.261   3.286   3.294
  3.322   3.324   3.347   3.349   3.371   3.391   3.424   3.437
  3.459   3.479   3.517   3.531   3.557   3.588   3.600   3.628
  3.630   3.657   3.669   3.707   3.720   3.729   3.733   3.785
  3.793   3.830   3.840   3.860   3.885   3.926   3.928   3.951
  3.973   3.996   4.008   4.029   4.064   4.073   4.089   4.096
  4.103   4.155   4.175   4.198   4.213   4.234   4.255   4.271
  4.298   4.307   4.321   4.340   4.351   4.390   4.404   4.435
  4.477   4.523   4.550   4.589   4.641   4.648   4.663   4.702
  4.806   5.103   5.123   5.166   5.167   5.188   5.270   5.320
  5.376   5.469   5.484   5.526   5.550   5.557   5.567   5.581
  5.621   5.651   5.761   5.818   5.880   6.425   6.953   7.134
  7.176   7.182   7.455   7.593  23.949  24.070  24.198  24.237
 24.579  49.783
 --------------------------------------------------------------
 
          Ground-State Mulliken Net Atomic Charges

     Atom                 Charge (a.u.)    Spin (a.u.)
  --------------------------------------------------------
      1 C                    -0.695187       0.018871
      2 H                     0.177620      -0.004856
      3 H                     0.189894       0.002226
      4 H                     0.199073       0.001354
      5 C                    -0.105066      -0.244804
      6 H                     0.330093       0.015270
      7 C                    -0.068799       0.422421
      8 H                     0.296754      -0.022104
      9 C                    -0.701946      -0.018481
     10 H                     0.177909       0.010226
     11 H                     0.233570       0.000446
     12 O                    -0.287295       0.007664
     13 H                     0.255336       0.000631
     14 C                    -0.524338       0.895418
     15 H                     0.163132      -0.029203
     16 H                     0.189131      -0.030019
     17 H                     0.170119      -0.025061
  --------------------------------------------------------
  Sum of atomic charges =     0.000000
  Sum of spin   charges =     1.000000

 -----------------------------------------------------------------
                    Cartesian Multipole Moments
 -----------------------------------------------------------------
    Charge (ESU x 10^10)
                 0.0000
    Dipole Moment (Debye)
         X       2.2454      Y      -0.1012      Z       0.5945
       Tot       2.3250
    Quadrupole Moments (Debye-Ang)
        XX     -46.2478     XY       0.1419     YY     -39.7083
        XZ      -1.3969     YZ       0.0060     ZZ     -39.2059
    Octopole Moments (Debye-Ang^2)
       XXX      19.4292    XXY       3.0035    XYY      -9.3580
       YYY       2.4144    XXZ       5.9777    XYZ      -2.1908
       YYZ      -1.4451    XZZ      -1.6624    YZZ      -1.0112
       ZZZ      -1.6779
    Hexadecapole Moments (Debye-Ang^3)
      XXXX    -803.1422   XXXY      -8.4360   XXYY    -161.9607
      XYYY      17.8720   YYYY    -342.4883   XXXZ      -4.9261
      XXYZ       1.5064   XYYZ       5.1616   YYYZ      -2.0267
      XXZZ    -139.7174   XYZZ       1.9048   YYZZ     -70.1438
      XZZZ       0.1208   YZZZ      -1.7953   ZZZZ    -100.8997
 -----------------------------------------------------------------
 Calculating analytic gradient of the SCF energy
 Gradient of Coulomb and Exchange Energy
            1           2           3           4           5           6
    1  -3.6012148  -1.5120418  -3.1089387  -0.8359112  -6.7893545  -0.3250431
    2  -0.8818110  -3.7952578   1.7319712  -0.0046724  -0.7618856   1.2028285
    3   0.5985018  -0.6338647  -1.0466727   3.7481382  -2.2398575  -4.5854198
            7           8           9          10          11          12
    1   3.5493298   0.1687874   2.5436722   2.4858299   0.1302615  10.8442268
    2  -4.6218688  -1.7776366  -0.8782961  -4.0462905   1.3288445   1.3335179
    3   1.4625388   4.2375167  -1.1616835  -0.6116871  -4.1240349   2.8740807
           13          14          15          16          17
    1  -1.3683564  -1.5232155   2.9486568  -0.4182443  -3.1884443
    2   4.2270656   3.0641865   1.9201096   0.7242287   1.2349663
    3   1.3542234  -0.3287587  -1.4483343   3.7538640  -1.8485505
 Gradient of SCF Energy
            1           2           3           4           5           6
    1   0.0013180   0.0001889  -0.0031860   0.0003760   0.0077577   0.0009813
    2   0.0023890  -0.0012657   0.0019466   0.0001562  -0.0108592   0.0022912
    3   0.0000281  -0.0009593  -0.0000527   0.0023137   0.0015888  -0.0024175
            7           8           9          10          11          12
    1  -0.0064191  -0.0006697   0.0040632   0.0007797  -0.0002487  -0.0052733
    2   0.0048611  -0.0013389   0.0011777  -0.0020442   0.0015262  -0.0022267
    3  -0.0012404   0.0025049   0.0019795  -0.0003711  -0.0016288  -0.0037878
           13          14          15          16          17
    1   0.0007842  -0.0011401   0.0029592  -0.0004074  -0.0018639
    2   0.0018061   0.0056068  -0.0007592  -0.0018204  -0.0014466
    3   0.0015673   0.0005494  -0.0017032   0.0028290  -0.0011998
 Max gradient component =       1.086E-02
 RMS gradient           =       2.957E-03
 Gradient time:  CPU 150.20 s  wall 150.34 s
 Geometry Optimization Parameters
   NAtoms,    NIC,     NZ,  NCons,   NDum,   NFix, NCnnct, MaxDiis
       17     135       0       0       0       0       0       0

 Cartesian Hessian Update
 Hessian Updated using Powell/Murtagh-Sargent Update
  Mixing factors:     0.962495 Powell
                      0.037505 Murtagh-Sargent


** GEOMETRY OPTIMIZATION IN DELOCALIZED INTERNAL COORDINATES **
   Searching for a Transition State

   Optimization Cycle:   3

                       Coordinates (Angstroms)
     ATOM                X               Y               Z
      1  C         2.2366363789    0.8227900449   -0.2016672531
      2  H         2.4722915091    1.8599034477    0.0631728837
      3  H         3.0350636763    0.1915945575    0.1902101976
      4  H         2.2386466276    0.7481429578   -1.2923696870
      5  C         0.9007251990    0.4191705811    0.3729057111
      6  H         0.8936863840    0.1720294849    1.4331318256
      7  C        -0.2833272524    0.7712132496   -0.2029921882
      8  H        -0.2954051833    1.1437819428   -1.2262484073
      9  C        -1.6206732905    0.5470301204    0.4269740689
     10  H        -2.1783585845    1.4860847897    0.5057942024
     11  H        -1.4971310456    0.1504533567    1.4453249037
     12  O        -2.4576182188   -0.3089158192   -0.3609512315
     13  H        -1.9550681118   -1.1091567555   -0.5454069120
     14  C         1.0563717464   -1.8639485570    0.0125316825
     15  H         0.1381827173   -2.2522339074    0.4400497816
     16  H         1.1301872227   -1.8852733392   -1.0685271913
     17  H         1.9639422607   -2.0846020356    0.5667737792
   Point Group: c1    Number of degrees of freedom:    45


   Energy is   -272.152096453

 GETINT wrote B to file, NVib is           45
 Hessian Updated using Powell/Murtagh-Sargent Update
  Mixing factors:     0.999458 Powell
                      0.000542 Murtagh-Sargent

 45 Hessian modes will be used to form the next step
  Hessian Eigenvalues:
     0.000502    0.007796    0.009841    0.011160    0.018970    0.022725
     0.027167    0.034512    0.036430    0.039437    0.046917    0.058314
     0.059078    0.060428    0.063297    0.063982    0.073822    0.086225
     0.095258    0.108966    0.114007    0.116920    0.118157    0.139102
     0.141406    0.143686    0.159214    0.159999    0.220149    0.220601
     0.287734    0.312940    0.327168    0.329072    0.337506    0.341361
     0.342944    0.344905    0.346852    0.349957    0.355245    0.356178
     0.404333    0.521400    0.549238
**WARNING** Hessian does not have the Desired Local Structure

 Transition State Search - Taking P-RFO Step
 Searching for Lamda that Maximizes Along the Lowest mode
 Value Taken    Lamda =   0.00057883
 Searching for Lamda that Minimizes Along All other modes
 Value Taken    Lamda =  -0.00109879
 Calculated Step too Large.  Step scaled by  0.109416
 Step Taken.  Stepsize is  0.300000

                             Maximum     Tolerance    Cnvgd?
         Gradient           0.005339      0.000300      NO
         Displacement       0.195443      0.003000      NO
         Energy change     -0.000013      0.000001      NO


 New Cartesian Coordinates Obtained by Inverse Iteration

 Displacement from previous Coordinates is:  0.246762
 ----------------------------------------------------------------
             Standard Nuclear Orientation (Angstroms)
    I     Atom           X                Y                Z
 ----------------------------------------------------------------
    1      C       2.2376261882     0.8182211995    -0.1938779241
    2      H       2.4556748436     1.8721450622     0.0136016505
    3      H       3.0331546985     0.2184304848     0.2506084997
    4      H       2.2618760174     0.6792380553    -1.2783189009
    5      C       0.8968417059     0.4265304383     0.3793278392
    6      H       0.8866831002     0.1698244621     1.4378648496
    7      C      -0.2843359877     0.7792251652    -0.1983725299
    8      H      -0.2943338454     1.1548281933    -1.2210451865
    9      C      -1.6223530807     0.5499917327     0.4292493541
   10      H      -2.1854299170     1.4863409934     0.5060717496
   11      H      -1.4981315674     0.1546381983     1.4484151348
   12      O      -2.4516827769    -0.3116673053    -0.3589002996
   13      H      -1.9447980390    -1.1093296885    -0.5432266477
   14      C       1.0561314024    -1.8629492193    -0.0012013169
   15      H       0.1503529523    -2.2588393554     0.4466460326
   16      H       1.1010149337    -1.8736344563    -1.0844998553
   17      H       1.9798614067    -2.0849298413     0.5263637167
 ----------------------------------------------------------------
 Molecular Point Group                 C1    NOp =  1
 Largest Abelian Subgroup              C1    NOp =  1
 Nuclear Repulsion Energy =   236.6808944891 hartrees
 There are       25 alpha and       24 beta electrons
 Applying Cartesian multipole field
    Component          Value
    ---------          -----
     (2,0,0)        1.00000E-11
     (0,2,0)        2.00000E-11
     (0,0,2)       -3.00000E-11
 Nucleus-field energy     =     0.0000000076 hartrees
 Requested basis set is non-standard
 There are 138 shells and 314 basis functions
 A cutoff of  1.0D-12 yielded   8999 shell pairs
 There are     46305 function pairs (     55628 Cartesian)
 Smallest overlap matrix eigenvalue = 1.15E-05
 Guess MOs from SCF MO coefficient file
Reading MOs from coefficient file
Reading MOs from coefficient file
 An unrestricted hybrid HF-DFT SCF calculation will be
 performed using Pulay DIIS + Geometric Direct Minimization
 Exchange:     0.5679 Hartree-Fock + 1.0000 M08SO
 SCF converges when RMS gradient is below 1.0E-08
Geometry optimization detected.  Setting ReadMinima to 0
Setting SaveMinima to 0
 Inaccurate integrated density:
   Number of electrons =    49
   Numerical integral  =    48.992710349090
   Relative error      =    -0.0148768386 %
 ---------------------------------------
  Cycle       Energy        RMS Gradient
 ---------------------------------------
    1    -272.1469800291      2.66E-04 Done DIIS. Switching to GDM
    2    -272.1520704433      1.51E-03 Normal BFGS step
    3    -272.1521240790      8.73E-04 Normal BFGS step
    4    -272.1521311042      1.12E-03 Normal BFGS step
    5    -272.1521355964      3.67E-04 Normal BFGS step
    6    -272.1521368419      3.57E-04 Normal BFGS step
    7    -272.1521377265      9.71E-05 Normal BFGS step
    8    -272.1521378893      3.76E-05 Normal BFGS step
    9    -272.1521378995      2.23E-05 Normal BFGS step
   10    -272.1521379040      5.81E-06 Normal BFGS step
   11    -272.1521379046      1.98E-06 Normal BFGS step
   12    -272.1521379048      1.18E-06 Normal BFGS step
   13    -272.1521379048      6.33E-07 Normal BFGS step
   GDM::WARNING energy changes are now smaller than effective accuracy.
   GDM::        calculation will continue, but THRESH should be increased
   GDM::        or SCF_CONVERGENCE decreased.
   GDM::        effective_thresh =   4.732167258741926E-009
   14    -272.1521379048      2.67E-07 Normal BFGS step
   GDM::WARNING energy changes are now smaller than effective accuracy.
   GDM::        calculation will continue, but THRESH should be increased
   GDM::        or SCF_CONVERGENCE decreased.
   GDM::        effective_thresh =   4.732167258741926E-009
   15    -272.1521379048      4.96E-08 Normal BFGS step
   16    -272.1521379048      2.36E-08 Normal BFGS step
   17    -272.1521379049      5.36E-09 Convergence criterion met
 ---------------------------------------
 <S^2> = 0.7742
 SCF time:  CPU 1906.56 s  wall 1928.68 s
 SCF   energy in the final basis set = -272.1521379049
 Total energy in the final basis set = -272.1521379049
 Analysis of SCF Wavefunction
 
 --------------------------------------------------------------
                    Orbital Energies (a.u.)
 --------------------------------------------------------------
 
 Alpha MOs
 -- Occupied --
-19.563 -10.544 -10.518 -10.510 -10.499 -10.497  -1.132  -0.906
 -0.821  -0.777  -0.734  -0.647  -0.591  -0.543  -0.519  -0.504
 -0.489  -0.488  -0.480  -0.466  -0.429  -0.406  -0.371  -0.354
 -0.252
 -- Virtual --
 -0.028  -0.013  -0.011  -0.008   0.010   0.013   0.016   0.017
  0.024   0.044   0.049   0.058   0.063   0.069   0.071   0.081
  0.090   0.106   0.109   0.115   0.123   0.125   0.127   0.135
  0.140   0.143   0.150   0.154   0.156   0.170   0.177   0.193
  0.203   0.213   0.215   0.219   0.233   0.243   0.256   0.259
  0.270   0.275   0.281   0.291   0.310   0.319   0.334   0.338
  0.368   0.378   0.401   0.413   0.437   0.467   0.470   0.496
  0.505   0.509   0.520   0.538   0.544   0.547   0.560   0.567
  0.571   0.580   0.592   0.595   0.602   0.608   0.618   0.621
  0.647   0.649   0.656   0.660   0.690   0.696   0.703   0.714
  0.736   0.755   0.767   0.783   0.814   0.822   0.837   0.873
  0.888   0.907   0.922   0.927   0.964   0.980   1.004   1.011
  1.029   1.038   1.059   1.062   1.089   1.101   1.118   1.128
  1.147   1.150   1.167   1.174   1.189   1.206   1.232   1.238
  1.257   1.272   1.281   1.291   1.298   1.311   1.339   1.353
  1.374   1.384   1.399   1.416   1.426   1.428   1.447   1.455
  1.463   1.470   1.476   1.495   1.507   1.513   1.540   1.565
  1.585   1.606   1.626   1.655   1.685   1.722   1.785   1.874
  1.956   2.040   2.106   2.269   2.292   2.385   2.402   2.443
  2.447   2.485   2.502   2.546   2.583   2.597   2.672   2.681
  2.739   2.776   2.790   2.810   2.832   2.849   2.864   2.873
  2.887   2.897   2.917   2.926   2.930   2.959   2.986   3.002
  3.029   3.061   3.066   3.072   3.106   3.117   3.131   3.151
  3.158   3.192   3.219   3.223   3.237   3.254   3.265   3.289
  3.296   3.316   3.340   3.358   3.369   3.384   3.420   3.430
  3.455   3.474   3.516   3.537   3.562   3.581   3.595   3.610
  3.643   3.659   3.697   3.704   3.725   3.730   3.773   3.782
  3.819   3.822   3.848   3.870   3.904   3.922   3.950   3.970
  3.982   4.000   4.027   4.045   4.065   4.071   4.078   4.095
  4.148   4.164   4.184   4.200   4.209   4.244   4.257   4.282
  4.292   4.301   4.322   4.344   4.370   4.384   4.430   4.469
  4.517   4.550   4.572   4.584   4.635   4.665   4.695   4.773
  5.030   5.095   5.120   5.165   5.185   5.256   5.319   5.365
  5.428   5.432   5.454   5.484   5.530   5.557   5.569   5.615
  5.650   5.752   5.800   5.874   6.427   6.953   7.133   7.176
  7.181   7.457   7.593  23.945  24.051  24.198  24.235  24.576
 49.783
 
 Beta MOs
 -- Occupied --
-19.562 -10.544 -10.521 -10.496 -10.494 -10.493  -1.131  -0.903
 -0.820  -0.755  -0.733  -0.644  -0.590  -0.542  -0.514  -0.502
 -0.487  -0.483  -0.476  -0.465  -0.428  -0.405  -0.366  -0.321
 -- Virtual --
 -0.054  -0.028  -0.014  -0.012  -0.009   0.004   0.008   0.014
  0.015   0.018   0.043   0.045   0.058   0.060   0.067   0.071
  0.077   0.086   0.106   0.109   0.112   0.121   0.123   0.125
  0.131   0.134   0.140   0.149   0.151   0.154   0.169   0.178
  0.193   0.206   0.213   0.215   0.221   0.234   0.243   0.257
  0.260   0.270   0.274   0.284   0.291   0.309   0.320   0.333
  0.340   0.371   0.379   0.401   0.416   0.438   0.467   0.472
  0.500   0.509   0.515   0.529   0.541   0.548   0.551   0.564
  0.570   0.584   0.589   0.598   0.599   0.608   0.613   0.624
  0.628   0.655   0.656   0.662   0.669   0.695   0.701   0.706
  0.724   0.737   0.763   0.775   0.790   0.818   0.827   0.842
  0.878   0.890   0.910   0.926   0.929   0.967   0.983   1.008
  1.012   1.035   1.045   1.062   1.066   1.094   1.104   1.122
  1.134   1.150   1.152   1.171   1.180   1.199   1.209   1.236
  1.244   1.263   1.280   1.285   1.297   1.305   1.316   1.353
  1.355   1.378   1.390   1.405   1.422   1.429   1.441   1.453
  1.460   1.472   1.476   1.483   1.498   1.510   1.515   1.548
  1.570   1.587   1.610   1.632   1.675   1.689   1.729   1.790
  1.876   1.959   2.047   2.109   2.270   2.294   2.400   2.427
  2.465   2.479   2.500   2.510   2.555   2.599   2.610   2.688
  2.690   2.760   2.789   2.804   2.831   2.860   2.874   2.895
  2.913   2.923   2.927   2.933   2.957   2.972   2.994   3.014
  3.017   3.062   3.075   3.085   3.105   3.124   3.139   3.148
  3.184   3.197   3.202   3.241   3.248   3.265   3.286   3.292
  3.318   3.328   3.343   3.351   3.372   3.389   3.426   3.439
  3.458   3.479   3.511   3.529   3.559   3.587   3.597   3.624
  3.628   3.655   3.665   3.705   3.720   3.730   3.733   3.781
  3.792   3.830   3.838   3.859   3.886   3.925   3.927   3.953
  3.975   3.995   4.012   4.032   4.065   4.074   4.088   4.094
  4.108   4.154   4.171   4.198   4.215   4.235   4.252   4.268
  4.299   4.309   4.320   4.331   4.349   4.381   4.396   4.439
  4.472   4.527   4.555   4.589   4.638   4.651   4.669   4.701
  4.808   5.103   5.117   5.163   5.166   5.187   5.270   5.321
  5.377   5.470   5.486   5.526   5.546   5.554   5.567   5.580
  5.617   5.652   5.761   5.817   5.880   6.428   6.953   7.134
  7.177   7.182   7.457   7.593  23.946  24.067  24.198  24.238
 24.583  49.783
 --------------------------------------------------------------
 
          Ground-State Mulliken Net Atomic Charges

     Atom                 Charge (a.u.)    Spin (a.u.)
  --------------------------------------------------------
      1 C                    -0.698915       0.016819
      2 H                     0.179115      -0.004597
      3 H                     0.193101       0.002944
      4 H                     0.204677       0.001658
      5 C                    -0.139014      -0.241774
      6 H                     0.327376       0.015207
      7 C                    -0.046978       0.404341
      8 H                     0.296746      -0.021058
      9 C                    -0.700824      -0.017612
     10 H                     0.177809       0.009600
     11 H                     0.233269       0.000488
     12 O                    -0.286649       0.007333
     13 H                     0.255546       0.000507
     14 C                    -0.518085       0.912166
     15 H                     0.163892      -0.029439
     16 H                     0.188959      -0.030863
     17 H                     0.169975      -0.025722
  --------------------------------------------------------
  Sum of atomic charges =     0.000000
  Sum of spin   charges =     1.000000

 -----------------------------------------------------------------
                    Cartesian Multipole Moments
 -----------------------------------------------------------------
    Charge (ESU x 10^10)
                 0.0000
    Dipole Moment (Debye)
         X       2.2483      Y      -0.1096      Z       0.5843
       Tot       2.3256
    Quadrupole Moments (Debye-Ang)
        XX     -46.2292     XY       0.0849     YY     -39.7018
        XZ      -1.3984     YZ      -0.0356     ZZ     -39.2179
    Octopole Moments (Debye-Ang^2)
       XXX      19.2573    XXY       3.0385    XYY      -9.3213
       YYY       2.2604    XXZ       5.9696    XYZ      -2.2144
       YYZ      -1.5141    XZZ      -1.6929    YZZ      -1.1415
       ZZZ      -1.8019
    Hexadecapole Moments (Debye-Ang^3)
      XXXX    -801.6260   XXXY      -8.6727   XXYY    -162.0087
      XYYY      18.2048   YYYY    -342.2157   XXXZ      -4.5470
      XXYZ       0.9848   XYYZ       5.0771   YYYZ      -3.5788
      XXZZ    -139.5343   XYZZ       1.9361   YYZZ     -70.4083
      XZZZ       0.2904   YZZZ      -2.6278   ZZZZ    -100.9303
 -----------------------------------------------------------------
 Calculating analytic gradient of the SCF energy
 Gradient of Coulomb and Exchange Energy
            1           2           3           4           5           6
    1  -3.5551881  -1.4379297  -3.0912269  -0.9143289  -6.7066049  -0.3129272
    2  -0.9232506  -3.8478205   1.6617618   0.2164399  -0.8417556   1.2483297
    3   0.6081650  -0.4118018  -1.2171398   3.7056738  -2.5691917  -4.5734531
            7           8           9          10          11          12
    1   3.4640805   0.1700808   2.5136723   2.5097109   0.1263181  10.8286563
    2  -4.5703557  -1.7976846  -0.8867752  -4.0353304   1.3315070   1.3801380
    3   1.6619056   4.2278542  -1.1231270  -0.6037516  -4.1212817   2.8726375
           13          14          15          16          17
    1  -1.3915516  -1.5626811   2.9013690  -0.3046834  -3.2367661
    2   4.2226960   2.9800858   1.9355454   0.6847754   1.2416937
    3   1.3589747  -0.3125955  -1.5127985   3.7637772  -1.7538474
 Gradient of SCF Energy
            1           2           3           4           5           6
    1   0.0014256   0.0001897  -0.0032968   0.0002352   0.0081326   0.0010365
    2   0.0027370  -0.0011051   0.0014728   0.0001746  -0.0125772   0.0022822
    3  -0.0001629  -0.0010205   0.0002185   0.0021304   0.0014411  -0.0019323
            7           8           9          10          11          12
    1  -0.0067663  -0.0005899   0.0037767   0.0006804  -0.0002379  -0.0047483
    2   0.0049342  -0.0012437   0.0010371  -0.0018318   0.0013515  -0.0019906
    3  -0.0014071   0.0022084   0.0017379  -0.0003314  -0.0014561  -0.0034286
           13          14          15          16          17
    1   0.0006925  -0.0013003   0.0026127  -0.0003337  -0.0015089
    2   0.0016316   0.0078712  -0.0010215  -0.0020196  -0.0017026
    3   0.0014232   0.0008781  -0.0017200   0.0024683  -0.0010471
 Max gradient component =       1.258E-02
 RMS gradient           =       3.151E-03
 Gradient time:  CPU 149.02 s  wall 149.65 s
 Geometry Optimization Parameters
   NAtoms,    NIC,     NZ,  NCons,   NDum,   NFix, NCnnct, MaxDiis
       17     135       0       0       0       0       0       0

 Cartesian Hessian Update
 Hessian Updated using Powell/Murtagh-Sargent Update
  Mixing factors:     0.984241 Powell
                      0.015759 Murtagh-Sargent


** GEOMETRY OPTIMIZATION IN DELOCALIZED INTERNAL COORDINATES **
   Searching for a Transition State

   Optimization Cycle:   4

                       Coordinates (Angstroms)
     ATOM                X               Y               Z
      1  C         2.2376261882    0.8182211995   -0.1938779241
      2  H         2.4556748436    1.8721450622    0.0136016505
      3  H         3.0331546985    0.2184304848    0.2506084997
      4  H         2.2618760174    0.6792380553   -1.2783189009
      5  C         0.8968417059    0.4265304383    0.3793278392
      6  H         0.8866831002    0.1698244621    1.4378648496
      7  C        -0.2843359877    0.7792251652   -0.1983725299
      8  H        -0.2943338454    1.1548281933   -1.2210451865
      9  C        -1.6223530807    0.5499917327    0.4292493541
     10  H        -2.1854299170    1.4863409934    0.5060717496
     11  H        -1.4981315674    0.1546381983    1.4484151348
     12  O        -2.4516827769   -0.3116673053   -0.3589002996
     13  H        -1.9447980390   -1.1093296885   -0.5432266477
     14  C         1.0561314024   -1.8629492193   -0.0012013169
     15  H         0.1503529523   -2.2588393554    0.4466460326
     16  H         1.1010149337   -1.8736344563   -1.0844998553
     17  H         1.9798614067   -2.0849298413    0.5263637167
   Point Group: c1    Number of degrees of freedom:    45


   Energy is   -272.152137905

 GETINT wrote B to file, NVib is           45
 Hessian Updated using Powell/Murtagh-Sargent Update
  Mixing factors:     0.998279 Powell
                      0.001721 Murtagh-Sargent

 45 Hessian modes will be used to form the next step
  Hessian Eigenvalues:
    -0.000173    0.007825    0.009841    0.011160    0.018971    0.022819
     0.027168    0.034510    0.036427    0.039456    0.046918    0.058319
     0.059079    0.060425    0.063306    0.064047    0.073822    0.086232
     0.095240    0.108964    0.114008    0.116920    0.118157    0.139093
     0.141406    0.143684    0.159214    0.159997    0.220146    0.220600
     0.287734    0.312943    0.327166    0.329071    0.337506    0.341361
     0.342944    0.344904    0.346854    0.349957    0.355246    0.356179
     0.404332    0.521303    0.549237

 Transition State Search - Taking P-RFO Step
 Searching for Lamda that Maximizes Along the Lowest mode
 Value Taken    Lamda =   0.00022039
 Searching for Lamda that Minimizes Along All other modes
 Value Taken    Lamda =  -0.00117402
 Calculated Step too Large.  Step scaled by  0.394060
 Step Taken.  Stepsize is  0.300000

                             Maximum     Tolerance    Cnvgd?
         Gradient           0.004907      0.000300      NO
         Displacement       0.195777      0.003000      NO
         Energy change     -0.000041      0.000001      NO


 New Cartesian Coordinates Obtained by Inverse Iteration

 Displacement from previous Coordinates is:  0.255997
 ----------------------------------------------------------------
             Standard Nuclear Orientation (Angstroms)
    I     Atom           X                Y                Z
 ----------------------------------------------------------------
    1      C       2.2370617619     0.8187359800    -0.2020066462
    2      H       2.4787047798     1.8566684080     0.0583375193
    3      H       3.0347576836     0.1827990225     0.1899723353
    4      H       2.2338477911     0.7391086013    -1.2939298614
    5      C       0.8985556517     0.4278165787     0.3769362364
    6      H       0.8875495125     0.1755328169     1.4381226230
    7      C      -0.2812758819     0.7762370519    -0.2031978758
    8      H      -0.2909336112     1.1484188463    -1.2286949677
    9      C      -1.6172997629     0.5437191141     0.4282388100
   10      H      -2.1846218467     1.4787991401     0.5069932671
   11      H      -1.4887629011     0.1461376220     1.4471978422
   12      O      -2.4402628395    -0.3243417517    -0.3567036269
   13      H      -1.9324688227    -1.1203859069    -0.5479829846
   14      C       1.0459832147    -1.8549176606     0.0116384975
   15      H       0.1218139784    -2.2373577554     0.4367421489
   16      H       1.1225193949    -1.8695851168    -1.0713078112
   17      H       1.9529839323    -2.0793208715     0.5683506600
 ----------------------------------------------------------------
 Molecular Point Group                 C1    NOp =  1
 Largest Abelian Subgroup              C1    NOp =  1
 Nuclear Repulsion Energy =   237.0046544063 hartrees
 There are       25 alpha and       24 beta electrons
 Applying Cartesian multipole field
    Component          Value
    ---------          -----
     (2,0,0)        1.00000E-11
     (0,2,0)        2.00000E-11
     (0,0,2)       -3.00000E-11
 Nucleus-field energy     =     0.0000000075 hartrees
 Requested basis set is non-standard
 There are 138 shells and 314 basis functions
 A cutoff of  1.0D-12 yielded   9005 shell pairs
 There are     46357 function pairs (     55697 Cartesian)
 Smallest overlap matrix eigenvalue = 1.12E-05
 Guess MOs from SCF MO coefficient file
Reading MOs from coefficient file
Reading MOs from coefficient file
 An unrestricted hybrid HF-DFT SCF calculation will be
 performed using Pulay DIIS + Geometric Direct Minimization
 Exchange:     0.5679 Hartree-Fock + 1.0000 M08SO
 SCF converges when RMS gradient is below 1.0E-08
Geometry optimization detected.  Setting ReadMinima to 0
Setting SaveMinima to 0
 Inaccurate integrated density:
   Number of electrons =    49
   Numerical integral  =    48.987458369982
   Relative error      =    -0.0255951633 %
 ---------------------------------------
[...]
  4.246   4.252   4.261   4.311   4.323   4.343   4.402   4.428
  4.437   4.481   4.568   4.595   4.643   4.680   4.701   4.748
  4.815   5.048   5.125   5.160   5.178   5.186   5.263   5.340
  5.430   5.457   5.462   5.474   5.501   5.538   5.563   5.568
  5.586   5.658   5.778   5.821   5.898   6.478   6.988   7.147
  7.184   7.194   7.482   7.610  23.902  24.011  24.193  24.245
 24.659  49.799
 --------------------------------------------------------------
 
          Ground-State Mulliken Net Atomic Charges

     Atom                 Charge (a.u.)    Spin (a.u.)
  --------------------------------------------------------
      1 C                    -0.771037       0.002985
      2 H                     0.178104       0.000281
      3 H                     0.187708       0.000008
      4 H                     0.185089       0.000371
      5 C                    -0.071002      -0.001959
      6 H                     0.183787       0.005550
      7 C                     0.057202       0.002259
      8 H                     0.295121      -0.000240
      9 C                    -0.657487      -0.011256
     10 H                     0.165534       0.001621
     11 H                     0.243977       0.007970
     12 O                    -0.278172       0.011400
     13 H                     0.262593       0.008216
     14 C                    -0.465695       1.097490
     15 H                     0.156732      -0.039277
     16 H                     0.174069      -0.040455
     17 H                     0.153478      -0.044964
  --------------------------------------------------------
  Sum of atomic charges =     0.000000
  Sum of spin   charges =     1.000000

 -----------------------------------------------------------------
                    Cartesian Multipole Moments
 -----------------------------------------------------------------
    Charge (ESU x 10^10)
                 0.0000
    Dipole Moment (Debye)
         X       2.1632      Y      -0.1382      Z       0.5070
       Tot       2.2261
    Quadrupole Moments (Debye-Ang)
        XX     -44.4146     XY      -0.4108     YY     -38.2489
        XZ      -1.8033     YZ      -0.2165     ZZ     -39.6424
    Octopole Moments (Debye-Ang^2)
       XXX       1.9191    XXY       6.8513    XYY     -10.9975
       YYY      -1.8825    XXZ       5.0145    XYZ      -0.3022
       YYZ      -5.7504    XZZ      -3.1575    YZZ      -2.3137
       ZZZ      -1.1451
    Hexadecapole Moments (Debye-Ang^3)
      XXXX    -630.1348   XXXY    -100.8871   XXYY    -198.2966
      XYYY     -64.3568   YYYY    -624.9281   XXXZ      -2.8924
      XXYZ       3.5164   XYYZ       0.3228   YYYZ       5.2658
      XXZZ    -117.0064   XYZZ     -32.0866   YYZZ    -119.0415
      XZZZ       3.4442   YZZZ      -0.4629   ZZZZ    -104.6727
 -----------------------------------------------------------------
 Calculating analytic gradient of the SCF energy
 Gradient of Coulomb and Exchange Energy
            1           2           3           4           5           6
    1  -3.6757163  -0.3207975  -3.2212422  -1.1591189  -8.5883830  -0.8376138
    2  -1.3461977  -3.7110021   0.4049877   0.8000016  -0.5592806   2.1953654
    3   0.2515989   0.5815288  -1.7513951   3.4215057  -3.0494370  -3.8574719
            7           8           9          10          11          12
    1   6.1754687   0.7343930   1.6484031   3.3694439  -0.5322246  10.2120033
    2  -4.3128971  -2.7363223  -0.6300979  -3.4045603   1.7334343   1.7486097
    3   2.0220687   3.6097119  -1.2132266  -1.1996939  -3.7792013   3.5594696
           13          14          15          16          17
    1  -2.1656381  -1.1410336   2.7413233  -2.0319924  -1.2072748
    2   3.9807155   4.3117882   2.3530001   0.0749402  -0.9024847
    3   1.5437119  -0.1281618   0.1213301   2.9184962  -3.0508341
 Gradient of SCF Energy
            1           2           3           4           5           6
    1  -0.0003486  -0.0000009  -0.0000285  -0.0000659   0.0001248  -0.0000623
    2  -0.0000666   0.0000008  -0.0000442   0.0000646   0.0001637  -0.0000700
    3  -0.0000394   0.0000358   0.0000981  -0.0000763   0.0004398  -0.0005732
            7           8           9          10          11          12
    1   0.0002939  -0.0000211  -0.0000264  -0.0000467  -0.0000126   0.0000301
    2  -0.0000837   0.0000812  -0.0000908   0.0000052   0.0000774   0.0000319
    3  -0.0001053   0.0000645  -0.0000434  -0.0000577   0.0000394   0.0000453
           13          14          15          16          17
    1   0.0000140   0.0001742  -0.0002172   0.0000712   0.0001220
    2   0.0000039  -0.0000101   0.0002482  -0.0000320  -0.0002797
    3   0.0000067   0.0000072   0.0001401   0.0000682  -0.0000499
 Max gradient component =       5.732E-04
 RMS gradient           =       1.494E-04
 Gradient time:  CPU 63.05 s  wall 64.96 s
 Geometry Optimization Parameters
   NAtoms,    NIC,     NZ,  NCons,   NDum,   NFix, NCnnct, MaxDiis
       17     135       0       0       0       0       0       0

 Cartesian Hessian Update
 Hessian Updated using Powell/Murtagh-Sargent Update
  Mixing factors:     0.937271 Powell
                      0.062729 Murtagh-Sargent


** GEOMETRY OPTIMIZATION IN DELOCALIZED INTERNAL COORDINATES **
   Searching for a Transition State

   Optimization Cycle: 100

                       Coordinates (Angstroms)
     ATOM                X               Y               Z
      1  C         2.3508763647    1.5021667898   -0.2408075942
      2  H         2.2495860687    2.5915540517   -0.3212305686
      3  H         3.2356708907    1.2934420674    0.3691020204
      4  H         2.5407628785    1.1142703041   -1.2498701243
      5  C         1.1086082165    0.8819398094    0.3545236557
      6  H         1.2285650017    0.2919958971    1.2669955204
      7  C        -0.1176627866    1.0054507610   -0.1503263154
      8  H        -0.2805123388    1.5761915929   -1.0688286194
      9  C        -1.3373931810    0.3745346936    0.4637478938
     10  H        -2.0920027042    1.1376240101    0.6966389033
     11  H        -1.0599952811   -0.1205807974    1.4107237255
     12  O        -1.9721376960   -0.5332242240   -0.4234202867
     13  H        -1.3373642407   -1.2306505630   -0.6390901053
     14  C         0.3038662065   -2.7516210105    0.0163687095
     15  H        -0.6003852641   -3.3521070251   -0.0046309272
     16  H         0.9130906714   -2.6471283827   -0.8749239303
     17  H         0.6445792289   -2.3257938555    0.9537342090
   Point Group: c1    Number of degrees of freedom:    45


   Energy is   -272.164735683

 GETINT wrote B to file, NVib is           45
 Hessian Updated using Powell/Murtagh-Sargent Update
  Mixing factors:     0.994207 Powell
                      0.005793 Murtagh-Sargent

 45 Hessian modes will be used to form the next step
  Hessian Eigenvalues:
    -0.005682   -0.000325    0.004109    0.010931    0.012058    0.016305
     0.021289    0.027434    0.035676    0.038202    0.047412    0.051347
     0.057069    0.058456    0.059701    0.061069    0.073831    0.087749
     0.092907    0.105887    0.113849    0.116633    0.118151    0.135472
     0.141410    0.143497    0.159208    0.160020    0.220383    0.220663
     0.289995    0.313482    0.326893    0.328961    0.337489    0.341359
     0.342948    0.344905    0.347237    0.349963    0.355230    0.356161
     0.404041    0.516100    0.549160
**WARNING** Hessian does not have the Desired Local Structure

 Transition State Search - Taking P-RFO Step
 Searching for Lamda that Maximizes Along the Lowest mode
 Value Taken    Lamda =   0.00000089
 Searching for Lamda that Minimizes Along All other modes
 Value Taken    Lamda =  -0.00040455
 Calculated Step too Large.  Step scaled by  0.134935
 Step Taken.  Stepsize is  0.300000

                             Maximum     Tolerance    Cnvgd?
         Gradient           0.000403      0.000300      NO
         Displacement       0.117159      0.003000      NO
         Energy change     -0.000028      0.000001      NO


 New Cartesian Coordinates Obtained by Inverse Iteration

 Displacement from previous Coordinates is:  0.407060
 ----------------------------------------------------------------
             Standard Nuclear Orientation (Angstroms)
    I     Atom           X                Y                Z
 ----------------------------------------------------------------
    1      C       2.3623826333     1.5440900164    -0.2416166111
    2      H       2.2409786615     2.6329214912    -0.2992121048
    3      H       3.2569122458     1.3390950697     0.3566146629
    4      H       2.5552972275     1.1800019685    -1.2588344908
    5      C       1.1292768165     0.8901002917     0.3455540594
    6      H       1.2563610524     0.2871183167     1.2539248919
    7      C      -0.1002733382     0.9979629562    -0.1557704034
    8      H      -0.2751856066     1.5722600756    -1.0699472155
    9      C      -1.3084369718     0.3441902380     0.4574610333
   10      H      -2.0629660644     1.0986798886     0.7170780060
   11      H      -1.0166585069    -0.1694135498     1.3900294806
   12      O      -1.9500869059    -0.5491400164    -0.4391865941
   13      H      -1.3245363033    -1.2544892402    -0.6553556358
   14      C       0.2403226578    -2.7602574613     0.0344671198
   15      H      -0.6485906393    -3.3817817665     0.0005125618
   16      H       0.8760276374    -2.6729337489    -0.8404384350
   17      H       0.5473274392    -2.2903404102     0.9634258408
 ----------------------------------------------------------------
 Molecular Point Group                 C1    NOp =  1
 Largest Abelian Subgroup              C1    NOp =  1
 Nuclear Repulsion Energy =   228.5019129210 hartrees
 There are       25 alpha and       24 beta electrons
rm_l_1_16471: (123424.769531) net_send: could not write to fd=5, errno = 32
cleanup process ... done

Running Job 2 of 2 iC5H11O-3_betasc_CH3m08c.in
qchem iC5H11O-3_betasc_CH3m08c.in_16267.1 /scratch/edames/qchem16267/ 8
/opt/qchem/bin/mpi/mpirun_qchem -machinefile /tmp/318209.1.normal3/hostfile -np 8 /opt/qchem/exe/qcprog.exe iC5H11O-3_betasc_CH3m08c.in_16267.1 /scratch/edames/qchem16267/

Process 0 of 8 is on node65.cluster - thread support 0
Process 1 of 8 is on node65.cluster - thread support 0
Process 2 of 8 is on node65.cluster - thread support 0
Process 5 of 8 is on node65.cluster - thread support 0
Process 4 of 8 is on node65.cluster - thread support 0
Process 3 of 8 is on node65.cluster - thread support 0
Process 6 of 8 is on node65.cluster - thread support 0
Process 7 of 8 is on node65.cluster - thread support 0
initial socket setup ...start
initial socket setup ...done 
now start server 0 ... 
set process cleaner
set process cleaner
set process cleaner
set process cleaner
set process cleaner
set process cleaner
set process cleaner
                  Welcome to Q-Chem
     A Quantum Leap Into The Future Of Chemistry


 Q-Chem 4.2, Q-Chem, Inc., Pleasanton, CA (2014).

 Y. Shao,  Z. Gan,  E. Epifanovsky,  A. T. B. Gilbert,  M. Wormit,  
 J. Kussmann,  A. W. Lange,  A. Behn,  J. Deng,  X. Feng,  D. Ghosh,  
 M. Goldey,  P. R. Horn,  L. D. Jacobson,  I. Kaliman,  R. Z. Khaliullin,  
 T. Kus,  A. Landau,  J. Liu,  E. I. Proynov,  Y. M. Rhee,  R. M. Richard,  
 M. A. Rohrdanz,  R. P. Steele,  E. J. Sundstrom,  H. L. Woodcock III,  
 P. M. Zimmerman,  D. Zuev,  B. Albrecht,  E. Alguire,  B. Austin,  
 G. J. O. Beran,  Y. A. Bernard,  E. Berquist,  K. Brandhorst,  
 K. B. Bravaya,  S. T. Brown,  D. Casanova,  C.-M. Chang,  Y. Chen,  
 S. H. Chien,  K. D. Closser,  D. L. Crittenden,  M. Diedenhofen,  
 R. A. DiStasio Jr.,  H. Do,  A. D. Dutoi,  R. G. Edgar,  S. Fatehi,  
 L. Fusti-Molnar,  A. Ghysels,  A. Golubeva-Zadorozhnaya,  J. Gomes,  
 M. W. D. Hanson-Heine,  P. H. P. Harbach,  A. W. Hauser,  E. G. Hohenstein,  
 Z. C. Holden,  T.-C. Jagau,  H. Ji,  B. Kaduk,  K. Khistyaev,  Jaehoon Kim,  
 Jihan Kim,  R. A. King,  P. Klunzinger,  D. Kosenkov,  T. Kowalczyk,  
 C. M. Krauter,  K. U. Lao,  A. Laurent,  K. V. Lawler,  S. V. Levchenko,  
 C. Y. Lin,  F. Liu,  E. Livshits,  R. C. Lochan,  A. Luenser,  P. Manohar,  
 S. F. Manzer,  S.-P. Mao,  N. Mardirossian,  A. V. Marenich,  S. A. Maurer,  
 N. J. Mayhall,  C. M. Oana,  R. Olivares-Amaya,  D. P. O'Neill,  
 J. A. Parkhill,  T. M. Perrine,  R. Peverati,  P. A. Pieniazek,  A. Prociuk,  
 D. R. Rehn,  E. Rosta,  N. J. Russ,  N. Sergueev,  S. M. Sharada,  
 S. Sharma,  D. W. Small,  A. Sodt,  T. Stein,  D. Stuck,  Y.-C. Su,  
 A. J. W. Thom,  T. Tsuchimochi,  L. Vogt,  O. Vydrov,  T. Wang,  
 M. A. Watson,  J. Wenzel,  A. White,  C. F. Williams,  V. Vanovschi,  
 S. Yeganeh,  S. R. Yost,  Z.-Q. You,  I. Y. Zhang,  X. Zhang,  Y. Zhao,  
 B. R. Brooks,  G. K. L. Chan,  D. M. Chipman,  C. J. Cramer,  
 W. A. Goddard III,  M. S. Gordon,  W. J. Hehre,  A. Klamt,  
 H. F. Schaefer III,  M. W. Schmidt,  C. D. Sherrill,  D. G. Truhlar,  
 A. Warshel,  X. Xu,  A. Aspuru-Guzik,  R. Baer,  A. T. Bell,  N. A. Besley,  
 J.-D. Chai,  A. Dreuw,  B. D. Dunietz,  T. R. Furlani,  S. R. Gwaltney,  
 C.-P. Hsu,  Y. Jung,  J. Kong,  D. S. Lambrecht,  W. Liang,  C. Ochsenfeld,  
 V. A. Rassolov,  L. V. Slipchenko,  J. E. Subotnik,  T. Van Voorhis,  
 J. M. Herbert,  A. I. Krylov,  P. M. W. Gill,  M. Head-Gordon

 Contributors to earlier versions of Q-Chem not listed above: 
 R. D. Adamson,  J. Baker,  E. F. C. Byrd,  A. K. Chakraborty,  C.-L. Cheng,  
 H. Dachsel,  R. J. Doerksen,  G. Hawkins,  A. Heyden,  S. Hirata,  
 G. Kedziora,  F. J. Keil,  C. Kelley,  P. P. Korambath,  W. Kurlancheek,  
 A. M. Lee,  M. S. Lee,  D. Liotard,  I. Lotan,  P. E. Maslen,  N. Nair,  
 D. Neuhauser,  R. Olson,  B. Peters,  J. Ritchie,  N. E. Schultz,  
 N. Shenvi,  A. C. Simmonett,  K. S. Thanthiriwatte,  Q. Wu,  W. Zhang

 Q-Chem 4.2.0 for Intel X86 Linux

 Parts of Q-Chem use Armadillo 4.100.2 (Dirt Cruiser).
 http://arma.sourceforge.net/

 Q-Chem begins on Sat Jun 28 05:12:16 2014  

Host: 
0

     Scratch files written to /scratch/edames/qchem16267.0//
 May2514 8580_ilyak 4150   
 Parallel job on  8  processors
Processing $rem in /opt/qchem/config/preferences.
 MEM_TOTAL  2000 

 Q-Chem warning in module /home/scratch/svnadmin/8580_ilyak/qchem/libgen/rem.C, line 2637:

 !!Desired Analytical derivatives not available.

 2-order derivative to be evaluated numerically with 1-order analytical derivatives

 Q-Chem warning in module /home/scratch/svnadmin/8580_ilyak/qchem/libgen/rem.C, line 2644:

 !!Parallel diagonalization not available.

Warning: disabling incdft.
 Q-Chem warning in module /home/scratch/svnadmin/8580_ilyak/qchem/forms1/BasisType.C, line 1209:

 Setting pure/cartesian flag to 2111 for general basis


Finally everything over in PARseQInput

--------------------------------------------------------------
User input:
--------------------------------------------------------------

$molecule
READ
$end

$rem
JOBTYPE Freq
XC_GRID 000075000434
EXCHANGE M08SO
BASIS gen
GUI=2
SCF_GUESS READ
$end

$basis
H  0
S  3 1.00
3.386500000000E+01 2.549380000000E-02
5.094790000000E+00 1.903730000000E-01
1.158790000000E+00 8.521610000000E-01
S  1 1.00
3.258400000000E-01 1.000000000000E+00
S  1 1.00
1.027410000000E-01 1.000000000000E+00
S  1 1.00
3.600000000000E-02 1.000000000000E+00
P  1 1.00
1.500000000000E+00 1.000000000000E+00
P  1 1.00
3.750000000000E-01 1.000000000000E+00
****
C 0
S  6 1.00
4.563240000000E+03 1.966650000000E-03
6.820240000000E+02 1.523060000000E-02
1.549730000000E+02 7.612690000000E-02
4.445530000000E+01 2.608010000000E-01
1.302900000000E+01 6.164620000000E-01
1.827730000000E+00 2.210060000000E-01
S  3 1.00
2.096420000000E+01 1.146600000000E-01
4.803310000000E+00 9.199990000000E-01
1.459330000000E+00 -3.030680000000E-03
S  1 1.00
4.834560000000E-01 1.000000000000E+00
S  1 1.00
1.455850000000E-01 1.000000000000E+00
S  1 1.00
4.380000000000E-02 1.000000000000E+00
P  3 1.00
2.096420000000E+01 4.024870000000E-02
4.803310000000E+00 2.375940000000E-01
1.459330000000E+00 8.158540000000E-01
P  1 1.00
4.834560000000E-01 1.000000000000E+00
P  1 1.00
1.455850000000E-01 1.000000000000E+00
P  1 1.00
4.380000000000E-02 1.000000000000E+00
D  1 1.00
1.252000000000E+00 1.000000000000E+00
D  1 1.00
3.130000000000E-01 1.000000000000E+00
F  1 1.00
8.000000000000E-01 1.000000000000E+00
****
O  0
S  6 1.00
8.588500000000E+03 1.895150000000E-03
1.297230000000E+03 1.438590000000E-02
2.992960000000E+02 7.073200000000E-02
8.737710000000E+01 2.400010000000E-01
2.567890000000E+01 5.947970000000E-01
3.740040000000E+00 2.808020000000E-01
S  3 1.00
4.211750000000E+01 1.138890000000E-01
9.628370000000E+00 9.208110000000E-01
2.853320000000E+00 -3.274470000000E-03
S  1 1.00
9.056610000000E-01 1.000000000000E+00
S  1 1.00
2.556110000000E-01 1.000000000000E+00
S  1 1.00
8.450000000000E-02 1.000000000000E+00
P  3 1.00
4.211750000000E+01 3.651140000000E-02
9.628370000000E+00 2.371530000000E-01
2.853320000000E+00 8.197020000000E-01
P  1 1.00
9.056610000000E-01 1.000000000000E+00
P  1 1.00
2.556110000000E-01 1.000000000000E+00
P  1 1.00
8.450000000000E-02 1.000000000000E+00
D  1 1.00
2.584000000000E+00 1.000000000000E+00
D  1 1.00
6.460000000000E-01 1.000000000000E+00
F  1 1.00
1.400000000000E+00 1.000000000000E+00
****
--------------------------------------------------------------
 ----------------------------------------------------------------
             Standard Nuclear Orientation (Angstroms)
    I     Atom           X                Y                Z
 ----------------------------------------------------------------
    1      C       2.6863809481    -0.4856069814    -0.2151290114
    2      H       3.3640100173     0.3729919521    -0.2995025934
    3      H       3.1799662286    -1.2405314988     0.4052576782
    4      H       2.5632215180    -0.9072965717    -1.2209805936
    5      C       1.3548938173    -0.0736354397     0.3677538463
    6      H       1.0295620115    -0.5750700030     1.2830412048
    7      C       0.5544319986     0.8557756735    -0.1512113558
    8      H       0.8354844630     1.3727816258    -1.0729629025
    9      C      -0.7682041714     1.2446545201     0.4506949973
   10      H      -0.7908962649     2.3198312731     0.6730889685
   11      H      -0.9143140756     0.7038266116     1.4020147329
   12      O      -1.8479801808     1.0154136532    -0.4412279965
   13      H      -1.8670153889     0.0705490461    -0.6479230460
   14      C      -1.7295337887    -2.1561589614     0.0299301828
   15      H      -2.7984894756    -1.9686755218     0.0002846126
   16      H      -1.2102872966    -2.5086998927    -0.8547017745
   17      H      -1.1952131139    -2.0731891139     0.9699757297
 ----------------------------------------------------------------
 Molecular Point Group                 C1    NOp =  1
 Largest Abelian Subgroup              C1    NOp =  1
 Nuclear Repulsion Energy =   228.3999468076 hartrees
 There are       25 alpha and       24 beta electrons
 Requested basis set is non-standard
 There are 138 shells and 314 basis functions

Total QAlloc Memory Limit   2000 MB
Mega-Array Size        77 MB
MEM_STATIC part        62 MB
 A cutoff of  1.0D-11 yielded   8680 shell pairs
 There are     44264 function pairs (     53120 Cartesian)
rm_l_1_7927: (2.789062) net_send: could not write to fd=5, errno = 32
rm_l_4_7986: (1.964844) net_send: could not write to fd=5, errno = 32
rm_l_7_8046: (1.101562) net_send: could not write to fd=5, errno = 32
rm_l_5_8006: (1.671875) net_send: could not write to fd=5, errno = 32
cleanup process ... done
remove work dirs /scratch/edames/qchem16267.0 -- /scratch/edames/qchem16267.7
rm -rf /scratch/edames/qchem16267.0
rm -rf /scratch/edames/qchem16267.1
rm -rf /scratch/edames/qchem16267.2
rm -rf /scratch/edames/qchem16267.3
rm -rf /scratch/edames/qchem16267.4
rm -rf /scratch/edames/qchem16267.5
rm -rf /scratch/edames/qchem16267.6
rm -rf /scratch/edames/qchem16267.7
rm -rf /scratch/edames/qchem16267
