
Running Job 1 of 2 ts12.in
qchem ts12.in_9238.0 /tmp/qchem9238/ 4
/opt/qchem/bin/mpi/mpirun_qchem -machinefile /tmp/294206.1.normal1/hostfile -np 4 /opt/qchem/exe/qcprog.exe ts12.in_9238.0 /tmp/qchem9238/

Process 2 of 4 is on node28.cluster - thread support 0
Process 1 of 4 is on node28.cluster - thread support 0
Process 0 of 4 is on node28.cluster - thread support 0
Process 3 of 4 is on node28.cluster - thread support 0
initial socket setup ...start
initial socket setup ...done 
now start server 0 ... 
                  Welcome to Q-Chem
     A Quantum Leap Into The Future Of Chemistry

 Y. Shao, L. Fusti-Molnar, Y. Jung, J. Kussmann, C. Ochsenfeld, S. T. Brown, 
 A. T. B. Gilbert, L. V. Slipchenko, S. V. Levchenko, D. P. O'Neill, 
 R. A. DiStasio Jr., R. C. Lochan, T. Wang, G. J. O. Beran, N. A. Besley, 
 J. M. Herbert, C. Y. Lin, T. Van Voorhis, S. H. Chien, A. Sodt, R. P. Steele, 
 V. A. Rassolov, P. E. Maslen, P. P. Korambath, R. D. Adamson, B. Austin, 
 J. Baker, E. F. C. Byrd, H. Dachsel, R. J. Doerksen, A. Dreuw, B. D. Dunietz, 
 A. D. Dutoi, T. R. Furlani, S. R. Gwaltney, A. Heyden, S. Hirata, C.-P. Hsu, 
 G. Kedziora, R. Z. Khaliullin, P. Klunzinger, A. M. Lee, M. S. Lee, W. Liang, 
 I. Lotan, N. Nair, B. Peters, E. I. Proynov, P. A. Pieniazek, Y. M. Rhee, 
 J. Ritchie, E. Rosta, C. D. Sherrill, A. C. Simmonett, J. E. Subotnik, 
 H. L. Woodcock III, W. Zhang, A. T. Bell, A. K. Chakraborty, D. M. Chipman, 
 F. J. Keil, A. Warshel, W. J. Hehre, H. F. Schaefer III, J. Kong, 
 A. I. Krylov, P. M. W. Gill, M. Head-Gordon

 Additional authors for Version 3.1: 
 Z. Gan, Y. Zhao, N. E. SchultzD. Truhlar, E. Epifanovsky, M. Oana

 Additional authors for Version 3.2: 
 R. Baer, B. R. Brooks, D. Casanova, J.-D. Chai, C.-L. Cheng, C. Cramer, 
 D. Crittenden, A. Ghysels, G. Hawkins, E. G. Hohenstein, C. Kelley, 
 W. Kurlancheek, D. Liotard, E. Livshits, P. Manohar, A. Marenich, 
 D. Neuhauser, R. Olson, M. A. Rohrdanz, K. S. Thanthiriwatte, A. J. W. Thom, 
 V. Vanovschi, C. F. Williams, Q. Wu, Z.-Q. You

 Additional authors for Version 4.0: 
 A. Aspuru-Guzik, Y. Bernard, C. Chang, J. Deng, A. Dreuw, M. Diedenhofen, 
 R. G. Edgar, D. Ghosh, W. A. Goddard III, M. Goldey, L. D. Jacobson, 
 M. Gordon, B. Kaduk, I. Kaliman, K. Khistyaev, R. King, A. Klamt, 
 D. Kosenkov, T. Kus, D. Lambrecht, A. Landau, A. W. Lange, K. Lawler, F. Liu, 
 J. Liu, R. Olivares-Amaya, S. P. Mao, J. Parkhill, N. Russ, M. Schmidt, 
 N. Shenvi, D. Small, Y. C. Su, E. Sundstrom, L. Vogt, O. Vydrov, M. Watson, 
 M. Wormit, X. Xu, S. Yeganeh, I. Y. Zhang, D. Zuev

 Additional authors for Version 4.1: 
 X. Feng, M. W. D. Hanson-Heine, P. Horn, H. Ji, A. Laurent, R. Peverati, 
 N. Mardirossian, N. Sergueev, S. Sharada, P. Zimmerman


 Q-Chem, Version 4.1, Q-Chem, Inc., Pittsburgh, PA (2013).

 Intel X86 Linux Version 4.1.0.1 

 Q-chem begins on Fri Apr 18 14:51:44 2014  

Host: 
0

     Scratch files written to /tmp/qchem9238.0//
 Oct1213 14483_epif 4150   
 Parallel job on  4  processors
Processing $rem in /opt/qchem/config/preferences.
 MEM_TOTAL  2000 
Warning: disabling incdft.
 Q-Chem warning in module /home/scratch/svnadmin/14483_epif/qchem/forms1/BasisType.C, line 1125:

 Setting pure/cartesian flag to 2111 for general basis


Finally everything over in PARseQInput

--------------------------------------------------------------
User input:
--------------------------------------------------------------
$rem
XC_GRID 000075000434
JOBTYPE ts
EXCHANGE M08SO
BASIS gen
GUI=2
UNRESTRICTED TRUE
CORRELATION NONE
$end

$comment
c5h11o-2
$end

$molecule
0 2
C
H  1 1.092229
C  1 1.527315 2 107.958069
H  3 1.090227 1 110.770920 2 56.093689 0
H  3 1.090898 1 111.325723 2 -64.189303 0
H  3 1.091250 1 110.953165 2 175.673951 0
C  1 1.527818 2 107.794800 3 119.725993 0
H  7 1.089943 1 110.526929 2 -57.026650 0
H  7 1.090254 1 111.450658 2 63.156526 0
H  7 1.090598 1 111.106449 2 -176.077429 0
C  1 1.534726 2 106.253880 3 -119.709918 0
H  11 1.091328 1 110.072608 2 57.956706 0
H  11 1.096882 1 109.373472 2 -58.844461 0
C  11 1.497352 1 114.791607 2 -179.891497 0
H  14 1.090172 11 119.031123 1 53.350086 0
H  14 1.262248 11 120.842759 1 -92.725338 0
O  16 1.215158 14 67.420484 11 -105.314172 0
$end

$basis
H  0
S  3 1.00
3.386500000000E+01 2.549380000000E-02
5.094790000000E+00 1.903730000000E-01
1.158790000000E+00 8.521610000000E-01
S  1 1.00
3.258400000000E-01 1.000000000000E+00
S  1 1.00
1.027410000000E-01 1.000000000000E+00
S  1 1.00
3.600000000000E-02 1.000000000000E+00
P  1 1.00
1.500000000000E+00 1.000000000000E+00
P  1 1.00
3.750000000000E-01 1.000000000000E+00
****
C 0
S  6 1.00
4.563240000000E+03 1.966650000000E-03
6.820240000000E+02 1.523060000000E-02
1.549730000000E+02 7.612690000000E-02
4.445530000000E+01 2.608010000000E-01
1.302900000000E+01 6.164620000000E-01
1.827730000000E+00 2.210060000000E-01
S  3 1.00
2.096420000000E+01 1.146600000000E-01
4.803310000000E+00 9.199990000000E-01
1.459330000000E+00 -3.030680000000E-03
S  1 1.00
4.834560000000E-01 1.000000000000E+00
S  1 1.00
1.455850000000E-01 1.000000000000E+00
S  1 1.00
4.380000000000E-02 1.000000000000E+00
P  3 1.00
2.096420000000E+01 4.024870000000E-02
4.803310000000E+00 2.375940000000E-01
1.459330000000E+00 8.158540000000E-01
P  1 1.00
4.834560000000E-01 1.000000000000E+00
P  1 1.00
1.455850000000E-01 1.000000000000E+00
P  1 1.00
4.380000000000E-02 1.000000000000E+00
D  1 1.00
1.252000000000E+00 1.000000000000E+00
D  1 1.00
3.130000000000E-01 1.000000000000E+00
F  1 1.00
8.000000000000E-01 1.000000000000E+00
****
O  0
S  6 1.00
8.588500000000E+03 1.895150000000E-03
1.297230000000E+03 1.438590000000E-02
2.992960000000E+02 7.073200000000E-02
8.737710000000E+01 2.400010000000E-01
2.567890000000E+01 5.947970000000E-01
3.740040000000E+00 2.808020000000E-01
S  3 1.00
4.211750000000E+01 1.138890000000E-01
9.628370000000E+00 9.208110000000E-01
2.853320000000E+00 -3.274470000000E-03
S  1 1.00
9.056610000000E-01 1.000000000000E+00
S  1 1.00
2.556110000000E-01 1.000000000000E+00
S  1 1.00
8.450000000000E-02 1.000000000000E+00
P  3 1.00
4.211750000000E+01 3.651140000000E-02
9.628370000000E+00 2.371530000000E-01
2.853320000000E+00 8.197020000000E-01
P  1 1.00
9.056610000000E-01 1.000000000000E+00
P  1 1.00
2.556110000000E-01 1.000000000000E+00
P  1 1.00
8.450000000000E-02 1.000000000000E+00
D  1 1.00
2.584000000000E+00 1.000000000000E+00
D  1 1.00
6.460000000000E-01 1.000000000000E+00
F  1 1.00
1.400000000000E+00 1.000000000000E+00
****
$end

--------------------------------------------------------------
 ----------------------------------------------------
       Standard Nuclear Orientation (Angstroms)
    I     Atom         X            Y            Z
 ----------------------------------------------------
    1      C      -1.095226     0.037840    -0.457730
    2      H      -1.644362     0.078813    -1.400987
    3      C      -1.317246     1.359825     0.274222
    4      H      -2.381561     1.550491     0.413779
    5      H      -0.893461     2.197229    -0.281853
    6      H      -0.850885     1.342832     1.260653
    7      C      -1.649261    -1.131463     0.354677
    8      H      -2.722343    -1.016460     0.507137
    9      H      -1.479599    -2.083116    -0.149532
   10      H      -1.184413    -1.180245     1.340040
   11      C       0.381078    -0.158564    -0.828318
   12      H       0.717308     0.656190    -1.471843
   13      H       0.490569    -1.082424    -1.409390
   14      C       1.315387    -0.243866     0.338667
   15      H       1.110985    -0.967226     1.128252
   16      H       1.894261     0.786964     0.780893
   17      O       2.641888     0.066790     0.149218
 ----------------------------------------------------
 Molecular Point Group                 C1    NOp =  1
 Largest Abelian Subgroup              C1    NOp =  1
 Nuclear Repulsion Energy =   247.7647468595 hartrees
 There are       25 alpha and       24 beta electrons
 Requested basis set is non-standard
 There are 138 shells and 314 basis functions

Total QAlloc Memory Limit   2000 MB
Mega-Array Size        61 MB
MEM_STATIC part        62 MB
 A cutoff of  1.0D-11 yielded   9055 shell pairs
 There are     46567 function pairs (     55885 Cartesian)
 Smallest overlap matrix eigenvalue = 1.96E-05

  Scale SEOQF with 1.000000e-01/1.000000e-01/1.000000e-01

 Standard Electronic Orientation quadrupole field applied
 Nucleus-field energy     =     0.0000000052 hartrees
 Guess MOs from core Hamiltonian diagonalization
 An unrestricted hybrid HF-DFT SCF calculation will be
 performed using Pulay DIIS extrapolation
 Exchange:     0.5679 Hartree-Fock + 1.0000 M08SO
 SCF converges when DIIS error is below 1.0E-08
 ---------------------------------------
  Cycle       Energy         DIIS Error
 ---------------------------------------
    1    -191.9977307970      9.15E-02
    2    -173.9249651103      4.83E-02
    3    -171.3642666083      6.56E-02
    4    -240.0637937029      3.71E-02
    5    -268.0641099012      1.72E-02
    6    -270.5513436964      1.07E-02
    7    -271.7244065468      6.08E-03
    8    -272.1175720022      1.37E-03
    9    -272.1401342860      7.22E-04
   10    -272.1479536470      2.48E-04
   11    -272.1489634848      7.75E-05
   12    -272.1490879531      2.19E-05
   13    -272.1491100926      9.56E-06
   14    -272.1491175285      3.65E-06
   15    -272.1491194670      1.54E-06
   16    -272.1491198985      8.77E-07
   17    -272.1491200503      4.35E-07
   18    -272.1491200908      1.90E-07
   19    -272.1491200958      7.24E-08
   20    -272.1491200963      2.32E-08
   21    -272.1491200967      1.15E-08
   22    -272.1491200969      3.22E-09 Convergence criterion met
 ---------------------------------------
 <S^2> = 0.7578
 SCF time:  CPU 1458.26 s  wall 1467.81 s
 SCF   energy in the final basis set = -272.1491200969
 Total energy in the final basis set = -272.1491200969
 Analysis of SCF Wavefunction
 
 --------------------------------------------------------------
                    Orbital Energies (a.u.)
 --------------------------------------------------------------
 
 Alpha MOs
 -- Occupied --
-19.587 -10.570 -10.509 -10.503 -10.489 -10.488  -1.165  -0.926
 -0.822  -0.786  -0.712  -0.648  -0.606  -0.560  -0.545  -0.517
 -0.500  -0.492  -0.464  -0.446  -0.416  -0.407  -0.404  -0.362
 -0.272
 -- Virtual --
 -0.028  -0.016  -0.012  -0.007   0.014   0.015   0.016   0.021
  0.023   0.053   0.058   0.058   0.071   0.074   0.081   0.085
  0.099   0.111   0.117   0.120   0.125   0.129   0.133   0.138
  0.141   0.143   0.147   0.151   0.153   0.160   0.175   0.192
  0.209   0.215   0.223   0.228   0.238   0.248   0.263   0.274
  0.280   0.285   0.293   0.306   0.313   0.324   0.335   0.349
  0.360   0.390   0.396   0.411   0.423   0.459   0.472   0.481
  0.486   0.490   0.506   0.515   0.542   0.560   0.563   0.565
  0.573   0.575   0.583   0.602   0.607   0.621   0.625   0.646
  0.651   0.662   0.674   0.689   0.702   0.706   0.713   0.737
  0.743   0.800   0.807   0.813   0.846   0.855   0.891   0.910
  0.941   0.947   0.949   0.983   1.007   1.035   1.046   1.057
  1.071   1.087   1.108   1.118   1.131   1.147   1.154   1.174
  1.178   1.187   1.200   1.218   1.236   1.242   1.249   1.274
  1.295   1.310   1.319   1.327   1.332   1.338   1.361   1.366
  1.374   1.389   1.405   1.423   1.433   1.448   1.466   1.470
  1.495   1.509   1.519   1.525   1.564   1.576   1.595   1.602
  1.619   1.628   1.668   1.683   1.736   1.746   1.752   1.778
  1.865   1.900   2.175   2.220   2.344   2.382   2.434   2.486
  2.518   2.523   2.575   2.602   2.618   2.660   2.665   2.726
  2.749   2.765   2.796   2.825   2.846   2.855   2.870   2.910
  2.921   2.933   2.954   2.959   2.964   3.000   3.037   3.073
  3.082   3.105   3.121   3.123   3.162   3.172   3.205   3.224
  3.264   3.272   3.290   3.308   3.320   3.353   3.364   3.376
  3.389   3.408   3.430   3.445   3.452   3.477   3.515   3.543
  3.553   3.561   3.589   3.622   3.633   3.685   3.718   3.729
  3.741   3.747   3.771   3.801   3.805   3.842   3.855   3.856
  3.890   3.908   3.938   3.940   3.967   3.988   3.990   4.015
  4.049   4.053   4.076   4.115   4.156   4.169   4.180   4.188
  4.201   4.209   4.219   4.238   4.282   4.325   4.338   4.376
  4.402   4.407   4.435   4.479   4.519   4.528   4.538   4.562
  4.581   4.595   4.621   4.680   4.707   4.723   4.740   4.844
  4.910   5.058   5.091   5.140   5.160   5.210   5.230   5.277
  5.393   5.406   5.460   5.501   5.583   5.635   5.671   5.675
  5.676   5.705   5.740   5.910   5.978   6.582   6.803   6.914
  7.252   7.441   7.541  24.099  24.113  24.209  24.267  24.302
 49.813
 
 Beta MOs
 -- Occupied --
-19.573 -10.561 -10.509 -10.503 -10.489 -10.488  -1.134  -0.925
 -0.817  -0.786  -0.698  -0.639  -0.562  -0.554  -0.536  -0.505
 -0.496  -0.478  -0.462  -0.441  -0.413  -0.404  -0.403  -0.353
 -- Virtual --
 -0.042  -0.026  -0.018  -0.013  -0.008   0.013   0.014   0.016
  0.018   0.021   0.053   0.056   0.057   0.068   0.072   0.079
  0.083   0.104   0.111   0.117   0.119   0.125   0.129   0.132
  0.136   0.140   0.141   0.146   0.150   0.153   0.160   0.176
  0.195   0.208   0.215   0.221   0.232   0.240   0.250   0.263
  0.274   0.282   0.285   0.296   0.309   0.314   0.326   0.337
  0.351   0.365   0.393   0.395   0.413   0.424   0.462   0.476
  0.481   0.489   0.492   0.509   0.518   0.549   0.561   0.564
  0.566   0.576   0.581   0.585   0.607   0.609   0.624   0.627
  0.649   0.655   0.666   0.677   0.691   0.702   0.711   0.714
  0.740   0.748   0.801   0.809   0.816   0.847   0.858   0.893
  0.915   0.942   0.949   0.953   0.989   1.014   1.036   1.053
  1.060   1.077   1.092   1.110   1.121   1.133   1.149   1.161
  1.178   1.182   1.191   1.203   1.222   1.244   1.250   1.260
  1.275   1.300   1.313   1.320   1.329   1.333   1.342   1.363
  1.370   1.375   1.392   1.405   1.431   1.439   1.452   1.468
  1.477   1.497   1.516   1.523   1.531   1.566   1.578   1.598
  1.603   1.621   1.629   1.670   1.685   1.741   1.751   1.762
  1.789   1.873   1.919   2.180   2.240   2.350   2.387   2.434
  2.495   2.521   2.529   2.587   2.609   2.624   2.669   2.684
  2.734   2.769   2.791   2.801   2.833   2.847   2.866   2.914
  2.923   2.924   2.944   2.957   2.971   2.999   3.021   3.047
  3.095   3.109   3.122   3.135   3.142   3.178   3.194   3.232
  3.236   3.270   3.295   3.308   3.332   3.335   3.357   3.371
  3.392   3.401   3.425   3.443   3.449   3.467   3.501   3.541
  3.552   3.561   3.572   3.601   3.635   3.650   3.699   3.722
  3.735   3.750   3.768   3.778   3.808   3.817   3.851   3.865
  3.868   3.892   3.921   3.942   3.953   3.977   3.990   3.994
  4.027   4.051   4.057   4.093   4.126   4.156   4.172   4.188
  4.191   4.204   4.212   4.221   4.246   4.286   4.328   4.340
  4.386   4.410   4.427   4.444   4.486   4.527   4.531   4.538
  4.563   4.582   4.600   4.637   4.681   4.710   4.735   4.789
  4.846   4.934   5.094   5.126   5.172   5.203   5.224   5.230
  5.277   5.397   5.408   5.458   5.542   5.584   5.635   5.671
  5.674   5.676   5.706   5.754   5.925   5.970   6.567   6.834
  6.949   7.240   7.483   7.523  24.099  24.115  24.209  24.270
 24.307  49.813
 --------------------------------------------------------------
 
          Ground-State Mulliken Net Atomic Charges

     Atom                 Charge (a.u.)    Spin (a.u.)
  --------------------------------------------------------
      1 C                    -0.166639       0.023603
      2 H                     0.273234      -0.000692
      3 C                    -0.667922      -0.014074
      4 H                     0.209233       0.002386
      5 H                     0.202363       0.003716
      6 H                     0.227665       0.002969
      7 C                    -0.664863      -0.005194
      8 H                     0.204781      -0.000395
      9 H                     0.203810       0.002498
     10 H                     0.204092       0.002665
     11 C                    -0.421794      -0.088168
     12 H                     0.300824       0.006196
     13 H                     0.231987       0.041214
     14 C                    -0.393915       0.642760
     15 H                     0.232698      -0.017598
     16 H                     0.326712      -0.016569
     17 O                    -0.302266       0.414683
  --------------------------------------------------------
  Sum of atomic charges =     0.000000
  Sum of spin   charges =     1.000000

 -----------------------------------------------------------------
                    Cartesian Multipole Moments
 -----------------------------------------------------------------
    Charge (ESU x 10^10)
                 0.0000
    Dipole Moment (Debye)
         X      -2.4689      Y      -0.0024      Z       0.1733
       Tot       2.4750
    Quadrupole Moments (Debye-Ang)
        XX     -49.0822     XY       0.3119     YY     -39.0560
        XZ       1.1170     YZ       0.3403     ZZ     -39.2381
    Octapole Moments (Debye-Ang^2)
       XXX     -26.0482    XXY       1.3403    XYY       5.8973
       YYY      -0.2312    XXZ       0.5613    XYZ       1.2402
       YYZ      -0.7513    XZZ       4.3127    YZZ      -0.1627
       ZZZ      -0.1140
    Hexadecapole Moments (Debye-Ang^3)
      XXXX    -729.5850   XXXY      -0.7340   XXYY    -144.9534
      XYYY       2.0494   YYYY    -235.7033   XXXZ      -0.2220
      XXYZ       4.3129   XYYZ       3.3339   YYYZ       0.5049
      XXZZ    -131.6653   XYZZ       0.8361   YYZZ     -60.7179
      XZZZ       4.5772   YZZZ      -1.1755   ZZZZ    -137.7917
 -----------------------------------------------------------------
 Calculating analytic gradient of the SCF energy
 Gradient of Coulomb and Exchange Energy
            1           2           3           4           5           6
    1   2.3751337   2.4965609   2.7607230   3.8647872  -1.2177894  -1.1981771
    2   0.0815614  -0.2095793  -3.1256043  -1.2592681  -3.5678484  -0.8080639
    3   1.1826954   4.0456395  -0.3578762  -0.6923248   1.5194652  -3.6178828
            7           8           9          10          11          12
    1   3.0857291   4.0561204  -0.1912139  -0.9422908  -0.2280891  -1.3439197
    2   2.4744617   0.1667387   3.8146681   0.8999908  -0.2646803  -3.4121793
    3  -0.4902953  -0.7375139   1.3130473  -3.6053050  -0.0090454   3.1768325
           13          14          15          16          17
    1  -0.4450225   0.2647725   0.5001396  -1.0984151 -12.7390488
    2   3.9486775   2.3446941   2.9650277  -2.9005866  -1.1480098
    3   2.9395253  -0.0452023  -3.7532045  -1.4993008   0.6307457
 Gradient of SCF Energy
            1           2           3           4           5           6
    1  -0.0009704   0.0027709  -0.0002796   0.0045489  -0.0017559  -0.0026170
    2   0.0000595  -0.0001791   0.0013314  -0.0008818  -0.0036321   0.0004195
    3  -0.0012797   0.0046408   0.0015677  -0.0009553   0.0024598  -0.0047822
            7           8           9          10          11          12
    1  -0.0006941   0.0047938  -0.0009163  -0.0022956   0.0006097  -0.0017199
    2  -0.0016825  -0.0003340   0.0044607   0.0003700  -0.0005665  -0.0038076
    3   0.0014237  -0.0008792   0.0021730  -0.0049450  -0.0018495   0.0029388
           13          14          15          16          17
    1  -0.0002608   0.0003301   0.0010881   0.0000677  -0.0026995
    2   0.0043400  -0.0005571   0.0028163  -0.0024700   0.0003133
    3   0.0029302   0.0005504  -0.0036166  -0.0014252   0.0010482
 Max gradient component =       4.945E-03
 RMS gradient           =       2.395E-03
 Gradient time:  CPU 123.18 s  wall 124.05 s
 Geometry Optimization Parameters
   NAtoms,    NIC,     NZ,  NCons,   NDum,   NFix, NCnnct, MaxDiis
       17     123      17       0       0       0       0       0


** GEOMETRY OPTIMIZATION IN DELOCALIZED INTERNAL COORDINATES **
   Searching for a Transition State

   Optimization Cycle:   1

                       Coordinates (Angstroms)
     ATOM              X           Y           Z
      1  C        -1.095226    0.037840   -0.457730
      2  H        -1.644362    0.078813   -1.400987
      3  C        -1.317246    1.359825    0.274222
      4  H        -2.381561    1.550491    0.413779
      5  H        -0.893461    2.197229   -0.281853
      6  H        -0.850885    1.342832    1.260653
      7  C        -1.649261   -1.131463    0.354677
      8  H        -2.722343   -1.016460    0.507137
      9  H        -1.479599   -2.083116   -0.149532
     10  H        -1.184413   -1.180245    1.340040
     11  C         0.381078   -0.158564   -0.828318
     12  H         0.717308    0.656190   -1.471843
     13  H         0.490569   -1.082424   -1.409390
     14  C         1.315387   -0.243866    0.338667
     15  H         1.110985   -0.967226    1.128252
     16  H         1.894261    0.786964    0.780893
     17  O         2.641888    0.066790    0.149218
   Point Group: c1    Number of degrees of freedom:    45


   Energy is   -272.149120097


 Attempting to Generate Delocalized Internal Coordinates
 GETINT wrote B to file, NVib is           45
 calling HSSCONV
 HCONV 3*NATOMS:           51
 wrote HINT to file
  writing hessian 

 45 Hessian modes will be used to form the next step
  Hessian Eigenvalues:
     0.004585    0.005499    0.005566    0.009529    0.021791    0.035084
     0.036191    0.049026    0.049387    0.050047    0.050142    0.055766
     0.056150    0.056805    0.057047    0.088604    0.103766    0.125307
     0.129328    0.160000    0.160000    0.160000    0.160000    0.160000
     0.160000    0.170012    0.172248    0.187401    0.202757    0.219595
     0.289913    0.296258    0.296728    0.326567    0.340293    0.345563
     0.346596    0.346686    0.347091    0.347436    0.347833    0.347864
     0.347928    0.348192    0.410912
**WARNING** Hessian does not have the Desired Local Structure

 Transition State Search - Taking P-RFO Step
 Searching for Lamda that Maximizes Along the Lowest mode
 Value Taken    Lamda =   0.00458520
 Searching for Lamda that Minimizes Along All other modes
 Value Taken    Lamda =  -0.00105263
 Calculated Step too Large.  Step scaled by  0.000709
 Step Taken.  Stepsize is  0.300000

                             Maximum     Tolerance    Cnvgd?
         Gradient           0.012488      0.000300      NO
         Displacement       0.154617      0.001200      NO
         Energy change     *********      0.000001      NO


 New Cartesian Coordinates Obtained by Inverse Iteration

 Displacement from previous Coordinates is:  0.545391
 ----------------------------------------------------
       Standard Nuclear Orientation (Angstroms)
    I     Atom         X            Y            Z
 ----------------------------------------------------
    1      C      -1.095923     0.042384    -0.458035
    2      H      -1.651742     0.045926    -1.398264
    3      C      -1.344805     1.377255     0.241164
    4      H      -2.412473     1.546243     0.383059
    5      H      -0.944562     2.209777    -0.339164
    6      H      -0.872024     1.396834     1.224493
    7      C      -1.616877    -1.118277     0.387964
    8      H      -2.691430    -1.024782     0.544750
    9      H      -1.427732    -2.078389    -0.092738
   10      H      -1.144872    -1.130524     1.371060
   11      C       0.382311    -0.128575    -0.833525
   12      H       0.722363     0.729199    -1.416275
   13      H       0.494623    -1.009334    -1.477584
   14      C       1.310195    -0.296515     0.329618
   15      H       1.101201    -1.073497     1.065217
   16      H       1.887036     0.700194     0.846438
   17      O       2.637832     0.025691     0.169708
 ----------------------------------------------------
 Molecular Point Group                 C1    NOp =  1
 Largest Abelian Subgroup              C1    NOp =  1
 Nuclear Repulsion Energy =   247.7750757461 hartrees
 There are       25 alpha and       24 beta electrons
 Applying Cartesian multipole field
    Component          Value
    ---------          -----
     (2,0,0)        1.00000E-11
     (0,2,0)        2.00000E-11
     (0,0,2)       -3.00000E-11
 Nucleus-field energy     =     0.0000000052 hartrees
 Requested basis set is non-standard
 There are 138 shells and 314 basis functions
 A cutoff of  1.0D-11 yielded   9052 shell pairs
 There are     46604 function pairs (     55949 Cartesian)
 Smallest overlap matrix eigenvalue = 1.93E-05
 Guess MOs from SCF MO coefficient file
Reading MOs from coefficient file
Reading MOs from coefficient file
 An unrestricted hybrid HF-DFT SCF calculation will be
 performed using Pulay DIIS extrapolation
 Exchange:     0.5679 Hartree-Fock + 1.0000 M08SO
 SCF converges when DIIS error is below 1.0E-08
Geometry optimization detected.  Setting ReadMinima to 0
Setting SaveMinima to 0
 Inaccurate integrated density:
   Number of electrons =    49
   Numerical integral  =    48.988671015621
   Relative error      =    -0.0231203763 %
 ---------------------------------------
  Cycle       Energy         DIIS Error
 ---------------------------------------
    1    -272.1430819874      7.27E-04
    2    -272.1486604215      9.36E-05
    3    -272.1488752405      7.02E-05
    4    -272.1489450642      2.78E-05
    5    -272.1489685814      1.45E-05
    6    -272.1489773292      5.20E-06
    7    -272.1489837868      2.81E-06
    8    -272.1489863356      7.91E-07
    9    -272.1489864374      4.10E-07
   10    -272.1489864471      1.36E-07
   11    -272.1489864492      3.92E-08
   12    -272.1489864495      1.91E-08
   13    -272.1489864499      7.30E-09 Convergence criterion met
 ---------------------------------------
 <S^2> = 0.7578
 SCF time:  CPU 1500.20 s  wall 1507.44 s
 SCF   energy in the final basis set = -272.1489864499
 Total energy in the final basis set = -272.1489864499
 Analysis of SCF Wavefunction
 
 --------------------------------------------------------------
                    Orbital Energies (a.u.)
 --------------------------------------------------------------
 
 Alpha MOs
 -- Occupied --
-19.587 -10.570 -10.509 -10.503 -10.489 -10.488  -1.165  -0.926
 -0.822  -0.787  -0.712  -0.648  -0.606  -0.560  -0.545  -0.517
 -0.500  -0.491  -0.464  -0.445  -0.416  -0.407  -0.405  -0.361
 -0.272
 -- Virtual --
 -0.028  -0.016  -0.012  -0.007   0.015   0.015   0.016   0.021
  0.022   0.053   0.057   0.059   0.071   0.074   0.081   0.084
  0.099   0.111   0.118   0.120   0.126   0.129   0.133   0.138
  0.141   0.142   0.147   0.151   0.154   0.160   0.175   0.190
  0.210   0.215   0.222   0.229   0.239   0.249   0.262   0.278
  0.280   0.286   0.287   0.305   0.313   0.324   0.335   0.349
  0.360   0.389   0.398   0.411   0.424   0.458   0.472   0.481
  0.487   0.493   0.509   0.513   0.541   0.560   0.563   0.566
  0.571   0.575   0.581   0.602   0.607   0.621   0.628   0.649
  0.653   0.661   0.673   0.692   0.704   0.705   0.716   0.734
  0.742   0.800   0.807   0.813   0.843   0.857   0.890   0.914
  0.937   0.942   0.953   0.986   0.997   1.036   1.046   1.062
  1.068   1.088   1.108   1.126   1.136   1.142   1.151   1.170
  1.176   1.188   1.203   1.216   1.225   1.241   1.259   1.278
  1.298   1.311   1.321   1.323   1.332   1.339   1.359   1.365
  1.373   1.392   1.402   1.425   1.431   1.452   1.465   1.470
  1.499   1.507   1.520   1.524   1.562   1.579   1.591   1.602
  1.622   1.624   1.666   1.685   1.736   1.746   1.755   1.778
  1.863   1.896   2.172   2.219   2.340   2.386   2.435   2.485
  2.516   2.524   2.575   2.605   2.615   2.656   2.666   2.729
  2.752   2.763   2.796   2.822   2.847   2.856   2.870   2.912
  2.922   2.933   2.953   2.958   2.965   3.002   3.032   3.071
  3.079   3.107   3.120   3.123   3.161   3.167   3.208   3.226
  3.264   3.271   3.289   3.307   3.316   3.351   3.363   3.372
  3.392   3.414   3.431   3.447   3.460   3.473   3.512   3.539
  3.556   3.565   3.590   3.617   3.638   3.683   3.720   3.721
  3.740   3.754   3.765   3.804   3.811   3.847   3.851   3.862
  3.887   3.906   3.936   3.941   3.973   3.987   3.988   4.015
  4.049   4.059   4.073   4.115   4.156   4.164   4.178   4.187
  4.197   4.207   4.222   4.242   4.285   4.329   4.338   4.379
  4.390   4.410   4.430   4.484   4.521   4.526   4.537   4.558
  4.583   4.593   4.626   4.680   4.698   4.724   4.744   4.845
  4.914   5.057   5.090   5.141   5.159   5.212   5.230   5.280
  5.394   5.403   5.460   5.501   5.582   5.636   5.671   5.674
  5.674   5.707   5.741   5.908   5.978   6.585   6.803   6.914
  7.251   7.441   7.542  24.098  24.112  24.209  24.267  24.302
 49.813
 
 Beta MOs
 -- Occupied --
-19.573 -10.561 -10.509 -10.503 -10.489 -10.487  -1.134  -0.925
 -0.817  -0.786  -0.698  -0.639  -0.562  -0.555  -0.536  -0.505
 -0.496  -0.478  -0.462  -0.441  -0.413  -0.404  -0.403  -0.353
 -- Virtual --
 -0.043  -0.026  -0.018  -0.013  -0.008   0.013   0.015   0.016
  0.018   0.020   0.053   0.055   0.058   0.068   0.072   0.079
  0.082   0.104   0.111   0.117   0.120   0.125   0.128   0.132
  0.136   0.139   0.141   0.145   0.150   0.154   0.161   0.176
  0.192   0.208   0.215   0.222   0.232   0.239   0.251   0.262
  0.279   0.280   0.287   0.291   0.308   0.313   0.326   0.336
  0.352   0.363   0.391   0.397   0.413   0.424   0.461   0.475
  0.482   0.489   0.495   0.512   0.517   0.549   0.561   0.564
  0.566   0.574   0.582   0.583   0.606   0.609   0.623   0.630
  0.652   0.656   0.665   0.676   0.692   0.704   0.710   0.719
  0.738   0.746   0.802   0.808   0.816   0.845   0.860   0.893
  0.920   0.941   0.945   0.954   0.992   1.003   1.038   1.053
  1.067   1.073   1.092   1.111   1.129   1.138   1.142   1.157
  1.174   1.182   1.193   1.206   1.220   1.234   1.250   1.268
  1.278   1.302   1.312   1.323   1.325   1.334   1.343   1.362
  1.368   1.373   1.395   1.403   1.432   1.438   1.454   1.468
  1.476   1.502   1.514   1.523   1.531   1.563   1.581   1.595
  1.603   1.623   1.627   1.669   1.687   1.741   1.752   1.764
  1.789   1.871   1.916   2.177   2.240   2.346   2.391   2.436
  2.496   2.520   2.527   2.585   2.613   2.625   2.667   2.679
  2.738   2.766   2.796   2.798   2.832   2.848   2.868   2.913
  2.923   2.926   2.944   2.958   2.972   2.998   3.022   3.041
  3.096   3.105   3.126   3.130   3.143   3.177   3.188   3.235
  3.238   3.272   3.291   3.306   3.330   3.336   3.354   3.370
  3.393   3.397   3.427   3.445   3.450   3.475   3.500   3.530
  3.554   3.567   3.572   3.605   3.637   3.650   3.698   3.723
  3.726   3.749   3.767   3.778   3.815   3.821   3.857   3.860
  3.872   3.894   3.919   3.941   3.951   3.980   3.990   3.993
  4.025   4.052   4.063   4.088   4.125   4.156   4.170   4.184
  4.190   4.200   4.210   4.224   4.247   4.290   4.334   4.340
  4.386   4.408   4.427   4.435   4.491   4.528   4.531   4.537
  4.558   4.585   4.598   4.642   4.680   4.702   4.735   4.793
  4.846   4.938   5.094   5.124   5.172   5.202   5.223   5.232
  5.280   5.398   5.405   5.457   5.542   5.583   5.635   5.671
  5.673   5.675   5.707   5.755   5.923   5.970   6.570   6.834
  6.949   7.239   7.483   7.524  24.099  24.115  24.209  24.270
 24.307  49.812
 --------------------------------------------------------------
 
          Ground-State Mulliken Net Atomic Charges

     Atom                 Charge (a.u.)    Spin (a.u.)
  --------------------------------------------------------
      1 C                    -0.134582       0.035042
      2 H                     0.274881      -0.000269
      3 C                    -0.663440      -0.014735
      4 H                     0.207429       0.001763
      5 H                     0.193759       0.003270
      6 H                     0.220737       0.002730
      7 C                    -0.694111      -0.008391
      8 H                     0.205146      -0.000435
      9 H                     0.213867       0.002799
     10 H                     0.207465       0.002397
     11 C                    -0.431477      -0.093565
     12 H                     0.298026       0.005444
     13 H                     0.232130       0.042541
     14 C                    -0.383760       0.639682
     15 H                     0.234699      -0.017185
     16 H                     0.323351      -0.015945
     17 O                    -0.304121       0.414857
  --------------------------------------------------------
  Sum of atomic charges =     0.000000
  Sum of spin   charges =     1.000000

 -----------------------------------------------------------------
                    Cartesian Multipole Moments
 -----------------------------------------------------------------
    Charge (ESU x 10^10)
                 0.0000
    Dipole Moment (Debye)
         X      -2.4688      Y      -0.0261      Z       0.1575
       Tot       2.4740
    Quadrupole Moments (Debye-Ang)
        XX     -49.0675     XY       0.3405     YY     -39.1081
        XZ       1.0763     YZ       0.3681     ZZ     -39.1797
    Octapole Moments (Debye-Ang^2)
       XXX     -25.9443    XXY       1.6018    XYY       5.7007
       YYY      -0.0702    XXZ       0.4008    XYZ       1.3137
       YYZ      -0.7810    XZZ       4.5537    YZZ       0.0818
       ZZZ      -0.2642
    Hexadecapole Moments (Debye-Ang^3)
      XXXX    -726.1235   XXXY       6.7433   XXYY    -145.4578
      XYYY       7.6839   YYYY    -237.3510   XXXZ      -1.4585
      XXYZ       5.4251   XYYZ       2.9793   YYYZ       2.8013
      XXZZ    -130.7646   XYZZ       3.0722   YYZZ     -60.9045
      XZZZ       4.1375   YZZZ       2.4715   ZZZZ    -138.7280
 -----------------------------------------------------------------
 Calculating analytic gradient of the SCF energy
 Gradient of Coulomb and Exchange Energy
            1           2           3           4           5           6
    1   2.3224418   2.5170599   2.6318423   3.8717841  -1.1194901  -1.1739628
    2   0.5803169  -0.0681946  -3.2539455  -1.1949850  -3.5521483  -0.9363536
    3   1.1475184   4.0308196  -0.3907872  -0.6881664   1.6202938  -3.5814403
            7           8           9          10          11          12
    1   3.2699711   4.0763097  -0.2879578  -1.0117468  -0.1371775  -1.3940576
    2   2.3365001   0.2190030   3.8425224   0.7865820  -0.4922572  -3.5781015
    3  -0.5125822  -0.7707303   1.2212659  -3.6074984   0.0862286   2.9157961
           13          14          15          16          17
    1  -0.4464092   0.1621264   0.5523726  -1.0920082 -12.7410980
    2   3.7710254   2.2016833   3.2456650  -2.7828801  -1.1244325
    3   3.2001524   0.0679481  -3.5152406  -1.7111586   0.4875810
 Gradient of SCF Energy
            1           2           3           4           5           6
    1  -0.0009362   0.0028707  -0.0004774   0.0045646  -0.0015352  -0.0027147
    2  -0.0002199  -0.0002768   0.0014620  -0.0007622  -0.0035298   0.0002479
    3  -0.0011344   0.0046256   0.0012925  -0.0010781   0.0025766  -0.0048310
            7           8           9          10          11          12
    1  -0.0003685   0.0047731  -0.0010457  -0.0021390   0.0005281  -0.0016500
    2  -0.0016132  -0.0002240   0.0046804   0.0000572  -0.0003226  -0.0038191
    3   0.0016646  -0.0007799   0.0020649  -0.0048918  -0.0021447   0.0030103
           13          14          15          16          17
    1  -0.0004195   0.0002715   0.0009271  -0.0000679  -0.0025810
    2   0.0044120  -0.0008417   0.0030490  -0.0023672   0.0000680
    3   0.0029299   0.0005523  -0.0032143  -0.0016331   0.0009904
 Max gradient component =       4.892E-03
 RMS gradient           =       2.395E-03
 Gradient time:  CPU 126.77 s  wall 127.16 s
 Geometry Optimization Parameters
   NAtoms,    NIC,     NZ,  NCons,   NDum,   NFix, NCnnct, MaxDiis
       17     123      17       0       0       0       0       0

 Cartesian Hessian Update
 Hessian Updated using Powell/Murtagh-Sargent Update
  Mixing factors:     0.000005 Powell
                      0.999995 Murtagh-Sargent


** GEOMETRY OPTIMIZATION IN DELOCALIZED INTERNAL COORDINATES **
   Searching for a Transition State

   Optimization Cycle:   2

                       Coordinates (Angstroms)
     ATOM              X           Y           Z
      1  C        -1.095923    0.042384   -0.458035
      2  H        -1.651742    0.045926   -1.398264
      3  C        -1.344805    1.377255    0.241164
      4  H        -2.412473    1.546243    0.383059
      5  H        -0.944562    2.209777   -0.339164
      6  H        -0.872024    1.396834    1.224493
      7  C        -1.616877   -1.118277    0.387964
      8  H        -2.691430   -1.024782    0.544750
      9  H        -1.427732   -2.078389   -0.092738
     10  H        -1.144872   -1.130524    1.371060
     11  C         0.382311   -0.128575   -0.833525
     12  H         0.722363    0.729199   -1.416275
     13  H         0.494623   -1.009334   -1.477584
     14  C         1.310195   -0.296515    0.329618
     15  H         1.101201   -1.073497    1.065217
     16  H         1.887036    0.700194    0.846438
     17  O         2.637832    0.025691    0.169708
   Point Group: c1    Number of degrees of freedom:    45


   Energy is   -272.148986450

 GETINT wrote B to file, NVib is           45
 Hessian Updated using Powell/Murtagh-Sargent Update
  Mixing factors:     0.854709 Powell
                      0.145291 Murtagh-Sargent

 44 Hessian modes will be used to form the next step
  Hessian Eigenvalues:
     0.002375    0.005539    0.005733    0.009561    0.021787    0.035078
     0.036155    0.049023    0.049385    0.050019    0.050132    0.055756
     0.056150    0.056803    0.057043    0.088599    0.103755    0.125291
     0.129320    0.159973    0.160000    0.160000    0.160000    0.160000
     0.169708    0.172225    0.187393    0.202757    0.219084    0.289777
     0.296257    0.296727    0.326567    0.340288    0.345562    0.346596
     0.346679    0.347082    0.347422    0.347801    0.347864    0.347909
     0.348191    0.410911
**WARNING** Hessian does not have the Desired Local Structure

 Transition State Search - Taking P-RFO Step
 Searching for Lamda that Maximizes Along the Lowest mode
 Value Taken    Lamda =   0.00255766
 Searching for Lamda that Minimizes Along All other modes
 Value Taken    Lamda =  -0.00110379
 Calculated Step too Large.  Step scaled by  0.080083
 Step Taken.  Stepsize is  0.300000

                             Maximum     Tolerance    Cnvgd?
         Gradient           0.012504      0.000300      NO
         Displacement       0.153416      0.001200      NO
         Energy change      0.000134      0.000001      NO


 New Cartesian Coordinates Obtained by Inverse Iteration

 Displacement from previous Coordinates is:  0.535175
 ----------------------------------------------------
       Standard Nuclear Orientation (Angstroms)
    I     Atom         X            Y            Z
 ----------------------------------------------------
    1      C      -1.096097     0.046678    -0.457416
    2      H      -1.656659     0.015005    -1.395140
    3      C      -1.368680     1.392619     0.211969
    4      H      -2.438065     1.535576     0.372856
    5      H      -1.004196     2.220612    -0.398415
    6      H      -0.876133     1.450866     1.184896
    7      C      -1.592804    -1.103087     0.418601
    8      H      -2.672761    -1.039269     0.555579
    9      H      -1.365420    -2.072868    -0.026867
   10      H      -1.137374    -1.067135     1.409423
   11      C       0.384971    -0.102733    -0.835618
   12      H       0.728322     0.792982    -1.357394
   13      H       0.500791    -0.937998    -1.538317
   14      C       1.309426    -0.347623     0.317128
   15      H       1.104914    -1.178686     0.992870
   16      H       1.877709     0.613183     0.907791
   17      O       2.635176    -0.004513     0.185937
 ----------------------------------------------------
 Molecular Point Group                 C1    NOp =  1
 Largest Abelian Subgroup              C1    NOp =  1
 Nuclear Repulsion Energy =   247.6477060638 hartrees
 There are       25 alpha and       24 beta electrons
 Applying Cartesian multipole field
    Component          Value
    ---------          -----
     (2,0,0)        1.00000E-11
     (0,2,0)        2.00000E-11
     (0,0,2)       -3.00000E-11
 Nucleus-field energy     =     0.0000000052 hartrees
 Requested basis set is non-standard
 There are 138 shells and 314 basis functions
 A cutoff of  1.0D-11 yielded   9050 shell pairs
 There are     46596 function pairs (     55941 Cartesian)
 Smallest overlap matrix eigenvalue = 1.85E-05
 Guess MOs from SCF MO coefficient file
Reading MOs from coefficient file
Reading MOs from coefficient file
 An unrestricted hybrid HF-DFT SCF calculation will be
 performed using Pulay DIIS extrapolation
 Exchange:     0.5679 Hartree-Fock + 1.0000 M08SO
 SCF converges when DIIS error is below 1.0E-08
Geometry optimization detected.  Setting ReadMinima to 0
Setting SaveMinima to 0
 Inaccurate integrated density:
   Number of electrons =    49
   Numerical integral  =    48.986867707957
   Relative error      =    -0.0268005960 %
 ---------------------------------------
  Cycle       Energy         DIIS Error
 ---------------------------------------
    1    -272.1419079990      7.03E-04
    2    -272.1484123783      9.67E-05
    3    -272.1486496136      7.59E-05
    4    -272.1487296526      2.94E-05
    5    -272.1487570318      1.44E-05
    6    -272.1487669113      5.50E-06
    7    -272.1487741475      2.91E-06
    8    -272.1487768371      8.11E-07
    9    -272.1487769507      4.52E-07
   10    -272.1487769642      1.61E-07
   11    -272.1487769673      4.64E-08
   12    -272.1487769678      2.15E-08
   13    -272.1487769681      8.60E-09 Convergence criterion met
 ---------------------------------------
 <S^2> = 0.7578
 SCF time:  CPU 1505.61 s  wall 1512.96 s
 SCF   energy in the final basis set = -272.1487769681
 Total energy in the final basis set = -272.1487769681
 Analysis of SCF Wavefunction
 
 --------------------------------------------------------------
                    Orbital Energies (a.u.)
 --------------------------------------------------------------
 
 Alpha MOs
 -- Occupied --
-19.587 -10.570 -10.509 -10.503 -10.490 -10.488  -1.165  -0.926
 -0.822  -0.786  -0.711  -0.648  -0.606  -0.560  -0.545  -0.516
 -0.501  -0.491  -0.463  -0.445  -0.415  -0.407  -0.405  -0.362
 -0.272
 -- Virtual --
 -0.028  -0.016  -0.012  -0.007   0.014   0.015   0.017   0.021
  0.022   0.053   0.056   0.059   0.072   0.074   0.080   0.084
  0.099   0.111   0.118   0.121   0.126   0.129   0.133   0.138
  0.140   0.142   0.147   0.151   0.155   0.161   0.176   0.187
  0.209   0.215   0.223   0.231   0.237   0.249   0.260   0.276
  0.281   0.286   0.289   0.306   0.312   0.323   0.335   0.349
  0.360   0.387   0.398   0.413   0.424   0.457   0.472   0.482
  0.488   0.495   0.512   0.513   0.538   0.559   0.562   0.566
  0.569   0.578   0.580   0.601   0.609   0.620   0.630   0.651
  0.652   0.663   0.673   0.692   0.704   0.707   0.722   0.729
  0.747   0.797   0.806   0.815   0.841   0.854   0.891   0.915
  0.932   0.943   0.958   0.984   0.993   1.036   1.048   1.063
  1.071   1.087   1.105   1.126   1.136   1.139   1.155   1.165
  1.171   1.195   1.206   1.214   1.218   1.242   1.272   1.277
  1.296   1.309   1.315   1.328   1.336   1.341   1.357   1.364
  1.370   1.394   1.402   1.423   1.427   1.455   1.464   1.474
  1.504   1.506   1.516   1.527   1.557   1.581   1.589   1.601
  1.616   1.625   1.664   1.686   1.737   1.742   1.756   1.775
  1.858   1.893   2.165   2.220   2.339   2.388   2.436   2.489
  2.515   2.526   2.573   2.606   2.616   2.653   2.671   2.728
  2.750   2.764   2.795   2.818   2.849   2.859   2.868   2.917
  2.920   2.933   2.947   2.959   2.969   3.004   3.025   3.063
  3.078   3.111   3.119   3.125   3.155   3.167   3.205   3.230
  3.260   3.271   3.289   3.305   3.315   3.350   3.361   3.365
  3.393   3.409   3.437   3.449   3.468   3.471   3.499   3.541
  3.561   3.583   3.594   3.612   3.647   3.679   3.712   3.719
  3.735   3.755   3.762   3.804   3.817   3.838   3.857   3.865
  3.880   3.906   3.935   3.943   3.976   3.984   3.987   4.014
  4.053   4.063   4.066   4.117   4.153   4.157   4.175   4.183
  4.192   4.205   4.223   4.239   4.286   4.330   4.344   4.374
  4.378   4.414   4.430   4.488   4.521   4.526   4.535   4.549
  4.579   4.589   4.628   4.678   4.687   4.719   4.748   4.847
  4.916   5.057   5.085   5.141   5.158   5.213   5.230   5.280
  5.390   5.399   5.457   5.502   5.577   5.633   5.666   5.671
  5.673   5.707   5.741   5.907   5.977   6.587   6.803   6.913
  7.250   7.440   7.543  24.096  24.110  24.206  24.263  24.297
 49.813
 
 Beta MOs
 -- Occupied --
-19.573 -10.561 -10.509 -10.503 -10.490 -10.488  -1.134  -0.924
 -0.817  -0.786  -0.698  -0.639  -0.562  -0.555  -0.536  -0.504
 -0.496  -0.478  -0.462  -0.441  -0.412  -0.404  -0.402  -0.353
 -- Virtual --
 -0.043  -0.026  -0.018  -0.013  -0.008   0.013   0.015   0.016
  0.019   0.020   0.053   0.055   0.058   0.068   0.071   0.079
  0.081   0.104   0.111   0.117   0.120   0.125   0.128   0.131
  0.136   0.139   0.141   0.145   0.150   0.156   0.162   0.177
  0.189   0.208   0.215   0.223   0.234   0.237   0.252   0.260
  0.277   0.283   0.286   0.290   0.308   0.313   0.325   0.336
  0.353   0.363   0.389   0.398   0.415   0.425   0.461   0.475
  0.482   0.490   0.498   0.515   0.516   0.548   0.560   0.563
  0.567   0.569   0.581   0.584   0.604   0.612   0.622   0.632
  0.654   0.656   0.666   0.675   0.692   0.707   0.709   0.726
  0.734   0.750   0.799   0.808   0.818   0.843   0.858   0.893
  0.923   0.935   0.944   0.960   0.992   0.996   1.038   1.054
  1.072   1.075   1.089   1.109   1.129   1.137   1.144   1.159
  1.168   1.177   1.199   1.208   1.219   1.227   1.252   1.275
  1.282   1.300   1.311   1.318   1.329   1.339   1.344   1.360
  1.367   1.371   1.399   1.403   1.427   1.434   1.457   1.468
  1.478   1.507   1.512   1.520   1.533   1.558   1.582   1.594
  1.601   1.617   1.627   1.666   1.688   1.742   1.748   1.763
  1.787   1.866   1.914   2.170   2.241   2.345   2.393   2.437
  2.500   2.520   2.527   2.582   2.613   2.629   2.663   2.683
  2.737   2.763   2.794   2.799   2.829   2.850   2.872   2.911
  2.922   2.929   2.943   2.959   2.974   2.997   3.023   3.036
  3.092   3.096   3.127   3.135   3.147   3.172   3.183   3.231
  3.244   3.271   3.288   3.303   3.323   3.338   3.352   3.368
  3.388   3.398   3.423   3.449   3.454   3.483   3.502   3.517
  3.553   3.568   3.589   3.614   3.636   3.657   3.694   3.717
  3.723   3.744   3.761   3.780   3.816   3.827   3.850   3.862
  3.876   3.892   3.918   3.940   3.951   3.980   3.988   3.994
  4.025   4.057   4.066   4.079   4.126   4.154   4.164   4.179
  4.186   4.196   4.208   4.225   4.243   4.291   4.335   4.346
  4.380   4.398   4.429   4.432   4.496   4.525   4.534   4.535
  4.548   4.584   4.593   4.643   4.679   4.691   4.730   4.796
  4.848   4.940   5.093   5.120   5.171   5.202   5.221   5.234
  5.280   5.396   5.400   5.454   5.541   5.578   5.632   5.666
  5.671   5.674   5.707   5.755   5.922   5.969   6.572   6.834
  6.949   7.238   7.483   7.525  24.096  24.113  24.206  24.267
 24.302  49.812
 --------------------------------------------------------------
 
          Ground-State Mulliken Net Atomic Charges

     Atom                 Charge (a.u.)    Spin (a.u.)
  --------------------------------------------------------
      1 C                    -0.087952       0.046179
      2 H                     0.273409       0.000097
      3 C                    -0.665466      -0.014082
      4 H                     0.204548       0.001241
      5 H                     0.188284       0.002618
      6 H                     0.214647       0.002099
      7 C                    -0.735143      -0.011439
      8 H                     0.206231      -0.000491
      9 H                     0.225002       0.002875
     10 H                     0.215693       0.001969
     11 C                    -0.430830      -0.100141
     12 H                     0.291216       0.004657
     13 H                     0.229631       0.044081
     14 C                    -0.382326       0.638536
     15 H                     0.237570      -0.016644
     16 H                     0.321253      -0.016308
     17 O                    -0.305766       0.414752
  --------------------------------------------------------
  Sum of atomic charges =     0.000000
  Sum of spin   charges =     1.000000

 -----------------------------------------------------------------
                    Cartesian Multipole Moments
 -----------------------------------------------------------------
    Charge (ESU x 10^10)
                 0.0000
    Dipole Moment (Debye)
         X      -2.4657      Y      -0.0649      Z       0.1450
       Tot       2.4709
    Quadrupole Moments (Debye-Ang)
        XX     -49.0651     XY       0.2965     YY     -39.1614
        XZ       1.0446     YZ       0.3953     ZZ     -39.1235
    Octapole Moments (Debye-Ang^2)
       XXX     -25.9035    XXY       1.6267    XYY       5.5144
       YYY      -0.0229    XXZ       0.2715    XYZ       1.3570
       YYZ      -0.7958    XZZ       4.8036    YZZ       0.3179
       ZZZ      -0.3602
    Hexadecapole Moments (Debye-Ang^3)
      XXXX    -724.7053   XXXY      13.0157   XXYY    -146.3433
      XYYY      12.4362   YYYY    -238.9314   XXXZ      -2.3049
      XXYZ       6.3463   XYYZ       2.6922   YYYZ       4.6793
      XXZZ    -130.1212   XYZZ       4.9637   YYZZ     -61.2474
      XZZZ       4.0180   YZZZ       5.7839   ZZZZ    -139.3108
 -----------------------------------------------------------------
 Calculating analytic gradient of the SCF energy
 Gradient of Coulomb and Exchange Energy
            1           2           3           4           5           6
    1   2.1634275   2.5446082   2.5973694   3.8634129  -0.9825818  -1.2072209
    2   1.0468984   0.0619033  -3.3269744  -1.1108560  -3.5350727  -1.0761924
    3   1.1912736   4.0182698  -0.4918613  -0.7502711   1.7521130  -3.5098093
            7           8           9          10          11          12
    1   3.4250257   4.1165092  -0.4476400  -1.0060183   0.0163642  -1.4506285
    2   2.1649725   0.2997287   3.8500589   0.6442710  -0.7193652  -3.7077033
    3  -0.6029490  -0.7103244   1.0693896  -3.6131830   0.3094681   2.6445288
           13          14          15          16          17
    1  -0.4590141   0.0317189   0.5717038  -1.0511080 -12.7259282
    2   3.5753477   2.1446616   3.5097461  -2.6478078  -1.1736162
    3   3.4170004   0.0823284  -3.2508433  -1.9255621   0.3704319
 Gradient of SCF Energy
            1           2           3           4           5           6
    1  -0.0006709   0.0026209  -0.0005045   0.0042203  -0.0012395  -0.0026451
    2  -0.0000267  -0.0005792   0.0015524  -0.0005906  -0.0032324   0.0000932
    3  -0.0008283   0.0041749   0.0009493  -0.0011123   0.0025212  -0.0043475
            7           8           9          10          11          12
    1  -0.0001344   0.0044100  -0.0011047  -0.0021558   0.0004141  -0.0015322
    2  -0.0012877  -0.0000771   0.0043170  -0.0001764  -0.0004957  -0.0033895
    3   0.0017573  -0.0006039   0.0017005  -0.0045745  -0.0018626   0.0028660
           13          14          15          16          17
    1  -0.0004209   0.0003160   0.0009229  -0.0001861  -0.0023102
    2   0.0039852  -0.0008006   0.0030537  -0.0021838  -0.0001618
    3   0.0024601   0.0004622  -0.0026634  -0.0016891   0.0007901
 Max gradient component =       4.575E-03
 RMS gradient           =       2.196E-03
 Gradient time:  CPU 130.87 s  wall 131.12 s
 Geometry Optimization Parameters
   NAtoms,    NIC,     NZ,  NCons,   NDum,   NFix, NCnnct, MaxDiis
       17     123      17       0       0       0       0       0

 Cartesian Hessian Update
 Hessian Updated using Powell/Murtagh-Sargent Update
  Mixing factors:     0.952007 Powell
                      0.047993 Murtagh-Sargent


** GEOMETRY OPTIMIZATION IN DELOCALIZED INTERNAL COORDINATES **
   Searching for a Transition State

   Optimization Cycle:   3

                       Coordinates (Angstroms)
     ATOM              X           Y           Z
      1  C        -1.096097    0.046678   -0.457416
      2  H        -1.656659    0.015005   -1.395140
      3  C        -1.368680    1.392619    0.211969
      4  H        -2.438065    1.535576    0.372856
      5  H        -1.004196    2.220612   -0.398415
      6  H        -0.876133    1.450866    1.184896
      7  C        -1.592804   -1.103087    0.418601
      8  H        -2.672761   -1.039269    0.555579
      9  H        -1.365420   -2.072868   -0.026867
     10  H        -1.137374   -1.067135    1.409423
     11  C         0.384971   -0.102733   -0.835618
     12  H         0.728322    0.792982   -1.357394
     13  H         0.500791   -0.937998   -1.538317
     14  C         1.309426   -0.347623    0.317128
     15  H         1.104914   -1.178686    0.992870
     16  H         1.877709    0.613183    0.907791
     17  O         2.635176   -0.004513    0.185937
   Point Group: c1    Number of degrees of freedom:    45


   Energy is   -272.148776968

 GETINT wrote B to file, NVib is           45
 Hessian Updated using Powell/Murtagh-Sargent Update
  Mixing factors:     0.984544 Powell
                      0.015456 Murtagh-Sargent

 42 Hessian modes will be used to form the next step
  Hessian Eigenvalues:
     0.001830    0.005553    0.005778    0.009582    0.021787    0.035051
     0.036155    0.049023    0.049382    0.050018    0.050129    0.055753
     0.056149    0.056803    0.057042    0.088595    0.103754    0.125290
     0.129317    0.159958    0.159986    0.160000    0.169685    0.172221
     0.187365    0.202757    0.218975    0.289777    0.296257    0.296721
     0.326567    0.340271    0.345560    0.346595    0.346680    0.347081
     0.347409    0.347801    0.347863    0.347909    0.348191    0.410911
**WARNING** Hessian does not have the Desired Local Structure

 Transition State Search - Taking P-RFO Step
 Searching for Lamda that Maximizes Along the Lowest mode
 Value Taken    Lamda =   0.00229825
 Searching for Lamda that Minimizes Along All other modes
 Value Taken    Lamda =  -0.00108189
 Calculated Step too Large.  Step scaled by  0.134955
 Step Taken.  Stepsize is  0.300000

                             Maximum     Tolerance    Cnvgd?
         Gradient           0.011560      0.000300      NO
         Displacement       0.160267      0.001200      NO
         Energy change      0.000209      0.000001      NO


 New Cartesian Coordinates Obtained by Inverse Iteration

 Displacement from previous Coordinates is:  0.525439
 ----------------------------------------------------
       Standard Nuclear Orientation (Angstroms)
    I     Atom         X            Y            Z
 ----------------------------------------------------
    1      C      -1.096350     0.051501    -0.459528
    2      H      -1.661915    -0.010587    -1.393789
    3      C      -1.388234     1.406050     0.184698
    4      H      -2.455577     1.518992     0.384753
    5      H      -1.074771     2.229152    -0.460996
    6      H      -0.859983     1.505099     1.136633
    7      C      -1.569536    -1.086929     0.445385
    8      H      -2.654311    -1.056757     0.560959
    9      H      -1.300203    -2.063621     0.037099
   10      H      -1.133265    -1.001381     1.442968
   11      C       0.387838    -0.079307    -0.837890
   12      H       0.737448     0.846268    -1.302003
   13      H       0.507577    -0.870946    -1.589845
   14      C       1.304714    -0.395713     0.304277
   15      H       1.103334    -1.275573     0.917237
   16      H       1.858428     0.527276     0.967539
   17      O       2.627926    -0.029912     0.210390
 ----------------------------------------------------
 Molecular Point Group                 C1    NOp =  1
 Largest Abelian Subgroup              C1    NOp =  1
 Nuclear Repulsion Energy =   247.6032872479 hartrees
 There are       25 alpha and       24 beta electrons
 Applying Cartesian multipole field
    Component          Value
    ---------          -----
     (2,0,0)        1.00000E-11
     (0,2,0)        2.00000E-11
     (0,0,2)       -3.00000E-11
 Nucleus-field energy     =     0.0000000052 hartrees
 Requested basis set is non-standard
 There are 138 shells and 314 basis functions
 A cutoff of  1.0D-11 yielded   9049 shell pairs
 There are     46601 function pairs (     55950 Cartesian)
 Smallest overlap matrix eigenvalue = 1.74E-05
 Guess MOs from SCF MO coefficient file
Reading MOs from coefficient file
Reading MOs from coefficient file
 An unrestricted hybrid HF-DFT SCF calculation will be
 performed using Pulay DIIS extrapolation
 Exchange:     0.5679 Hartree-Fock + 1.0000 M08SO
 SCF converges when DIIS error is below 1.0E-08
Geometry optimization detected.  Setting ReadMinima to 0
Setting SaveMinima to 0
 Inaccurate integrated density:
   Number of electrons =    49
   Numerical integral  =    48.986699397286
   Relative error      =    -0.0271440872 %
 ---------------------------------------
  Cycle       Energy         DIIS Error
 ---------------------------------------
    1    -272.1419365351      6.93E-04
    2    -272.1481722126      9.68E-05
    3    -272.1484152996      7.41E-05
    4    -272.1484915217      2.93E-05
    5    -272.1485176218      1.44E-05
    6    -272.1485266498      5.25E-06
    7    -272.1485331966      2.78E-06
    8    -272.1485356006      8.34E-07
    9    -272.1485357300      4.80E-07
   10    -272.1485357475      1.80E-07
   11    -272.1485357515      5.60E-08
   12    -272.1485357521      2.01E-08
   13    -272.1485357526      8.82E-09 Convergence criterion met
 ---------------------------------------
 <S^2> = 0.7578
 SCF time:  CPU 1509.21 s  wall 1518.18 s
 SCF   energy in the final basis set = -272.1485357526
 Total energy in the final basis set = -272.1485357526
 Analysis of SCF Wavefunction
 
 --------------------------------------------------------------
                    Orbital Energies (a.u.)
 --------------------------------------------------------------
 
 Alpha MOs
 -- Occupied --
-19.587 -10.571 -10.510 -10.503 -10.490 -10.488  -1.164  -0.925
 -0.821  -0.786  -0.711  -0.648  -0.605  -0.560  -0.545  -0.516
 -0.501  -0.490  -0.463  -0.445  -0.415  -0.407  -0.405  -0.362
 -0.272
 -- Virtual --
 -0.028  -0.016  -0.012  -0.007   0.014   0.015   0.017   0.022
  0.022   0.053   0.055   0.060   0.072   0.074   0.079   0.083
  0.099   0.111   0.118   0.121   0.125   0.128   0.133   0.138
  0.139   0.142   0.147   0.151   0.156   0.163   0.176   0.185
  0.208   0.215   0.224   0.233   0.235   0.249   0.257   0.274
  0.276   0.288   0.293   0.309   0.313   0.321   0.337   0.350
  0.360   0.385   0.399   0.415   0.424   0.457   0.471   0.482
  0.489   0.495   0.511   0.515   0.535   0.557   0.560   0.562
  0.571   0.579   0.580   0.599   0.612   0.618   0.630   0.651
  0.651   0.667   0.672   0.690   0.703   0.711   0.721   0.730
  0.754   0.792   0.805   0.819   0.841   0.847   0.892   0.911
  0.934   0.945   0.964   0.978   0.998   1.036   1.049   1.061
  1.074   1.084   1.104   1.126   1.132   1.140   1.158   1.165
  1.168   1.194   1.204   1.216   1.220   1.245   1.271   1.285
  1.295   1.308   1.314   1.326   1.342   1.350   1.358   1.363
  1.367   1.391   1.405   1.419   1.423   1.456   1.464   1.476
  1.503   1.506   1.516   1.529   1.552   1.579   1.588   1.598
  1.610   1.624   1.660   1.683   1.732   1.743   1.757   1.771
  1.851   1.893   2.158   2.222   2.341   2.389   2.438   2.492
  2.512   2.528   2.571   2.600   2.624   2.654   2.679   2.723
  2.745   2.765   2.797   2.816   2.851   2.860   2.869   2.917
  2.923   2.934   2.943   2.958   2.972   3.007   3.020   3.056
  3.075   3.109   3.123   3.126   3.151   3.167   3.200   3.233
  3.259   3.273   3.290   3.300   3.318   3.348   3.355   3.360
  3.394   3.403   3.440   3.449   3.461   3.472   3.501   3.541
  3.571   3.594   3.605   3.615   3.656   3.674   3.704   3.718
  3.728   3.750   3.765   3.802   3.816   3.833   3.858   3.865
  3.876   3.908   3.936   3.947   3.977   3.985   3.987   4.015
  4.052   4.058   4.069   4.123   4.147   4.155   4.173   4.181
  4.189   4.202   4.221   4.236   4.285   4.329   4.352   4.361
  4.371   4.417   4.437   4.488   4.520   4.527   4.531   4.546
  4.573   4.583   4.629   4.675   4.677   4.712   4.749   4.849
  4.916   5.057   5.080   5.143   5.158   5.214   5.231   5.279
  5.384   5.397   5.455   5.504   5.571   5.628   5.659   5.666
  5.672   5.707   5.742   5.907   5.976   6.590   6.803   6.913
  7.250   7.441   7.544  24.092  24.108  24.201  24.258  24.292
 49.812
 
 Beta MOs
 -- Occupied --
-19.573 -10.561 -10.509 -10.503 -10.490 -10.488  -1.134  -0.924
 -0.817  -0.786  -0.697  -0.639  -0.562  -0.554  -0.536  -0.504
 -0.496  -0.478  -0.461  -0.441  -0.412  -0.404  -0.402  -0.353
 -- Virtual --
 -0.043  -0.026  -0.019  -0.013  -0.008   0.013   0.015   0.016
  0.019   0.020   0.052   0.054   0.059   0.068   0.071   0.078
  0.081   0.103   0.111   0.118   0.120   0.125   0.127   0.131
  0.136   0.138   0.141   0.145   0.150   0.157   0.164   0.177
  0.187   0.206   0.214   0.224   0.233   0.237   0.252   0.258
  0.274   0.280   0.288   0.293   0.309   0.315   0.323   0.337
  0.355   0.363   0.387   0.399   0.416   0.426   0.461   0.474
  0.483   0.490   0.499   0.514   0.518   0.545   0.558   0.562
  0.564   0.571   0.580   0.585   0.602   0.614   0.622   0.631
  0.653   0.654   0.669   0.674   0.690   0.708   0.712   0.725
  0.735   0.758   0.794   0.809   0.820   0.842   0.852   0.893
  0.919   0.936   0.945   0.967   0.984   1.000   1.039   1.052
  1.069   1.080   1.086   1.109   1.128   1.133   1.146   1.162
  1.170   1.172   1.199   1.208   1.223   1.226   1.254   1.272
  1.291   1.299   1.312   1.316   1.327   1.344   1.353   1.360
  1.365   1.369   1.398   1.408   1.423   1.429   1.459   1.468
  1.480   1.507   1.511   1.520   1.535   1.552   1.581   1.594
  1.598   1.610   1.626   1.662   1.685   1.737   1.748   1.763
  1.784   1.860   1.914   2.163   2.243   2.347   2.394   2.439
  2.505   2.518   2.528   2.579   2.608   2.638   2.661   2.690
  2.732   2.758   2.791   2.801   2.826   2.854   2.874   2.911
  2.921   2.934   2.940   2.957   2.977   2.997   3.025   3.036
  3.082   3.090   3.124   3.142   3.152   3.171   3.178   3.226
  3.251   3.269   3.288   3.300   3.316   3.340   3.352   3.362
  3.379   3.400   3.417   3.450   3.461   3.483   3.493   3.527
  3.552   3.574   3.600   3.625   3.639   3.666   3.691   3.709
  3.722   3.738   3.755   3.782   3.813   3.829   3.839   3.862
  3.881   3.892   3.920   3.940   3.953   3.979   3.987   3.997
  4.027   4.057   4.066   4.073   4.130   4.151   4.161   4.176
  4.185   4.192   4.207   4.223   4.239   4.289   4.335   4.355
  4.371   4.388   4.427   4.441   4.495   4.524   4.530   4.536
  4.546   4.582   4.586   4.640   4.677   4.682   4.723   4.797
  4.851   4.941   5.091   5.115   5.170   5.204   5.220   5.234
  5.280   5.393   5.397   5.452   5.542   5.572   5.628   5.659
  5.666   5.674   5.707   5.755   5.922   5.968   6.575   6.834
  6.949   7.238   7.483   7.526  24.092  24.111  24.201  24.262
 24.297  49.812
 --------------------------------------------------------------
 
          Ground-State Mulliken Net Atomic Charges

     Atom                 Charge (a.u.)    Spin (a.u.)
  --------------------------------------------------------
      1 C                    -0.035708       0.056737
      2 H                     0.270506       0.000475
      3 C                    -0.674550      -0.012344
      4 H                     0.201096       0.000876
      5 H                     0.186412       0.001776
      6 H                     0.210165       0.001192
      7 C                    -0.779693      -0.014314
      8 H                     0.207426      -0.000556
      9 H                     0.234630       0.002775
     10 H                     0.228280       0.001599
     11 C                    -0.429770      -0.108011
     12 H                     0.283099       0.004262
     13 H                     0.227116       0.045495
     14 C                    -0.382827       0.639739
     15 H                     0.241483      -0.016578
     16 H                     0.320161      -0.017448
     17 O                    -0.307827       0.414326
  --------------------------------------------------------
  Sum of atomic charges =     0.000000
  Sum of spin   charges =     1.000000

 -----------------------------------------------------------------
                    Cartesian Multipole Moments
 -----------------------------------------------------------------
    Charge (ESU x 10^10)
                 0.0000
    Dipole Moment (Debye)
         X      -2.4633      Y      -0.1077      Z       0.1183
       Tot       2.4685
    Quadrupole Moments (Debye-Ang)
        XX     -49.0661     XY       0.2247     YY     -39.2142
        XZ       0.9556     YZ       0.4113     ZZ     -39.0631
    Octapole Moments (Debye-Ang^2)
       XXX     -25.6784    XXY       1.5467    XYY       5.3622
       YYY      -0.0426    XXZ      -0.0351    XYZ       1.3727
       YYZ      -0.8441    XZZ       5.0521    YZZ       0.5693
       ZZZ      -0.5140
    Hexadecapole Moments (Debye-Ang^3)
      XXXX    -721.2755   XXXY      18.6319   XXYY    -146.9217
      XYYY      16.6756   YYYY    -240.4320   XXXZ      -4.1854
      XXYZ       7.0830   XYYZ       2.2467   YYYZ       6.2902
      XXZZ    -129.2983   XYZZ       6.6474   YYZZ     -61.7437
      XZZZ       3.4916   YZZZ       8.7400   ZZZZ    -140.0263
 -----------------------------------------------------------------
 Calculating analytic gradient of the SCF energy
 Gradient of Coulomb and Exchange Energy
            1           2           3           4           5           6
    1   1.9926807   2.5928130   2.6363186   3.8350724  -0.7982394  -1.3104388
    2   1.4743648   0.1609364  -3.3827579  -1.0105886  -3.5127197  -1.2264465
    3   1.2902665   4.0083634  -0.6389644  -0.8868712   1.9141379  -3.3964775
            7           8           9          10          11          12
    1   3.5443532   4.1637791  -0.6261408  -1.0022131   0.2039553  -1.5252417
    2   1.9852416   0.3950266   3.8307952   0.5087127  -0.9866768  -3.8077184
    3  -0.7065665  -0.6364158   0.8922321  -3.6016190   0.6211477   2.3873295
           13          14          15          16          17
    1  -0.4863138  -0.1160578   0.5919484  -0.9764890 -12.7197863
    2   3.3761520   2.2260660   3.7260011  -2.5050337  -1.2513547
    3   3.5843426   0.0883207  -2.9840892  -2.1334979   0.1983609
 Gradient of SCF Energy
            1           2           3           4           5           6
    1  -0.0003130   0.0022471  -0.0003744   0.0036318  -0.0009181  -0.0024616
    2   0.0001834  -0.0007011   0.0013406  -0.0004454  -0.0027144  -0.0000364
    3  -0.0007061   0.0035476   0.0007014  -0.0010817   0.0022334  -0.0036724
            7           8           9          10          11          12
    1   0.0001433   0.0038067  -0.0009995  -0.0020235   0.0002196  -0.0013867
    2  -0.0008306   0.0000315   0.0037002  -0.0003007  -0.0005585  -0.0029585
    3   0.0018052  -0.0005190   0.0013278  -0.0039623  -0.0014782   0.0025518
           13          14          15          16          17
    1  -0.0004041   0.0002295   0.0008642  -0.0004126  -0.0018488
    2   0.0035141  -0.0010497   0.0029670  -0.0017780  -0.0003635
    3   0.0020895   0.0004456  -0.0021608  -0.0015139   0.0003919
 Max gradient component =       3.962E-03
 RMS gradient           =       1.905E-03
 Gradient time:  CPU 141.45 s  wall 141.59 s
 Geometry Optimization Parameters
   NAtoms,    NIC,     NZ,  NCons,   NDum,   NFix, NCnnct, MaxDiis
       17     123      17       0       0       0       0       0

 Cartesian Hessian Update
 Hessian Updated using Powell/Murtagh-Sargent Update
  Mixing factors:     0.976017 Powell
                      0.023983 Murtagh-Sargent


** GEOMETRY OPTIMIZATION IN DELOCALIZED INTERNAL COORDINATES **
   Searching for a Transition State

   Optimization Cycle:   4

                       Coordinates (Angstroms)
     ATOM              X           Y           Z
      1  C        -1.096350    0.051501   -0.459528
      2  H        -1.661915   -0.010587   -1.393789
      3  C        -1.388234    1.406050    0.184698
      4  H        -2.455577    1.518992    0.384753
      5  H        -1.074771    2.229152   -0.460996
      6  H        -0.859983    1.505099    1.136633
      7  C        -1.569536   -1.086929    0.445385
      8  H        -2.654311   -1.056757    0.560959
      9  H        -1.300203   -2.063621    0.037099
     10  H        -1.133265   -1.001381    1.442968
     11  C         0.387838   -0.079307   -0.837890
     12  H         0.737448    0.846268   -1.302003
     13  H         0.507577   -0.870946   -1.589845
     14  C         1.304714   -0.395713    0.304277
     15  H         1.103334   -1.275573    0.917237
     16  H         1.858428    0.527276    0.967539
     17  O         2.627926   -0.029912    0.210390
   Point Group: c1    Number of degrees of freedom:    45


   Energy is   -272.148535753

 GETINT wrote B to file, NVib is           45
 Hessian Updated using Powell/Murtagh-Sargent Update
  Mixing factors:     0.991216 Powell
                      0.008784 Murtagh-Sargent

 43 Hessian modes will be used to form the next step
  Hessian Eigenvalues:
     0.001573    0.005592    0.005756    0.009584    0.021786    0.035039
     0.036154    0.049023    0.049380    0.050018    0.050128    0.055750
     0.056148    0.056803    0.057042    0.088592    0.103754    0.125285
     0.129317    0.159945    0.159983    0.159999    0.160000    0.169685
     0.172199    0.187321    0.202755    0.218940    0.289735    0.296252
     0.296721    0.326560    0.340272    0.345561    0.346594    0.346679
     0.347082    0.347402    0.347800    0.347863    0.347895    0.348192
     0.410911
**WARNING** Hessian does not have the Desired Local Structure

 Transition State Search - Taking P-RFO Step
 Searching for Lamda that Maximizes Along the Lowest mode
 Value Taken    Lamda =   0.00232641
 Searching for Lamda that Minimizes Along All other modes
 Value Taken    Lamda =  -0.00096042
 Calculated Step too Large.  Step scaled by  0.169597
 Step Taken.  Stepsize is  0.300000

                             Maximum     Tolerance    Cnvgd?
         Gradient           0.009995      0.000300      NO
         Displacement       0.162124      0.001200      NO
         Energy change      0.000241      0.000001      NO


 New Cartesian Coordinates Obtained by Inverse Iteration

 Displacement from previous Coordinates is:  0.509407
 ----------------------------------------------------
       Standard Nuclear Orientation (Angstroms)
    I     Atom         X            Y            Z
 ----------------------------------------------------
    1      C      -1.096501     0.055467    -0.462903
    2      H      -1.666406    -0.033608    -1.393313
    3      C      -1.404800     1.417639     0.158171
    4      H      -2.464672     1.499866     0.411519
    5      H      -1.153746     2.232615    -0.525257
    6      H      -0.831130     1.560636     1.079131
    7      C      -1.548900    -1.071327     0.468718
    8      H      -2.636406    -1.070325     0.570389
    9      H      -1.245496    -2.052395     0.093161
   10      H      -1.126072    -0.942931     1.468941
   11      C       0.391654    -0.058301    -0.839305
   12      H       0.748685     0.891507    -1.247793
   13      H       0.516671    -0.807440    -1.633891
   14      C       1.298812    -0.439616     0.291914
   15      H       1.102248    -1.363557     0.839910
   16      H       1.831486     0.444088     1.025680
   17      O       2.617694    -0.048708     0.242814
 ----------------------------------------------------
 Molecular Point Group                 C1    NOp =  1
 Largest Abelian Subgroup              C1    NOp =  1
 Nuclear Repulsion Energy =   247.5755310035 hartrees
 There are       25 alpha and       24 beta electrons
 Applying Cartesian multipole field
    Component          Value
    ---------          -----
     (2,0,0)        1.00000E-11
     (0,2,0)        2.00000E-11
     (0,0,2)       -3.00000E-11
 Nucleus-field energy     =     0.0000000052 hartrees
 Requested basis set is non-standard
 There are 138 shells and 314 basis functions
 A cutoff of  1.0D-11 yielded   9044 shell pairs
 There are     46568 function pairs (     55903 Cartesian)
 Smallest overlap matrix eigenvalue = 1.63E-05
 Guess MOs from SCF MO coefficient file
Reading MOs from coefficient file
Reading MOs from coefficient file
 An unrestricted hybrid HF-DFT SCF calculation will be
 performed using Pulay DIIS extrapolation
 Exchange:     0.5679 Hartree-Fock + 1.0000 M08SO
 SCF converges when DIIS error is below 1.0E-08
Geometry optimization detected.  Setting ReadMinima to 0
Setting SaveMinima to 0
 Inaccurate integrated density:
   Number of electrons =    49
   Numerical integral  =    48.986841632945
   Relative error      =    -0.0268538103 %
 ---------------------------------------
  Cycle       Energy         DIIS Error
 ---------------------------------------
    1    -272.1418290867      6.81E-04
    2    -272.1478366494      9.70E-05
    3    -272.1480825081      7.42E-05
    4    -272.1481584807      2.90E-05
    5    -272.1481836078      1.45E-05
    6    -272.1481921854      5.07E-06
    7    -272.1481980986      2.69E-06
    8    -272.1482002761      8.88E-07
    9    -272.1482004244      5.22E-07
   10    -272.1482004488      1.97E-07
   11    -272.1482004541      6.49E-08
   12    -272.1482004546      1.94E-08
   13    -272.1482004553      8.23E-09 Convergence criterion met
 ---------------------------------------
 <S^2> = 0.7579
 SCF time:  CPU 1479.71 s  wall 1496.02 s
 SCF   energy in the final basis set = -272.1482004553
 Total energy in the final basis set = -272.1482004553
 Analysis of SCF Wavefunction
 
 --------------------------------------------------------------
                    Orbital Energies (a.u.)
 --------------------------------------------------------------
 
 Alpha MOs
 -- Occupied --
-19.587 -10.571 -10.510 -10.503 -10.491 -10.488  -1.164  -0.925
 -0.821  -0.786  -0.710  -0.648  -0.605  -0.559  -0.546  -0.515
 -0.501  -0.489  -0.462  -0.445  -0.414  -0.407  -0.404  -0.362
 -0.272
 -- Virtual --
 -0.028  -0.016  -0.012  -0.007   0.014   0.016   0.017   0.022
  0.023   0.053   0.054   0.060   0.072   0.074   0.078   0.084
  0.098   0.111   0.119   0.121   0.125   0.127   0.133   0.138
  0.140   0.141   0.147   0.151   0.158   0.165   0.176   0.183
  0.206   0.214   0.224   0.230   0.237   0.251   0.254   0.269
  0.276   0.288   0.296   0.311   0.314   0.320   0.338   0.352
  0.362   0.383   0.400   0.417   0.426   0.457   0.468   0.482
  0.489   0.495   0.511   0.517   0.533   0.555   0.559   0.562
  0.571   0.579   0.582   0.598   0.613   0.617   0.628   0.649
  0.650   0.668   0.673   0.688   0.702   0.713   0.718   0.736
  0.757   0.785   0.805   0.823   0.837   0.843   0.893   0.909
  0.935   0.948   0.973   0.978   1.001   1.035   1.049   1.056
  1.068   1.089   1.106   1.127   1.130   1.144   1.152   1.159
  1.177   1.194   1.203   1.215   1.227   1.248   1.266   1.287
  1.296   1.306   1.316   1.325   1.344   1.355   1.361   1.365
  1.369   1.388   1.402   1.418   1.423   1.457   1.465   1.477
  1.498   1.502   1.522   1.530   1.547   1.576   1.588   1.594
  1.606   1.620   1.655   1.678   1.723   1.746   1.758   1.767
  1.845   1.894   2.153   2.226   2.346   2.388   2.441   2.491
  2.508   2.529   2.570   2.592   2.634   2.657   2.686   2.717
  2.737   2.764   2.798   2.817   2.847   2.863   2.872   2.913
  2.931   2.935   2.943   2.954   2.977   3.010   3.019   3.052
  3.072   3.106   3.127   3.130   3.150   3.167   3.196   3.237
  3.261   3.277   3.286   3.299   3.319   3.343   3.348   3.355
  3.388   3.403   3.437   3.441   3.458   3.474   3.504   3.542
  3.578   3.603   3.607   3.629   3.664   3.671   3.699   3.714
  3.722   3.745   3.768   3.797   3.808   3.830   3.855   3.867
  3.874   3.909   3.938   3.952   3.975   3.981   3.991   4.018
  4.042   4.050   4.076   4.130   4.145   4.155   4.174   4.182
  4.185   4.199   4.216   4.238   4.281   4.325   4.348   4.359
  4.371   4.416   4.445   4.480   4.522   4.525   4.528   4.548
  4.566   4.578   4.627   4.666   4.673   4.705   4.748   4.851
  4.913   5.058   5.075   5.144   5.157   5.214   5.231   5.277
  5.380   5.395   5.451   5.505   5.566   5.623   5.651   5.662
  5.673   5.705   5.741   5.909   5.974   6.592   6.803   6.913
  7.250   7.442   7.545  24.087  24.107  24.195  24.253  24.285
 49.813
 
 Beta MOs
 -- Occupied --
-19.573 -10.561 -10.510 -10.504 -10.490 -10.488  -1.134  -0.924
 -0.816  -0.786  -0.697  -0.639  -0.563  -0.553  -0.536  -0.503
 -0.496  -0.477  -0.461  -0.442  -0.412  -0.404  -0.402  -0.353
 -- Virtual --
 -0.043  -0.026  -0.019  -0.013  -0.008   0.014   0.015   0.016
  0.019   0.021   0.051   0.054   0.059   0.068   0.072   0.077
  0.081   0.103   0.111   0.118   0.120   0.125   0.126   0.131
  0.135   0.139   0.141   0.145   0.150   0.159   0.166   0.178
  0.185   0.204   0.214   0.223   0.229   0.240   0.252   0.257
  0.270   0.278   0.289   0.295   0.310   0.318   0.321   0.338
  0.356   0.364   0.384   0.401   0.418   0.428   0.461   0.471
  0.482   0.490   0.499   0.513   0.520   0.541   0.557   0.561
  0.564   0.572   0.580   0.587   0.600   0.615   0.622   0.629
  0.652   0.653   0.671   0.673   0.689   0.708   0.715   0.721
  0.741   0.761   0.787   0.810   0.825   0.842   0.844   0.895
  0.918   0.937   0.949   0.976   0.982   1.004   1.038   1.051
  1.064   1.073   1.093   1.111   1.130   1.131   1.148   1.157
  1.161   1.182   1.198   1.207   1.222   1.232   1.258   1.268
  1.293   1.298   1.309   1.319   1.327   1.346   1.358   1.362
  1.366   1.373   1.396   1.406   1.422   1.425   1.461   1.470
  1.480   1.503   1.506   1.525   1.537   1.547   1.578   1.594
  1.595   1.606   1.622   1.657   1.680   1.727   1.750   1.766
  1.781   1.854   1.915   2.158   2.247   2.352   2.393   2.441
  2.506   2.514   2.531   2.577   2.600   2.651   2.662   2.696
  2.728   2.752   2.789   2.801   2.826   2.855   2.878   2.912
  2.919   2.937   2.941   2.953   2.983   2.994   3.029   3.040
  3.072   3.086   3.121   3.145   3.156   3.171   3.178   3.225
  3.259   3.267   3.293   3.294   3.313   3.339   3.351   3.352
  3.370   3.402   3.414   3.447   3.462   3.478   3.492   3.531
  3.554   3.584   3.607   3.627   3.646   3.674   3.690   3.705
  3.719   3.732   3.749   3.784   3.809   3.821   3.834   3.861
  3.884   3.894   3.921   3.940   3.958   3.978   3.982   4.001
  4.030   4.051   4.053   4.083   4.135   4.149   4.159   4.177
  4.185   4.189   4.206   4.218   4.241   4.285   4.333   4.361
  4.362   4.386   4.422   4.449   4.486   4.525   4.527   4.534
  4.549   4.576   4.581   4.636   4.671   4.679   4.715   4.797
  4.854   4.939   5.090   5.110   5.169   5.207   5.219   5.233
  5.278   5.389   5.396   5.448   5.543   5.566   5.622   5.651
  5.662   5.674   5.706   5.754   5.924   5.966   6.577   6.833
  6.949   7.238   7.484   7.527  24.088  24.108  24.195  24.256
 24.290  49.812
 --------------------------------------------------------------
 
          Ground-State Mulliken Net Atomic Charges

     Atom                 Charge (a.u.)    Spin (a.u.)
  --------------------------------------------------------
      1 C                     0.013196       0.066205
      2 H                     0.267408       0.000875
      3 C                    -0.689288      -0.009991
[...]
 C          0.033  0.046 -0.008    0.061 -0.051  0.061    0.019 -0.034 -0.104
 H          0.018  0.070 -0.129    0.038  0.163 -0.184    0.061  0.234  0.047
 H          0.001  0.096 -0.117   -0.175 -0.066  0.003   -0.073 -0.193  0.194
 H         -0.037 -0.039  0.013   -0.211 -0.200  0.178    0.033  0.351 -0.090
 C          0.014  0.061  0.069    0.010 -0.094  0.120    0.059 -0.007 -0.010
 H          0.002 -0.071 -0.095    0.479  0.010  0.480    0.052  0.000 -0.005
 H          0.513 -0.086  0.375    0.156  0.064 -0.100    0.133 -0.014  0.016
 C          0.015 -0.075 -0.075   -0.035  0.079 -0.139    0.101  0.015 -0.029
 H         -0.224  0.181  0.070    0.066 -0.040 -0.223    0.186  0.044  0.026
 H         -0.062 -0.053 -0.025   -0.002  0.013 -0.015    0.038  0.062  0.012
 O          0.001  0.014  0.002    0.002 -0.013  0.020   -0.089 -0.022  0.018
 TransDip   0.000  0.000  0.000    0.000  0.000  0.000    0.000  0.000  0.000

 Mode:                22                     23                     24
 Frequency:      1204.50                1225.80                1290.48
 Force Cnst:      2.4301                 1.0570                 1.5044
 Red. Mass:       2.8429                 1.1939                 1.5332
 IR Active:          YES                    YES                    YES
 IR Intens:        0.000                  0.000                  0.000
 Raman Active:       YES                    YES                    YES
               X      Y      Z        X      Y      Z        X      Y      Z
 C         -0.001 -0.003 -0.121   -0.017 -0.077  0.014    0.119 -0.021  0.010
 H          0.031 -0.008 -0.146   -0.054 -0.491  0.018   -0.027  0.110  0.106
 C          0.010 -0.010  0.062    0.043  0.021  0.027   -0.049  0.008 -0.008
 H         -0.010  0.076 -0.099    0.010 -0.070 -0.045   -0.011  0.085  0.082
 H         -0.047 -0.088 -0.104   -0.074  0.062  0.017    0.116 -0.038  0.029
 H         -0.006  0.220  0.066   -0.088  0.129  0.101    0.097 -0.066 -0.085
 C          0.007  0.007  0.066   -0.032  0.025 -0.035   -0.045  0.001  0.008
 H         -0.029 -0.055 -0.138   -0.023 -0.034  0.036   -0.039 -0.048  0.019
 H         -0.021  0.084 -0.105    0.079  0.035 -0.016    0.118  0.035  0.001
 H         -0.053 -0.212  0.080    0.123  0.128 -0.106    0.123  0.009 -0.069
 C         -0.008  0.019 -0.003    0.005  0.018  0.007   -0.138  0.040 -0.040
 H         -0.246 -0.004 -0.167    0.565 -0.060  0.193    0.318 -0.062  0.066
 H         -0.189  0.043 -0.083   -0.451  0.050 -0.131    0.512 -0.056  0.236
 C          0.263  0.038 -0.032   -0.028  0.050 -0.028   -0.049 -0.018 -0.050
 H          0.665  0.098  0.148    0.223 -0.027 -0.031    0.586  0.103  0.221
 H          0.111  0.155  0.048    0.013  0.010  0.015   -0.043 -0.049 -0.020
 O         -0.216 -0.058  0.052    0.001 -0.011  0.008    0.011 -0.009  0.023
 TransDip   0.000  0.000  0.000    0.000  0.000  0.000    0.000  0.000  0.000

 Mode:                25                     26                     27
 Frequency:      1344.68                1348.50                1387.62
 Force Cnst:      1.5713                 1.5071                 1.5531
 Red. Mass:       1.4749                 1.4066                 1.3690
 IR Active:          YES                    YES                    YES
 IR Intens:        0.000                  0.000                  0.000
 Raman Active:       YES                    YES                    YES
               X      Y      Z        X      Y      Z        X      Y      Z
 C         -0.141 -0.057  0.072    0.042 -0.161 -0.037    0.013  0.083 -0.004
 H          0.624  0.302 -0.373   -0.243  0.697  0.173   -0.048 -0.215  0.019
 C          0.038  0.008 -0.021   -0.025  0.005 -0.051    0.014 -0.109 -0.039
 H          0.028 -0.072  0.040    0.047  0.180  0.220    0.109  0.370  0.108
 H         -0.096  0.082  0.013    0.013  0.182  0.221   -0.134  0.200  0.293
 H         -0.136 -0.030  0.075   -0.071  0.076 -0.012   -0.097  0.408  0.040
 C          0.046 -0.013  0.038   -0.007  0.025  0.038   -0.039 -0.094  0.039
 H          0.031  0.186 -0.194   -0.024  0.006 -0.144   -0.011  0.350 -0.101
 H         -0.054  0.097 -0.191    0.079  0.120 -0.121    0.187  0.133 -0.281
 H         -0.018  0.079  0.060    0.116 -0.048 -0.030    0.161  0.353 -0.049
 C          0.036  0.022 -0.047    0.015  0.014  0.034    0.000 -0.013  0.003
 H          0.063 -0.015 -0.081    0.102 -0.016  0.050   -0.098  0.018 -0.009
 H          0.032 -0.027  0.022   -0.317  0.018 -0.039    0.090 -0.003  0.006
 C         -0.065 -0.005 -0.003    0.011  0.013 -0.002    0.000 -0.004  0.000
 H          0.349  0.030  0.137   -0.130 -0.020 -0.071   -0.022  0.002  0.000
 H         -0.033 -0.046  0.002    0.012  0.016  0.004   -0.002 -0.005  0.000
 O          0.015 -0.004  0.002   -0.001  0.001 -0.002    0.001  0.001 -0.001
 TransDip   0.000  0.000  0.000    0.000  0.000  0.000    0.000  0.000  0.000

 Mode:                28                     29                     30
 Frequency:      1395.20                1407.58                1451.80
 Force Cnst:      1.6067                 1.6663                 1.3904
 Red. Mass:       1.4009                 1.4275                 1.1196
 IR Active:          YES                    YES                    YES
 IR Intens:        0.000                  0.000                  0.000
 Raman Active:       YES                    YES                    YES
               X      Y      Z        X      Y      Z        X      Y      Z
 C         -0.006  0.022 -0.010    0.021  0.006 -0.043    0.001 -0.005  0.004
 H         -0.175 -0.041  0.092   -0.263  0.006  0.123    0.053  0.003 -0.030
 C          0.011 -0.059 -0.030   -0.019  0.067  0.048    0.000  0.003  0.014
 H          0.074  0.223  0.092   -0.106 -0.234 -0.199   -0.021  0.043 -0.130
 H         -0.099  0.138  0.172    0.096 -0.173 -0.225   -0.077  0.026 -0.010
 H         -0.092  0.214  0.035    0.183 -0.277 -0.078    0.086 -0.065 -0.039
 C          0.026  0.054 -0.041   -0.036 -0.062  0.048    0.001 -0.005  0.012
 H          0.009 -0.275  0.113   -0.037  0.237 -0.201   -0.012 -0.029 -0.073
 H         -0.179 -0.154  0.259    0.134  0.123 -0.235   -0.063  0.015 -0.056
 H         -0.150 -0.231  0.039    0.222  0.238 -0.071    0.052  0.072 -0.014
 C          0.103  0.003  0.020    0.099 -0.001  0.046   -0.005 -0.008 -0.088
 H         -0.334  0.165  0.018   -0.334  0.077 -0.071   -0.014  0.461  0.522
 H         -0.168 -0.100  0.151   -0.220 -0.017  0.014   -0.157 -0.376  0.506
 C         -0.109 -0.006 -0.039   -0.089 -0.004 -0.026    0.040 -0.001  0.003
 H          0.467  0.057  0.155    0.282  0.035  0.096   -0.122  0.007 -0.027
 H         -0.066 -0.085 -0.009   -0.057 -0.067 -0.004    0.029  0.029 -0.004
 O          0.026 -0.005  0.005    0.024 -0.002  0.000   -0.012  0.000  0.000
 TransDip   0.000  0.000  0.000    0.000  0.000  0.000    0.000  0.000  0.000

 Mode:                31                     32                     33
 Frequency:      1463.83                1473.11                1484.53
 Force Cnst:      1.3152                 1.3515                 1.3630
 Red. Mass:       1.0418                 1.0570                 1.0497
 IR Active:          YES                    YES                    YES
 IR Intens:        0.000                  0.000                  0.000
 Raman Active:       YES                    YES                    YES
               X      Y      Z        X      Y      Z        X      Y      Z
 C          0.000 -0.001 -0.001    0.009  0.037 -0.012   -0.034 -0.004 -0.014
 H          0.006  0.045 -0.003   -0.020 -0.088 -0.002    0.037  0.010 -0.063
 C          0.036 -0.002  0.014    0.015  0.019 -0.036   -0.027  0.008 -0.013
 H          0.052  0.304 -0.083    0.094 -0.159  0.545   -0.043 -0.331  0.137
 H         -0.438  0.039 -0.231    0.162 -0.206 -0.238    0.430 -0.068  0.174
 H         -0.146 -0.324  0.095   -0.477  0.000  0.247    0.065  0.304 -0.049
 C         -0.036  0.004 -0.016   -0.016  0.004  0.025   -0.021 -0.007 -0.024
 H          0.018  0.333  0.069   -0.060 -0.044 -0.304    0.055  0.363  0.248
 H          0.447 -0.040  0.248   -0.064 -0.066  0.120    0.455  0.014  0.126
 H          0.067 -0.351 -0.062    0.290 -0.070 -0.128   -0.138 -0.265  0.036
 C          0.001 -0.002 -0.001   -0.001 -0.006 -0.007    0.016 -0.001 -0.012
 H         -0.011  0.008  0.007   -0.050  0.061  0.052   -0.027  0.089  0.083
 H          0.002 -0.008  0.007    0.016 -0.044  0.064   -0.058 -0.069  0.086
 C         -0.001  0.000  0.000    0.006 -0.002  0.001    0.001  0.000 -0.002
 H         -0.002 -0.002 -0.001   -0.035  0.001 -0.007    0.024  0.000  0.003
 H          0.000 -0.001  0.001    0.004  0.001 -0.002    0.002  0.002 -0.003
 O          0.001  0.000  0.000   -0.001  0.001 -0.001   -0.002 -0.001  0.001
 TransDip   0.000  0.000  0.000    0.000  0.000  0.000    0.000  0.000  0.000

 Mode:                34                     35                     36
 Frequency:      1487.91                2438.91                2943.78
 Force Cnst:      1.3813                 3.7532                 5.4503
 Red. Mass:       1.0590                 1.0709                 1.0675
 IR Active:          YES                    YES                    YES
 IR Intens:        0.000                  0.000                  0.000
 Raman Active:       YES                    YES                    YES
               X      Y      Z        X      Y      Z        X      Y      Z
 C          0.036 -0.015 -0.028    0.001  0.000  0.000    0.005 -0.001  0.009
 H         -0.064  0.029  0.032    0.000 -0.001  0.002   -0.061  0.005 -0.109
 C          0.014  0.021 -0.007    0.000  0.000  0.000   -0.001 -0.001 -0.002
 H          0.059  0.036  0.255    0.000  0.001  0.002   -0.018  0.002  0.002
 H         -0.067 -0.106 -0.229    0.000  0.001 -0.001    0.005  0.013 -0.009
 H         -0.286 -0.143  0.158   -0.001  0.000 -0.001    0.019 -0.001  0.035
 C          0.018 -0.030 -0.021    0.000  0.000  0.000    0.000  0.001 -0.001
 H          0.079  0.009  0.486    0.000  0.000  0.000   -0.008  0.002  0.001
 H          0.025  0.150 -0.329    0.000  0.000  0.000    0.004 -0.012 -0.009
 H         -0.466  0.263  0.227    0.000  0.000 -0.001    0.010  0.000  0.021
 C         -0.004  0.002  0.000    0.003  0.003  0.002    0.015 -0.048 -0.053
 H         -0.013  0.042  0.047   -0.011 -0.004 -0.002   -0.080 -0.226  0.154
 H         -0.039 -0.033  0.050    0.006 -0.009 -0.002   -0.087  0.803  0.492
 C         -0.002  0.001 -0.005   -0.036 -0.052 -0.027    0.000 -0.001 -0.002
 H          0.048  0.008  0.012    0.005 -0.031  0.054   -0.005 -0.008  0.009
 H         -0.001 -0.003 -0.001    0.111  0.879  0.454    0.009  0.007  0.001
 O         -0.001 -0.001  0.002    0.017 -0.015 -0.013   -0.001  0.000  0.000
 TransDip   0.000  0.000  0.000    0.000  0.000  0.000    0.000  0.000  0.000

 Mode:                37                     38                     39
 Frequency:      2968.19                2974.98                2980.73
 Force Cnst:      5.3803                 5.4219                 5.6558
 Red. Mass:       1.0365                 1.0398                 1.0804
 IR Active:          YES                    YES                    YES
 IR Intens:        0.000                  0.000                  0.000
 Raman Active:       YES                    YES                    YES
               X      Y      Z        X      Y      Z        X      Y      Z
 C          0.004  0.001  0.007    0.009 -0.002  0.017   -0.040  0.003 -0.066
 H         -0.049  0.002 -0.083   -0.120  0.010 -0.202    0.475 -0.036  0.787
 C         -0.001 -0.039 -0.031   -0.002 -0.003 -0.006    0.009 -0.011  0.007
 H         -0.489  0.067  0.086   -0.027  0.005  0.004   -0.144  0.017  0.029
 H          0.184  0.407 -0.293    0.010  0.026 -0.016    0.058  0.117 -0.084
 H          0.321 -0.019  0.573    0.047 -0.001  0.085   -0.016  0.001 -0.027
 C         -0.002 -0.005  0.002    0.007  0.038 -0.030    0.011  0.014  0.003
 H          0.071 -0.009 -0.009   -0.452  0.048  0.053   -0.186  0.024  0.026
 H         -0.016  0.073  0.042    0.098 -0.487 -0.267    0.043 -0.187 -0.102
 H         -0.030 -0.001 -0.059    0.276 -0.010  0.566    0.016  0.000  0.033
 C         -0.001  0.003  0.003   -0.001  0.005  0.002    0.000 -0.010 -0.004
 H          0.003  0.005 -0.003   -0.001 -0.009  0.007    0.007  0.020 -0.017
 H          0.007 -0.045 -0.028    0.009 -0.055 -0.035   -0.013  0.101  0.064
 C          0.000  0.000  0.000   -0.001 -0.003  0.003    0.001  0.000  0.000
 H          0.001  0.000  0.000    0.010  0.033 -0.038   -0.002 -0.007  0.008
 H         -0.001  0.000  0.000   -0.001  0.002  0.001    0.001  0.000  0.000
 O          0.000  0.000  0.000    0.000  0.000  0.000    0.000  0.000  0.000
 TransDip   0.000  0.000  0.000    0.000  0.000  0.000    0.000  0.000  0.000

 Mode:                40                     41                     42
 Frequency:      3016.32                3035.72                3038.91
 Force Cnst:      5.8545                 5.9752                 5.9502
 Red. Mass:       1.0922                 1.1005                 1.0936
 IR Active:          YES                    YES                    YES
 IR Intens:        0.000                  0.000                  0.000
 Raman Active:       YES                    YES                    YES
               X      Y      Z        X      Y      Z        X      Y      Z
 C          0.003 -0.001  0.004   -0.005  0.001 -0.009    0.007  0.000  0.012
 H         -0.036  0.004 -0.054    0.056 -0.001  0.095   -0.082  0.007 -0.136
 C         -0.002  0.003 -0.005   -0.042  0.036 -0.064    0.008 -0.015  0.024
 H          0.014  0.000 -0.004    0.351 -0.047 -0.084   -0.064  0.008  0.019
 H         -0.014 -0.024  0.020   -0.181 -0.374  0.251    0.077  0.165 -0.112
 H          0.023  0.000  0.040    0.332 -0.006  0.601   -0.111  0.000 -0.197
 C          0.001  0.003  0.001    0.017  0.011  0.025    0.024  0.025  0.045
 H         -0.007  0.001  0.002   -0.128  0.016  0.023   -0.167  0.020  0.036
 H          0.007 -0.029 -0.016    0.036 -0.153 -0.077    0.072 -0.333 -0.170
 H         -0.001  0.000 -0.002   -0.117  0.007 -0.243   -0.195  0.018 -0.409
 C         -0.020 -0.075  0.036    0.002  0.006 -0.003    0.004  0.013 -0.003
 H          0.282  0.701 -0.556   -0.024 -0.057  0.046   -0.038 -0.102  0.081
 H         -0.028  0.204  0.144    0.002 -0.017 -0.011    0.007 -0.048 -0.034
 C          0.001  0.009 -0.014    0.002  0.006 -0.007    0.010  0.036 -0.043
 H         -0.042 -0.128  0.150   -0.022 -0.073  0.086   -0.136 -0.430  0.509
 H          0.001  0.000  0.000    0.001 -0.003 -0.003    0.004 -0.024 -0.019
 O          0.001  0.000  0.000    0.000  0.000  0.000    0.000  0.001  0.001
 TransDip   0.000  0.000  0.000    0.000  0.000  0.000    0.000  0.000  0.000

 Mode:                43                     44                     45
 Frequency:      3046.26                3047.30                3051.16
 Force Cnst:      6.0194                 5.9980                 6.0341
 Red. Mass:       1.1009                 1.0963                 1.1001
 IR Active:          YES                    YES                    YES
 IR Intens:        0.000                  0.000                  0.000
 Raman Active:       YES                    YES                    YES
               X      Y      Z        X      Y      Z        X      Y      Z
 C         -0.004 -0.001 -0.005   -0.003  0.000 -0.007   -0.005  0.001 -0.006
 H          0.036 -0.002  0.061    0.038 -0.004  0.069    0.045 -0.005  0.075
 C         -0.069 -0.022  0.024    0.039  0.021 -0.026   -0.014  0.000 -0.002
 H          0.635 -0.102 -0.118   -0.366  0.061  0.065    0.125 -0.022 -0.025
 H          0.158  0.381 -0.264   -0.132 -0.312  0.215    0.010  0.024 -0.018
 H          0.035 -0.005  0.097    0.030  0.006  0.032    0.032  0.000  0.065
 C          0.009 -0.026 -0.034   -0.003 -0.029 -0.044   -0.081  0.033  0.001
 H         -0.149  0.011  0.012   -0.064 -0.002 -0.001    0.812 -0.071 -0.110
 H         -0.063  0.319  0.165   -0.075  0.360  0.185    0.050 -0.325 -0.177
 H          0.115 -0.013  0.229    0.174 -0.017  0.352    0.113  0.000  0.274
 C          0.002  0.003 -0.001    0.003  0.009 -0.002    0.002  0.004 -0.002
 H         -0.010 -0.031  0.024   -0.032 -0.078  0.064   -0.015 -0.038  0.030
 H         -0.001 -0.006 -0.005    0.001 -0.027 -0.017    0.002 -0.010 -0.009
 C          0.004  0.016 -0.019    0.008  0.031 -0.037    0.004  0.013 -0.015
 H         -0.059 -0.186  0.219   -0.117 -0.369  0.436   -0.046 -0.148  0.175
 H          0.002 -0.010 -0.008    0.004 -0.019 -0.016    0.002 -0.008 -0.006
 O          0.000  0.000  0.000    0.000  0.001  0.001    0.000  0.000  0.000
 TransDip   0.000  0.000  0.000    0.000  0.000  0.000    0.000  0.000  0.000

 STANDARD THERMODYNAMIC QUANTITIES AT   298.15 K  AND     1.00 ATM

   This Molecule has  1 Imaginary Frequencies
   Zero point vibrational energy:       90.731 kcal/mol

   Atom    1 Element C  Has Mass   12.00000
   Atom    2 Element H  Has Mass    1.00783
   Atom    3 Element C  Has Mass   12.00000
   Atom    4 Element H  Has Mass    1.00783
   Atom    5 Element H  Has Mass    1.00783
   Atom    6 Element H  Has Mass    1.00783
   Atom    7 Element C  Has Mass   12.00000
   Atom    8 Element H  Has Mass    1.00783
   Atom    9 Element H  Has Mass    1.00783
   Atom   10 Element H  Has Mass    1.00783
   Atom   11 Element C  Has Mass   12.00000
   Atom   12 Element H  Has Mass    1.00783
   Atom   13 Element H  Has Mass    1.00783
   Atom   14 Element C  Has Mass   12.00000
   Atom   15 Element H  Has Mass    1.00783
   Atom   16 Element H  Has Mass    1.00783
   Atom   17 Element O  Has Mass   15.99491
   Molecular Mass:    87.081040 amu
   Principal axes and moments of inertia in atomic units:
                             1           2           3
    Eigenvalues --      305.34084   910.27210  1018.96297
          X               0.99996     0.00474    -0.00700
          Y              -0.00476     0.99998    -0.00305
          Z               0.00698     0.00308     0.99997
   Rotational Symmetry Number is   1
   The Molecule is an Asymmetric Top
   Translational Enthalpy:        0.889 kcal/mol
   Rotational Enthalpy:           0.889 kcal/mol
   Vibrational Enthalpy:         93.920 kcal/mol
   gas constant (RT):             0.592 kcal/mol
   Translational Entropy:        39.306  cal/mol.K
   Rotational Entropy:           27.140  cal/mol.K
   Vibrational Entropy:          19.890  cal/mol.K

   Total Enthalpy:               96.290 kcal/mol
   Total Entropy:                86.335  cal/mol.K
Archival summary:
1\1\node28\FREQ\ProcedureUnspecified\BasisUnspecified\1511(2)\edames\SunApr2002:34:382014SunApr2002:34:382014\0\\#,FREQ,ProcedureUnspecified,BasisUnspecified,\\0,2\C\H,1,1.10049\C,1,1.53237,2,108.335\H,3,1.09753,1,111.061,2,-59.2179,0\H,3,1.09823,1,111.364,2,61.4324,0\H,3,1.10002,1,110.491,2,-178.69,0\C,1,1.53381,2,107.978,3,-119.925,0\H,7,1.0974,1,110.703,2,55.9168,0\H,7,1.09822,1,111.469,2,-64.4554,0\H,7,1.09909,1,111.115,2,174.937,0\C,1,1.53996,2,106.706,3,119.576,0\H,11,1.09933,1,110.372,2,-58.1093,0\H,11,1.10514,1,109.454,2,58.9744,0\C,11,1.50287,1,114.018,2,179.949,0\H,14,1.09719,11,119.105,1,-51.0126,0\H,14,1.26916,11,120.714,1,94.6731,0\O,16,1.21899,14,67.2026,11,105.37,0\\\@

 Total job time:  79630.04s(wall), 78918.22s(cpu) 
 Sun Apr 20 02:34:38 2014

        *************************************************************
        *                                                           *
        *  Thank you very much for using Q-Chem.  Have a nice day.  *
        *                                                           *
        *************************************************************


0 sent ACK to 0 
now end server 0 ... 
cleanup process ... done
remove work dirs /tmp/qchem9238.0 -- /tmp/qchem9238.3
rm -rf /tmp/qchem9238.0
rm -rf /tmp/qchem9238.1
rm -rf /tmp/qchem9238.2
rm -rf /tmp/qchem9238.3
rm -rf /tmp/qchem9238
