
Running Job 1 of 2 ts13.in
qchem ts13.in_21761.0 /tmp/qchem21761/ 4
/opt/qchem/bin/mpi/mpirun_qchem -machinefile /tmp/294210.1.normal1/hostfile -np 4 /opt/qchem/exe/qcprog.exe ts13.in_21761.0 /tmp/qchem21761/

Process 0 of 4 is on node13.cluster - thread support 0
Process 2 of 4 is on node13.cluster - thread support 0
Process 1 of 4 is on node13.cluster - thread support 0
Process 3 of 4 is on node13.cluster - thread support 0
initial socket setup ...start
initial socket setup ...done 
now start server 0 ... 
                  Welcome to Q-Chem
     A Quantum Leap Into The Future Of Chemistry

 Y. Shao, L. Fusti-Molnar, Y. Jung, J. Kussmann, C. Ochsenfeld, S. T. Brown, 
 A. T. B. Gilbert, L. V. Slipchenko, S. V. Levchenko, D. P. O'Neill, 
 R. A. DiStasio Jr., R. C. Lochan, T. Wang, G. J. O. Beran, N. A. Besley, 
 J. M. Herbert, C. Y. Lin, T. Van Voorhis, S. H. Chien, A. Sodt, R. P. Steele, 
 V. A. Rassolov, P. E. Maslen, P. P. Korambath, R. D. Adamson, B. Austin, 
 J. Baker, E. F. C. Byrd, H. Dachsel, R. J. Doerksen, A. Dreuw, B. D. Dunietz, 
 A. D. Dutoi, T. R. Furlani, S. R. Gwaltney, A. Heyden, S. Hirata, C.-P. Hsu, 
 G. Kedziora, R. Z. Khaliullin, P. Klunzinger, A. M. Lee, M. S. Lee, W. Liang, 
 I. Lotan, N. Nair, B. Peters, E. I. Proynov, P. A. Pieniazek, Y. M. Rhee, 
 J. Ritchie, E. Rosta, C. D. Sherrill, A. C. Simmonett, J. E. Subotnik, 
 H. L. Woodcock III, W. Zhang, A. T. Bell, A. K. Chakraborty, D. M. Chipman, 
 F. J. Keil, A. Warshel, W. J. Hehre, H. F. Schaefer III, J. Kong, 
 A. I. Krylov, P. M. W. Gill, M. Head-Gordon

 Additional authors for Version 3.1: 
 Z. Gan, Y. Zhao, N. E. SchultzD. Truhlar, E. Epifanovsky, M. Oana

 Additional authors for Version 3.2: 
 R. Baer, B. R. Brooks, D. Casanova, J.-D. Chai, C.-L. Cheng, C. Cramer, 
 D. Crittenden, A. Ghysels, G. Hawkins, E. G. Hohenstein, C. Kelley, 
 W. Kurlancheek, D. Liotard, E. Livshits, P. Manohar, A. Marenich, 
 D. Neuhauser, R. Olson, M. A. Rohrdanz, K. S. Thanthiriwatte, A. J. W. Thom, 
 V. Vanovschi, C. F. Williams, Q. Wu, Z.-Q. You

 Additional authors for Version 4.0: 
 A. Aspuru-Guzik, Y. Bernard, C. Chang, J. Deng, A. Dreuw, M. Diedenhofen, 
 R. G. Edgar, D. Ghosh, W. A. Goddard III, M. Goldey, L. D. Jacobson, 
 M. Gordon, B. Kaduk, I. Kaliman, K. Khistyaev, R. King, A. Klamt, 
 D. Kosenkov, T. Kus, D. Lambrecht, A. Landau, A. W. Lange, K. Lawler, F. Liu, 
 J. Liu, R. Olivares-Amaya, S. P. Mao, J. Parkhill, N. Russ, M. Schmidt, 
 N. Shenvi, D. Small, Y. C. Su, E. Sundstrom, L. Vogt, O. Vydrov, M. Watson, 
 M. Wormit, X. Xu, S. Yeganeh, I. Y. Zhang, D. Zuev

 Additional authors for Version 4.1: 
 X. Feng, M. W. D. Hanson-Heine, P. Horn, H. Ji, A. Laurent, R. Peverati, 
 N. Mardirossian, N. Sergueev, S. Sharada, P. Zimmerman


 Q-Chem, Version 4.1, Q-Chem, Inc., Pittsburgh, PA (2013).

 Intel X86 Linux Version 4.1.0.1 

 Q-chem begins on Fri Apr 18 15:07:19 2014  

Host: 
0

     Scratch files written to /tmp/qchem21761.0//
 Oct1213 14483_epif 4150   
 Parallel job on  4  processors
Processing $rem in /opt/qchem/config/preferences.
 MEM_TOTAL  2000 
Warning: disabling incdft.
 Q-Chem warning in module /home/scratch/svnadmin/14483_epif/qchem/forms1/BasisType.C, line 1125:

 Setting pure/cartesian flag to 2111 for general basis


Finally everything over in PARseQInput

--------------------------------------------------------------
User input:
--------------------------------------------------------------
$rem
XC_GRID 000075000434
JOBTYPE ts
EXCHANGE M08SO
BASIS gen
GUI=2
UNRESTRICTED TRUE
CORRELATION NONE
$end

$comment
c5h11o-2
$end

$molecule
0 2
C
H  1 1.098102
C  1 1.510970 2 106.845924
H  3 1.086701 1 117.535298 2 83.153054 0
H  3 1.335772 1 109.988385 2 -156.716724 0
O  5 1.273571 3 105.016006 1 116.686948 0
C  6 1.429344 5 84.956444 3 2.070426 0
H  7 1.089566 6 112.040799 5 116.022828 0
H  7 1.090895 6 112.236763 5 -118.747872 0
C  1 1.525427 2 108.534203 3 119.407731 0
H  10 1.089315 1 110.905327 2 60.765459 0
H  10 1.090006 1 111.430236 2 -59.772072 0
H  10 1.091697 1 110.245619 2 -179.638751 0
C  1 1.528976 2 108.012541 3 -120.506847 0
H  14 1.089089 1 110.469554 2 -56.640299 0
H  14 1.089149 1 112.147775 2 64.412568 0
H  14 1.091142 1 109.918251 2 -176.044967 0
$end

$basis
H  0
S  3 1.00
3.386500000000E+01 2.549380000000E-02
5.094790000000E+00 1.903730000000E-01
1.158790000000E+00 8.521610000000E-01
S  1 1.00
3.258400000000E-01 1.000000000000E+00
S  1 1.00
1.027410000000E-01 1.000000000000E+00
S  1 1.00
3.600000000000E-02 1.000000000000E+00
P  1 1.00
1.500000000000E+00 1.000000000000E+00
P  1 1.00
3.750000000000E-01 1.000000000000E+00
****
C 0
S  6 1.00
4.563240000000E+03 1.966650000000E-03
6.820240000000E+02 1.523060000000E-02
1.549730000000E+02 7.612690000000E-02
4.445530000000E+01 2.608010000000E-01
1.302900000000E+01 6.164620000000E-01
1.827730000000E+00 2.210060000000E-01
S  3 1.00
2.096420000000E+01 1.146600000000E-01
4.803310000000E+00 9.199990000000E-01
1.459330000000E+00 -3.030680000000E-03
S  1 1.00
4.834560000000E-01 1.000000000000E+00
S  1 1.00
1.455850000000E-01 1.000000000000E+00
S  1 1.00
4.380000000000E-02 1.000000000000E+00
P  3 1.00
2.096420000000E+01 4.024870000000E-02
4.803310000000E+00 2.375940000000E-01
1.459330000000E+00 8.158540000000E-01
P  1 1.00
4.834560000000E-01 1.000000000000E+00
P  1 1.00
1.455850000000E-01 1.000000000000E+00
P  1 1.00
4.380000000000E-02 1.000000000000E+00
D  1 1.00
1.252000000000E+00 1.000000000000E+00
D  1 1.00
3.130000000000E-01 1.000000000000E+00
F  1 1.00
8.000000000000E-01 1.000000000000E+00
****
O  0
S  6 1.00
8.588500000000E+03 1.895150000000E-03
1.297230000000E+03 1.438590000000E-02
2.992960000000E+02 7.073200000000E-02
8.737710000000E+01 2.400010000000E-01
2.567890000000E+01 5.947970000000E-01
3.740040000000E+00 2.808020000000E-01
S  3 1.00
4.211750000000E+01 1.138890000000E-01
9.628370000000E+00 9.208110000000E-01
2.853320000000E+00 -3.274470000000E-03
S  1 1.00
9.056610000000E-01 1.000000000000E+00
S  1 1.00
2.556110000000E-01 1.000000000000E+00
S  1 1.00
8.450000000000E-02 1.000000000000E+00
P  3 1.00
4.211750000000E+01 3.651140000000E-02
9.628370000000E+00 2.371530000000E-01
2.853320000000E+00 8.197020000000E-01
P  1 1.00
9.056610000000E-01 1.000000000000E+00
P  1 1.00
2.556110000000E-01 1.000000000000E+00
P  1 1.00
8.450000000000E-02 1.000000000000E+00
D  1 1.00
2.584000000000E+00 1.000000000000E+00
D  1 1.00
6.460000000000E-01 1.000000000000E+00
F  1 1.00
1.400000000000E+00 1.000000000000E+00
****
$end

--------------------------------------------------------------
 ----------------------------------------------------
       Standard Nuclear Orientation (Angstroms)
    I     Atom         X            Y            Z
 ----------------------------------------------------
    1      C      -0.908175     0.036123    -0.407896
    2      H      -1.054800     0.105725    -1.493937
    3      C       0.374529     0.769265    -0.091345
    4      H       0.321532     1.848839     0.021033
    5      H       0.882302     0.324260     1.061228
    6      O       2.001650    -0.197001     0.749251
    7      C       1.689821     0.234340    -0.577298
    8      H       2.396462     0.979324    -0.941729
    9      H       1.615612    -0.600130    -1.276014
   10      C      -2.093850     0.700189     0.285012
   11      H      -3.025674     0.198379     0.027142
   12      H      -2.183726     1.749149     0.002671
   13      H      -1.973213     0.652339     1.368968
   14      C      -0.824405    -1.444580    -0.036052
   15      H      -1.716811    -1.972161    -0.369796
   16      H       0.046292    -1.929604    -0.475238
   17      H      -0.748692    -1.552129     1.047134
 ----------------------------------------------------
 Molecular Point Group                 C1    NOp =  1
 Largest Abelian Subgroup              C1    NOp =  1
 Nuclear Repulsion Energy =   252.3953113959 hartrees
 There are       25 alpha and       24 beta electrons
 Requested basis set is non-standard
 There are 138 shells and 314 basis functions

Total QAlloc Memory Limit   2000 MB
Mega-Array Size        61 MB
MEM_STATIC part        62 MB
 A cutoff of  1.0D-11 yielded   9091 shell pairs
 There are     46947 function pairs (     56440 Cartesian)
 Smallest overlap matrix eigenvalue = 9.25E-06

  Scale SEOQF with 1.000000e-01/1.000000e-01/1.000000e-01

 Standard Electronic Orientation quadrupole field applied
 Nucleus-field energy     =     0.0000000051 hartrees
 Guess MOs from core Hamiltonian diagonalization
 An unrestricted hybrid HF-DFT SCF calculation will be
 performed using Pulay DIIS extrapolation
 Exchange:     0.5679 Hartree-Fock + 1.0000 M08SO
 SCF converges when DIIS error is below 1.0E-08
 ---------------------------------------
  Cycle       Energy         DIIS Error
 ---------------------------------------
    1    -191.5629608339      9.12E-02
    2    -166.7236009053      5.13E-02
    3    -175.6873717287      6.30E-02
    4    -247.8144961041      3.45E-02
    5    -268.7058790887      1.56E-02
    6    -267.3982074038      1.38E-02
    7    -271.0484131957      9.73E-03
    8    -271.8657402944      3.92E-03
    9    -272.0854071067      1.93E-03
   10    -272.1415987151      4.98E-04
   11    -272.1474325021      2.42E-04
   12    -272.1490579226      7.31E-05
   13    -272.1493654306      3.11E-05
   14    -272.1494203561      1.47E-05
   15    -272.1494318079      5.12E-06
   16    -272.1494328425      1.78E-06
   17    -272.1494330417      5.80E-07
   18    -272.1494331038      3.51E-07
   19    -272.1494331208      2.01E-07
   20    -272.1494331275      8.87E-08
   21    -272.1494331298      4.72E-08
   22    -272.1494331302      1.96E-08
   23    -272.1494331305      8.53E-09 Convergence criterion met
 ---------------------------------------
 <S^2> = 0.7583
 SCF time:  CPU 1483.50 s  wall 1628.54 s
 SCF   energy in the final basis set = -272.1494331305
 Total energy in the final basis set = -272.1494331305
 Analysis of SCF Wavefunction
 
 --------------------------------------------------------------
                    Orbital Energies (a.u.)
 --------------------------------------------------------------
 
 Alpha MOs
 -- Occupied --
-19.587 -10.543 -10.526 -10.515 -10.489 -10.487  -1.142  -0.924
 -0.817  -0.786  -0.723  -0.668  -0.585  -0.566  -0.543  -0.499
 -0.492  -0.479  -0.461  -0.444  -0.421  -0.411  -0.396  -0.369
 -0.301
 -- Virtual --
 -0.026  -0.013  -0.011  -0.005   0.012   0.013   0.019   0.029
  0.031   0.048   0.051   0.062   0.074   0.076   0.083   0.089
  0.099   0.112   0.114   0.122   0.124   0.126   0.135   0.141
  0.142   0.148   0.152   0.161   0.170   0.174   0.193   0.199
  0.204   0.215   0.223   0.231   0.239   0.249   0.256   0.269
  0.276   0.278   0.293   0.299   0.317   0.324   0.331   0.344
  0.349   0.378   0.397   0.421   0.439   0.448   0.469   0.484
  0.496   0.513   0.523   0.545   0.554   0.563   0.573   0.580
  0.585   0.588   0.592   0.600   0.608   0.615   0.620   0.630
  0.645   0.652   0.664   0.668   0.700   0.711   0.723   0.741
  0.758   0.777   0.818   0.835   0.845   0.896   0.904   0.927
  0.944   0.967   0.970   0.996   1.002   1.035   1.045   1.058
  1.076   1.090   1.103   1.117   1.121   1.144   1.150   1.166
  1.177   1.188   1.206   1.220   1.237   1.248   1.256   1.272
  1.301   1.317   1.322   1.338   1.345   1.354   1.361   1.376
  1.387   1.394   1.419   1.426   1.436   1.454   1.460   1.468
  1.469   1.500   1.537   1.542   1.547   1.584   1.589   1.602
  1.611   1.663   1.671   1.688   1.709   1.730   1.759   1.859
  1.908   2.050   2.085   2.231   2.316   2.384   2.436   2.497
  2.521   2.556   2.565   2.618   2.622   2.648   2.703   2.710
  2.731   2.760   2.774   2.803   2.833   2.877   2.884   2.910
  2.932   2.943   2.959   2.979   2.986   3.027   3.055   3.071
  3.081   3.108   3.145   3.153   3.178   3.192   3.230   3.249
  3.257   3.268   3.295   3.326   3.334   3.347   3.374   3.385
  3.410   3.422   3.428   3.459   3.483   3.508   3.525   3.550
  3.571   3.598   3.616   3.627   3.647   3.675   3.682   3.720
  3.727   3.742   3.771   3.777   3.798   3.820   3.840   3.869
  3.886   3.921   3.954   3.968   3.981   3.995   4.015   4.044
  4.059   4.093   4.126   4.139   4.149   4.168   4.197   4.208
  4.212   4.213   4.266   4.269   4.272   4.300   4.324   4.336
  4.373   4.413   4.439   4.455   4.482   4.501   4.518   4.539
  4.573   4.599   4.629   4.651   4.697   4.764   4.854   4.921
  4.933   5.065   5.099   5.158   5.219   5.236   5.261   5.298
  5.355   5.407   5.472   5.540   5.557   5.570   5.641   5.654
  5.675   5.680   5.707   5.772   5.853   6.450   6.880   7.076
  7.217   7.375   7.592  24.026  24.149  24.212  24.260  24.324
 49.835
 
 Beta MOs
 -- Occupied --
-19.569 -10.544 -10.516 -10.515 -10.489 -10.486  -1.105  -0.919
 -0.805  -0.786  -0.716  -0.655  -0.571  -0.543  -0.538  -0.488
 -0.486  -0.467  -0.456  -0.435  -0.413  -0.409  -0.380  -0.354
 -- Virtual --
 -0.065  -0.028  -0.014  -0.012  -0.006   0.011   0.012   0.017
  0.028   0.031   0.047   0.050   0.060   0.072   0.075   0.082
  0.087   0.098   0.110   0.111   0.121   0.123   0.126   0.134
  0.140   0.145   0.148   0.150   0.161   0.169   0.173   0.193
  0.201   0.205   0.217   0.225   0.233   0.239   0.249   0.258
  0.270   0.278   0.281   0.292   0.301   0.319   0.323   0.331
  0.344   0.352   0.380   0.398   0.421   0.440   0.450   0.471
  0.484   0.497   0.515   0.524   0.547   0.557   0.563   0.574
  0.582   0.585   0.595   0.600   0.601   0.610   0.616   0.620
  0.632   0.647   0.655   0.666   0.678   0.700   0.711   0.731
  0.743   0.761   0.781   0.818   0.839   0.846   0.897   0.905
  0.930   0.946   0.969   0.972   0.998   1.004   1.037   1.046
  1.059   1.077   1.091   1.109   1.118   1.128   1.145   1.151
  1.177   1.180   1.189   1.208   1.223   1.242   1.252   1.258
  1.277   1.303   1.319   1.327   1.339   1.346   1.355   1.363
  1.382   1.392   1.402   1.423   1.433   1.439   1.456   1.460
  1.471   1.473   1.504   1.542   1.548   1.552   1.586   1.594
  1.606   1.614   1.668   1.678   1.693   1.716   1.736   1.763
  1.867   1.919   2.067   2.086   2.235   2.327   2.388   2.441
  2.505   2.526   2.557   2.576   2.619   2.623   2.653   2.713
  2.717   2.741   2.775   2.791   2.816   2.838   2.883   2.892
  2.914   2.936   2.946   2.969   2.987   3.015   3.047   3.058
  3.079   3.088   3.114   3.145   3.158   3.182   3.196   3.242
  3.253   3.264   3.275   3.303   3.329   3.338   3.352   3.375
  3.389   3.414   3.434   3.436   3.464   3.494   3.526   3.538
  3.560   3.579   3.594   3.620   3.634   3.668   3.687   3.696
  3.725   3.735   3.747   3.772   3.779   3.796   3.829   3.843
  3.873   3.874   3.923   3.952   3.972   3.988   3.996   4.018
  4.042   4.059   4.097   4.130   4.135   4.155   4.173   4.196
  4.209   4.219   4.224   4.266   4.271   4.280   4.307   4.326
  4.345   4.384   4.420   4.446   4.475   4.495   4.506   4.523
  4.553   4.575   4.610   4.636   4.659   4.704   4.792   4.856
  4.913   4.969   5.106   5.134   5.144   5.233   5.257   5.273
  5.297   5.382   5.406   5.504   5.540   5.580   5.605   5.645
  5.659   5.684   5.705   5.716   5.754   5.872   6.429   6.912
  7.097   7.208   7.430   7.605  24.030  24.152  24.212  24.260
 24.329  49.835
 --------------------------------------------------------------
 
          Ground-State Mulliken Net Atomic Charges

     Atom                 Charge (a.u.)    Spin (a.u.)
  --------------------------------------------------------
      1 C                    -0.092580      -0.031432
      2 H                     0.245154       0.032911
      3 C                    -0.124927       0.541090
      4 H                     0.284401      -0.007707
      5 H                     0.232607      -0.035324
      6 O                    -0.211676       0.516950
      7 C                    -0.556265      -0.007650
      8 H                     0.206769       0.002490
      9 H                     0.206047       0.001984
     10 C                    -0.639436      -0.009158
     11 H                     0.196320      -0.000706
     12 H                     0.187354       0.000732
     13 H                     0.216945       0.003024
     14 C                    -0.828619      -0.007087
     15 H                     0.221401      -0.003651
     16 H                     0.221377      -0.001983
     17 H                     0.235127       0.005515
  --------------------------------------------------------
  Sum of atomic charges =     0.000000
  Sum of spin   charges =     1.000000

 -----------------------------------------------------------------
                    Cartesian Multipole Moments
 -----------------------------------------------------------------
    Charge (ESU x 10^10)
                 0.0000
    Dipole Moment (Debye)
         X      -1.7038      Y       0.8262      Z      -1.5774
       Tot       2.4645
    Quadrupole Moments (Debye-Ang)
        XX     -43.5203     XY       1.5481     YY     -39.3684
        XZ      -3.5728     YZ       0.5336     ZZ     -40.5990
    Octapole Moments (Debye-Ang^2)
       XXX      -2.3912    XXY       1.4088    XYY       2.7330
       YYY       2.5728    XXZ      -9.4491    XYZ       0.6506
       YYZ      -0.7501    XZZ       0.3985    YZZ      -0.6997
       ZZZ       1.8013
    Hexadecapole Moments (Debye-Ang^3)
      XXXX    -621.5982   XXXY       9.5417   XXYY    -138.1852
      XYYY      -0.4299   YYYY    -229.5722   XXXZ     -12.2151
      XXYZ       0.5901   XYYZ       0.4956   YYYZ       0.0190
      XXZZ    -128.1736   XYZZ      -0.1125   YYZZ     -61.3012
      XZZZ       1.7257   YZZZ      -1.0468   ZZZZ    -122.4221
 -----------------------------------------------------------------
 Calculating analytic gradient of the SCF energy
 Gradient of Coulomb and Exchange Energy
            1           2           3           4           5           6
    1   4.2249719   0.8723213  -1.8823368   0.0718349   0.0984566  -8.7581934
    2   2.1707037  -0.2611654  -5.4242120  -5.1942548   0.0803180   3.5982444
    3  -0.9786947   4.8246010   3.8829398  -0.4459852  -2.6436188  -7.5624848
            7           8           9          10          11          12
    1  -2.7917000  -3.2737177  -0.2863176   3.8476249   3.6740240   0.9248324
    2  -0.6602944  -3.1278550   3.3003402  -1.2199895   1.3112250  -3.7870842
    3   0.9945694   1.9771182   3.5018006  -0.3813071   0.5571144   0.6487087
           13          14          15          16          17
    1   0.4366625   2.6712552   3.2105894  -2.9218068  -0.1185010
    2  -0.3275660   3.1540068   2.6324051   2.4887950   1.2663831
    3  -3.9308986   1.0099010   1.0184322   1.3350068  -3.8072029
 Gradient of SCF Energy
            1           2           3           4           5           6
    1  -0.0007365   0.0007815   0.0009382   0.0005063   0.0041115  -0.0057657
    2   0.0003423  -0.0003997   0.0003236  -0.0045007  -0.0016575   0.0038403
    3  -0.0007187   0.0046156   0.0000240  -0.0005786  -0.0025872  -0.0021495
            7           8           9          10          11          12
    1   0.0008816  -0.0028326  -0.0001755  -0.0013126   0.0043981   0.0004415
    2  -0.0005315  -0.0027648   0.0038939   0.0003506   0.0023974  -0.0048067
    3  -0.0009683   0.0018955   0.0033605   0.0006144   0.0010645   0.0012830
           13          14          15          16          17
    1  -0.0006950  -0.0001268   0.0041038  -0.0039970  -0.0005209
    2   0.0004221  -0.0021346   0.0025086   0.0022642   0.0004526
    3  -0.0047300   0.0000638   0.0016943   0.0020526  -0.0049358
 Max gradient component =       5.766E-03
 RMS gradient           =       2.540E-03
 Gradient time:  CPU 97.68 s  wall 101.09 s
 Geometry Optimization Parameters
   NAtoms,    NIC,     NZ,  NCons,   NDum,   NFix, NCnnct, MaxDiis
       17     126      17       0       0       0       0       0


** GEOMETRY OPTIMIZATION IN DELOCALIZED INTERNAL COORDINATES **
   Searching for a Transition State

   Optimization Cycle:   1

                       Coordinates (Angstroms)
     ATOM              X           Y           Z
      1  C        -0.908175    0.036123   -0.407896
      2  H        -1.054800    0.105725   -1.493937
      3  C         0.374529    0.769265   -0.091345
      4  H         0.321532    1.848839    0.021033
      5  H         0.882302    0.324260    1.061228
      6  O         2.001650   -0.197001    0.749251
      7  C         1.689821    0.234340   -0.577298
      8  H         2.396462    0.979324   -0.941729
      9  H         1.615612   -0.600130   -1.276014
     10  C        -2.093850    0.700189    0.285012
     11  H        -3.025674    0.198379    0.027142
     12  H        -2.183726    1.749149    0.002671
     13  H        -1.973213    0.652339    1.368968
     14  C        -0.824405   -1.444580   -0.036052
     15  H        -1.716811   -1.972161   -0.369796
     16  H         0.046292   -1.929604   -0.475238
     17  H        -0.748692   -1.552129    1.047134
   Point Group: c1    Number of degrees of freedom:    45


   Energy is   -272.149433131


 Attempting to Generate Delocalized Internal Coordinates
 GETINT wrote B to file, NVib is           45
 calling HSSCONV
 HCONV 3*NATOMS:           51
 wrote HINT to file
  writing hessian 

 45 Hessian modes will be used to form the next step
  Hessian Eigenvalues:
     0.005346    0.005815    0.007264    0.007728    0.025434    0.037312
     0.038048    0.049232    0.051103    0.054312    0.055494    0.056316
     0.057530    0.057749    0.065154    0.087324    0.099132    0.106717
     0.110187    0.160000    0.160000    0.160000    0.160000    0.160000
     0.160000    0.162581    0.168121    0.169570    0.170450    0.199367
     0.295182    0.298498    0.301432    0.312532    0.338929    0.346173
     0.346810    0.347094    0.348119    0.348628    0.348919    0.349112
     0.349181    0.351967    0.374131
**WARNING** Hessian does not have the Desired Local Structure

 Transition State Search - Taking P-RFO Step
 Searching for Lamda that Maximizes Along the Lowest mode
 Value Taken    Lamda =   0.00534602
 Searching for Lamda that Minimizes Along All other modes
 Value Taken    Lamda =  -0.00107024
 Calculated Step too Large.  Step scaled by  0.001958
 Step Taken.  Stepsize is  0.300000

                             Maximum     Tolerance    Cnvgd?
         Gradient           0.012225      0.000300      NO
         Displacement       0.112610      0.001200      NO
         Energy change     *********      0.000001      NO


 New Cartesian Coordinates Obtained by Inverse Iteration

 Displacement from previous Coordinates is:  0.323502
 ----------------------------------------------------
       Standard Nuclear Orientation (Angstroms)
    I     Atom         X            Y            Z
 ----------------------------------------------------
    1      C      -0.909907     0.036715    -0.404443
    2      H      -1.062611     0.106252    -1.489664
    3      C       0.375341     0.768584    -0.095304
    4      H       0.324110     1.848250     0.017143
    5      H       0.889150     0.323283     1.054487
    6      O       2.006187    -0.199242     0.736294
    7      C       1.687312     0.232162    -0.588569
    8      H       2.392677     0.976329    -0.957157
    9      H       1.608280    -0.602387    -1.286685
   10      C      -2.090953     0.702160     0.295043
   11      H      -3.024759     0.201260     0.042563
   12      H      -2.181340     1.751172     0.012998
   13      H      -1.964216     0.654398     1.378321
   14      C      -0.825566    -1.444009    -0.032763
   15      H      -1.671280    -1.989859    -0.448652
   16      H       0.092640    -1.906087    -0.392846
   17      H      -0.846210    -1.556654     1.052368
 ----------------------------------------------------
 Molecular Point Group                 C1    NOp =  1
 Largest Abelian Subgroup              C1    NOp =  1
 Nuclear Repulsion Energy =   252.4064188780 hartrees
 There are       25 alpha and       24 beta electrons
 Applying Cartesian multipole field
    Component          Value
    ---------          -----
     (2,0,0)        1.00000E-11
     (0,2,0)        2.00000E-11
     (0,0,2)       -3.00000E-11
 Nucleus-field energy     =     0.0000000050 hartrees
 Requested basis set is non-standard
 There are 138 shells and 314 basis functions
 A cutoff of  1.0D-11 yielded   9090 shell pairs
 There are     46942 function pairs (     56434 Cartesian)
 Smallest overlap matrix eigenvalue = 9.14E-06
 Guess MOs from SCF MO coefficient file
Reading MOs from coefficient file
Reading MOs from coefficient file
 An unrestricted hybrid HF-DFT SCF calculation will be
 performed using Pulay DIIS extrapolation
 Exchange:     0.5679 Hartree-Fock + 1.0000 M08SO
 SCF converges when DIIS error is below 1.0E-08
Geometry optimization detected.  Setting ReadMinima to 0
Setting SaveMinima to 0
 Inaccurate integrated density:
   Number of electrons =    49
   Numerical integral  =    48.989879650898
   Relative error      =    -0.0206537737 %
 ---------------------------------------
  Cycle       Energy         DIIS Error
 ---------------------------------------
    1    -272.1429685027      3.53E-04
    2    -272.1492033648      6.21E-05
    3    -272.1492886763      3.93E-05
    4    -272.1493079378      1.05E-05
    5    -272.1493092271      6.14E-06
    6    -272.1493096251      1.11E-06
    7    -272.1493096472      2.76E-07
    8    -272.1493096528      1.62E-07
    9    -272.1493096559      8.78E-08
   10    -272.1493096579      4.47E-08
   11    -272.1493096581      2.68E-08
   12    -272.1493096581      1.29E-08
   13    -272.1493096570      3.96E-09 Convergence criterion met
 ---------------------------------------
 <S^2> = 0.7583
 SCF time:  CPU 816.68 s  wall 849.79 s
 SCF   energy in the final basis set = -272.1493096570
 Total energy in the final basis set = -272.1493096570
 Analysis of SCF Wavefunction
 
 --------------------------------------------------------------
                    Orbital Energies (a.u.)
 --------------------------------------------------------------
 
 Alpha MOs
 -- Occupied --
-19.587 -10.543 -10.526 -10.515 -10.489 -10.487  -1.142  -0.924
 -0.817  -0.786  -0.723  -0.668  -0.585  -0.567  -0.543  -0.499
 -0.491  -0.479  -0.462  -0.444  -0.421  -0.411  -0.396  -0.369
 -0.301
 -- Virtual --
 -0.026  -0.013  -0.011  -0.005   0.013   0.013   0.019   0.029
  0.031   0.047   0.052   0.062   0.074   0.076   0.084   0.090
  0.098   0.112   0.114   0.122   0.124   0.126   0.135   0.142
  0.142   0.148   0.151   0.163   0.170   0.172   0.193   0.197
  0.206   0.215   0.222   0.231   0.239   0.249   0.257   0.268
  0.275   0.279   0.290   0.302   0.318   0.326   0.332   0.344
  0.351   0.379   0.398   0.422   0.441   0.447   0.468   0.480
  0.496   0.513   0.524   0.542   0.555   0.562   0.573   0.579
  0.585   0.588   0.593   0.601   0.607   0.615   0.620   0.630
  0.645   0.652   0.665   0.668   0.700   0.708   0.721   0.740
  0.759   0.771   0.821   0.843   0.849   0.893   0.902   0.928
  0.945   0.967   0.973   0.993   0.998   1.033   1.048   1.060
  1.079   1.088   1.104   1.121   1.126   1.143   1.155   1.166
  1.171   1.188   1.202   1.225   1.240   1.247   1.251   1.280
  1.300   1.312   1.321   1.343   1.346   1.356   1.364   1.372
  1.387   1.393   1.419   1.423   1.432   1.446   1.457   1.469
  1.471   1.498   1.536   1.540   1.550   1.582   1.591   1.600
  1.608   1.663   1.670   1.686   1.708   1.744   1.760   1.858
  1.913   2.049   2.085   2.232   2.317   2.385   2.436   2.497
  2.522   2.552   2.564   2.612   2.621   2.648   2.697   2.718
  2.733   2.758   2.775   2.797   2.837   2.877   2.885   2.910
  2.934   2.943   2.957   2.980   2.987   3.028   3.054   3.073
  3.084   3.108   3.147   3.151   3.176   3.190   3.227   3.246
  3.260   3.265   3.294   3.319   3.336   3.350   3.369   3.383
  3.411   3.422   3.437   3.463   3.481   3.510   3.526   3.553
  3.566   3.601   3.614   3.631   3.650   3.673   3.683   3.713
  3.733   3.738   3.773   3.777   3.799   3.818   3.842   3.875
  3.891   3.917   3.960   3.970   3.977   3.996   4.015   4.045
  4.054   4.095   4.123   4.139   4.150   4.174   4.195   4.205
  4.213   4.217   4.259   4.266   4.272   4.306   4.323   4.325
  4.374   4.412   4.442   4.464   4.482   4.503   4.517   4.540
  4.570   4.598   4.631   4.655   4.697   4.764   4.855   4.921
  4.934   5.065   5.100   5.158   5.218   5.234   5.259   5.297
  5.356   5.407   5.472   5.542   5.557   5.571   5.641   5.651
  5.676   5.678   5.707   5.770   5.853   6.449   6.879   7.077
  7.219   7.374   7.592  24.027  24.151  24.212  24.259  24.324
 49.836
 
 Beta MOs
 -- Occupied --
-19.569 -10.544 -10.516 -10.515 -10.489 -10.486  -1.105  -0.919
 -0.805  -0.786  -0.716  -0.655  -0.571  -0.543  -0.538  -0.488
 -0.486  -0.466  -0.456  -0.435  -0.413  -0.408  -0.380  -0.354
 -- Virtual --
 -0.065  -0.028  -0.014  -0.012  -0.006   0.011   0.012   0.017
  0.028   0.031   0.046   0.051   0.060   0.073   0.074   0.082
  0.088   0.097   0.110   0.112   0.121   0.123   0.126   0.133
  0.141   0.145   0.147   0.149   0.162   0.169   0.172   0.192
  0.201   0.205   0.216   0.225   0.233   0.238   0.250   0.259
  0.269   0.277   0.281   0.290   0.304   0.320   0.325   0.332
  0.344   0.353   0.381   0.399   0.422   0.441   0.450   0.471
  0.481   0.497   0.515   0.525   0.544   0.558   0.562   0.575
  0.581   0.585   0.595   0.600   0.602   0.609   0.616   0.620
  0.633   0.646   0.656   0.666   0.677   0.701   0.708   0.730
  0.741   0.761   0.777   0.822   0.846   0.851   0.895   0.902
  0.931   0.947   0.969   0.975   0.996   1.001   1.034   1.049
  1.061   1.079   1.089   1.111   1.122   1.132   1.145   1.157
  1.173   1.178   1.190   1.204   1.227   1.244   1.251   1.256
  1.285   1.302   1.316   1.323   1.344   1.347   1.357   1.367
  1.377   1.391   1.402   1.425   1.430   1.435   1.447   1.459
  1.470   1.474   1.502   1.541   1.547   1.555   1.584   1.596
  1.605   1.612   1.667   1.677   1.691   1.715   1.750   1.764
  1.867   1.923   2.066   2.086   2.235   2.327   2.389   2.439
  2.504   2.528   2.553   2.575   2.613   2.622   2.653   2.709
  2.726   2.742   2.774   2.790   2.811   2.841   2.883   2.893
  2.915   2.938   2.946   2.967   2.987   3.017   3.047   3.058
  3.080   3.090   3.115   3.149   3.156   3.182   3.193   3.238
  3.250   3.269   3.274   3.301   3.321   3.341   3.353   3.371
  3.388   3.414   3.435   3.444   3.470   3.492   3.529   3.538
  3.564   3.570   3.598   3.619   3.639   3.668   3.688   3.694
  3.720   3.738   3.744   3.772   3.781   3.796   3.828   3.844
  3.876   3.884   3.921   3.957   3.974   3.982   3.997   4.018
  4.043   4.055   4.100   4.126   4.137   4.156   4.175   4.194
  4.207   4.221   4.224   4.263   4.269   4.275   4.312   4.325
  4.335   4.386   4.420   4.450   4.482   4.497   4.511   4.520
  4.553   4.572   4.611   4.638   4.663   4.703   4.792   4.856
  4.915   4.969   5.106   5.135   5.143   5.231   5.257   5.271
  5.295   5.383   5.406   5.504   5.543   5.579   5.606   5.645
  5.658   5.682   5.705   5.716   5.752   5.871   6.429   6.911
  7.098   7.210   7.429   7.605  24.031  24.154  24.212  24.259
 24.329  49.836
 --------------------------------------------------------------
 
          Ground-State Mulliken Net Atomic Charges

     Atom                 Charge (a.u.)    Spin (a.u.)
  --------------------------------------------------------
      1 C                    -0.092024      -0.032732
      2 H                     0.243741       0.033180
      3 C                    -0.115405       0.543003
      4 H                     0.286519      -0.007814
      5 H                     0.234410      -0.035255
      6 O                    -0.210187       0.516655
      7 C                    -0.574281      -0.007136
      8 H                     0.204611       0.002436
      9 H                     0.209581       0.002054
     10 C                    -0.646734      -0.009319
     11 H                     0.197790      -0.000811
     12 H                     0.187868       0.000760
     13 H                     0.217340       0.002921
     14 C                    -0.820677      -0.007895
     15 H                     0.222950      -0.003567
     16 H                     0.227499      -0.002468
     17 H                     0.227000       0.005989
  --------------------------------------------------------
  Sum of atomic charges =     0.000000
  Sum of spin   charges =     1.000000

 -----------------------------------------------------------------
                    Cartesian Multipole Moments
 -----------------------------------------------------------------
    Charge (ESU x 10^10)
                 0.0000
    Dipole Moment (Debye)
         X      -1.7101      Y       0.8310      Z      -1.5700
       Tot       2.4658
    Quadrupole Moments (Debye-Ang)
        XX     -43.5577     XY       1.5522     YY     -39.3774
        XZ      -3.5502     YZ       0.5309     ZZ     -40.5481
    Octapole Moments (Debye-Ang^2)
       XXX      -2.4242    XXY       1.4574    XYY       2.7270
       YYY       2.6104    XXZ      -9.3818    XYZ       0.5892
       YYZ      -0.7038    XZZ       0.3386    YZZ      -0.6980
       ZZZ       1.9977
    Hexadecapole Moments (Debye-Ang^3)
      XXXX    -622.3914   XXXY       9.3987   XXYY    -138.2454
      XYYY      -0.2328   YYYY    -229.6026   XXXZ     -10.8345
      XXYZ       0.6522   XYYZ       1.0995   YYYZ       0.0345
      XXZZ    -127.6963   XYZZ       0.2874   YYZZ     -61.2876
      XZZZ       3.1383   YZZZ      -1.0239   ZZZZ    -122.4909
 -----------------------------------------------------------------
 Calculating analytic gradient of the SCF energy
 Gradient of Coulomb and Exchange Energy
            1           2           3           4           5           6
    1   4.0108254   0.8979992  -1.7790808   0.0773729   0.0866104  -8.7834255
    2   2.2669128  -0.2732534  -5.4938680  -5.1909550   0.0857970   3.5944914
    3  -1.0028140   4.8283146   3.8248648  -0.4569963  -2.6415132  -7.5029539
            7           8           9          10          11          12
    1  -2.8201403  -3.2749653  -0.2581529   3.9777086   3.6665661   0.9254101
    2  -0.7484272  -3.1267040   3.3010266  -1.1831482   1.3234275  -3.7940498
    3   1.0534684   1.9965214   3.4961648  -0.3286047   0.5282429   0.6485594
           13          14          15          16          17
    1   0.4006069   2.6644849   3.0392177  -3.0706636   0.2396263
    2  -0.3174579   3.1476107   2.7062658   2.4333497   1.2689820
    3  -3.9364251   0.9027811   1.3474671   1.0503806  -3.8074577
 Gradient of SCF Energy
            1           2           3           4           5           6
    1  -0.0009910   0.0005659   0.0009534   0.0004771   0.0040544  -0.0057776
    2   0.0001521  -0.0004992   0.0002033  -0.0044973  -0.0015988   0.0037764
    3  -0.0007762   0.0045746  -0.0001925  -0.0006295  -0.0026735  -0.0021057
            7           8           9          10          11          12
    1   0.0009374  -0.0028036  -0.0001414  -0.0011389   0.0044515   0.0005149
    2  -0.0006290  -0.0027479   0.0039099   0.0002904   0.0024245  -0.0047952
    3  -0.0010659   0.0019194   0.0034190   0.0009420   0.0010006   0.0013403
           13          14          15          16          17
    1  -0.0007863   0.0001636   0.0039929  -0.0040185  -0.0004538
    2   0.0004413  -0.0017860   0.0026376   0.0022778   0.0004403
    3  -0.0046634   0.0004087   0.0015437   0.0019248  -0.0049665
 Max gradient component =       5.778E-03
 RMS gradient           =       2.532E-03
 Gradient time:  CPU 94.68 s  wall 99.74 s
 Geometry Optimization Parameters
   NAtoms,    NIC,     NZ,  NCons,   NDum,   NFix, NCnnct, MaxDiis
       17     126      17       0       0       0       0       0

 Cartesian Hessian Update
 Hessian Updated using Powell/Murtagh-Sargent Update
  Mixing factors:     0.000008 Powell
                      0.999992 Murtagh-Sargent


** GEOMETRY OPTIMIZATION IN DELOCALIZED INTERNAL COORDINATES **
   Searching for a Transition State

   Optimization Cycle:   2

                       Coordinates (Angstroms)
     ATOM              X           Y           Z
      1  C        -0.909907    0.036715   -0.404443
      2  H        -1.062611    0.106252   -1.489664
      3  C         0.375341    0.768584   -0.095304
      4  H         0.324110    1.848250    0.017143
      5  H         0.889150    0.323283    1.054487
      6  O         2.006187   -0.199242    0.736294
      7  C         1.687312    0.232162   -0.588569
      8  H         2.392677    0.976329   -0.957157
      9  H         1.608280   -0.602387   -1.286685
     10  C        -2.090953    0.702160    0.295043
     11  H        -3.024759    0.201260    0.042563
     12  H        -2.181340    1.751172    0.012998
     13  H        -1.964216    0.654398    1.378321
     14  C        -0.825566   -1.444009   -0.032763
     15  H        -1.671280   -1.989859   -0.448652
     16  H         0.092640   -1.906087   -0.392846
     17  H        -0.846210   -1.556654    1.052368
   Point Group: c1    Number of degrees of freedom:    45


   Energy is   -272.149309657

 GETINT wrote B to file, NVib is           45
 Hessian Updated using Powell/Murtagh-Sargent Update
  Mixing factors:     0.443326 Powell
                      0.556674 Murtagh-Sargent

 45 Hessian modes will be used to form the next step
  Hessian Eigenvalues:
     0.002453    0.005826    0.007264    0.007727    0.025434    0.037302
     0.038048    0.049169    0.051045    0.054310    0.055428    0.056316
     0.057527    0.057748    0.065145    0.087324    0.099131    0.106717
     0.110179    0.159678    0.160000    0.160000    0.160000    0.160000
     0.160000    0.162581    0.168063    0.169554    0.170449    0.199367
     0.294743    0.298498    0.301411    0.312497    0.338922    0.346168
     0.346810    0.347086    0.348119    0.348628    0.348913    0.349109
     0.349170    0.351967    0.374130
**WARNING** Hessian does not have the Desired Local Structure

 Transition State Search - Taking P-RFO Step
 Searching for Lamda that Maximizes Along the Lowest mode
 Value Taken    Lamda =   0.00267573
 Searching for Lamda that Minimizes Along All other modes
 Value Taken    Lamda =  -0.00107395
 Calculated Step too Large.  Step scaled by  0.086544
 Step Taken.  Stepsize is  0.300000

                             Maximum     Tolerance    Cnvgd?
         Gradient           0.012061      0.000300      NO
         Displacement       0.115656      0.001200      NO
         Energy change      0.000123      0.000001      NO


 New Cartesian Coordinates Obtained by Inverse Iteration

 Displacement from previous Coordinates is:  0.328251
 ----------------------------------------------------
       Standard Nuclear Orientation (Angstroms)
    I     Atom         X            Y            Z
 ----------------------------------------------------
    1      C      -0.910807     0.036889    -0.400773
    2      H      -1.069432     0.107616    -1.485612
    3      C       0.377262     0.767113    -0.096305
    4      H       0.327058     1.846836     0.021762
    5      H       0.898474     0.315982     1.048647
    6      O       2.015317    -0.203564     0.720483
    7      C       1.686256     0.232735    -0.600736
    8      H       2.388869     0.978972    -0.972013
    9      H       1.602766    -0.599593    -1.302189
   10      C      -2.088297     0.705427     0.302955
   11      H      -3.023590     0.199735     0.062547
   12      H      -2.184162     1.752549     0.013144
   13      H      -1.951720     0.666104     1.385936
   14      C      -0.829299    -1.445436    -0.029081
   15      H      -1.621474    -2.008591    -0.521664
   16      H       0.128633    -1.886418    -0.303846
   17      H      -0.946998    -1.564029     1.049879
 ----------------------------------------------------
 Molecular Point Group                 C1    NOp =  1
 Largest Abelian Subgroup              C1    NOp =  1
 Nuclear Repulsion Energy =   252.2522454569 hartrees
 There are       25 alpha and       24 beta electrons
 Applying Cartesian multipole field
    Component          Value
    ---------          -----
     (2,0,0)        1.00000E-11
     (0,2,0)        2.00000E-11
     (0,0,2)       -3.00000E-11
 Nucleus-field energy     =     0.0000000051 hartrees
 Requested basis set is non-standard
 There are 138 shells and 314 basis functions
 A cutoff of  1.0D-11 yielded   9086 shell pairs
 There are     46908 function pairs (     56392 Cartesian)
 Smallest overlap matrix eigenvalue = 9.09E-06
 Guess MOs from SCF MO coefficient file
Reading MOs from coefficient file
Reading MOs from coefficient file
 An unrestricted hybrid HF-DFT SCF calculation will be
 performed using Pulay DIIS extrapolation
 Exchange:     0.5679 Hartree-Fock + 1.0000 M08SO
 SCF converges when DIIS error is below 1.0E-08
Geometry optimization detected.  Setting ReadMinima to 0
Setting SaveMinima to 0
 Inaccurate integrated density:
   Number of electrons =    49
   Numerical integral  =    48.988122481412
   Relative error      =    -0.0242398339 %
 ---------------------------------------
  Cycle       Energy         DIIS Error
 ---------------------------------------
    1    -272.1422599619      3.59E-04
    2    -272.1489525569      6.50E-05
    3    -272.1490410400      4.40E-05
    4    -272.1490655099      1.03E-05
    5    -272.1490668069      6.68E-06
    6    -272.1490672828      1.17E-06
    7    -272.1490673126      3.34E-07
    8    -272.1490673191      1.69E-07
    9    -272.1490673218      6.14E-08
   10    -272.1490673222      1.85E-08
   11    -272.1490673221      8.39E-09 Convergence criterion met
 ---------------------------------------
 <S^2> = 0.7583
 SCF time:  CPU 705.01 s  wall 731.25 s
 SCF   energy in the final basis set = -272.1490673221
 Total energy in the final basis set = -272.1490673221
 Analysis of SCF Wavefunction
 
 --------------------------------------------------------------
                    Orbital Energies (a.u.)
 --------------------------------------------------------------
 
 Alpha MOs
 -- Occupied --
-19.587 -10.544 -10.526 -10.515 -10.490 -10.487  -1.142  -0.923
 -0.817  -0.786  -0.723  -0.668  -0.585  -0.567  -0.543  -0.499
 -0.490  -0.479  -0.462  -0.444  -0.421  -0.411  -0.395  -0.369
 -0.302
 -- Virtual --
 -0.026  -0.013  -0.011  -0.005   0.013   0.013   0.019   0.029
  0.030   0.046   0.053   0.061   0.072   0.077   0.085   0.091
  0.098   0.111   0.115   0.122   0.124   0.126   0.134   0.141
  0.142   0.148   0.151   0.163   0.169   0.172   0.192   0.196
  0.208   0.215   0.221   0.229   0.238   0.249   0.259   0.267
  0.274   0.279   0.286   0.306   0.318   0.328   0.334   0.343
  0.352   0.379   0.398   0.424   0.443   0.447   0.466   0.476
  0.496   0.513   0.525   0.538   0.555   0.561   0.572   0.580
  0.584   0.587   0.593   0.602   0.605   0.614   0.620   0.631
  0.644   0.653   0.663   0.668   0.700   0.707   0.718   0.738
  0.758   0.768   0.823   0.849   0.856   0.883   0.905   0.930
  0.946   0.969   0.977   0.989   0.998   1.030   1.050   1.061
  1.078   1.086   1.103   1.120   1.126   1.146   1.157   1.168
  1.171   1.189   1.200   1.228   1.243   1.245   1.248   1.288
  1.299   1.302   1.323   1.343   1.347   1.355   1.359   1.375
  1.385   1.393   1.410   1.426   1.427   1.442   1.454   1.468
  1.476   1.495   1.534   1.536   1.551   1.579   1.590   1.596
  1.607   1.659   1.668   1.684   1.705   1.756   1.761   1.854
  1.917   2.047   2.084   2.231   2.316   2.386   2.435   2.495
  2.521   2.543   2.563   2.607   2.620   2.646   2.693   2.719
  2.738   2.756   2.778   2.792   2.838   2.876   2.887   2.911
  2.937   2.942   2.958   2.980   2.986   3.029   3.051   3.075
  3.088   3.108   3.141   3.153   3.177   3.189   3.223   3.240
  3.261   3.263   3.296   3.310   3.338   3.350   3.365   3.378
  3.410   3.418   3.439   3.471   3.478   3.508   3.529   3.550
  3.570   3.600   3.614   3.637   3.653   3.669   3.684   3.707
  3.730   3.740   3.773   3.778   3.797   3.815   3.843   3.877
  3.894   3.916   3.956   3.968   3.979   3.996   4.008   4.045
  4.056   4.096   4.117   4.137   4.150   4.179   4.191   4.198
  4.212   4.222   4.247   4.263   4.271   4.310   4.315   4.320
  4.373   4.408   4.443   4.473   4.479   4.504   4.515   4.542
  4.562   4.598   4.630   4.657   4.692   4.763   4.856   4.920
  4.934   5.064   5.099   5.157   5.216   5.231   5.255   5.296
  5.355   5.406   5.470   5.542   5.556   5.569   5.638   5.647
  5.673   5.676   5.702   5.768   5.849   6.447   6.878   7.076
  7.218   7.373   7.591  24.027  24.151  24.207  24.254  24.320
 49.835
 
 Beta MOs
 -- Occupied --
-19.569 -10.544 -10.516 -10.515 -10.490 -10.486  -1.105  -0.919
 -0.805  -0.785  -0.716  -0.655  -0.571  -0.543  -0.537  -0.488
 -0.485  -0.466  -0.457  -0.435  -0.413  -0.408  -0.380  -0.355
 -- Virtual --
 -0.065  -0.028  -0.014  -0.012  -0.006   0.011   0.012   0.017
  0.027   0.031   0.046   0.051   0.060   0.071   0.075   0.083
  0.089   0.097   0.110   0.113   0.121   0.123   0.126   0.132
  0.141   0.144   0.147   0.149   0.163   0.168   0.171   0.192
  0.199   0.207   0.215   0.224   0.233   0.237   0.249   0.261
  0.268   0.275   0.282   0.287   0.307   0.320   0.327   0.333
  0.342   0.356   0.382   0.399   0.424   0.444   0.449   0.469
  0.477   0.497   0.515   0.526   0.541   0.558   0.561   0.573
  0.581   0.584   0.594   0.599   0.603   0.609   0.616   0.620
  0.633   0.646   0.656   0.664   0.677   0.701   0.707   0.727
  0.739   0.760   0.775   0.824   0.850   0.859   0.884   0.905
  0.933   0.948   0.971   0.979   0.992   1.001   1.032   1.051
  1.062   1.079   1.087   1.111   1.123   1.130   1.149   1.159
  1.173   1.179   1.190   1.203   1.229   1.247   1.248   1.252
  1.293   1.300   1.308   1.325   1.344   1.348   1.357   1.364
  1.376   1.389   1.400   1.418   1.429   1.432   1.443   1.458
  1.469   1.478   1.498   1.538   1.544   1.557   1.580   1.596
  1.600   1.611   1.662   1.675   1.689   1.713   1.760   1.766
  1.863   1.927   2.064   2.086   2.234   2.327   2.391   2.437
  2.501   2.528   2.544   2.574   2.607   2.622   2.650   2.705
  2.731   2.744   2.773   2.792   2.807   2.841   2.883   2.893
  2.917   2.941   2.946   2.968   2.987   3.017   3.045   3.056
  3.081   3.094   3.116   3.144   3.158   3.182   3.191   3.231
  3.246   3.267   3.275   3.302   3.312   3.343   3.353   3.367
  3.384   3.413   3.431   3.445   3.480   3.492   3.528   3.542
  3.559   3.574   3.600   3.618   3.644   3.667   3.688   3.692
  3.714   3.734   3.746   3.771   3.782   3.795   3.825   3.845
  3.877   3.892   3.918   3.959   3.968   3.978   3.997   4.013
  4.041   4.057   4.103   4.116   4.140   4.155   4.179   4.193
  4.200   4.219   4.226   4.250   4.265   4.274   4.316   4.321
  4.326   4.386   4.417   4.452   4.483   4.496   4.516   4.519
  4.555   4.565   4.610   4.637   4.666   4.698   4.790   4.856
  4.915   4.968   5.104   5.134   5.141   5.230   5.255   5.266
  5.294   5.383   5.406   5.503   5.544   5.576   5.604   5.641
  5.655   5.678   5.701   5.715   5.749   5.868   6.427   6.910
  7.097   7.208   7.428   7.605  24.031  24.154  24.207  24.255
 24.325  49.836
 --------------------------------------------------------------
 
          Ground-State Mulliken Net Atomic Charges

     Atom                 Charge (a.u.)    Spin (a.u.)
  --------------------------------------------------------
      1 C                    -0.070670      -0.033522
      2 H                     0.242100       0.033234
      3 C                    -0.115129       0.543475
      4 H                     0.287941      -0.007901
      5 H                     0.236468      -0.034923
      6 O                    -0.210187       0.517252
      7 C                    -0.589719      -0.007164
      8 H                     0.201722       0.002307
      9 H                     0.213338       0.002155
     10 C                    -0.666585      -0.009270
     11 H                     0.200065      -0.000878
     12 H                     0.188959       0.000774
     13 H                     0.218313       0.002828
     14 C                    -0.807442      -0.008444
     15 H                     0.220080      -0.003320
     16 H                     0.233938      -0.002805
     17 H                     0.216808       0.006201
  --------------------------------------------------------
  Sum of atomic charges =     0.000000
  Sum of spin   charges =     1.000000

 -----------------------------------------------------------------
                    Cartesian Multipole Moments
 -----------------------------------------------------------------
    Charge (ESU x 10^10)
                 0.0000
    Dipole Moment (Debye)
         X      -1.7193      Y       0.8388      Z      -1.5579
       Tot       2.4671
    Quadrupole Moments (Debye-Ang)
        XX     -43.6274     XY       1.5715     YY     -39.3892
        XZ      -3.5226     YZ       0.5250     ZZ     -40.4947
    Octapole Moments (Debye-Ang^2)
       XXX      -2.6161    XXY       1.5523    XYY       2.6858
       YYY       2.6560    XXZ      -9.2737    XYZ       0.5391
       YYZ      -0.6437    XZZ       0.2984    YZZ      -0.6957
       ZZZ       2.1792
    Hexadecapole Moments (Debye-Ang^3)
      XXXX    -624.6275   XXXY       9.2566   XXYY    -138.5876
      XYYY      -0.0967   YYYY    -230.1004   XXXZ      -9.6375
      XXYZ       0.6154   XYYZ       1.7156   YYYZ       0.1220
      XXZZ    -127.4031   XYZZ       0.6189   YYZZ     -61.2901
      XZZZ       4.5942   YZZZ      -0.8566   ZZZZ    -122.5179
 -----------------------------------------------------------------
 Calculating analytic gradient of the SCF energy
 Gradient of Coulomb and Exchange Energy
            1           2           3           4           5           6
    1   3.7369740   0.9242609  -1.6763684   0.0842272   0.0869770  -8.8327577
    2   2.5320703  -0.2893652  -5.6619310  -5.1842879   0.1147854   3.5949730
    3  -1.1596841   4.8240764   3.8663609  -0.4955950  -2.6439755  -7.4091784
            7           8           9          10          11          12
    1  -2.8118024  -3.2658039  -0.2351704   4.1090937   3.6527546   0.9404375
    2  -0.7942497  -3.1360894   3.2771670  -1.2712842   1.3580054  -3.7933801
    3   1.0855069   2.0065542   3.5054911  -0.2552265   0.4796597   0.6786728
           13          14          15          16          17
    1   0.3491105   2.6762787   2.8384908  -3.1854402   0.6087381
    2  -0.3291991   3.1611156   2.7720303   2.3797169   1.2699225
    3  -3.9319920   0.8327979   1.6428958   0.7521981  -3.7785623
 Gradient of SCF Energy
            1           2           3           4           5           6
    1  -0.0008132   0.0001172   0.0009748   0.0004385   0.0040154  -0.0055415
    2   0.0000090  -0.0005268   0.0002669  -0.0040925  -0.0016267   0.0035168
    3  -0.0005041   0.0041949  -0.0005214  -0.0006364  -0.0024836  -0.0017722
            7           8           9          10          11          12
    1   0.0009128  -0.0025656  -0.0000532  -0.0008769   0.0040484   0.0004967
    2  -0.0005766  -0.0025008   0.0036329   0.0001760   0.0022683  -0.0043598
    3  -0.0009725   0.0017872   0.0030932   0.0010393   0.0008628   0.0012619
           13          14          15          16          17
    1  -0.0007433   0.0001100   0.0037063  -0.0038510  -0.0003755
    2   0.0003749  -0.0015070   0.0024396   0.0020434   0.0004627
    3  -0.0043005   0.0003737   0.0014038   0.0017584  -0.0045846
 Max gradient component =       5.542E-03
 RMS gradient           =       2.348E-03
 Gradient time:  CPU 96.68 s  wall 100.08 s
 Geometry Optimization Parameters
   NAtoms,    NIC,     NZ,  NCons,   NDum,   NFix, NCnnct, MaxDiis
       17     126      17       0       0       0       0       0

 Cartesian Hessian Update
 Hessian Updated using Powell/Murtagh-Sargent Update
  Mixing factors:     0.971770 Powell
                      0.028230 Murtagh-Sargent


** GEOMETRY OPTIMIZATION IN DELOCALIZED INTERNAL COORDINATES **
   Searching for a Transition State

   Optimization Cycle:   3

                       Coordinates (Angstroms)
     ATOM              X           Y           Z
      1  C        -0.910807    0.036889   -0.400773
      2  H        -1.069432    0.107616   -1.485612
      3  C         0.377262    0.767113   -0.096305
      4  H         0.327058    1.846836    0.021762
      5  H         0.898474    0.315982    1.048647
      6  O         2.015317   -0.203564    0.720483
      7  C         1.686256    0.232735   -0.600736
      8  H         2.388869    0.978972   -0.972013
      9  H         1.602766   -0.599593   -1.302189
     10  C        -2.088297    0.705427    0.302955
     11  H        -3.023590    0.199735    0.062547
     12  H        -2.184162    1.752549    0.013144
     13  H        -1.951720    0.666104    1.385936
     14  C        -0.829299   -1.445436   -0.029081
     15  H        -1.621474   -2.008591   -0.521664
     16  H         0.128633   -1.886418   -0.303846
     17  H        -0.946998   -1.564029    1.049879
   Point Group: c1    Number of degrees of freedom:    45


   Energy is   -272.149067322

 GETINT wrote B to file, NVib is           45
 Hessian Updated using Powell/Murtagh-Sargent Update
  Mixing factors:     0.980579 Powell
                      0.019421 Murtagh-Sargent

 42 Hessian modes will be used to form the next step
  Hessian Eigenvalues:
     0.002114    0.005835    0.007273    0.007729    0.025434    0.037302
     0.038043    0.049164    0.051045    0.054310    0.055427    0.056316
     0.057527    0.057748    0.065145    0.087315    0.099128    0.106717
     0.110172    0.159677    0.159970    0.160000    0.162565    0.168032
     0.169526    0.170440    0.199322    0.294713    0.298493    0.301411
     0.312469    0.338922    0.346166    0.346810    0.347085    0.348119
     0.348628    0.348913    0.349100    0.349170    0.351967    0.374130
**WARNING** Hessian does not have the Desired Local Structure

 Transition State Search - Taking P-RFO Step
 Searching for Lamda that Maximizes Along the Lowest mode
 Value Taken    Lamda =   0.00277604
 Searching for Lamda that Minimizes Along All other modes
 Value Taken    Lamda =  -0.00093485
 Calculated Step too Large.  Step scaled by  0.146393
 Step Taken.  Stepsize is  0.300000

                             Maximum     Tolerance    Cnvgd?
         Gradient           0.011043      0.000300      NO
         Displacement       0.119294      0.001200      NO
         Energy change      0.000242      0.000001      NO


 New Cartesian Coordinates Obtained by Inverse Iteration

 Displacement from previous Coordinates is:  0.326111
 ----------------------------------------------------
       Standard Nuclear Orientation (Angstroms)
    I     Atom         X            Y            Z
 ----------------------------------------------------
    1      C      -0.912104     0.038779    -0.397822
    2      H      -1.076274     0.113131    -1.482413
    3      C       0.378799     0.766366    -0.096701
    4      H       0.330772     1.846599     0.025912
    5      H       0.905214     0.310671     1.044592
    6      O       2.024546    -0.204661     0.708530
    7      C       1.684114     0.230499    -0.610847
    8      H       2.384595     0.976340    -0.989438
    9      H       1.594563    -0.603567    -1.311351
   10      C      -2.086051     0.709404     0.312008
   11      H      -3.021695     0.193749     0.089709
   12      H      -2.193016     1.753078     0.010012
   13      H      -1.935266     0.683855     1.394495
   14      C      -0.831456    -1.446461    -0.028911
   15      H      -1.563596    -2.025676    -0.592653
   16      H       0.158578    -1.864004    -0.217434
   17      H      -1.042868    -1.575774     1.035447
 ----------------------------------------------------
 Molecular Point Group                 C1    NOp =  1
 Largest Abelian Subgroup              C1    NOp =  1
 Nuclear Repulsion Energy =   252.0689672374 hartrees
 There are       25 alpha and       24 beta electrons
 Applying Cartesian multipole field
    Component          Value
    ---------          -----
     (2,0,0)        1.00000E-11
     (0,2,0)        2.00000E-11
     (0,0,2)       -3.00000E-11
 Nucleus-field energy     =     0.0000000051 hartrees
 Requested basis set is non-standard
 There are 138 shells and 314 basis functions
 A cutoff of  1.0D-11 yielded   9083 shell pairs
 There are     46899 function pairs (     56383 Cartesian)
 Smallest overlap matrix eigenvalue = 9.10E-06
 Guess MOs from SCF MO coefficient file
Reading MOs from coefficient file
Reading MOs from coefficient file
 An unrestricted hybrid HF-DFT SCF calculation will be
 performed using Pulay DIIS extrapolation
 Exchange:     0.5679 Hartree-Fock + 1.0000 M08SO
 SCF converges when DIIS error is below 1.0E-08
Geometry optimization detected.  Setting ReadMinima to 0
Setting SaveMinima to 0
 Inaccurate integrated density:
   Number of electrons =    49
   Numerical integral  =    48.985785082607
   Relative error      =    -0.0290100355 %
 ---------------------------------------
  Cycle       Energy         DIIS Error
 ---------------------------------------
    1    -272.1411401578      3.58E-04
    2    -272.1485977005      6.68E-05
    3    -272.1486864038      4.71E-05
    4    -272.1487148308      9.12E-06
    5    -272.1487160565      5.81E-06
    6    -272.1487164089      1.33E-06
    7    -272.1487164447      4.00E-07
    8    -272.1487164527      1.81E-07
    9    -272.1487164562      7.34E-08
   10    -272.1487164569      2.79E-08
   11    -272.1487164571      1.63E-08
   12    -272.1487164575      9.70E-09 Convergence criterion met
 ---------------------------------------
 <S^2> = 0.7583
 SCF time:  CPU 762.00 s  wall 790.88 s
 SCF   energy in the final basis set = -272.1487164575
 Total energy in the final basis set = -272.1487164575
 Analysis of SCF Wavefunction
 
 --------------------------------------------------------------
                    Orbital Energies (a.u.)
 --------------------------------------------------------------
 
 Alpha MOs
 -- Occupied --
-19.588 -10.544 -10.526 -10.515 -10.490 -10.487  -1.142  -0.923
 -0.817  -0.786  -0.723  -0.668  -0.585  -0.566  -0.542  -0.499
 -0.490  -0.478  -0.462  -0.444  -0.421  -0.411  -0.395  -0.369
 -0.302
 -- Virtual --
 -0.027  -0.013  -0.011  -0.005   0.013   0.013   0.019   0.028
  0.030   0.046   0.053   0.061   0.071   0.078   0.085   0.091
  0.098   0.111   0.116   0.122   0.124   0.126   0.133   0.140
  0.142   0.147   0.151   0.162   0.168   0.171   0.192   0.195
  0.210   0.214   0.220   0.228   0.236   0.248   0.259   0.266
  0.274   0.279   0.284   0.309   0.318   0.330   0.334   0.341
  0.354   0.380   0.399   0.426   0.444   0.448   0.463   0.473
  0.495   0.512   0.527   0.535   0.556   0.558   0.570   0.579
  0.583   0.586   0.593   0.602   0.605   0.614   0.621   0.631
  0.643   0.652   0.659   0.668   0.699   0.706   0.715   0.736
  0.754   0.768   0.824   0.854   0.863   0.876   0.907   0.930
  0.947   0.972   0.981   0.985   0.999   1.027   1.051   1.061
  1.077   1.084   1.103   1.117   1.123   1.149   1.158   1.169
  1.178   1.188   1.201   1.226   1.242   1.243   1.249   1.292
  1.296   1.299   1.325   1.339   1.349   1.351   1.355   1.379
  1.383   1.392   1.403   1.421   1.430   1.442   1.453   1.468
  1.480   1.491   1.531   1.535   1.549   1.577   1.586   1.592
  1.607   1.654   1.665   1.683   1.703   1.753   1.770   1.849
  1.918   2.044   2.084   2.230   2.316   2.388   2.434   2.491
  2.519   2.531   2.562   2.606   2.618   2.645   2.689   2.716
  2.740   2.755   2.785   2.789   2.837   2.875   2.889   2.914
  2.938   2.943   2.960   2.980   2.985   3.029   3.048   3.079
  3.091   3.107   3.135   3.152   3.180   3.189   3.217   3.236
  3.258   3.263   3.298   3.302   3.340   3.349   3.361   3.373
  3.410   3.413   3.435   3.474   3.482   3.504   3.533   3.550
  3.577   3.597   3.615   3.642   3.656   3.666   3.688   3.704
  3.725   3.744   3.772   3.779   3.794   3.812   3.846   3.877
  3.895   3.915   3.944   3.964   3.983   3.997   4.003   4.043
  4.060   4.095   4.106   4.133   4.150   4.179   4.188   4.194
  4.213   4.225   4.236   4.260   4.271   4.303   4.313   4.320
  4.373   4.403   4.443   4.471   4.478   4.504   4.513   4.544
  4.553   4.597   4.626   4.660   4.685   4.759   4.858   4.920
  4.933   5.062   5.097   5.155   5.214   5.227   5.252   5.295
  5.354   5.405   5.467   5.540   5.556   5.566   5.633   5.642
  5.667   5.674   5.693   5.765   5.844   6.444   6.876   7.075
  7.215   7.372   7.590  24.025  24.150  24.199  24.248  24.315
 49.834
 
 Beta MOs
 -- Occupied --
-19.570 -10.545 -10.517 -10.515 -10.490 -10.486  -1.104  -0.918
 -0.805  -0.785  -0.716  -0.655  -0.571  -0.542  -0.537  -0.487
 -0.484  -0.465  -0.457  -0.435  -0.413  -0.408  -0.380  -0.355
 -- Virtual --
 -0.065  -0.028  -0.014  -0.012  -0.006   0.011   0.012   0.017
  0.027   0.030   0.045   0.052   0.060   0.070   0.075   0.083
  0.090   0.096   0.110   0.114   0.121   0.123   0.125   0.132
  0.140   0.143   0.147   0.150   0.162   0.167   0.171   0.192
  0.199   0.208   0.214   0.224   0.231   0.236   0.249   0.262
  0.266   0.273   0.281   0.285   0.310   0.319   0.330   0.334
  0.341   0.358   0.382   0.400   0.426   0.445   0.449   0.466
  0.474   0.496   0.514   0.528   0.539   0.558   0.559   0.571
  0.580   0.584   0.593   0.598   0.603   0.608   0.615   0.622
  0.634   0.645   0.656   0.661   0.676   0.700   0.707   0.723
  0.737   0.756   0.775   0.824   0.855   0.867   0.876   0.907
  0.934   0.948   0.974   0.984   0.988   1.002   1.029   1.052
  1.061   1.077   1.085   1.110   1.121   1.126   1.152   1.162
  1.178   1.183   1.189   1.203   1.228   1.245   1.247   1.252
  1.295   1.300   1.302   1.328   1.340   1.350   1.355   1.359
  1.380   1.387   1.396   1.414   1.424   1.435   1.444   1.457
  1.469   1.482   1.493   1.535   1.543   1.555   1.580   1.592
  1.593   1.613   1.657   1.672   1.687   1.710   1.757   1.776
  1.858   1.928   2.061   2.085   2.233   2.327   2.393   2.435
  2.496   2.526   2.534   2.572   2.607   2.620   2.650   2.702
  2.728   2.747   2.772   2.798   2.803   2.839   2.883   2.894
  2.919   2.944   2.945   2.970   2.987   3.015   3.043   3.052
  3.084   3.098   3.116   3.140   3.158   3.183   3.191   3.224
  3.244   3.264   3.274   3.302   3.305   3.345   3.351   3.365
  3.379   3.412   3.424   3.441   3.488   3.493   3.526   3.544
  3.558   3.581   3.602   3.617   3.652   3.666   3.683   3.694
  3.711   3.730   3.749   3.770   3.784   3.793   3.821   3.848
  3.876   3.896   3.916   3.950   3.964   3.977   3.998   4.007
  4.039   4.061   4.102   4.105   4.140   4.155   4.182   4.191
  4.194   4.216   4.228   4.239   4.262   4.275   4.311   4.320
  4.324   4.385   4.413   4.452   4.475   4.496   4.516   4.519
  4.551   4.563   4.610   4.632   4.669   4.691   4.786   4.858
  4.913   4.966   5.102   5.132   5.140   5.228   5.250   5.262
  5.292   5.381   5.405   5.501   5.543   5.574   5.600   5.636
  5.650   5.672   5.693   5.712   5.746   5.862   6.423   6.909
  7.096   7.206   7.427   7.603  24.029  24.153  24.199  24.248
 24.320  49.834
 --------------------------------------------------------------
 
          Ground-State Mulliken Net Atomic Charges

     Atom                 Charge (a.u.)    Spin (a.u.)
  --------------------------------------------------------
      1 C                    -0.029024      -0.033535
      2 H                     0.240756       0.033285
      3 C                    -0.128236       0.541136
      4 H                     0.288540      -0.007972
      5 H                     0.238879      -0.034250
      6 O                    -0.211604       0.519382
      7 C                    -0.598269      -0.007424
      8 H                     0.199617       0.002188
      9 H                     0.215465       0.002285
     10 C                    -0.694864      -0.009257
     11 H                     0.203189      -0.000944
     12 H                     0.190694       0.000773
     13 H                     0.219485       0.002800
     14 C                    -0.795832      -0.008684
     15 H                     0.213807      -0.002975
     16 H                     0.239150      -0.002963
     17 H                     0.208247       0.006156
  --------------------------------------------------------
  Sum of atomic charges =     0.000000
  Sum of spin   charges =     1.000000

 -----------------------------------------------------------------
                    Cartesian Multipole Moments
 -----------------------------------------------------------------
    Charge (ESU x 10^10)
                 0.0000
    Dipole Moment (Debye)
         X      -1.7291      Y       0.8399      Z      -1.5500
       Tot       2.4694
    Quadrupole Moments (Debye-Ang)
        XX     -43.7083     XY       1.5674     YY     -39.4003
        XZ      -3.5071     YZ       0.5120     ZZ     -40.4555
    Octapole Moments (Debye-Ang^2)
       XXX      -2.8102    XXY       1.5939    XYY       2.6425
       YYY       2.6492    XXZ      -9.1563    XYZ       0.4946
       YYZ      -0.6007    XZZ       0.2547    YZZ      -0.7111
       ZZZ       2.2621
    Hexadecapole Moments (Debye-Ang^3)
      XXXX    -626.7286   XXXY       9.1841   XXYY    -138.9244
      XYYY       0.1440   YYYY    -230.6445   XXXZ      -8.8521
      XXYZ       0.3642   XYYZ       2.2357   YYYZ      -0.0351
      XXZZ    -127.2121   XYZZ       0.9655   YYZZ     -61.2667
      XZZZ       5.8525   YZZZ      -0.8402   ZZZZ    -122.7828
 -----------------------------------------------------------------
 Calculating analytic gradient of the SCF energy
 Gradient of Coulomb and Exchange Energy
            1           2           3           4           5           6
    1   3.4807452   0.9475998  -1.5697735   0.0844364   0.0928858  -8.8839431
    2   2.9184182  -0.3115850  -5.8817579  -5.1822183   0.1470187   3.5552398
    3  -1.3978319   4.8138282   4.0236706  -0.5289668  -2.6529157  -7.3340481
            7           8           9          10          11          12
    1  -2.7799389  -3.2543385  -0.2066940   4.1907288   3.6328350   0.9728744
    2  -0.7981695  -3.1310079   3.2686578  -1.4543481   1.4112619  -3.7853728
    3   1.0792072   2.0351207   3.4991606  -0.2140565   0.4119096   0.7241246
           13          14          15          16          17
    1   0.2903408   2.6919147   2.6104576  -3.2674124   0.9672819
    2  -0.3559978   3.1747721   2.8226147   2.3173175   1.2851565
    3  -3.9187220   0.8167760   1.9023190   0.4598944  -3.7194698
 Gradient of SCF Energy
            1           2           3           4           5           6
    1  -0.0004662  -0.0002405   0.0007472   0.0003089   0.0041885  -0.0052490
    2  -0.0001020  -0.0005240   0.0004393  -0.0034896  -0.0019101   0.0032794
    3  -0.0003659   0.0035990  -0.0010447  -0.0005169  -0.0020764  -0.0012240
            7           8           9          10          11          12
    1   0.0006154  -0.0022145   0.0000301  -0.0005936   0.0034443   0.0004257
    2  -0.0006790  -0.0020900   0.0031145   0.0001619   0.0019560  -0.0037120
    3  -0.0008193   0.0015838   0.0026086   0.0011004   0.0007060   0.0010849
           13          14          15          16          17
    1  -0.0006723   0.0001751   0.0031452  -0.0033408  -0.0003036
    2   0.0003211  -0.0011000   0.0021214   0.0017621   0.0004510
    3  -0.0036768   0.0002815   0.0011758   0.0015489  -0.0039648
 Max gradient component =       5.249E-03
 RMS gradient           =       2.076E-03
 Gradient time:  CPU 98.92 s  wall 100.35 s
 Geometry Optimization Parameters
   NAtoms,    NIC,     NZ,  NCons,   NDum,   NFix, NCnnct, MaxDiis
       17     126      17       0       0       0       0       0

 Cartesian Hessian Update
 Hessian Updated using Powell/Murtagh-Sargent Update
  Mixing factors:     0.977192 Powell
                      0.022808 Murtagh-Sargent


** GEOMETRY OPTIMIZATION IN DELOCALIZED INTERNAL COORDINATES **
   Searching for a Transition State

   Optimization Cycle:   4

                       Coordinates (Angstroms)
     ATOM              X           Y           Z
      1  C        -0.912104    0.038779   -0.397822
      2  H        -1.076274    0.113131   -1.482413
      3  C         0.378799    0.766366   -0.096701
      4  H         0.330772    1.846599    0.025912
      5  H         0.905214    0.310671    1.044592
      6  O         2.024546   -0.204661    0.708530
      7  C         1.684114    0.230499   -0.610847
      8  H         2.384595    0.976340   -0.989438
      9  H         1.594563   -0.603567   -1.311351
     10  C        -2.086051    0.709404    0.312008
     11  H        -3.021695    0.193749    0.089709
     12  H        -2.193016    1.753078    0.010012
     13  H        -1.935266    0.683855    1.394495
     14  C        -0.831456   -1.446461   -0.028911
     15  H        -1.563596   -2.025676   -0.592653
     16  H         0.158578   -1.864004   -0.217434
     17  H        -1.042868   -1.575774    1.035447
   Point Group: c1    Number of degrees of freedom:    45


   Energy is   -272.148716457

 GETINT wrote B to file, NVib is           45
 Hessian Updated using Powell/Murtagh-Sargent Update
  Mixing factors:     0.960378 Powell
                      0.039622 Murtagh-Sargent

 43 Hessian modes will be used to form the next step
  Hessian Eigenvalues:
     0.001505    0.005833    0.007272    0.007729    0.025435    0.037303
     0.038036    0.049162    0.051043    0.054310    0.055427    0.056316
     0.057527    0.057748    0.065145    0.087300    0.099123    0.106717
     0.110144    0.159671    0.159960    0.159997    0.160000    0.162564
     0.168028    0.169379    0.170440    0.199114    0.294636    0.298493
     0.301380    0.312454    0.338923    0.346166    0.346811    0.347085
     0.348119    0.348628    0.348913    0.349100    0.349169    0.351967
     0.374125
**WARNING** Hessian does not have the Desired Local Structure

 Transition State Search - Taking P-RFO Step
 Searching for Lamda that Maximizes Along the Lowest mode
 Value Taken    Lamda =   0.00265686
 Searching for Lamda that Minimizes Along All other modes
 Value Taken    Lamda =  -0.00072291
 Calculated Step too Large.  Step scaled by  0.197284
 Step Taken.  Stepsize is  0.300000

                             Maximum     Tolerance    Cnvgd?
         Gradient           0.009359      0.000300      NO
         Displacement       0.120599      0.001200      NO
         Energy change      0.000351      0.000001      NO


 New Cartesian Coordinates Obtained by Inverse Iteration

 Displacement from previous Coordinates is:  0.325636
 ----------------------------------------------------
       Standard Nuclear Orientation (Angstroms)
    I     Atom         X            Y            Z
 ----------------------------------------------------
    1      C      -0.913475     0.040928    -0.394636
    2      H      -1.082939     0.120934    -1.478919
    3      C       0.380564     0.766052    -0.096849
    4      H       0.335104     1.847275     0.027143
    5      H       0.910546     0.310090     1.041528
    6      O       2.034563    -0.202577     0.698644
    7      C       1.682409     0.227832    -0.619885
    8      H       2.380827     0.971745    -1.008877
    9      H       1.585963    -0.610406    -1.316582
   10      C      -2.083642     0.713392     0.322014
   11      H      -3.019195     0.186960     0.119188
   12      H      -2.202915     1.753264     0.007531
   13      H      -1.917491     0.702258     1.403640
   14      C      -0.834072    -1.448546    -0.030438
   15      H      -1.500163    -2.041315    -0.659971
   16      H       0.179352    -1.843055    -0.131350
   17      H      -1.136581    -1.592504     1.010954
 ----------------------------------------------------
 Molecular Point Group                 C1    NOp =  1
 Largest Abelian Subgroup              C1    NOp =  1
 Nuclear Repulsion Energy =   251.8247286774 hartrees
 There are       25 alpha and       24 beta electrons
 Applying Cartesian multipole field
    Component          Value
    ---------          -----
     (2,0,0)        1.00000E-11
     (0,2,0)        2.00000E-11
     (0,0,2)       -3.00000E-11
 Nucleus-field energy     =     0.0000000051 hartrees
 Requested basis set is non-standard
 There are 138 shells and 314 basis functions
 A cutoff of  1.0D-11 yielded   9081 shell pairs
 There are     46891 function pairs (     56372 Cartesian)
 Smallest overlap matrix eigenvalue = 9.19E-06
 Guess MOs from SCF MO coefficient file
Reading MOs from coefficient file
Reading MOs from coefficient file
 An unrestricted hybrid HF-DFT SCF calculation will be
 performed using Pulay DIIS extrapolation
 Exchange:     0.5679 Hartree-Fock + 1.0000 M08SO
 SCF converges when DIIS error is below 1.0E-08
Geometry optimization detected.  Setting ReadMinima to 0
Setting SaveMinima to 0
 Inaccurate integrated density:
   Number of electrons =    49
   Numerical integral  =    48.985275722379
   Relative error      =    -0.0300495462 %
 ---------------------------------------
  Cycle       Energy         DIIS Error
 ---------------------------------------
    1    -272.1403485443      3.58E-04
    2    -272.1481568101      6.75E-05
    3    -272.1482475284      4.77E-05
    4    -272.1482770395      8.73E-06
    5    -272.1482785037      4.85E-06
    6    -272.1482787730      1.52E-06
    7    -272.1482788362      5.95E-07
    8    -272.1482788569      2.72E-07
    9    -272.1482788652      1.06E-07
   10    -272.1482788661      3.64E-08
   11    -272.1482788661      2.26E-08
   12    -272.1482788663      1.34E-08
   13    -272.1482788656      6.39E-09 Convergence criterion met
 ---------------------------------------
 <S^2> = 0.7583
 SCF time:  CPU 824.05 s  wall 852.72 s
 SCF   energy in the final basis set = -272.1482788656
 Total energy in the final basis set = -272.1482788656
 Analysis of SCF Wavefunction
 
 --------------------------------------------------------------
                    Orbital Energies (a.u.)
 --------------------------------------------------------------
 
 Alpha MOs
 -- Occupied --
-19.588 -10.544 -10.527 -10.516 -10.491 -10.487  -1.141  -0.922
 -0.817  -0.785  -0.722  -0.668  -0.585  -0.566  -0.542  -0.499
 -0.489  -0.477  -0.462  -0.444  -0.420  -0.410  -0.395  -0.369
 -0.303
 -- Virtual --
 -0.027  -0.013  -0.011  -0.005   0.013   0.013   0.019   0.028
  0.030   0.045   0.054   0.061   0.069   0.078   0.085   0.091
  0.098   0.111   0.117   0.122   0.124   0.126   0.132   0.139
  0.142   0.147   0.151   0.159   0.168   0.172   0.192   0.195
  0.208   0.214   0.220   0.227   0.235   0.248   0.259   0.265
  0.273   0.277   0.285   0.311   0.318   0.332   0.334   0.340
  0.355   0.380   0.400   0.428   0.444   0.450   0.460   0.472
  0.493   0.511   0.529   0.533   0.554   0.557   0.569   0.577
  0.582   0.584   0.594   0.602   0.604   0.614   0.622   0.632
  0.643   0.651   0.655   0.668   0.698   0.705   0.714   0.734
  0.750   0.769   0.822   0.857   0.865   0.877   0.910   0.930
  0.946   0.974   0.978   0.991   1.002   1.025   1.051   1.060
  1.074   1.083   1.103   1.111   1.123   1.150   1.160   1.172
  1.182   1.187   1.201   1.223   1.240   1.240   1.253   1.287
  1.293   1.304   1.320   1.341   1.343   1.351   1.355   1.379
  1.384   1.392   1.399   1.419   1.433   1.442   1.452   1.467
  1.483   1.486   1.527   1.535   1.544   1.574   1.584   1.587
  1.608   1.645   1.660   1.682   1.702   1.745   1.779   1.845
  1.915   2.040   2.084   2.228   2.314   2.389   2.434   2.481
  2.517   2.522   2.562   2.606   2.615   2.650   2.688   2.711
  2.737   2.755   2.786   2.796   2.834   2.875   2.892   2.917
  2.936   2.946   2.961   2.983   2.984   3.029   3.044   3.082
  3.095   3.105   3.133   3.150   3.180   3.192   3.212   3.233
  3.255   3.261   3.294   3.296   3.341   3.346   3.358   3.370
  3.407   3.409   3.427   3.471   3.489   3.500   3.537   3.550
  3.581   3.594   3.616   3.647   3.660   3.662   3.693   3.703
  3.721   3.748   3.770   3.780   3.792   3.811   3.849   3.876
  3.892   3.915   3.932   3.959   3.986   3.995   4.003   4.042
  4.064   4.089   4.099   4.127   4.150   4.178   4.185   4.194
  4.214   4.224   4.230   4.255   4.270   4.296   4.312   4.322
  4.373   4.399   4.440   4.459   4.479   4.503   4.510   4.537
  4.556   4.593   4.620   4.664   4.679   4.755   4.860   4.922
  4.935   5.060   5.093   5.154   5.209   5.223   5.249   5.293
  5.352   5.403   5.464   5.536   5.555   5.561   5.628   5.635
  5.661   5.671   5.682   5.762   5.834   6.440   6.874   7.072
  7.213   7.371   7.588  24.023  24.149  24.190  24.241  24.308
 49.832
 
 Beta MOs
 -- Occupied --
-19.570 -10.545 -10.517 -10.516 -10.491 -10.487  -1.104  -0.917
 -0.804  -0.784  -0.716  -0.655  -0.571  -0.542  -0.536  -0.487
 -0.484  -0.465  -0.456  -0.436  -0.412  -0.407  -0.380  -0.355
 -- Virtual --
 -0.066  -0.028  -0.014  -0.012  -0.006   0.011   0.013   0.017
  0.027   0.030   0.045   0.052   0.060   0.069   0.076   0.084
  0.090   0.097   0.109   0.115   0.121   0.123   0.126   0.131
  0.140   0.142   0.146   0.150   0.161   0.167   0.171   0.192
  0.198   0.208   0.213   0.223   0.230   0.234   0.248   0.261
  0.265   0.273   0.280   0.286   0.312   0.319   0.332   0.334
  0.339   0.359   0.383   0.401   0.428   0.446   0.451   0.463
  0.472   0.494   0.513   0.529   0.537   0.555   0.559   0.570
  0.577   0.583   0.591   0.598   0.603   0.608   0.615   0.623
  0.634   0.645   0.653   0.658   0.675   0.699   0.708   0.720
  0.735   0.753   0.776   0.823   0.858   0.868   0.878   0.909
  0.933   0.947   0.976   0.980   0.995   1.005   1.027   1.052
  1.061   1.074   1.083   1.109   1.117   1.124   1.154   1.164
  1.181   1.186   1.188   1.203   1.225   1.243   1.244   1.256
  1.291   1.297   1.307   1.323   1.342   1.347   1.352   1.359
  1.380   1.388   1.395   1.411   1.423   1.437   1.444   1.455
  1.469   1.485   1.487   1.533   1.541   1.550   1.580   1.587
  1.589   1.614   1.649   1.667   1.686   1.707   1.750   1.785
  1.854   1.925   2.058   2.085   2.230   2.325   2.396   2.434
  2.485   2.521   2.528   2.571   2.607   2.619   2.655   2.700
  2.723   2.746   2.771   2.799   2.807   2.836   2.883   2.896
  2.921   2.944   2.947   2.972   2.988   3.013   3.041   3.046
  3.087   3.102   3.115   3.138   3.156   3.181   3.194   3.217
  3.242   3.261   3.272   3.296   3.302   3.345   3.348   3.362
  3.375   3.409   3.417   3.436   3.486   3.500   3.522   3.545
  3.557   3.586   3.603   3.618   3.658   3.664   3.678   3.699
  3.710   3.726   3.751   3.768   3.784   3.791   3.816   3.850
  3.875   3.895   3.914   3.937   3.961   3.976   3.999   4.004
  4.036   4.066   4.085   4.106   4.137   4.154   4.182   4.188
  4.194   4.213   4.229   4.230   4.258   4.275   4.303   4.317
  4.326   4.384   4.408   4.450   4.460   4.496   4.513   4.517
  4.540   4.570   4.606   4.626   4.671   4.685   4.780   4.861
  4.912   4.963   5.100   5.129   5.138   5.227   5.242   5.261
  5.290   5.378   5.405   5.499   5.541   5.571   5.594   5.630
  5.644   5.666   5.682   5.707   5.743   5.852   6.420   6.908
  7.094   7.204   7.427   7.601  24.027  24.151  24.190  24.241
 24.313  49.832
 --------------------------------------------------------------
 
          Ground-State Mulliken Net Atomic Charges

     Atom                 Charge (a.u.)    Spin (a.u.)
  --------------------------------------------------------
      1 C                     0.028384      -0.032518
      2 H                     0.239573       0.033013
      3 C                    -0.152933       0.533720
      4 H                     0.287817      -0.007702
[...]
 C         -0.045  0.084  0.118    0.055 -0.001 -0.100   -0.042 -0.102 -0.032
 H         -0.111  0.027 -0.124    0.160 -0.066 -0.028    0.228 -0.080  0.571
 H         -0.429  0.100  0.136    0.154 -0.076 -0.018   -0.053  0.290 -0.511
 C         -0.010 -0.010  0.058    0.068  0.001  0.007   -0.004  0.033  0.065
 H         -0.003  0.037 -0.090    0.164 -0.090 -0.187    0.061 -0.024 -0.089
 H          0.028 -0.049 -0.114   -0.031 -0.035 -0.095   -0.119 -0.002 -0.030
 H         -0.207  0.117  0.083   -0.096  0.003  0.020   -0.236  0.063  0.094
 C         -0.013  0.029  0.031    0.077 -0.024  0.069   -0.028  0.035 -0.012
 H          0.041  0.016 -0.101   -0.046  0.284 -0.139    0.021 -0.034 -0.025
 H         -0.029  0.118 -0.107   -0.104 -0.208 -0.084    0.012  0.125 -0.037
 H          0.021 -0.145  0.006   -0.135 -0.332  0.052    0.040  0.057 -0.019
 TransDip   0.000  0.000  0.000    0.000  0.000  0.000    0.000  0.000  0.000

 Mode:                22                     23                     24
 Frequency:      1170.56                1192.93                1284.26
 Force Cnst:      1.1239                 1.3937                 1.2298
 Red. Mass:       1.3922                 1.6622                 1.2655
 IR Active:          YES                    YES                    YES
 IR Intens:        0.000                  0.000                  0.000
 Raman Active:       YES                    YES                    YES
               X      Y      Z        X      Y      Z        X      Y      Z
 C          0.059 -0.064 -0.080    0.073  0.119 -0.106   -0.052  0.009  0.010
 H          0.125 -0.289 -0.102    0.269  0.442 -0.119    0.575 -0.066 -0.087
 C         -0.021  0.085  0.038   -0.022 -0.049 -0.035   -0.087 -0.030 -0.018
 H         -0.041  0.079  0.142   -0.320 -0.075  0.068    0.505  0.003 -0.068
 H          0.029  0.042 -0.008    0.029  0.097 -0.007   -0.011  0.022 -0.043
 O         -0.007 -0.035  0.008    0.004  0.004 -0.004    0.017 -0.009 -0.001
 C          0.008 -0.007 -0.034   -0.004 -0.010  0.008   -0.047  0.078 -0.024
 H         -0.324  0.189 -0.312    0.063 -0.046  0.070    0.407 -0.280  0.142
 H          0.476 -0.316  0.304   -0.046  0.032 -0.043    0.141 -0.105  0.175
 C         -0.002  0.019  0.079   -0.029 -0.072  0.059    0.020  0.000  0.041
 H          0.041  0.015 -0.099   -0.147  0.196 -0.034    0.081 -0.040 -0.101
 H         -0.079 -0.024 -0.069    0.218 -0.095 -0.171    0.033 -0.039 -0.093
 H         -0.268  0.110  0.114   -0.113  0.240  0.078   -0.079  0.027  0.051
 C         -0.042  0.022 -0.001   -0.034 -0.030  0.115    0.008 -0.011 -0.008
 H          0.044 -0.098 -0.034    0.106 -0.102 -0.157   -0.031  0.040  0.015
 H          0.014  0.162 -0.050   -0.048  0.173 -0.151    0.012 -0.002 -0.001
 H          0.070  0.030 -0.014    0.121 -0.420  0.057   -0.025  0.056  0.000
 TransDip   0.000  0.000  0.000    0.000  0.000  0.000    0.000  0.000  0.000

 Mode:                25                     26                     27
 Frequency:      1305.51                1319.32                1367.00
 Force Cnst:      1.4140                 1.6556                 2.1351
 Red. Mass:       1.4081                 1.6144                 1.9392
 IR Active:          YES                    YES                    YES
 IR Intens:        0.000                  0.000                  0.000
 Raman Active:       YES                    YES                    YES
               X      Y      Z        X      Y      Z        X      Y      Z
 C         -0.077  0.024  0.004   -0.048 -0.202 -0.027   -0.175  0.009  0.003
 H          0.479 -0.124 -0.092    0.135  0.827  0.010    0.403 -0.106 -0.088
 C         -0.065  0.013 -0.008    0.023  0.042 -0.016    0.200  0.015 -0.019
 H          0.098  0.030 -0.029    0.170  0.043  0.069   -0.525 -0.031  0.105
 H          0.004 -0.013 -0.030   -0.019 -0.024 -0.032   -0.019 -0.023  0.027
 O         -0.013  0.000  0.029   -0.001  0.000  0.003   -0.007  0.009 -0.022
 C          0.134 -0.056  0.019   -0.004 -0.007  0.008   -0.072 -0.004  0.014
 H         -0.343  0.240 -0.345   -0.072  0.039 -0.041   -0.057  0.049  0.177
 H         -0.408  0.267 -0.334    0.010  0.022 -0.032    0.136 -0.113  0.135
 C          0.026 -0.001  0.039    0.017  0.052 -0.012    0.014  0.009  0.036
 H          0.089 -0.036 -0.123    0.052 -0.073  0.068    0.116 -0.077 -0.163
 H          0.026 -0.044 -0.110   -0.183  0.037  0.034    0.059 -0.060 -0.218
 H         -0.055  0.014  0.044   -0.092 -0.146 -0.005    0.068 -0.128  0.013
 C          0.017 -0.009 -0.009    0.024  0.034  0.061    0.051  0.051 -0.018
 H         -0.029  0.034  0.037    0.002  0.197 -0.146    0.054 -0.105  0.173
 H         -0.003 -0.047  0.000   -0.070  0.104 -0.179   -0.121 -0.285  0.008
 H         -0.058  0.019  0.000   -0.059 -0.063  0.049   -0.223 -0.218 -0.014
 TransDip   0.000  0.000  0.000    0.000  0.000  0.000    0.000  0.000  0.000

 Mode:                28                     29                     30
 Frequency:      1387.58                1405.36                1461.00
 Force Cnst:      1.5643                 1.4635                 1.3195
 Red. Mass:       1.3790                 1.2576                 1.0492
 IR Active:          YES                    YES                    YES
 IR Intens:        0.000                  0.000                  0.000
 Raman Active:       YES                    YES                    YES
               X      Y      Z        X      Y      Z        X      Y      Z
 C          0.064 -0.040 -0.009   -0.007  0.015 -0.007   -0.019  0.007 -0.001
 H         -0.116  0.087  0.024   -0.012 -0.026 -0.012    0.016  0.010 -0.006
 C         -0.053  0.004  0.004    0.039  0.002  0.002    0.012 -0.001  0.000
 H          0.158  0.016 -0.006   -0.129 -0.004  0.003   -0.033 -0.003 -0.007
 H          0.007  0.013 -0.011   -0.007 -0.016  0.016   -0.004 -0.012  0.006
 O          0.002 -0.003  0.005   -0.002  0.002 -0.003    0.000  0.002 -0.002
 C          0.017 -0.001 -0.009   -0.015 -0.003  0.006    0.000 -0.001 -0.001
 H          0.006  0.013 -0.005   -0.015 -0.012 -0.011   -0.008  0.020  0.030
 H         -0.032  0.004 -0.009    0.044 -0.001 -0.004   -0.019 -0.021  0.027
 C         -0.106  0.061  0.051   -0.066  0.028  0.043    0.028  0.018  0.016
 H          0.198 -0.321 -0.247    0.136 -0.187 -0.243   -0.104  0.188  0.104
 H          0.360  0.012 -0.258    0.245 -0.013 -0.208   -0.178 -0.106 -0.353
 H          0.418 -0.235 -0.042    0.322 -0.126 -0.022   -0.055 -0.371 -0.001
 C         -0.024  0.080 -0.012    0.007 -0.112  0.031   -0.037 -0.013 -0.017
 H          0.147 -0.252  0.051   -0.175  0.352 -0.204   -0.147  0.267 -0.123
 H         -0.085 -0.231  0.171    0.125  0.370 -0.226    0.232  0.010  0.456
 H          0.114 -0.306 -0.052   -0.007  0.464  0.077    0.484 -0.135 -0.062
 TransDip   0.000  0.000  0.000    0.000  0.000  0.000    0.000  0.000  0.000

 Mode:                31                     32                     33
 Frequency:      1467.81                1479.31                1484.80
 Force Cnst:      1.3342                 1.3599                 1.3817
 Red. Mass:       1.0511                 1.0547                 1.0637
 IR Active:          YES                    YES                    YES
 IR Intens:        0.000                  0.000                  0.000
 Raman Active:       YES                    YES                    YES
               X      Y      Z        X      Y      Z        X      Y      Z
 C          0.025 -0.019 -0.008    0.023  0.024 -0.019   -0.041 -0.019 -0.021
 H         -0.059  0.064  0.009   -0.024 -0.025 -0.018    0.069  0.038 -0.038
 C         -0.006 -0.001  0.000   -0.005 -0.005  0.002    0.024  0.006  0.001
 H          0.031 -0.001  0.007   -0.012 -0.005 -0.006   -0.045  0.004  0.014
 H          0.000  0.013  0.006    0.001  0.012  0.009    0.002  0.001  0.010
 O          0.000 -0.001  0.002    0.000 -0.001  0.001   -0.001  0.001 -0.002
 C         -0.011  0.003  0.014   -0.010  0.002  0.015   -0.007 -0.003  0.005
 H          0.024 -0.091 -0.123    0.022 -0.089 -0.123   -0.013 -0.007 -0.017
 H          0.094  0.071 -0.085    0.094  0.073 -0.089    0.031  0.006 -0.009
 C         -0.004 -0.016  0.026   -0.004  0.038 -0.018   -0.022 -0.014 -0.024
 H         -0.061  0.247 -0.311    0.018 -0.258  0.489    0.166 -0.330 -0.024
 H         -0.262 -0.049 -0.040    0.322  0.012 -0.174    0.300  0.141  0.432
 H          0.276  0.079 -0.016   -0.378 -0.335  0.022   -0.071  0.414  0.012
 C          0.019 -0.002 -0.035    0.016 -0.013 -0.013   -0.015 -0.005 -0.020
 H         -0.230  0.090  0.502   -0.118  0.006  0.314   -0.178  0.238  0.056
 H          0.220  0.296  0.070    0.096  0.198 -0.059    0.225  0.081  0.346
 H         -0.295 -0.291 -0.023   -0.265 -0.130  0.005    0.247 -0.202 -0.053
 TransDip   0.000  0.000  0.000    0.000  0.000  0.000    0.000  0.000  0.000

 Mode:                34                     35                     36
 Frequency:      1508.35                1919.21                2932.29
 Force Cnst:      1.4786                 2.2726                 5.4807
 Red. Mass:       1.1031                 1.0472                 1.0819
 IR Active:          YES                    YES                    YES
 IR Intens:        0.000                  0.000                  0.000
 Raman Active:       YES                    YES                    YES
               X      Y      Z        X      Y      Z        X      Y      Z
 C          0.013 -0.003 -0.006    0.001 -0.001  0.003   -0.011  0.005 -0.080
 H          0.005  0.022 -0.006    0.018  0.010 -0.002    0.148 -0.059  0.976
 C         -0.023  0.004 -0.001   -0.011  0.011 -0.042   -0.001 -0.001 -0.002
 H          0.034  0.008  0.005    0.012  0.011  0.030   -0.004  0.011  0.000
 H          0.017  0.003 -0.033   -0.301 -0.020  0.950    0.004 -0.003  0.004
 O          0.003 -0.001 -0.003    0.013 -0.005 -0.006    0.000  0.000  0.000
 C          0.052 -0.009 -0.070    0.014 -0.001 -0.033    0.000  0.000  0.000
 H         -0.089  0.380  0.524    0.023  0.015 -0.010   -0.003 -0.001  0.001
 H         -0.446 -0.325  0.388    0.006 -0.023 -0.022   -0.003 -0.003 -0.004
 C         -0.003  0.004  0.000    0.000  0.000  0.000    0.002 -0.001  0.007
 H          0.005 -0.028  0.035    0.000  0.001  0.000   -0.018 -0.014 -0.005
 H          0.031  0.004 -0.008   -0.001 -0.001  0.000    0.001  0.028 -0.007
 H         -0.031 -0.019  0.004   -0.003  0.001  0.003   -0.012  0.004 -0.078
 C          0.009 -0.011 -0.009    0.000  0.000  0.000    0.001  0.000  0.008
 H         -0.093  0.045  0.179    0.001 -0.004  0.001   -0.018 -0.007 -0.004
 H          0.087  0.166 -0.028   -0.003  0.000 -0.004    0.013 -0.003 -0.004
 H         -0.140 -0.061  0.001   -0.003 -0.003  0.003   -0.007  0.006 -0.088
 TransDip   0.000  0.000  0.000    0.000  0.000  0.000    0.000  0.000  0.000

 Mode:                37                     38                     39
 Frequency:      2977.41                2981.23                2989.97
 Force Cnst:      5.4087                 5.4320                 5.5588
 Red. Mass:       1.0355                 1.0373                 1.0554
 IR Active:          YES                    YES                    YES
 IR Intens:        0.000                  0.000                  0.000
 Raman Active:       YES                    YES                    YES
               X      Y      Z        X      Y      Z        X      Y      Z
 C         -0.001  0.001 -0.001   -0.001 -0.001 -0.004    0.000  0.000  0.000
 H          0.005 -0.002  0.016    0.008 -0.001  0.049    0.003  0.001 -0.002
 C          0.000  0.000  0.000   -0.001  0.001  0.000   -0.002 -0.001  0.000
 H          0.002 -0.005 -0.001    0.002 -0.011 -0.001   -0.001  0.016  0.002
 H          0.001  0.000  0.000    0.002  0.002 -0.001   -0.004 -0.002  0.014
 O          0.000  0.000  0.000    0.000  0.000  0.000    0.000  0.001 -0.002
 C          0.001  0.000 -0.001    0.001 -0.001 -0.002    0.032 -0.015 -0.055
 H         -0.010 -0.011  0.005   -0.011 -0.012  0.005   -0.405 -0.437  0.186
 H          0.001  0.015  0.012    0.001  0.016  0.014    0.056  0.607  0.482
 C          0.033 -0.019 -0.031    0.006 -0.004 -0.005   -0.001  0.001  0.001
 H         -0.432 -0.249 -0.125   -0.073 -0.041 -0.021    0.010  0.005  0.003
 H         -0.042  0.509 -0.145   -0.009  0.093 -0.025    0.002 -0.020  0.006
 H          0.093 -0.036  0.642    0.013 -0.004  0.106   -0.003  0.001 -0.019
 C          0.000 -0.007  0.005   -0.001  0.042 -0.029    0.000  0.000  0.002
 H          0.073  0.041  0.028   -0.410 -0.236 -0.155    0.004  0.003  0.002
 H         -0.063  0.031  0.035    0.371 -0.193 -0.202    0.001  0.000  0.000
 H         -0.010  0.008 -0.121    0.058 -0.056  0.704   -0.003  0.003 -0.029
 TransDip   0.000  0.000  0.000    0.000  0.000  0.000    0.000  0.000  0.000

 Mode:                40                     41                     42
 Frequency:      3039.10                3046.83                3051.68
 Force Cnst:      6.0437                 6.0231                 6.0323
 Red. Mass:       1.1106                 1.1012                 1.0994
 IR Active:          YES                    YES                    YES
 IR Intens:        0.000                  0.000                  0.000
 Raman Active:       YES                    YES                    YES
               X      Y      Z        X      Y      Z        X      Y      Z
 C          0.000  0.000 -0.001   -0.001  0.000 -0.006   -0.001  0.001 -0.010
 H          0.002  0.000  0.003    0.006 -0.001  0.058    0.014 -0.009  0.096
 C          0.000  0.013  0.001    0.000 -0.001  0.000    0.000  0.000  0.000
 H          0.004 -0.151 -0.014   -0.001  0.010  0.000   -0.001  0.003  0.000
 H         -0.003 -0.003 -0.001    0.001  0.000 -0.001    0.002  0.002 -0.001
 O          0.000  0.000  0.000    0.000  0.000  0.000    0.000  0.000  0.000
 C         -0.045 -0.083 -0.012    0.001  0.002  0.001   -0.001 -0.004 -0.001
 H          0.509  0.519 -0.248   -0.008 -0.008  0.004    0.013  0.014 -0.006
 H          0.026  0.471  0.390   -0.001 -0.014 -0.011    0.002  0.030  0.023
 C          0.000  0.001 -0.001   -0.038  0.028 -0.074   -0.007  0.015 -0.021
 H         -0.003 -0.002 -0.001    0.320  0.190  0.072    0.042  0.026  0.006
 H          0.002 -0.013  0.003    0.039 -0.496  0.120    0.018 -0.196  0.050
 H          0.001  0.000  0.006    0.090 -0.031  0.702    0.024 -0.005  0.196
 C         -0.002  0.001  0.004    0.005  0.010  0.024   -0.008 -0.033 -0.080
 H         -0.004 -0.001  0.000   -0.143 -0.082 -0.048    0.427  0.247  0.139
 H          0.034 -0.017 -0.017    0.100 -0.050 -0.045   -0.383  0.198  0.182
 H         -0.004  0.003 -0.032   -0.014  0.016 -0.189    0.054 -0.065  0.640
 TransDip   0.000  0.000  0.000    0.000  0.000  0.000    0.000  0.000  0.000

 Mode:                43                     44                     45
 Frequency:      3056.66                3066.48                3083.40
 Force Cnst:      6.0687                 6.1060                 6.0979
 Red. Mass:       1.1024                 1.1021                 1.0886
 IR Active:          YES                    YES                    YES
 IR Intens:        0.000                  0.000                  0.000
 Raman Active:       YES                    YES                    YES
               X      Y      Z        X      Y      Z        X      Y      Z
 C         -0.001 -0.001 -0.001   -0.001  0.000  0.000    0.002  0.000  0.002
 H          0.002  0.000  0.012    0.002  0.000  0.005   -0.001  0.000 -0.009
 C          0.000  0.003  0.000    0.000 -0.002  0.000    0.005 -0.084 -0.010
 H          0.004 -0.031 -0.004   -0.001  0.030  0.004   -0.049  0.978  0.101
 H          0.000  0.000  0.000    0.001  0.001  0.001    0.002 -0.007 -0.006
 O          0.000  0.000  0.000    0.000  0.000  0.000    0.000  0.001  0.000
 C          0.000 -0.001 -0.001    0.001  0.002  0.001   -0.009 -0.012  0.000
 H          0.002  0.002 -0.001   -0.010 -0.011  0.005    0.086  0.082 -0.039
 H          0.000  0.010  0.008   -0.001 -0.015 -0.011    0.000  0.063  0.052
 C         -0.049 -0.078 -0.007   -0.003 -0.003 -0.002   -0.001 -0.003  0.000
 H          0.648  0.352  0.178    0.042  0.021  0.010    0.011  0.008  0.004
 H         -0.068  0.604 -0.171   -0.001  0.015 -0.004   -0.006  0.027 -0.006
 H          0.000 -0.021  0.080    0.002 -0.002  0.020   -0.001 -0.001  0.001
 C          0.004 -0.003 -0.007   -0.092 -0.001  0.009    0.002  0.001 -0.001
 H          0.010  0.008  0.003    0.544  0.331  0.208   -0.020 -0.013 -0.007
 H         -0.061  0.033  0.031    0.579 -0.322 -0.313   -0.010  0.006  0.006
 H          0.004 -0.005  0.048   -0.021  0.000 -0.004    0.001  0.000  0.006
 TransDip   0.000  0.000  0.000    0.000  0.000  0.000    0.000  0.000  0.000

 STANDARD THERMODYNAMIC QUANTITIES AT   298.15 K  AND     1.00 ATM

   This Molecule has  1 Imaginary Frequencies
   Zero point vibrational energy:       91.075 kcal/mol

   Atom    1 Element C  Has Mass   12.00000
   Atom    2 Element H  Has Mass    1.00783
   Atom    3 Element C  Has Mass   12.00000
   Atom    4 Element H  Has Mass    1.00783
   Atom    5 Element H  Has Mass    1.00783
   Atom    6 Element O  Has Mass   15.99491
   Atom    7 Element C  Has Mass   12.00000
   Atom    8 Element H  Has Mass    1.00783
   Atom    9 Element H  Has Mass    1.00783
   Atom   10 Element C  Has Mass   12.00000
   Atom   11 Element H  Has Mass    1.00783
   Atom   12 Element H  Has Mass    1.00783
   Atom   13 Element H  Has Mass    1.00783
   Atom   14 Element C  Has Mass   12.00000
   Atom   15 Element H  Has Mass    1.00783
   Atom   16 Element H  Has Mass    1.00783
   Atom   17 Element H  Has Mass    1.00783
   Molecular Mass:    87.081040 amu
   Principal axes and moments of inertia in atomic units:
                             1           2           3
    Eigenvalues --      299.69165   813.91620   929.96034
          X               0.99962     0.00716    -0.02662
          Y              -0.00634     0.99951     0.03075
          Z               0.02683    -0.03057     0.99917
   Rotational Symmetry Number is   1
   The Molecule is an Asymmetric Top
   Translational Enthalpy:        0.889 kcal/mol
   Rotational Enthalpy:           0.889 kcal/mol
   Vibrational Enthalpy:         93.924 kcal/mol
   gas constant (RT):             0.592 kcal/mol
   Translational Entropy:        39.306  cal/mol.K
   Rotational Entropy:           26.919  cal/mol.K
   Vibrational Entropy:          16.624  cal/mol.K

   Total Enthalpy:               96.294 kcal/mol
   Total Entropy:                82.849  cal/mol.K
Archival summary:
1\1\node13\FREQ\ProcedureUnspecified\BasisUnspecified\1511(2)\edames\SunApr2002:15:472014SunApr2002:15:472014\0\\#,FREQ,ProcedureUnspecified,BasisUnspecified,\\0,2\C\H,1,1.10564\C,1,1.51509,2,107.091\H,3,1.09347,1,117.658,2,-82.7024,0\H,3,1.35595,1,109.348,2,157.619,0\O,5,1.27642,3,104.728,1,-116.104,0\C,6,1.43521,5,85.1181,3,-2.47846,0\H,7,1.09641,6,112.055,5,-115.827,0\H,7,1.0988,6,112.049,5,119.536,0\C,1,1.53166,2,108.647,3,-119.399,0\H,10,1.09723,1,110.972,2,-61.0234,0\H,10,1.09767,1,111.501,2,59.7056,0\H,10,1.09923,1,109.973,2,179.553,0\C,1,1.53424,2,108.224,3,120.491,0\H,14,1.09683,1,112.151,2,-64.2645,0\H,14,1.09694,1,110.475,2,56.7229,0\H,14,1.09887,1,109.881,2,176.29,0\\\@

 Total job time:  85920.02s(wall), 64343.24s(cpu) 
 Sun Apr 20 02:15:47 2014

        *************************************************************
        *                                                           *
        *  Thank you very much for using Q-Chem.  Have a nice day.  *
        *                                                           *
        *************************************************************


0 sent ACK to 0 
now end server 0 ... 
cleanup process ... done
remove work dirs /tmp/qchem21761.0 -- /tmp/qchem21761.3
rm -rf /tmp/qchem21761.0
rm -rf /tmp/qchem21761.1
rm -rf /tmp/qchem21761.2
rm -rf /tmp/qchem21761.3
rm -rf /tmp/qchem21761
