
Running Job 1 of 2 ts14.in
qchem ts14.in_14054.0 /tmp/qchem14054/ 4
/opt/qchem/bin/mpi/mpirun_qchem -machinefile /tmp/281067.1.normal4/hostfile -np 4 /opt/qchem/exe/qcprog.exe ts14.in_14054.0 /tmp/qchem14054/

Process 0 of 4 is on node85.cluster - thread support 0
Process 1 of 4 is on node85.cluster - thread support 0
Process 3 of 4 is on node85.cluster - thread support 0
initial socket setup ...start
initial socket setup ...done 
now start server 0 ... 
                  Welcome to Q-Chem
     A Quantum Leap Into The Future Of Chemistry

 Y. Shao, L. Fusti-Molnar, Y. Jung, J. Kussmann, C. Ochsenfeld, S. T. Brown, 
 A. T. B. Gilbert, L. V. Slipchenko, S. V. Levchenko, D. P. O'Neill, 
 R. A. DiStasio Jr., R. C. Lochan, T. Wang, G. J. O. Beran, N. A. Besley, 
 J. M. Herbert, C. Y. Lin, T. Van Voorhis, S. H. Chien, A. Sodt, R. P. Steele, 
 V. A. Rassolov, P. E. Maslen, P. P. Korambath, R. D. Adamson, B. Austin, 
 J. Baker, E. F. C. Byrd, H. Dachsel, R. J. Doerksen, A. Dreuw, B. D. Dunietz, 
 A. D. Dutoi, T. R. Furlani, S. R. Gwaltney, A. Heyden, S. Hirata, C.-P. Hsu, 
 G. Kedziora, R. Z. Khaliullin, P. Klunzinger, A. M. Lee, M. S. Lee, W. Liang, 
 I. Lotan, N. Nair, B. Peters, E. I. Proynov, P. A. Pieniazek, Y. M. Rhee, 
 J. Ritchie, E. Rosta, C. D. Sherrill, A. C. Simmonett, J. E. Subotnik, 
 H. L. Woodcock III, W. Zhang, A. T. Bell, A. K. Chakraborty, D. M. Chipman, 
 F. J. Keil, A. Warshel, W. J. Hehre, H. F. Schaefer III, J. Kong, 
 A. I. Krylov, P. M. W. Gill, M. Head-Gordon

 Additional authors for Version 3.1: 
 Z. Gan, Y. Zhao, N. E. SchultzD. Truhlar, E. Epifanovsky, M. Oana

 Additional authors for Version 3.2: 
 R. Baer, B. R. Brooks, D. Casanova, J.-D. Chai, C.-L. Cheng, C. Cramer, 
 D. Crittenden, A. Ghysels, G. Hawkins, E. G. Hohenstein, C. Kelley, 
 W. Kurlancheek, D. Liotard, E. Livshits, P. Manohar, A. Marenich, 
 D. Neuhauser, R. Olson, M. A. Rohrdanz, K. S. Thanthiriwatte, A. J. W. Thom, 
 V. Vanovschi, C. F. Williams, Q. Wu, Z.-Q. You

 Additional authors for Version 4.0: 
 A. Aspuru-Guzik, Y. Bernard, C. Chang, J. Deng, A. Dreuw, M. Diedenhofen, 
 R. G. Edgar, D. Ghosh, W. A. Goddard III, M. Goldey, L. D. Jacobson, 
 M. Gordon, B. Kaduk, I. Kaliman, K. Khistyaev, R. King, A. Klamt, 
 D. Kosenkov, T. Kus, D. Lambrecht, A. Landau, A. W. Lange, K. Lawler, F. Liu, 
 J. Liu, R. Olivares-Amaya, S. P. Mao, J. Parkhill, N. Russ, M. Schmidt, 
 N. Shenvi, D. Small, Y. C. Su, E. Sundstrom, L. Vogt, O. Vydrov, M. Watson, 
 M. Wormit, X. Xu, S. Yeganeh, I. Y. Zhang, D. Zuev

 Additional authors for Version 4.1: 
 X. Feng, M. W. D. Hanson-Heine, P. Horn, H. Ji, A. Laurent, R. Peverati, 
 N. Mardirossian, N. Sergueev, S. Sharada, P. Zimmerman


 Q-Chem, Version 4.1, Q-Chem, Inc., Pittsburgh, PA (2013).

 Intel X86 Linux Version 4.1.0.1 

 Q-chem begins on Wed Apr  9 10:49:03 2014  

Host: 
0

     Scratch files written to /tmp/qchem14054.0//
 Oct1213 14483_epif 4150   
 Parallel job on  4  processors
Processing $rem in /opt/qchem/config/preferences.
 MEM_TOTAL  2000 
Warning: disabling incdft.
 Q-Chem warning in module /home/scratch/svnadmin/14483_epif/qchem/forms1/BasisType.C, line 1125:

 Setting pure/cartesian flag to 2111 for general basis


Finally everything over in PARseQInput

--------------------------------------------------------------
User input:
--------------------------------------------------------------
$rem
XC_GRID 000075000434
JOBTYPE ts
EXCHANGE M08SO
BASIS gen
GUI=2
UNRESTRICTED TRUE
CORRELATION NONE
$end

$comment
c5h11o-2
$end

$molecule
read ts14MG3S.out
$end

$basis
H  0
S  3 1.00
3.386500000000E+01 2.549380000000E-02
5.094790000000E+00 1.903730000000E-01
1.158790000000E+00 8.521610000000E-01
S  1 1.00
3.258400000000E-01 1.000000000000E+00
S  1 1.00
1.027410000000E-01 1.000000000000E+00
S  1 1.00
3.600000000000E-02 1.000000000000E+00
P  1 1.00
1.500000000000E+00 1.000000000000E+00
P  1 1.00
3.750000000000E-01 1.000000000000E+00
****
C 0
S  6 1.00
4.563240000000E+03 1.966650000000E-03
6.820240000000E+02 1.523060000000E-02
1.549730000000E+02 7.612690000000E-02
4.445530000000E+01 2.608010000000E-01
1.302900000000E+01 6.164620000000E-01
1.827730000000E+00 2.210060000000E-01
S  3 1.00
2.096420000000E+01 1.146600000000E-01
4.803310000000E+00 9.199990000000E-01
1.459330000000E+00 -3.030680000000E-03
S  1 1.00
4.834560000000E-01 1.000000000000E+00
S  1 1.00
1.455850000000E-01 1.000000000000E+00
S  1 1.00
4.380000000000E-02 1.000000000000E+00
P  3 1.00
2.096420000000E+01 4.024870000000E-02
4.803310000000E+00 2.375940000000E-01
1.459330000000E+00 8.158540000000E-01
P  1 1.00
4.834560000000E-01 1.000000000000E+00
P  1 1.00
1.455850000000E-01 1.000000000000E+00
P  1 1.00
4.380000000000E-02 1.000000000000E+00
D  1 1.00
1.252000000000E+00 1.000000000000E+00
D  1 1.00
3.130000000000E-01 1.000000000000E+00
F  1 1.00
8.000000000000E-01 1.000000000000E+00
****
O  0
S  6 1.00
8.588500000000E+03 1.895150000000E-03
1.297230000000E+03 1.438590000000E-02
2.992960000000E+02 7.073200000000E-02
8.737710000000E+01 2.400010000000E-01
2.567890000000E+01 5.947970000000E-01
3.740040000000E+00 2.808020000000E-01
S  3 1.00
4.211750000000E+01 1.138890000000E-01
9.628370000000E+00 9.208110000000E-01
2.853320000000E+00 -3.274470000000E-03
S  1 1.00
9.056610000000E-01 1.000000000000E+00
S  1 1.00
2.556110000000E-01 1.000000000000E+00
S  1 1.00
8.450000000000E-02 1.000000000000E+00
P  3 1.00
4.211750000000E+01 3.651140000000E-02
9.628370000000E+00 2.371530000000E-01
2.853320000000E+00 8.197020000000E-01
P  1 1.00
9.056610000000E-01 1.000000000000E+00
P  1 1.00
2.556110000000E-01 1.000000000000E+00
P  1 1.00
8.450000000000E-02 1.000000000000E+00
D  1 1.00
2.584000000000E+00 1.000000000000E+00
D  1 1.00
6.460000000000E-01 1.000000000000E+00
F  1 1.00
1.400000000000E+00 1.000000000000E+00
****
$end

--------------------------------------------------------------
 ----------------------------------------------------
       Standard Nuclear Orientation (Angstroms)
    I     Atom         X            Y            Z
 ----------------------------------------------------
    1      C      -1.068193    -1.433252    -0.040928
    2      C      -0.627110     0.012186    -0.045651
    3      C      -1.751472     1.005451    -0.188301
    4      C       0.441631     0.351957     1.002369
    5      C       1.728368    -0.067532     0.289856
    6      O       1.491457     0.203169    -1.071714
    7      H      -1.684473    -1.658873    -0.910307
    8      H      -1.666565    -1.629234     0.854246
    9      H      -0.217515    -2.114016    -0.034778
   10      H       0.157444     0.134603    -1.000656
   11      H      -2.370583     0.992895     0.715335
   12      H      -2.395754     0.764245    -1.032893
   13      H      -1.370523     2.018179    -0.314869
   14      H       0.282804    -0.152133     1.957020
   15      H       0.452195     1.427789     1.178239
   16      H       1.942522    -1.131120     0.448808
   17      H       2.599449     0.509452     0.609495
 ----------------------------------------------------
 Molecular Point Group                 C1    NOp =  1
 Largest Abelian Subgroup              C1    NOp =  1
 Nuclear Repulsion Energy =   256.0829126512 hartrees
 There are       25 alpha and       24 beta electrons
 Requested basis set is non-standard
 There are 138 shells and 314 basis functions

Total QAlloc Memory Limit   2000 MB
Mega-Array Size        61 MB
MEM_STATIC part        62 MB
 A cutoff of  1.0D-11 yielded   9149 shell pairs
 There are     47515 function pairs (     57225 Cartesian)
 Smallest overlap matrix eigenvalue = 1.73E-05

  Scale SEOQF with 1.000000e-01/1.000000e-01/1.000000e-01

 Standard Electronic Orientation quadrupole field applied
 Nucleus-field energy     =     0.0000000033 hartrees
 Guess MOs from core Hamiltonian diagonalization
 An unrestricted hybrid HF-DFT SCF calculation will be
 performed using Pulay DIIS extrapolation
 Exchange:     0.5679 Hartree-Fock + 1.0000 M08SO
 SCF converges when DIIS error is below 1.0E-08
 ---------------------------------------
  Cycle       Energy         DIIS Error
 ---------------------------------------
    1    -186.1620932124      9.15E-02
    2    -170.8040811142      4.84E-02
    3    -181.8248139899      6.26E-02
    4    -238.6973873069      3.87E-02
    5    -270.0563834058      1.34E-02
    6    -271.7870882950      5.55E-03
    7    -272.1510269561      1.10E-03
    8    -272.1670447108      2.47E-04
    9    -272.1679179714      1.05E-04
   10    -272.1681295646      3.84E-05
   11    -272.1681885621      2.09E-05
   12    -272.1682169735      1.18E-05
   13    -272.1682395730      7.53E-06
   14    -272.1682617296      4.57E-06
   15    -272.1682724156      2.45E-06
   16    -272.1682745946      1.48E-06
   17    -272.1682747826      7.63E-07
   18    -272.1682748154      2.10E-07
   19    -272.1682748192      6.05E-08
   20    -272.1682748196      3.75E-08
   21    -272.1682748196      1.19E-08
   22    -272.1682748196      3.57E-09 Convergence criterion met
 ---------------------------------------
 <S^2> = 0.7597
 SCF time:  CPU 2141.33 s  wall 2152.10 s
 SCF   energy in the final basis set = -272.1682748196
 Total energy in the final basis set = -272.1682748196
 Analysis of SCF Wavefunction
 
 --------------------------------------------------------------
                    Orbital Energies (a.u.)
 --------------------------------------------------------------
 
 Alpha MOs
 -- Occupied --
-19.577 -10.535 -10.529 -10.500 -10.494 -10.494  -1.124  -0.924
 -0.825  -0.796  -0.725  -0.643  -0.582  -0.563  -0.534  -0.511
 -0.491  -0.489  -0.473  -0.445  -0.419  -0.417  -0.397  -0.352
 -0.316
 -- Virtual --
 -0.027  -0.013  -0.010  -0.004   0.012   0.014   0.018   0.022
  0.028   0.049   0.051   0.066   0.068   0.071   0.085   0.089
  0.103   0.111   0.118   0.122   0.126   0.129   0.132   0.141
  0.144   0.147   0.156   0.160   0.165   0.176   0.188   0.202
  0.205   0.212   0.231   0.233   0.247   0.260   0.266   0.271
  0.278   0.297   0.301   0.310   0.318   0.325   0.332   0.343
  0.361   0.375   0.413   0.424   0.441   0.458   0.472   0.490
  0.498   0.503   0.526   0.542   0.549   0.564   0.568   0.574
  0.575   0.587   0.596   0.604   0.611   0.621   0.628   0.636
  0.649   0.656   0.668   0.692   0.697   0.708   0.716   0.735
  0.766   0.792   0.810   0.832   0.867   0.882   0.911   0.927
  0.953   0.971   0.980   0.999   1.024   1.044   1.054   1.066
  1.076   1.084   1.103   1.124   1.141   1.156   1.179   1.192
  1.199   1.208   1.221   1.240   1.246   1.261   1.277   1.290
  1.297   1.309   1.322   1.330   1.340   1.349   1.357   1.373
  1.377   1.399   1.405   1.414   1.429   1.440   1.454   1.470
  1.494   1.519   1.534   1.546   1.561   1.578   1.579   1.602
  1.616   1.632   1.658   1.672   1.728   1.745   1.775   1.839
  1.981   2.098   2.131   2.300   2.348   2.385   2.456   2.493
  2.508   2.552   2.565   2.590   2.624   2.677   2.687   2.725
  2.757   2.774   2.792   2.811   2.856   2.881   2.891   2.913
  2.932   2.941   2.979   3.000   3.024   3.058   3.086   3.107
  3.132   3.149   3.155   3.164   3.181   3.189   3.233   3.258
  3.273   3.291   3.304   3.324   3.335   3.362   3.376   3.417
  3.428   3.435   3.453   3.459   3.510   3.519   3.564   3.570
  3.584   3.613   3.631   3.654   3.678   3.694   3.719   3.730
  3.736   3.769   3.782   3.807   3.852   3.858   3.866   3.894
  3.918   3.937   3.956   3.977   4.013   4.020   4.045   4.054
  4.082   4.095   4.131   4.153   4.158   4.168   4.194   4.198
  4.215   4.244   4.255   4.269   4.295   4.319   4.354   4.357
  4.382   4.422   4.442   4.444   4.466   4.477   4.511   4.543
  4.563   4.588   4.629   4.668   4.690   4.757   4.762   4.851
  4.975   5.071   5.108   5.184   5.206   5.260   5.309   5.343
  5.381   5.413   5.441   5.464   5.560   5.609   5.630   5.640
  5.659   5.677   5.706   5.837   5.945   6.532   6.949   7.223
  7.240   7.313   7.637  23.984  24.168  24.225  24.278  24.293
 49.835
 
 Beta MOs
 -- Occupied --
-19.559 -10.536 -10.521 -10.500 -10.495 -10.494  -1.089  -0.916
 -0.821  -0.794  -0.713  -0.626  -0.557  -0.554  -0.526  -0.504
 -0.484  -0.468  -0.465  -0.443  -0.417  -0.401  -0.371  -0.337
 -- Virtual --
 -0.084  -0.028  -0.013  -0.010  -0.005   0.012   0.014   0.017
  0.023   0.026   0.049   0.051   0.065   0.068   0.071   0.085
  0.090   0.103   0.110   0.118   0.122   0.126   0.129   0.132
  0.142   0.145   0.148   0.156   0.160   0.166   0.177   0.189
  0.203   0.206   0.214   0.234   0.237   0.251   0.263   0.268
  0.278   0.286   0.298   0.303   0.313   0.322   0.326   0.335
  0.345   0.365   0.380   0.417   0.425   0.443   0.458   0.473
  0.494   0.501   0.506   0.526   0.545   0.552   0.565   0.570
  0.574   0.578   0.595   0.598   0.606   0.614   0.627   0.635
  0.639   0.650   0.658   0.670   0.693   0.696   0.709   0.717
  0.736   0.767   0.793   0.812   0.834   0.869   0.884   0.912
  0.927   0.955   0.972   0.981   1.001   1.028   1.046   1.057
  1.069   1.077   1.087   1.107   1.126   1.144   1.159   1.183
  1.195   1.210   1.212   1.231   1.245   1.252   1.269   1.283
  1.298   1.304   1.312   1.327   1.338   1.344   1.354   1.361
  1.374   1.383   1.401   1.405   1.418   1.431   1.442   1.457
  1.470   1.495   1.520   1.536   1.549   1.564   1.578   1.583
  1.602   1.620   1.632   1.666   1.677   1.730   1.753   1.786
  1.847   1.997   2.099   2.147   2.298   2.354   2.388   2.461
  2.498   2.512   2.554   2.568   2.608   2.627   2.680   2.691
  2.741   2.777   2.806   2.812   2.819   2.863   2.870   2.891
  2.912   2.931   2.936   2.965   2.990   3.014   3.051   3.084
  3.104   3.129   3.149   3.153   3.170   3.178   3.190   3.218
  3.256   3.278   3.284   3.305   3.327   3.338   3.364   3.377
  3.430   3.432   3.444   3.450   3.465   3.515   3.525   3.567
  3.571   3.586   3.619   3.628   3.663   3.684   3.697   3.733
  3.737   3.757   3.771   3.787   3.818   3.842   3.855   3.865
  3.900   3.922   3.936   3.954   3.978   4.005   4.021   4.036
  4.048   4.061   4.095   4.104   4.123   4.141   4.167   4.173
  4.194   4.215   4.244   4.257   4.279   4.304   4.318   4.349
  4.369   4.386   4.418   4.423   4.445   4.458   4.494   4.518
  4.554   4.565   4.590   4.628   4.668   4.685   4.777   4.790
  4.891   4.895   5.078   5.146   5.168   5.232   5.284   5.304
  5.364   5.416   5.461   5.483   5.504   5.563   5.613   5.628
  5.637   5.657   5.675   5.693   5.810   5.936   6.500   6.997
  7.213   7.272   7.360   7.660  23.988  24.169  24.227  24.286
 24.293  49.835
 --------------------------------------------------------------
 
          Ground-State Mulliken Net Atomic Charges

     Atom                 Charge (a.u.)    Spin (a.u.)
  --------------------------------------------------------
      1 C                    -0.729137      -0.029817
      2 C                     0.004814       0.428576
      3 C                    -0.668036      -0.020881
      4 C                    -0.310130       0.020392
      5 C                    -0.511770      -0.016706
      6 O                    -0.227117       0.573732
      7 H                     0.211349       0.002827
      8 H                     0.216262       0.029697
      9 H                     0.206055       0.000751
     10 H                     0.344912      -0.046943
     11 H                     0.207388       0.032553
     12 H                     0.200243       0.003975
     13 H                     0.197157       0.003628
     14 H                     0.202608      -0.004246
     15 H                     0.230917      -0.002796
     16 H                     0.210198       0.000621
     17 H                     0.214286       0.024637
  --------------------------------------------------------
  Sum of atomic charges =     0.000000
  Sum of spin   charges =     1.000000

 -----------------------------------------------------------------
                    Cartesian Multipole Moments
 -----------------------------------------------------------------
    Charge (ESU x 10^10)
                 0.0000
    Dipole Moment (Debye)
         X      -1.5782      Y      -0.3024      Z       1.9733
       Tot       2.5448
    Quadrupole Moments (Debye-Ang)
        XX     -40.0779     XY      -0.3726     YY     -39.3607
        XZ       4.0331     YZ       0.5440     ZZ     -42.1357
    Octapole Moments (Debye-Ang^2)
       XXX       5.5993    XXY       0.0380    XYY       2.0492
       YYY       1.4590    XXZ       4.5047    XYZ       0.9467
       YYZ      -0.4501    XZZ      -4.6075    YZZ      -0.7379
       ZZZ      -0.0396
    Hexadecapole Moments (Debye-Ang^3)
      XXXX    -492.9475   XXXY       4.6228   XXYY    -123.4334
      XYYY      -1.2177   YYYY    -232.7377   XXXZ       6.3796
      XXYZ       2.2929   XYYZ       0.5965   YYYZ       0.7501
      XXZZ    -114.8441   XYZZ       1.1502   YYZZ     -68.2736
      XZZZ       2.1853   YZZZ      -1.4326   ZZZZ    -168.2591
 -----------------------------------------------------------------
 Calculating analytic gradient of the SCF energy
 Gradient of Coulomb and Exchange Energy
            1           2           3           4           5           6
    1   1.9030019   4.9645021   3.6589279  -1.8370836  -3.6098044  -6.5512185
    2   3.4652137  -1.3760926  -1.0062628   0.2908202  -1.2864737  -1.2231245
    3   0.9109843  -3.3753254   1.4834597  -2.2983966  -2.5852036  10.5519286
            7           8           9          10          11          12
    1   2.5469833   2.3877151  -2.5088612  -0.3965682   2.6964734   2.7776408
    2   1.5143781   1.5343633   3.1970623  -0.1325721  -0.6249523   0.3146906
    3   2.9434619  -2.8576307  -0.1103341   2.8545502  -2.7595388   2.8210117
           13          14          15          16          17
    1  -0.6257367   0.3976375  -0.1343109  -1.6075369  -4.0617617
    2  -4.0092907   1.8333608  -4.6762916   4.3690629  -2.1838915
    3   0.4543895  -4.3081973  -1.5156575  -0.7086368  -1.5008650
 Gradient of SCF Energy
            1           2           3           4           5           6
    1  -0.0006611  -0.0001925  -0.0012268   0.0000582   0.0005862  -0.0041071
    2  -0.0020460  -0.0004439   0.0008096   0.0007948   0.0003711  -0.0008363
    3   0.0001604   0.0002268  -0.0007208   0.0017637   0.0008639   0.0032097
            7           8           9          10          11          12
    1   0.0027141   0.0025302  -0.0039802   0.0036297   0.0027262   0.0030372
    2   0.0014154   0.0011546   0.0030319  -0.0003556   0.0000249   0.0011368
    3   0.0038375  -0.0039139  -0.0002728   0.0019266  -0.0038083   0.0039167
           13          14          15          16          17
    1  -0.0015356   0.0008560   0.0002071  -0.0006810  -0.0039607
    2  -0.0043863   0.0022289  -0.0050156   0.0044002  -0.0022844
    3   0.0006488  -0.0045760  -0.0008141  -0.0006240  -0.0018242
 Max gradient component =       5.016E-03
 RMS gradient           =       2.411E-03
 Gradient time:  CPU 131.30 s  wall 131.52 s
 Geometry Optimization Parameters
   NAtoms,    NIC,     NZ,  NCons,   NDum,   NFix, NCnnct, MaxDiis
       17     126       0       0       0       0       0       0


** GEOMETRY OPTIMIZATION IN DELOCALIZED INTERNAL COORDINATES **
   Searching for a Transition State

   Optimization Cycle:   1

                       Coordinates (Angstroms)
     ATOM              X           Y           Z
      1  C        -1.068193   -1.433252   -0.040928
      2  C        -0.627110    0.012186   -0.045651
      3  C        -1.751472    1.005451   -0.188301
      4  C         0.441631    0.351957    1.002369
      5  C         1.728368   -0.067532    0.289856
      6  O         1.491457    0.203169   -1.071714
      7  H        -1.684473   -1.658873   -0.910307
      8  H        -1.666565   -1.629234    0.854246
      9  H        -0.217515   -2.114016   -0.034778
     10  H         0.157444    0.134603   -1.000656
     11  H        -2.370583    0.992895    0.715335
     12  H        -2.395754    0.764245   -1.032893
     13  H        -1.370523    2.018179   -0.314869
     14  H         0.282804   -0.152133    1.957020
     15  H         0.452195    1.427789    1.178239
     16  H         1.942522   -1.131120    0.448808
     17  H         2.599449    0.509452    0.609495
   Point Group: c1    Number of degrees of freedom:    45


   Energy is   -272.168274820


 Attempting to Generate Delocalized Internal Coordinates
 GETINT wrote B to file, NVib is           45
 calling HSSCONV
 HCONV 3*NATOMS:           51
 wrote HINT to file
  writing hessian 

 45 Hessian modes will be used to form the next step
  Hessian Eigenvalues:
     0.003797    0.007691    0.007984    0.008250    0.027727    0.031245
     0.041577    0.054494    0.055622    0.057063    0.057239    0.059560
     0.059858    0.061034    0.066906    0.076256    0.086094    0.110796
     0.111591    0.134293    0.160000    0.160000    0.160000    0.160000
     0.160000    0.160000    0.161975    0.169992    0.188978    0.213729
     0.274579    0.283332    0.312255    0.316517    0.340704    0.341902
     0.343048    0.345093    0.346757    0.347938    0.348641    0.348838
     0.348915    0.348962    0.412844
**WARNING** Hessian does not have the Desired Local Structure

 Transition State Search - Taking P-RFO Step
 Searching for Lamda that Maximizes Along the Lowest mode
 Value Taken    Lamda =   0.00388408
 Searching for Lamda that Minimizes Along All other modes
 Value Taken    Lamda =  -0.00112050
 Calculated Step too Large.  Step scaled by  0.044864
 Step Taken.  Stepsize is  0.300000

                             Maximum     Tolerance    Cnvgd?
         Gradient           0.010779      0.000300      NO
         Displacement       0.155726      0.001200      NO
         Energy change     *********      0.000001      NO


 New Cartesian Coordinates Obtained by Inverse Iteration

 Displacement from previous Coordinates is:  0.319723
 ----------------------------------------------------
       Standard Nuclear Orientation (Angstroms)
    I     Atom         X            Y            Z
 ----------------------------------------------------
    1      C      -1.093694    -1.440686    -0.027933
    2      C      -0.625881    -0.003487    -0.045219
    3      C      -1.733098     1.007395    -0.200676
    4      C       0.441566     0.327693     1.008119
    5      C       1.738036    -0.037754     0.282376
    6      O       1.486399     0.253259    -1.072269
    7      H      -1.711187    -1.663770    -0.897521
    8      H      -1.698778    -1.616931     0.867236
    9      H      -0.255405    -2.137023    -0.011930
   10      H       0.160215     0.093627    -1.002349
   11      H      -2.354961     1.014092     0.701524
   12      H      -2.379311     0.768808    -1.044981
   13      H      -1.334662     2.012571    -0.336033
   14      H       0.297536    -0.207197     1.948654
   15      H       0.427540     1.398034     1.216401
   16      H       1.988643    -1.096791     0.419009
   17      H       2.590723     0.561926     0.610863
 ----------------------------------------------------
 Molecular Point Group                 C1    NOp =  1
 Largest Abelian Subgroup              C1    NOp =  1
 Nuclear Repulsion Energy =   255.8277993375 hartrees
 There are       25 alpha and       24 beta electrons
 Applying Cartesian multipole field
    Component          Value
    ---------          -----
     (2,0,0)        1.00000E-11
     (0,2,0)        2.00000E-11
     (0,0,2)       -3.00000E-11
 Nucleus-field energy     =     0.0000000033 hartrees
 Requested basis set is non-standard
 There are 138 shells and 314 basis functions
 A cutoff of  1.0D-11 yielded   9146 shell pairs
 There are     47500 function pairs (     57206 Cartesian)
 Smallest overlap matrix eigenvalue = 1.74E-05
 Guess MOs from SCF MO coefficient file
Reading MOs from coefficient file
Reading MOs from coefficient file
 An unrestricted hybrid HF-DFT SCF calculation will be
 performed using Pulay DIIS extrapolation
 Exchange:     0.5679 Hartree-Fock + 1.0000 M08SO
 SCF converges when DIIS error is below 1.0E-08
Geometry optimization detected.  Setting ReadMinima to 0
Setting SaveMinima to 0
 ---------------------------------------
  Cycle       Energy         DIIS Error
 ---------------------------------------
    1    -272.1660585337      4.69E-04
    2    -272.1678842816      6.13E-05
    3    -272.1679522541      5.24E-05
    4    -272.1679882914      1.90E-05
    5    -272.1680002920      9.52E-06
    6    -272.1680062852      4.83E-06
    7    -272.1680128713      3.53E-06
    8    -272.1680203333      1.54E-06
    9    -272.1680212117      6.43E-07
   10    -272.1680212999      3.27E-07
   11    -272.1680213164      1.51E-07
   12    -272.1680213188      6.71E-08
   13    -272.1680213192      2.17E-08
   14    -272.1680213194      1.20E-08
   15    -272.1680213194      4.46E-09 Convergence criterion met
 ---------------------------------------
 <S^2> = 0.7598
 SCF time:  CPU 1454.40 s  wall 1462.54 s
 SCF   energy in the final basis set = -272.1680213194
 Total energy in the final basis set = -272.1680213194
 Analysis of SCF Wavefunction
 
 --------------------------------------------------------------
                    Orbital Energies (a.u.)
 --------------------------------------------------------------
 
 Alpha MOs
 -- Occupied --
-19.577 -10.535 -10.529 -10.499 -10.495 -10.494  -1.124  -0.924
 -0.825  -0.795  -0.724  -0.643  -0.581  -0.562  -0.534  -0.510
 -0.493  -0.489  -0.473  -0.444  -0.419  -0.417  -0.396  -0.351
 -0.316
 -- Virtual --
 -0.027  -0.013  -0.010  -0.004   0.012   0.014   0.018   0.022
  0.028   0.049   0.051   0.065   0.068   0.071   0.085   0.088
  0.103   0.111   0.118   0.122   0.126   0.129   0.131   0.141
  0.144   0.147   0.155   0.160   0.166   0.177   0.187   0.202
  0.205   0.211   0.229   0.233   0.248   0.260   0.266   0.272
  0.279   0.296   0.303   0.311   0.319   0.325   0.332   0.343
  0.364   0.373   0.414   0.424   0.439   0.458   0.472   0.490
  0.499   0.502   0.524   0.542   0.550   0.565   0.568   0.574
  0.574   0.586   0.595   0.604   0.608   0.620   0.627   0.634
  0.649   0.654   0.667   0.693   0.697   0.708   0.714   0.736
  0.768   0.793   0.808   0.830   0.872   0.878   0.910   0.930
  0.954   0.972   0.977   1.000   1.025   1.044   1.054   1.062
  1.078   1.082   1.103   1.124   1.141   1.153   1.184   1.185
  1.195   1.210   1.219   1.241   1.246   1.263   1.276   1.291
  1.297   1.307   1.323   1.328   1.340   1.347   1.357   1.373
  1.378   1.401   1.405   1.415   1.428   1.438   1.455   1.469
  1.495   1.515   1.535   1.546   1.565   1.575   1.579   1.603
  1.615   1.625   1.648   1.669   1.727   1.737   1.773   1.833
  1.980   2.097   2.135   2.300   2.351   2.383   2.456   2.486
  2.503   2.553   2.567   2.593   2.617   2.667   2.684   2.724
  2.753   2.776   2.795   2.809   2.852   2.887   2.893   2.912
  2.933   2.942   2.978   2.997   3.027   3.061   3.083   3.108
  3.125   3.149   3.155   3.164   3.177   3.192   3.234   3.263
  3.276   3.284   3.301   3.329   3.334   3.361   3.373   3.415
  3.427   3.437   3.450   3.462   3.513   3.517   3.565   3.569
  3.586   3.609   3.630   3.652   3.672   3.698   3.723   3.730
  3.736   3.766   3.781   3.806   3.847   3.859   3.866   3.898
  3.918   3.931   3.955   3.980   4.007   4.024   4.044   4.050
  4.082   4.091   4.134   4.150   4.155   4.167   4.192   4.196
  4.220   4.244   4.250   4.277   4.292   4.318   4.352   4.360
  4.381   4.417   4.441   4.444   4.462   4.475   4.510   4.535
  4.563   4.589   4.628   4.663   4.690   4.755   4.768   4.848
  4.969   5.071   5.106   5.183   5.211   5.255   5.309   5.333
  5.379   5.410   5.437   5.463   5.557   5.607   5.630   5.638
  5.658   5.676   5.702   5.833   5.947   6.530   6.950   7.224
  7.241   7.314   7.636  23.982  24.165  24.222  24.276  24.289
 49.832
 
 Beta MOs
 -- Occupied --
-19.559 -10.536 -10.521 -10.499 -10.495 -10.494  -1.089  -0.916
 -0.821  -0.794  -0.713  -0.626  -0.557  -0.554  -0.526  -0.502
 -0.485  -0.469  -0.465  -0.442  -0.417  -0.401  -0.371  -0.336
 -- Virtual --
 -0.084  -0.028  -0.013  -0.010  -0.005   0.012   0.014   0.017
  0.023   0.026   0.049   0.051   0.065   0.067   0.071   0.085
  0.089   0.103   0.111   0.118   0.122   0.126   0.129   0.132
  0.141   0.145   0.147   0.155   0.160   0.167   0.177   0.187
  0.203   0.206   0.213   0.232   0.238   0.251   0.263   0.267
  0.278   0.287   0.297   0.304   0.313   0.323   0.326   0.335
  0.345   0.368   0.378   0.417   0.425   0.441   0.458   0.474
  0.494   0.501   0.506   0.525   0.546   0.552   0.566   0.569
  0.574   0.577   0.594   0.597   0.606   0.611   0.626   0.634
  0.637   0.649   0.656   0.669   0.694   0.697   0.709   0.715
  0.737   0.769   0.794   0.810   0.833   0.874   0.880   0.911
  0.930   0.957   0.975   0.978   1.002   1.028   1.046   1.057
  1.064   1.080   1.085   1.107   1.125   1.145   1.156   1.186
  1.188   1.209   1.214   1.230   1.245   1.252   1.270   1.282
  1.299   1.304   1.310   1.327   1.336   1.344   1.353   1.361
  1.375   1.384   1.403   1.404   1.418   1.430   1.441   1.457
  1.471   1.496   1.517   1.537   1.549   1.567   1.578   1.580
  1.603   1.621   1.625   1.657   1.672   1.729   1.746   1.783
  1.841   1.997   2.098   2.150   2.298   2.356   2.387   2.462
  2.491   2.508   2.555   2.570   2.608   2.623   2.672   2.686
  2.739   2.775   2.806   2.813   2.818   2.861   2.868   2.897
  2.913   2.932   2.938   2.962   2.989   3.017   3.057   3.083
  3.104   3.123   3.149   3.156   3.167   3.175   3.190   3.222
  3.259   3.277   3.280   3.303   3.332   3.336   3.363   3.374
  3.429   3.431   3.443   3.451   3.464   3.519   3.523   3.567
  3.572   3.586   3.615   3.628   3.660   3.679   3.700   3.735
  3.737   3.760   3.768   3.786   3.816   3.841   3.855   3.863
  3.906   3.921   3.931   3.953   3.978   4.004   4.013   4.039
  4.048   4.054   4.089   4.105   4.124   4.142   4.167   4.171
  4.193   4.217   4.245   4.251   4.284   4.304   4.318   4.352
  4.369   4.383   4.414   4.422   4.444   4.457   4.490   4.517
  4.546   4.565   4.592   4.625   4.666   4.680   4.784   4.786
  4.889   4.893   5.071   5.147   5.166   5.235   5.284   5.305
  5.355   5.414   5.457   5.482   5.501   5.560   5.608   5.629
  5.635   5.656   5.674   5.690   5.806   5.937   6.498   6.997
  7.214   7.273   7.361   7.658  23.986  24.166  24.224  24.285
 24.289  49.831
 --------------------------------------------------------------
 
          Ground-State Mulliken Net Atomic Charges

     Atom                 Charge (a.u.)    Spin (a.u.)
  --------------------------------------------------------
      1 C                    -0.723037      -0.030814
      2 C                     0.046642       0.430982
      3 C                    -0.694370      -0.021229
      4 C                    -0.337010       0.019531
      5 C                    -0.501315      -0.016661
      6 O                    -0.229191       0.574373
      7 H                     0.210375       0.002645
      8 H                     0.216512       0.031245
      9 H                     0.202501       0.000967
     10 H                     0.343888      -0.048526
     11 H                     0.208458       0.031736
     12 H                     0.200516       0.003878
     13 H                     0.197994       0.003548
     14 H                     0.201833      -0.004718
     15 H                     0.235781      -0.002288
     16 H                     0.206762       0.000748
     17 H                     0.213662       0.024582
  --------------------------------------------------------
  Sum of atomic charges =     0.000000
  Sum of spin   charges =     1.000000

 -----------------------------------------------------------------
                    Cartesian Multipole Moments
 -----------------------------------------------------------------
    Charge (ESU x 10^10)
                 0.0000
    Dipole Moment (Debye)
         X      -1.5620      Y      -0.3843      Z       1.9674
       Tot       2.5413
    Quadrupole Moments (Debye-Ang)
        XX     -40.0312     XY      -0.4402     YY     -39.4017
        XZ       4.0115     YZ       0.6881     ZZ     -42.1415
    Octapole Moments (Debye-Ang^2)
       XXX       5.6703    XXY      -0.1255    XYY       2.0750
       YYY       0.8539    XXZ       4.4778    XYZ       1.1159
       YYZ      -0.3571    XZZ      -4.5713    YZZ      -1.0607
       ZZZ      -0.0564
    Hexadecapole Moments (Debye-Ang^3)
      XXXX    -493.7856   XXXY       1.1327   XXYY    -123.5532
      XYYY      -4.8971   YYYY    -234.0203   XXXZ       6.2188
      XXYZ       3.1696   XYYZ       0.6338   YYYZ       2.6993
      XXZZ    -115.0248   XYZZ      -0.2944   YYZZ     -68.4601
      XZZZ       2.2675   YZZZ       0.5988   ZZZZ    -169.1831
 -----------------------------------------------------------------
 Calculating analytic gradient of the SCF energy
 Gradient of Coulomb and Exchange Energy
            1           2           3           4           5           6
    1   1.9150692   4.6276741   3.8118215  -1.7720165  -3.5550556  -6.4604993
    2   3.4428495  -1.0479298  -1.1091264   0.2735524  -1.1766109  -1.6242828
    3   1.0579327  -3.5418400   1.4532316  -2.3064724  -2.5146360  10.4992319
            7           8           9          10          11          12
    1   2.5398668   2.4120689  -2.4455654  -0.4064239   2.6918876   2.7761394
    2   1.4896550   1.4506424   3.2261168   0.0661987  -0.6951900   0.2987159
    3   2.9337196  -2.8680106  -0.1495134   2.9243328  -2.7472663   2.8250941
           13          14          15          16          17
    1  -0.6867734   0.3292881  -0.0192051  -1.7691282  -3.9891482
    2  -4.0083986   1.9784686  -4.6155510   4.3126307  -2.2617407
    3   0.4724920  -4.2594738  -1.6276118  -0.6151070  -1.5361033
 Gradient of SCF Energy
            1           2           3           4           5           6
    1  -0.0006090  -0.0002260  -0.0012922  -0.0000621   0.0009557  -0.0041906
    2  -0.0017748   0.0014818   0.0006702  -0.0004022   0.0004478  -0.0002773
    3   0.0004650  -0.0000270  -0.0004672   0.0016599   0.0004801   0.0034310
            7           8           9          10          11          12
    1   0.0026530   0.0024366  -0.0038584   0.0038470   0.0025143   0.0028963
    2   0.0014218   0.0010508   0.0030409  -0.0021702  -0.0000071   0.0010737
    3   0.0036664  -0.0038270  -0.0004466   0.0016110  -0.0036456   0.0037598
           13          14          15          16          17
    1  -0.0016093   0.0007652   0.0002900  -0.0006496  -0.0038610
    2  -0.0041238   0.0022874  -0.0047599   0.0042131  -0.0021721
    3   0.0006844  -0.0041197  -0.0010872  -0.0005122  -0.0016250
 Max gradient component =       4.760E-03
 RMS gradient           =       2.357E-03
 Gradient time:  CPU 135.67 s  wall 135.89 s
 Geometry Optimization Parameters
   NAtoms,    NIC,     NZ,  NCons,   NDum,   NFix, NCnnct, MaxDiis
       17     126       0       0       0       0       0       0

 Cartesian Hessian Update
 Hessian Updated using Powell/Murtagh-Sargent Update
  Mixing factors:     0.000100 Powell
                      0.999900 Murtagh-Sargent


** GEOMETRY OPTIMIZATION IN DELOCALIZED INTERNAL COORDINATES **
   Searching for a Transition State

   Optimization Cycle:   2

                       Coordinates (Angstroms)
     ATOM              X           Y           Z
      1  C        -1.093694   -1.440686   -0.027933
      2  C        -0.625881   -0.003487   -0.045219
      3  C        -1.733098    1.007395   -0.200676
      4  C         0.441566    0.327693    1.008119
      5  C         1.738036   -0.037754    0.282376
      6  O         1.486399    0.253259   -1.072269
      7  H        -1.711187   -1.663770   -0.897521
      8  H        -1.698778   -1.616931    0.867236
      9  H        -0.255405   -2.137023   -0.011930
     10  H         0.160215    0.093627   -1.002349
     11  H        -2.354961    1.014092    0.701524
     12  H        -2.379311    0.768808   -1.044981
     13  H        -1.334662    2.012571   -0.336033
     14  H         0.297536   -0.207197    1.948654
     15  H         0.427540    1.398034    1.216401
     16  H         1.988643   -1.096791    0.419009
     17  H         2.590723    0.561926    0.610863
   Point Group: c1    Number of degrees of freedom:    45


   Energy is   -272.168021319

 GETINT wrote B to file, NVib is           45
 Hessian Updated using Powell/Murtagh-Sargent Update
  Mixing factors:     0.958344 Powell
                      0.041656 Murtagh-Sargent

 41 Hessian modes will be used to form the next step
  Hessian Eigenvalues:
     0.002411    0.007693    0.008002    0.008251    0.027727    0.031203
     0.041546    0.054487    0.055601    0.057059    0.057239    0.059556
     0.059858    0.061025    0.066906    0.076243    0.086062    0.110771
     0.111591    0.134263    0.159977    0.160000    0.161974    0.169992
     0.188799    0.213724    0.274564    0.283332    0.312203    0.316504
     0.340704    0.341902    0.343045    0.345093    0.346749    0.347937
     0.348631    0.348838    0.348915    0.348961    0.412822
**WARNING** Hessian does not have the Desired Local Structure

 Transition State Search - Taking P-RFO Step
 Searching for Lamda that Maximizes Along the Lowest mode
 Value Taken    Lamda =   0.00298163
 Searching for Lamda that Minimizes Along All other modes
 Value Taken    Lamda =  -0.00106001
 Calculated Step too Large.  Step scaled by  0.131102
 Step Taken.  Stepsize is  0.300000

                             Maximum     Tolerance    Cnvgd?
         Gradient           0.010384      0.000300      NO
         Displacement       0.132467      0.001200      NO
         Energy change      0.000254      0.000001      NO


 New Cartesian Coordinates Obtained by Inverse Iteration

 Displacement from previous Coordinates is:  0.336893
 ----------------------------------------------------
       Standard Nuclear Orientation (Angstroms)
    I     Atom         X            Y            Z
 ----------------------------------------------------
    1      C      -1.118865    -1.449838    -0.013476
    2      C      -0.624709    -0.020187    -0.042517
    3      C      -1.712382     1.009581    -0.215340
    4      C       0.441671     0.305431     1.015804
    5      C       1.744408    -0.005672     0.272965
    6      O       1.475205     0.307088    -1.074326
    7      H      -1.734780    -1.673562    -0.885283
    8      H      -1.733091    -1.605708     0.880522
    9      H      -0.291880    -2.160877     0.017894
   10      H       0.162211     0.059019    -1.000444
   11      H      -2.337836     1.038501     0.684941
   12      H      -2.359834     0.772941    -1.060507
   13      H      -1.293582     2.005947    -0.361074
   14      H       0.317026    -0.267599     1.937277
   15      H       0.400284     1.367258     1.265294
   16      H       2.027042    -1.060389     0.385165
   17      H       2.582794     0.611832     0.608376
 ----------------------------------------------------
 Molecular Point Group                 C1    NOp =  1
 Largest Abelian Subgroup              C1    NOp =  1
 Nuclear Repulsion Energy =   255.5406469881 hartrees
 There are       25 alpha and       24 beta electrons
 Applying Cartesian multipole field
    Component          Value
    ---------          -----
     (2,0,0)        1.00000E-11
     (0,2,0)        2.00000E-11
     (0,0,2)       -3.00000E-11
 Nucleus-field energy     =     0.0000000033 hartrees
 Requested basis set is non-standard
 There are 138 shells and 314 basis functions
 A cutoff of  1.0D-11 yielded   9142 shell pairs
 There are     47508 function pairs (     57239 Cartesian)
 Smallest overlap matrix eigenvalue = 1.76E-05
 Guess MOs from SCF MO coefficient file
Reading MOs from coefficient file
Reading MOs from coefficient file
 An unrestricted hybrid HF-DFT SCF calculation will be
 performed using Pulay DIIS extrapolation
 Exchange:     0.5679 Hartree-Fock + 1.0000 M08SO
 SCF converges when DIIS error is below 1.0E-08
Geometry optimization detected.  Setting ReadMinima to 0
Setting SaveMinima to 0
 Inaccurate integrated density:
   Number of electrons =    49
   Numerical integral  =    48.992868024780
   Relative error      =    -0.0145550515 %
 ---------------------------------------
  Cycle       Energy         DIIS Error
 ---------------------------------------
    1    -272.1648513858      4.88E-04
    2    -272.1675117436      6.50E-05
    3    -272.1675906334      5.37E-05
    4    -272.1676294769      1.94E-05
    5    -272.1676423527      1.05E-05
    6    -272.1676490473      5.09E-06
    7    -272.1676563652      3.74E-06
    8    -272.1676646158      1.69E-06
    9    -272.1676656543      7.18E-07
   10    -272.1676657710      3.79E-07
   11    -272.1676657930      1.69E-07
   12    -272.1676657958      7.06E-08
   13    -272.1676657964      2.31E-08
   14    -272.1676657966      1.30E-08
   15    -272.1676657965      4.59E-09 Convergence criterion met
 ---------------------------------------
 <S^2> = 0.7598
 SCF time:  CPU 1431.66 s  wall 1440.25 s
 SCF   energy in the final basis set = -272.1676657965
 Total energy in the final basis set = -272.1676657965
 Analysis of SCF Wavefunction
 
 --------------------------------------------------------------
                    Orbital Energies (a.u.)
 --------------------------------------------------------------
 
 Alpha MOs
 -- Occupied --
-19.577 -10.536 -10.530 -10.499 -10.496 -10.494  -1.123  -0.923
 -0.825  -0.795  -0.723  -0.644  -0.581  -0.561  -0.534  -0.508
 -0.494  -0.488  -0.472  -0.444  -0.420  -0.416  -0.396  -0.351
 -0.316
 -- Virtual --
 -0.027  -0.013  -0.010  -0.004   0.012   0.014   0.018   0.022
  0.027   0.049   0.051   0.064   0.068   0.071   0.085   0.087
  0.103   0.112   0.119   0.122   0.126   0.129   0.131   0.141
  0.144   0.146   0.154   0.160   0.167   0.178   0.185   0.201
  0.204   0.211   0.227   0.233   0.249   0.258   0.265   0.272
  0.280   0.294   0.304   0.312   0.320   0.325   0.332   0.343
  0.366   0.372   0.413   0.423   0.437   0.459   0.473   0.491
  0.499   0.502   0.522   0.542   0.550   0.566   0.568   0.572
  0.574   0.585   0.594   0.604   0.606   0.619   0.626   0.631
  0.648   0.652   0.666   0.693   0.698   0.708   0.712   0.737
  0.770   0.794   0.808   0.828   0.874   0.877   0.908   0.933
  0.956   0.968   0.980   0.999   1.027   1.044   1.052   1.059
  1.080   1.082   1.103   1.123   1.141   1.149   1.175   1.191
  1.192   1.212   1.218   1.240   1.245   1.266   1.276   1.292
  1.296   1.305   1.323   1.325   1.339   1.346   1.359   1.374
  1.380   1.400   1.407   1.417   1.428   1.438   1.454   1.471
  1.495   1.511   1.535   1.546   1.567   1.572   1.578   1.603
  1.618   1.618   1.635   1.666   1.725   1.730   1.773   1.831
  1.977   2.094   2.137   2.299   2.351   2.384   2.454   2.478
  2.499   2.554   2.567   2.596   2.613   2.660   2.681   2.723
  2.752   2.778   2.796   2.804   2.849   2.891   2.899   2.912
  2.934   2.941   2.977   2.996   3.027   3.065   3.078   3.108
  3.119   3.149   3.153   3.166   3.173   3.196   3.232   3.264
  3.275   3.283   3.299   3.331   3.339   3.360   3.369   3.410
  3.427   3.437   3.445   3.462   3.513   3.520   3.563   3.570
  3.586   3.606   3.628   3.649   3.666   3.699   3.723   3.729
  3.737   3.764   3.779   3.803   3.842   3.858   3.864   3.899
  3.917   3.924   3.954   3.981   3.997   4.027   4.040   4.047
  4.080   4.088   4.136   4.146   4.153   4.167   4.189   4.195
  4.222   4.239   4.249   4.284   4.292   4.316   4.348   4.363
  4.381   4.412   4.437   4.443   4.455   4.472   4.508   4.526
  4.562   4.589   4.625   4.655   4.686   4.752   4.774   4.845
  4.963   5.072   5.105   5.182   5.214   5.251   5.305   5.325
  5.376   5.405   5.432   5.461   5.552   5.601   5.627   5.635
  5.654   5.673   5.695   5.826   5.947   6.526   6.949   7.223
  7.239   7.315   7.633  23.980  24.158  24.216  24.271  24.281
 49.829
 
 Beta MOs
 -- Occupied --
-19.559 -10.536 -10.521 -10.499 -10.496 -10.494  -1.088  -0.916
 -0.820  -0.794  -0.712  -0.627  -0.556  -0.553  -0.526  -0.501
 -0.486  -0.469  -0.465  -0.441  -0.416  -0.401  -0.371  -0.336
 -- Virtual --
 -0.084  -0.028  -0.013  -0.011  -0.005   0.012   0.014   0.017
  0.023   0.026   0.048   0.051   0.064   0.067   0.071   0.085
  0.088   0.103   0.111   0.119   0.123   0.126   0.129   0.131
  0.141   0.145   0.147   0.154   0.160   0.168   0.178   0.186
  0.202   0.206   0.213   0.230   0.238   0.251   0.262   0.267
  0.278   0.288   0.295   0.306   0.314   0.324   0.326   0.335
  0.346   0.370   0.378   0.416   0.425   0.439   0.459   0.475
  0.494   0.500   0.506   0.523   0.546   0.552   0.567   0.569
  0.573   0.575   0.592   0.596   0.606   0.609   0.624   0.633
  0.634   0.648   0.654   0.668   0.694   0.698   0.709   0.713
  0.738   0.771   0.794   0.810   0.831   0.875   0.879   0.909
  0.933   0.958   0.970   0.981   1.001   1.030   1.046   1.055
  1.061   1.082   1.084   1.107   1.125   1.145   1.153   1.177
  1.193   1.205   1.219   1.229   1.244   1.251   1.272   1.282
  1.300   1.302   1.308   1.325   1.333   1.341   1.353   1.362
  1.375   1.384   1.403   1.407   1.420   1.429   1.441   1.456
  1.473   1.496   1.513   1.538   1.549   1.569   1.575   1.579
  1.603   1.619   1.625   1.643   1.669   1.729   1.740   1.782
  1.838   1.993   2.096   2.152   2.296   2.356   2.389   2.460
  2.482   2.505   2.555   2.570   2.605   2.623   2.664   2.684
  2.737   2.776   2.804   2.813   2.816   2.860   2.867   2.901
  2.915   2.934   2.939   2.960   2.990   3.018   3.062   3.079
  3.103   3.117   3.149   3.156   3.165   3.171   3.191   3.222
  3.262   3.272   3.282   3.301   3.333   3.341   3.360   3.371
  3.424   3.430   3.441   3.453   3.463   3.518   3.526   3.564
  3.572   3.587   3.612   3.626   3.655   3.674   3.702   3.732
  3.735   3.763   3.764   3.786   3.812   3.838   3.853   3.861
  3.908   3.918   3.927   3.953   3.976   3.998   4.010   4.041
  4.044   4.051   4.082   4.109   4.124   4.144   4.165   4.169
  4.190   4.216   4.242   4.248   4.287   4.307   4.317   4.355
  4.366   4.378   4.409   4.419   4.442   4.454   4.483   4.516
  4.537   4.564   4.594   4.621   4.659   4.675   4.782   4.790
  4.887   4.891   5.062   5.150   5.164   5.238   5.281   5.307
  5.345   5.411   5.450   5.479   5.498   5.555   5.599   5.627
  5.631   5.653   5.671   5.685   5.799   5.936   6.494   6.996
  7.215   7.271   7.362   7.656  23.983  24.160  24.219  24.279
 24.282  49.828
 --------------------------------------------------------------
 
          Ground-State Mulliken Net Atomic Charges

     Atom                 Charge (a.u.)    Spin (a.u.)
  --------------------------------------------------------
      1 C                    -0.717963      -0.030973
      2 C                     0.094369       0.432504
      3 C                    -0.720459      -0.021639
      4 C                    -0.369530       0.017559
      5 C                    -0.490859      -0.016241
      6 O                    -0.231800       0.575666
      7 H                     0.209279       0.002459
      8 H                     0.216324       0.032570
      9 H                     0.199935       0.001139
     10 H                     0.340383      -0.049933
     11 H                     0.209076       0.030883
     12 H                     0.200600       0.003763
     13 H                     0.199618       0.003444
     14 H                     0.202768      -0.005118
     15 H                     0.240493      -0.001521
     16 H                     0.204353       0.001052
     17 H                     0.213413       0.024387
  --------------------------------------------------------
  Sum of atomic charges =     0.000000
  Sum of spin   charges =     1.000000

 -----------------------------------------------------------------
                    Cartesian Multipole Moments
 -----------------------------------------------------------------
    Charge (ESU x 10^10)
                 0.0000
    Dipole Moment (Debye)
         X      -1.5361      Y      -0.4710      Z       1.9647
       Tot       2.5380
    Quadrupole Moments (Debye-Ang)
        XX     -39.9787     XY      -0.5022     YY     -39.4408
        XZ       3.9804     YZ       0.8384     ZZ     -42.1654
    Octapole Moments (Debye-Ang^2)
       XXX       5.9195    XXY      -0.3475    XYY       2.1191
       YYY       0.1457    XXZ       4.3967    XYZ       1.2779
       YYZ      -0.2364    XZZ      -4.5039    YZZ      -1.3969
       ZZZ      -0.0700
    Hexadecapole Moments (Debye-Ang^3)
      XXXX    -493.3165   XXXY      -2.5568   XXYY    -123.5921
      XYYY      -8.7638   YYYY    -236.1015   XXXZ       5.9700
      XXYZ       4.1201   XYYZ       0.6974   YYYZ       4.8383
      XXZZ    -115.0245   XYZZ      -1.8434   YYZZ     -68.7650
      XZZZ       2.3887   YZZZ       2.8833   ZZZZ    -170.5894
 -----------------------------------------------------------------
 Calculating analytic gradient of the SCF energy
 Gradient of Coulomb and Exchange Energy
            1           2           3           4           5           6
    1   1.9507424   4.3240147   3.9356817  -1.7284501  -3.5064081  -6.3398311
    2   3.4188158  -0.5850778  -1.2458940   0.1562087  -1.0869216  -2.0202445
    3   1.2060138  -3.7688506   1.4516879  -2.2600632  -2.4590936  10.4623405
            7           8           9          10          11          12
    1   2.5248223   2.4347026  -2.3845882  -0.4179708   2.6832433   2.7695251
    2   1.4824233   1.3685117   3.2490652   0.1994826  -0.7702919   0.2853090
    3   2.9302818  -2.8726050  -0.2126353   2.9652232  -2.7322840   2.8348475
           13          14          15          16          17
    1  -0.7583090   0.2463077   0.1053144  -1.9035815  -3.9352155
    2  -3.9997741   2.1460475  -4.5393196   4.2609797  -2.3193198
    3   0.4999513  -4.1841245  -1.7865240  -0.5168705  -1.5572952
 Gradient of SCF Energy
            1           2           3           4           5           6
    1  -0.0008322  -0.0000634  -0.0009322  -0.0003407   0.0009557  -0.0042685
    2  -0.0016908   0.0027694   0.0005531  -0.0004333  -0.0000306   0.0003748
    3   0.0004005   0.0000741  -0.0004127   0.0014822   0.0001220   0.0028522
            7           8           9          10          11          12
    1   0.0022548   0.0021684  -0.0032770   0.0041871   0.0022461   0.0025176
    2   0.0011711   0.0008316   0.0026749  -0.0033689  -0.0001357   0.0009247
    3   0.0031584  -0.0033514  -0.0004588   0.0016431  -0.0031711   0.0032652
           13          14          15          16          17
    1  -0.0015380   0.0006299   0.0002786  -0.0006459  -0.0033403
    2  -0.0035053   0.0021005  -0.0040423   0.0036827  -0.0018762
    3   0.0006528  -0.0036858  -0.0008346  -0.0003909  -0.0013453
 Max gradient component =       4.269E-03
 RMS gradient           =       2.167E-03
 Gradient time:  CPU 134.08 s  wall 134.17 s
 Geometry Optimization Parameters
   NAtoms,    NIC,     NZ,  NCons,   NDum,   NFix, NCnnct, MaxDiis
       17     126       0       0       0       0       0       0

 Cartesian Hessian Update
 Hessian Updated using Powell/Murtagh-Sargent Update
  Mixing factors:     0.982460 Powell
                      0.017540 Murtagh-Sargent


** GEOMETRY OPTIMIZATION IN DELOCALIZED INTERNAL COORDINATES **
   Searching for a Transition State

   Optimization Cycle:   3

                       Coordinates (Angstroms)
     ATOM              X           Y           Z
      1  C        -1.118865   -1.449838   -0.013476
      2  C        -0.624709   -0.020187   -0.042517
      3  C        -1.712382    1.009581   -0.215340
      4  C         0.441671    0.305431    1.015804
      5  C         1.744408   -0.005672    0.272965
      6  O         1.475205    0.307088   -1.074326
      7  H        -1.734780   -1.673562   -0.885283
      8  H        -1.733091   -1.605708    0.880522
      9  H        -0.291880   -2.160877    0.017894
     10  H         0.162211    0.059019   -1.000444
     11  H        -2.337836    1.038501    0.684941
     12  H        -2.359834    0.772941   -1.060507
     13  H        -1.293582    2.005947   -0.361074
     14  H         0.317026   -0.267599    1.937277
     15  H         0.400284    1.367258    1.265294
     16  H         2.027042   -1.060389    0.385165
     17  H         2.582794    0.611832    0.608376
   Point Group: c1    Number of degrees of freedom:    45


   Energy is   -272.167665796

 GETINT wrote B to file, NVib is           45
 Hessian Updated using Powell/Murtagh-Sargent Update
  Mixing factors:     0.985590 Powell
                      0.014410 Murtagh-Sargent

 42 Hessian modes will be used to form the next step
  Hessian Eigenvalues:
     0.001860    0.007692    0.008091    0.008252    0.027726    0.031172
     0.041553    0.054487    0.055598    0.057059    0.057238    0.059556
     0.059858    0.061025    0.066906    0.076243    0.086055    0.110755
     0.111588    0.134252    0.159975    0.159989    0.160000    0.161966
     0.169885    0.188784    0.213724    0.274535    0.283324    0.312174
     0.316492    0.340703    0.341900    0.343044    0.345094    0.346736
     0.347937    0.348632    0.348839    0.348915    0.348962    0.412821
**WARNING** Hessian does not have the Desired Local Structure

 Transition State Search - Taking P-RFO Step
 Searching for Lamda that Maximizes Along the Lowest mode
 Value Taken    Lamda =   0.00298628
 Searching for Lamda that Minimizes Along All other modes
 Value Taken    Lamda =  -0.00083562
 Calculated Step too Large.  Step scaled by  0.184068
 Step Taken.  Stepsize is  0.300000

                             Maximum     Tolerance    Cnvgd?
         Gradient           0.009060      0.000300      NO
         Displacement       0.112283      0.001200      NO
         Energy change      0.000356      0.000001      NO


 New Cartesian Coordinates Obtained by Inverse Iteration

 Displacement from previous Coordinates is:  0.368276
 ----------------------------------------------------
       Standard Nuclear Orientation (Angstroms)
    I     Atom         X            Y            Z
 ----------------------------------------------------
    1      C      -1.146526    -1.459365     0.001121
    2      C      -0.623992    -0.039139    -0.039457
    3      C      -1.689526     1.011662    -0.230521
    4      C       0.442443     0.280156     1.023830
    5      C       1.750445     0.030690     0.263722
    6      O       1.460439     0.355384    -1.077783
    7      H      -1.759446    -1.683064    -0.874174
    8      H      -1.771637    -1.593148     0.892743
    9      H      -0.332345    -2.186079     0.050135
   10      H       0.163383     0.026341    -0.997301
   11      H      -2.318089     1.066556     0.667723
   12      H      -2.339075     0.777686    -1.076352
   13      H      -1.246940     1.997002    -0.388315
   14      H       0.342100    -0.334833     1.922324
   15      H       0.370203     1.329490     1.319422
   16      H       2.070170    -1.016425     0.356497
   17      H       2.572075     0.670853     0.601658
 ----------------------------------------------------
 Molecular Point Group                 C1    NOp =  1
 Largest Abelian Subgroup              C1    NOp =  1
 Nuclear Repulsion Energy =   255.2299732117 hartrees
 There are       25 alpha and       24 beta electrons
 Applying Cartesian multipole field
    Component          Value
    ---------          -----
     (2,0,0)        1.00000E-11
     (0,2,0)        2.00000E-11
     (0,0,2)       -3.00000E-11
 Nucleus-field energy     =     0.0000000033 hartrees
 Requested basis set is non-standard
 There are 138 shells and 314 basis functions
 A cutoff of  1.0D-11 yielded   9126 shell pairs
 There are     47416 function pairs (     57138 Cartesian)
 Smallest overlap matrix eigenvalue = 1.76E-05
 Guess MOs from SCF MO coefficient file
Reading MOs from coefficient file
Reading MOs from coefficient file
 An unrestricted hybrid HF-DFT SCF calculation will be
 performed using Pulay DIIS extrapolation
 Exchange:     0.5679 Hartree-Fock + 1.0000 M08SO
 SCF converges when DIIS error is below 1.0E-08
Geometry optimization detected.  Setting ReadMinima to 0
Setting SaveMinima to 0
 Inaccurate integrated density:
   Number of electrons =    49
   Numerical integral  =    48.990607286592
   Relative error      =    -0.0191688029 %
 ---------------------------------------
  Cycle       Energy         DIIS Error
 ---------------------------------------
    1    -272.1630566629      5.12E-04
    2    -272.1670319124      6.93E-05
    3    -272.1671228835      5.42E-05
    4    -272.1671629163      1.95E-05
    5    -272.1671747562      1.11E-05
    6    -272.1671807917      4.94E-06
    7    -272.1671868414      3.65E-06
    8    -272.1671943312      1.83E-06
    9    -272.1671956736      8.47E-07
   10    -272.1671958654      4.78E-07
   11    -272.1671959027      2.05E-07
   12    -272.1671959070      7.41E-08
   13    -272.1671959076      2.50E-08
   14    -272.1671959078      1.31E-08
   15    -272.1671959078      4.49E-09 Convergence criterion met
 ---------------------------------------
 <S^2> = 0.7599
 SCF time:  CPU 1428.47 s  wall 1435.16 s
 SCF   energy in the final basis set = -272.1671959078
 Total energy in the final basis set = -272.1671959078
 Analysis of SCF Wavefunction
 
 --------------------------------------------------------------
                    Orbital Energies (a.u.)
 --------------------------------------------------------------
 
 Alpha MOs
 -- Occupied --
-19.577 -10.536 -10.530 -10.500 -10.496 -10.494  -1.123  -0.923
 -0.824  -0.795  -0.722  -0.644  -0.581  -0.560  -0.533  -0.507
 -0.496  -0.487  -0.472  -0.444  -0.420  -0.415  -0.395  -0.351
 -0.316
 -- Virtual --
 -0.027  -0.013  -0.010  -0.004   0.012   0.014   0.018   0.022
  0.027   0.049   0.051   0.063   0.068   0.071   0.085   0.086
  0.104   0.112   0.119   0.123   0.126   0.128   0.131   0.141
  0.144   0.146   0.153   0.160   0.168   0.179   0.184   0.199
  0.204   0.211   0.224   0.231   0.249   0.257   0.266   0.273
  0.281   0.293   0.306   0.313   0.322   0.325   0.332   0.344
  0.367   0.372   0.412   0.423   0.436   0.460   0.473   0.492
  0.499   0.502   0.519   0.542   0.550   0.566   0.567   0.570
  0.573   0.583   0.593   0.602   0.605   0.616   0.625   0.628
  0.647   0.651   0.665   0.693   0.699   0.707   0.711   0.738
  0.773   0.795   0.811   0.826   0.870   0.881   0.906   0.935
  0.957   0.962   0.983   0.998   1.030   1.042   1.051   1.055
  1.081   1.083   1.105   1.122   1.136   1.149   1.166   1.189
  1.197   1.214   1.217   1.239   1.244   1.267   1.275   1.291
  1.295   1.302   1.320   1.322   1.338   1.345   1.360   1.374
  1.381   1.403   1.410   1.419   1.428   1.439   1.453   1.474
  1.496   1.508   1.535   1.546   1.562   1.571   1.579   1.604
  1.610   1.619   1.626   1.665   1.717   1.731   1.772   1.832
  1.971   2.091   2.137   2.296   2.349   2.388   2.450   2.470
  2.493   2.553   2.565   2.597   2.615   2.657   2.680   2.722
  2.750   2.780   2.796   2.801   2.847   2.892   2.904   2.917
  2.935   2.941   2.975   2.996   3.026   3.066   3.075   3.107
  3.113   3.147   3.151   3.166   3.172   3.203   3.228   3.263
  3.266   3.289   3.297   3.329   3.348   3.357   3.364   3.405
  3.428   3.434   3.441   3.464   3.510   3.525   3.558   3.570
  3.586   3.603   3.624   3.646   3.664   3.699   3.719   3.727
  3.740   3.762   3.777   3.801   3.835   3.856   3.863   3.897
  3.917   3.919   3.953   3.982   3.987   4.026   4.038   4.047
  4.077   4.085   4.137   4.144   4.153   4.166   4.184   4.194
  4.221   4.233   4.250   4.281   4.299   4.312   4.343   4.363
  4.387   4.408   4.432   4.441   4.450   4.469   4.507   4.518
  4.561   4.591   4.623   4.646   4.681   4.749   4.781   4.843
  4.955   5.071   5.107   5.181   5.217   5.247   5.297   5.319
  5.372   5.399   5.427   5.459   5.546   5.592   5.623   5.631
  5.650   5.669   5.687   5.818   5.942   6.522   6.948   7.220
  7.237   7.312   7.629  23.978  24.150  24.210  24.265  24.272
 49.826
 
 Beta MOs
 -- Occupied --
-19.559 -10.537 -10.522 -10.500 -10.497 -10.494  -1.088  -0.915
 -0.820  -0.793  -0.711  -0.627  -0.556  -0.552  -0.526  -0.500
 -0.487  -0.469  -0.464  -0.440  -0.416  -0.400  -0.371  -0.336
 -- Virtual --
 -0.084  -0.028  -0.013  -0.011  -0.005   0.011   0.014   0.017
  0.023   0.025   0.048   0.051   0.063   0.067   0.071   0.085
  0.087   0.103   0.112   0.119   0.123   0.125   0.128   0.131
  0.141   0.145   0.146   0.154   0.159   0.168   0.180   0.184
  0.200   0.206   0.213   0.227   0.238   0.250   0.261   0.268
  0.279   0.289   0.294   0.308   0.315   0.325   0.327   0.335
  0.346   0.370   0.379   0.414   0.425   0.438   0.461   0.475
  0.495   0.500   0.507   0.520   0.546   0.552   0.567   0.569
  0.572   0.574   0.589   0.595   0.606   0.607   0.622   0.630
  0.634   0.647   0.653   0.667   0.694   0.698   0.709   0.712
  0.738   0.774   0.795   0.812   0.829   0.871   0.883   0.907
  0.936   0.959   0.965   0.984   1.001   1.033   1.045   1.053
  1.057   1.083   1.085   1.107   1.124   1.140   1.154   1.168
  1.198   1.201   1.223   1.229   1.242   1.250   1.273   1.283
  1.298   1.301   1.307   1.323   1.329   1.341   1.354   1.363
  1.377   1.384   1.405   1.409   1.423   1.429   1.443   1.454
  1.476   1.496   1.510   1.538   1.548   1.565   1.573   1.580
  1.602   1.615   1.626   1.631   1.669   1.725   1.738   1.780
  1.840   1.988   2.093   2.152   2.293   2.355   2.393   2.456
  2.474   2.500   2.555   2.569   2.600   2.627   2.660   2.685
  2.734   2.776   2.800   2.812   2.818   2.859   2.867   2.904
  2.920   2.934   2.940   2.958   2.991   3.018   3.066   3.075
  3.101   3.111   3.148   3.153   3.164   3.169   3.193   3.222
  3.255   3.270   3.286   3.298   3.332   3.348   3.356   3.367
  3.420   3.426   3.441   3.454   3.464   3.515   3.530   3.559
  3.572   3.586   3.609   3.622   3.652   3.672   3.704   3.728
  3.732   3.760   3.765   3.786   3.808   3.833   3.849   3.862
  3.906   3.917   3.924   3.954   3.973   3.992   4.009   4.036
  4.042   4.054   4.075   4.113   4.124   4.148   4.162   4.169
  4.186   4.211   4.236   4.249   4.286   4.306   4.320   4.359
  4.363   4.376   4.404   4.416   4.441   4.450   4.476   4.515
  4.529   4.562   4.595   4.617   4.648   4.668   4.779   4.796
  4.885   4.890   5.052   5.154   5.162   5.240   5.278   5.307
  5.335   5.407   5.443   5.476   5.493   5.549   5.588   5.623
  5.625   5.649   5.666   5.679   5.790   5.932   6.490   6.995
  7.214   7.267   7.359   7.652  23.981  24.151  24.212  24.271
 24.275  49.825
 --------------------------------------------------------------
 
          Ground-State Mulliken Net Atomic Charges

     Atom                 Charge (a.u.)    Spin (a.u.)
  --------------------------------------------------------
      1 C                    -0.717473      -0.030284
      2 C                     0.150951       0.431792
      3 C                    -0.745261      -0.022058
      4 C                    -0.405706       0.015388
      5 C                    -0.481984      -0.015637
      6 O                    -0.234868       0.578473
      7 H                     0.208148       0.002331
      8 H                     0.215556       0.033620
      9 H                     0.198910       0.001270
     10 H                     0.333951      -0.050960
     11 H                     0.209692       0.029809
     12 H                     0.200468       0.003623
     13 H                     0.202131       0.003330
     14 H                     0.205855      -0.005523
     15 H                     0.244220      -0.000633
     16 H                     0.202674       0.001377
     17 H                     0.212736       0.024082
  --------------------------------------------------------
  Sum of atomic charges =     0.000000
  Sum of spin   charges =     1.000000

 -----------------------------------------------------------------
                    Cartesian Multipole Moments
 -----------------------------------------------------------------
    Charge (ESU x 10^10)
                 0.0000
    Dipole Moment (Debye)
         X      -1.5002      Y      -0.5434      Z       1.9633
       Tot       2.5299
    Quadrupole Moments (Debye-Ang)
        XX     -39.9154     XY      -0.5345     YY     -39.4792
        XZ       3.9382     YZ       0.9654     ZZ     -42.1973
    Octapole Moments (Debye-Ang^2)
       XXX       6.2547    XXY      -0.4957    XYY       2.2138
       YYY      -0.4771    XXZ       4.2790    XYZ       1.3946
       YYZ      -0.0984    XZZ      -4.4118    YZZ      -1.6842
       ZZZ      -0.0658
    Hexadecapole Moments (Debye-Ang^3)
      XXXX    -492.6295   XXXY      -6.3813   XXYY    -123.5879
      XYYY     -12.7140   YYYY    -238.4206   XXXZ       5.5783
      XXYZ       5.0290   XYYZ       0.7452   YYYZ       6.9478
      XXZZ    -115.0071   XYZZ      -3.4610   YYZZ     -69.1185
      XZZZ       2.4847   YZZZ       5.2322   ZZZZ    -172.2697
 -----------------------------------------------------------------
 Calculating analytic gradient of the SCF energy
 Gradient of Coulomb and Exchange Energy
            1           2           3           4           5           6
    1   2.0333182   4.0091913   4.0337306  -1.6891941  -3.4467558  -6.1999472
    2   3.3973380  -0.0899065  -1.3870978   0.0656010  -1.0556557  -2.3407502
    3   1.3268232  -4.0160216   1.4761677  -2.1849405  -2.4235197  10.4492043
            7           8           9          10          11          12
    1   2.5036450   2.4590594  -2.3228241  -0.4350429   2.6694426   2.7666002
    2   1.4724511   1.2831166   3.2730375   0.2793546  -0.8579308   0.2674765
    3   2.9304813  -2.8702855  -0.2844778   2.9929218  -2.7164075   2.8447960
           13          14          15          16          17
    1  -0.8429955   0.1483488   0.2384272  -2.0471271  -3.8778767
    2  -3.9808841   2.3214814  -4.4444650   4.1945469  -2.3977136
    3   0.5356624  -4.0927925  -1.9637617  -0.4476616  -1.5561883
 Gradient of SCF Energy
            1           2           3           4           5           6
    1  -0.0009973  -0.0002819  -0.0005876  -0.0004750   0.0008152  -0.0043248
    2  -0.0014239   0.0034262   0.0004393  -0.0005308  -0.0000466   0.0007779
    3   0.0003013   0.0001746  -0.0005000   0.0012187   0.0001016   0.0018828
            7           8           9          10          11          12
    1   0.0018573   0.0018183  -0.0025865   0.0046803   0.0018613   0.0020426
    2   0.0009600   0.0006131   0.0022134  -0.0038743  -0.0002128   0.0007648
    3   0.0025812  -0.0027228  -0.0003997   0.0016810  -0.0025763   0.0026756
           13          14          15          16          17
    1  -0.0013655   0.0005190   0.0002944  -0.0006797  -0.0025901
    2  -0.0028196   0.0016944  -0.0033822   0.0030239  -0.0016228
    3   0.0005851  -0.0030213  -0.0006264  -0.0002116  -0.0011437
 Max gradient component =       4.680E-03
 RMS gradient           =       1.938E-03
 Gradient time:  CPU 128.92 s  wall 129.01 s
 Geometry Optimization Parameters
   NAtoms,    NIC,     NZ,  NCons,   NDum,   NFix, NCnnct, MaxDiis
       17     126       0       0       0       0       0       0

 Cartesian Hessian Update
 Hessian Updated using Powell/Murtagh-Sargent Update
  Mixing factors:     0.991022 Powell
                      0.008978 Murtagh-Sargent


** GEOMETRY OPTIMIZATION IN DELOCALIZED INTERNAL COORDINATES **
   Searching for a Transition State

   Optimization Cycle:   4

                       Coordinates (Angstroms)
     ATOM              X           Y           Z
      1  C        -1.146526   -1.459365    0.001121
      2  C        -0.623992   -0.039139   -0.039457
      3  C        -1.689526    1.011662   -0.230521
      4  C         0.442443    0.280156    1.023830
      5  C         1.750445    0.030690    0.263722
      6  O         1.460439    0.355384   -1.077783
      7  H        -1.759446   -1.683064   -0.874174
      8  H        -1.771637   -1.593148    0.892743
      9  H        -0.332345   -2.186079    0.050135
     10  H         0.163383    0.026341   -0.997301
     11  H        -2.318089    1.066556    0.667723
     12  H        -2.339075    0.777686   -1.076352
     13  H        -1.246940    1.997002   -0.388315
     14  H         0.342100   -0.334833    1.922324
     15  H         0.370203    1.329490    1.319422
     16  H         2.070170   -1.016425    0.356497
     17  H         2.572075    0.670853    0.601658
   Point Group: c1    Number of degrees of freedom:    45


   Energy is   -272.167195908

 GETINT wrote B to file, NVib is           45
 Hessian Updated using Powell/Murtagh-Sargent Update
  Mixing factors:     0.971995 Powell
                      0.028005 Murtagh-Sargent

 43 Hessian modes will be used to form the next step
  Hessian Eigenvalues:
     0.001274    0.007692    0.008128    0.008251    0.027726    0.031131
     0.041557    0.054484    0.055585    0.057059    0.057237    0.059556
     0.059858    0.061024    0.066905    0.076240    0.086055    0.110748
     0.111587    0.134200    0.159975    0.159985    0.159998    0.160000
     0.161923    0.169657    0.188753    0.213713    0.274505    0.283322
     0.312168    0.316485    0.340700    0.341900    0.343043    0.345095
     0.346737    0.347932    0.348633    0.348838    0.348915    0.348961
     0.412803
**WARNING** Hessian does not have the Desired Local Structure

 Transition State Search - Taking P-RFO Step
 Searching for Lamda that Maximizes Along the Lowest mode
 Value Taken    Lamda =   0.00284474
 Searching for Lamda that Minimizes Along All other modes
 Value Taken    Lamda =  -0.00064121
 Calculated Step too Large.  Step scaled by  0.222363
 Step Taken.  Stepsize is  0.300000

                             Maximum     Tolerance    Cnvgd?
         Gradient           0.007414      0.000300      NO
         Displacement       0.121711      0.001200      NO
         Energy change      0.000470      0.000001      NO


 New Cartesian Coordinates Obtained by Inverse Iteration

 Displacement from previous Coordinates is:  0.391537
 ----------------------------------------------------
       Standard Nuclear Orientation (Angstroms)
    I     Atom         X            Y            Z
 ----------------------------------------------------
    1      C      -1.176229    -1.468960     0.014952
    2      C      -0.623227    -0.060030    -0.037127
    3      C      -1.664288     1.013397    -0.245085
    4      C       0.443764     0.253015     1.030809
    5      C       1.755763     0.069751     0.255557
    6      O       1.444024     0.396195    -1.082034
    7      H      -1.786886    -1.691708    -0.863546
    8      H      -1.811874    -1.579257     0.903922
    9      H      -0.376811    -2.212362     0.081373
   10      H       0.163424    -0.005556    -0.994338
   11      H      -2.293763     1.096740     0.651683
   12      H      -2.317641     0.782970    -1.090479
   13      H      -1.195754     1.985580    -0.416407
   14      H       0.370897    -0.404901     1.902526
   15      H       0.338267     1.285638     1.375399
   16      H       2.118560    -0.965579     0.334766
   17      H       2.555456     0.738832     0.593301
 ----------------------------------------------------
 Molecular Point Group                 C1    NOp =  1
 Largest Abelian Subgroup              C1    NOp =  1
 Nuclear Repulsion Energy =   254.9389317155 hartrees
 There are       25 alpha and       24 beta electrons
 Applying Cartesian multipole field
    Component          Value
    ---------          -----
     (2,0,0)        1.00000E-11
     (0,2,0)        2.00000E-11
     (0,0,2)       -3.00000E-11
 Nucleus-field energy     =     0.0000000033 hartrees
 Requested basis set is non-standard
 There are 138 shells and 314 basis functions
 A cutoff of  1.0D-11 yielded   9123 shell pairs
 There are     47393 function pairs (     57112 Cartesian)
 Smallest overlap matrix eigenvalue = 1.76E-05
 Guess MOs from SCF MO coefficient file
Reading MOs from coefficient file
Reading MOs from coefficient file
 An unrestricted hybrid HF-DFT SCF calculation will be
 performed using Pulay DIIS extrapolation
 Exchange:     0.5679 Hartree-Fock + 1.0000 M08SO
 SCF converges when DIIS error is below 1.0E-08
Geometry optimization detected.  Setting ReadMinima to 0
Setting SaveMinima to 0
 Inaccurate integrated density:
   Number of electrons =    49
   Numerical integral  =    48.989451318236
   Relative error      =    -0.0215279220 %
 ---------------------------------------
  Cycle       Energy         DIIS Error
 ---------------------------------------
    1    -272.1615197484      5.30E-04
    2    -272.1664754382      7.15E-05
    3    -272.1665786410      5.15E-05
    4    -272.1666160860      1.88E-05
    5    -272.1666268520      1.08E-05
    6    -272.1666319321      4.85E-06
    7    -272.1666368338      3.49E-06
    8    -272.1666433178      1.89E-06
    9    -272.1666448208      9.97E-07
   10    -272.1666451176      5.90E-07
   11    -272.1666451797      2.38E-07
   12    -272.1666451860      7.66E-08
   13    -272.1666451867      2.54E-08
   14    -272.1666451870      1.19E-08
   15    -272.1666451870      3.93E-09 Convergence criterion met
 ---------------------------------------
 <S^2> = 0.7599
 SCF time:  CPU 1351.48 s  wall 1359.22 s
 SCF   energy in the final basis set = -272.1666451870
 Total energy in the final basis set = -272.1666451870
 Analysis of SCF Wavefunction
 
 --------------------------------------------------------------
                    Orbital Energies (a.u.)
 --------------------------------------------------------------
 
 Alpha MOs
 -- Occupied --
-19.577 -10.537 -10.530 -10.500 -10.497 -10.494  -1.122  -0.922
 -0.824  -0.794  -0.722  -0.644  -0.580  -0.559  -0.533  -0.506
 -0.497  -0.486  -0.472  -0.443  -0.421  -0.414  -0.395  -0.351
 -0.316
 -- Virtual --
 -0.027  -0.013  -0.010  -0.004   0.012   0.014   0.018   0.022
  0.026   0.049   0.051   0.062   0.067   0.071   0.085   0.085
  0.104   0.113   0.119   0.123   0.125   0.128   0.131   0.140
  0.144   0.145   0.153   0.159   0.168   0.180   0.182   0.197
  0.204   0.210   0.222   0.229   0.248   0.256   0.268   0.274
  0.282   0.291   0.308   0.313   0.324   0.325   0.332   0.345
  0.367   0.374   0.410   0.423   0.436   0.462   0.474   0.492
  0.498   0.504   0.517   0.542   0.548   0.565   0.566   0.570
  0.573   0.581   0.592   0.600   0.606   0.614   0.623   0.627
  0.645   0.649   0.664   0.693   0.698   0.707   0.709   0.738
  0.773   0.798   0.813   0.826   0.866   0.885   0.905   0.937
  0.956   0.960   0.984   0.998   1.033   1.037   1.049   1.056
  1.080   1.087   1.106   1.122   1.129   1.152   1.160   1.185
  1.199   1.216   1.218   1.238   1.244   1.266   1.274   1.289
  1.297   1.301   1.315   1.320   1.339   1.346   1.361   1.373
  1.382   1.407   1.412   1.422   1.428   1.440   1.452   1.477
  1.498   1.505   1.534   1.546   1.556   1.570   1.579   1.598
  1.603   1.615   1.628   1.664   1.711   1.733   1.769   1.839
  1.964   2.088   2.134   2.291   2.347   2.391   2.443   2.465
  2.486   2.551   2.565   2.596   2.621   2.658   2.679   2.720
  2.748   2.780   2.794   2.801   2.846   2.894   2.905   2.923
  2.937   2.943   2.975   2.997   3.024   3.064   3.078   3.105
  3.109   3.142   3.149   3.166   3.174   3.210   3.224   3.254
  3.265   3.293   3.295   3.327   3.350   3.356   3.359   3.402
  3.422   3.436   3.439   3.468   3.507   3.529   3.553   3.570
  3.585   3.601   3.619   3.642   3.665   3.698   3.715   3.725
  3.742   3.760   3.776   3.798   3.827   3.852   3.865   3.893
  3.915   3.920   3.953   3.980   3.985   4.025   4.036   4.051
  4.070   4.083   4.138   4.146   4.156   4.165   4.179   4.190
  4.219   4.227   4.250   4.277   4.305   4.308   4.337   4.362
  4.396   4.407   4.424   4.439   4.448   4.466   4.507   4.513
  4.561   4.592   4.621   4.635   4.673   4.746   4.788   4.842
  4.949   5.068   5.110   5.180   5.218   5.244   5.287   5.314
  5.369   5.393   5.424   5.457   5.541   5.582   5.617   5.626
  5.645   5.666   5.680   5.811   5.934   6.517   6.945   7.217
  7.234   7.306   7.625  23.976  24.141  24.203  24.258  24.264
 49.823
 
 Beta MOs
 -- Occupied --
-19.559 -10.537 -10.522 -10.500 -10.497 -10.494  -1.087  -0.914
 -0.819  -0.793  -0.710  -0.626  -0.556  -0.551  -0.526  -0.498
 -0.488  -0.469  -0.463  -0.440  -0.416  -0.400  -0.371  -0.336
 -- Virtual --
 -0.084  -0.028  -0.013  -0.011  -0.005   0.011   0.014   0.017
  0.023   0.025   0.048   0.051   0.061   0.067   0.071   0.085
  0.086   0.104   0.112   0.119   0.124   0.125   0.128   0.131
  0.140   0.145   0.146   0.153   0.159   0.168   0.181   0.183
  0.198   0.206   0.212   0.225   0.236   0.250   0.259   0.269
  0.280   0.290   0.292   0.310   0.315   0.326   0.328   0.335
  0.347   0.369   0.381   0.413   0.426   0.438   0.463   0.476
  0.495   0.499   0.508   0.518   0.545   0.550   0.567   0.568
  0.573   0.573   0.587   0.594   0.604   0.607   0.619   0.628
  0.633   0.646   0.651   0.666   0.694   0.698   0.709   0.710
  0.738   0.775   0.797   0.815   0.829   0.867   0.886   0.907
  0.937   0.958   0.962   0.986   1.001   1.036   1.040   1.051
  1.057   1.083   1.089   1.109   1.124   1.132   1.157   1.162
  1.194   1.204   1.224   1.231   1.241   1.249   1.271   1.283
  1.293   1.303   1.307   1.319   1.325   1.342   1.355   1.365
  1.377   1.383   1.409   1.411   1.425   1.430   1.443   1.454
  1.478   1.498   1.508   1.538   1.547   1.559   1.572   1.580
  1.599   1.607   1.618   1.633   1.669   1.720   1.739   1.776
  1.846   1.982   2.090   2.148   2.289   2.353   2.397   2.448
  2.469   2.493   2.554   2.568   2.596   2.633   2.659   2.687
  2.730   2.775   2.795   2.811   2.820   2.858   2.868   2.905
  2.925   2.935   2.941   2.959   2.993   3.018   3.064   3.077
  3.100   3.106   3.143   3.151   3.163   3.171   3.195   3.222
  3.244   3.269   3.292   3.296   3.330   3.348   3.357   3.362
  3.415   3.418   3.444   3.453   3.469   3.511   3.533   3.555
  3.571   3.586   3.606   3.615   3.649   3.672   3.704   3.723
  3.728   3.757   3.766   3.785   3.803   3.827   3.844   3.866
  3.901   3.917   3.922   3.957   3.970   3.986   4.009   4.030
  4.038   4.060   4.068   4.115   4.126   4.154   4.160   4.169
  4.181   4.202   4.230   4.249   4.283   4.301   4.325   4.353
  4.364   4.381   4.401   4.412   4.438   4.449   4.470   4.511
  4.526   4.561   4.595   4.615   4.633   4.662   4.776   4.801
  4.884   4.888   5.040   5.159   5.162   5.242   5.275   5.306
  5.326   5.403   5.436   5.473   5.488   5.544   5.576   5.617
  5.619   5.645   5.662   5.675   5.783   5.926   6.485   6.993
  7.213   7.264   7.355   7.648  23.980  24.143  24.205  24.263
 24.268  49.822
 --------------------------------------------------------------
 
          Ground-State Mulliken Net Atomic Charges

     Atom                 Charge (a.u.)    Spin (a.u.)
  --------------------------------------------------------
      1 C                    -0.721114      -0.028561
      2 C                     0.211118       0.427644
      3 C                    -0.768722      -0.022580
      4 C                    -0.440018       0.013560
      5 C                    -0.476147      -0.015133
      6 O                    -0.237403       0.583505
      7 H                     0.207071       0.002252
      8 H                     0.214346       0.034249
      9 H                     0.199217       0.001368
     10 H                     0.324927      -0.051486
     11 H                     0.210479       0.028508
     12 H                     0.200003       0.003453
     13 H                     0.205576       0.003218
[...]
 H         -0.060  0.006  0.037    0.166  0.146 -0.103    0.034  0.048 -0.019
 H         -0.032  0.033 -0.003   -0.116 -0.434 -0.054   -0.006 -0.022  0.000
 H         -0.064 -0.137  0.035    0.035  0.085 -0.184    0.018  0.047 -0.026
 H         -0.116  0.735  0.177    0.103  0.655 -0.053    0.016  0.265  0.001
 H          0.311 -0.220  0.109   -0.094  0.135 -0.031   -0.015 -0.026 -0.012
 H         -0.167  0.043  0.074    0.066  0.049 -0.065   -0.011 -0.010  0.015
 H         -0.017  0.038  0.146    0.129 -0.087 -0.061   -0.082  0.047 -0.025
 H          0.109 -0.055 -0.063   -0.031  0.117  0.105    0.328 -0.089 -0.016
 H         -0.057 -0.006  0.026    0.009 -0.038 -0.182   -0.414  0.034  0.025
 H         -0.054 -0.025 -0.042   -0.117  0.036 -0.063    0.203 -0.001  0.551
 H          0.006 -0.056  0.319    0.098 -0.047 -0.217   -0.028  0.169 -0.464
 TransDip   0.000  0.000  0.000    0.000  0.000  0.000    0.000  0.000  0.000

 Mode:                22                     23                     24
 Frequency:      1213.39                1243.19                1284.74
 Force Cnst:      1.2317                 1.7076                 2.1981
 Red. Mass:       1.4199                 1.8753                 2.2603
 IR Active:          YES                    YES                    YES
 IR Intens:        0.000                  0.000                  0.000
 Raman Active:       YES                    YES                    YES
               X      Y      Z        X      Y      Z        X      Y      Z
 C          0.005  0.008  0.035   -0.082  0.021 -0.029   -0.032 -0.051 -0.010
 C          0.000 -0.031 -0.096    0.211 -0.040  0.094    0.108  0.253  0.041
 C          0.007  0.017  0.046   -0.074 -0.005 -0.031   -0.049 -0.074 -0.008
 C         -0.079  0.078  0.037    0.053  0.030 -0.017   -0.133 -0.062 -0.040
 C          0.068 -0.052 -0.036   -0.012 -0.032 -0.060    0.036 -0.014  0.013
 O         -0.024 -0.015  0.008   -0.012 -0.010  0.019   -0.008  0.015  0.000
 H          0.055  0.123 -0.042    0.077 -0.250 -0.040    0.008 -0.268  0.028
 H         -0.051 -0.060 -0.025    0.171 -0.128  0.102    0.041 -0.188  0.007
 H          0.009  0.010 -0.085    0.074  0.220  0.072   -0.094 -0.151  0.023
 H          0.057 -0.034 -0.035    0.001  0.104  0.005    0.039 -0.375 -0.071
 H         -0.118  0.024 -0.047   -0.032  0.186  0.002    0.156  0.179  0.124
 H          0.131 -0.078 -0.023   -0.197  0.275 -0.033    0.055  0.129 -0.138
 H         -0.038  0.006 -0.115   -0.043  0.013  0.060    0.254 -0.144  0.110
 H          0.556 -0.002  0.110   -0.312 -0.067 -0.123    0.534  0.047  0.114
 H         -0.231  0.075  0.126   -0.503  0.037 -0.055   -0.081 -0.049 -0.140
 H          0.185 -0.087 -0.349    0.047 -0.026 -0.111   -0.048 -0.008  0.154
 H         -0.173  0.030  0.526   -0.236  0.100  0.335    0.097 -0.026 -0.153
 TransDip   0.000  0.000  0.000    0.000  0.000  0.000    0.000  0.000  0.000

 Mode:                25                     26                     27
 Frequency:      1323.99                1351.81                1384.15
 Force Cnst:      1.6883                 1.4169                 1.6050
 Red. Mass:       1.6347                 1.3160                 1.4219
 IR Active:          YES                    YES                    YES
 IR Intens:        0.000                  0.000                  0.000
 Raman Active:       YES                    YES                    YES
               X      Y      Z        X      Y      Z        X      Y      Z
 C         -0.045  0.005 -0.020   -0.017 -0.009  0.005   -0.018 -0.115  0.018
 C          0.106 -0.107  0.052    0.032 -0.039 -0.011   -0.030  0.079 -0.009
 C         -0.014  0.016 -0.008    0.001  0.005  0.009    0.091 -0.086  0.000
 C         -0.142  0.028 -0.054   -0.063 -0.015  0.024    0.024 -0.015  0.001
 C         -0.013  0.027  0.061    0.080 -0.005 -0.113   -0.010  0.000  0.010
 O          0.007 -0.010  0.005   -0.019  0.018 -0.001    0.002  0.001 -0.002
 H          0.070  0.032 -0.092    0.059  0.068 -0.068    0.023  0.312 -0.141
 H          0.149  0.085  0.119    0.034  0.073  0.051   -0.073  0.409  0.083
 H          0.098  0.202  0.067    0.062  0.100 -0.027    0.247  0.265 -0.124
 H          0.008  0.157  0.012    0.005  0.011  0.003   -0.004 -0.073 -0.013
 H         -0.082  0.092 -0.051   -0.069  0.047 -0.039   -0.202  0.339 -0.179
 H         -0.117  0.110  0.033   -0.022  0.029  0.013   -0.228  0.270  0.111
 H         -0.159  0.070  0.010   -0.068  0.023 -0.020   -0.363  0.094  0.098
 H          0.285 -0.114 -0.050   -0.010  0.027  0.056    0.008  0.042  0.025
 H          0.623 -0.002  0.098    0.368 -0.020  0.024   -0.170 -0.009 -0.029
 H          0.122 -0.015 -0.312   -0.365  0.060  0.731    0.053  0.001 -0.032
 H          0.181 -0.084 -0.290   -0.100  0.046  0.310    0.020 -0.033 -0.015
 TransDip   0.000  0.000  0.000    0.000  0.000  0.000    0.000  0.000  0.000

 Mode:                28                     29                     30
 Frequency:      1393.90                1449.02                1457.01
 Force Cnst:      1.4436                 1.3175                 1.3241
 Red. Mass:       1.2611                 1.0650                 1.0586
 IR Active:          YES                    YES                    YES
 IR Intens:        0.000                  0.000                  0.000
 Raman Active:       YES                    YES                    YES
               X      Y      Z        X      Y      Z        X      Y      Z
 C         -0.038 -0.098  0.008   -0.031 -0.005 -0.019    0.009 -0.022 -0.037
 C          0.022  0.008  0.010   -0.007  0.028 -0.007   -0.010  0.013 -0.004
 C         -0.088  0.056 -0.006    0.026  0.015  0.009    0.003 -0.021  0.040
 C          0.011 -0.003 -0.008    0.011 -0.026 -0.034    0.000  0.006  0.017
 C         -0.011  0.000  0.000    0.002 -0.003  0.005   -0.005  0.004 -0.004
 O          0.000  0.000  0.001    0.001  0.000  0.001   -0.001  0.000 -0.002
 H          0.089  0.320 -0.204    0.181  0.181 -0.210   -0.298  0.301  0.086
 H          0.044  0.397  0.159    0.389 -0.094  0.238    0.085 -0.223 -0.014
 H          0.244  0.298 -0.070   -0.128 -0.143  0.270    0.078  0.103  0.471
 H          0.017  0.005 -0.002    0.001 -0.012 -0.017   -0.001  0.008  0.007
 H          0.274 -0.242  0.226   -0.253 -0.269 -0.181    0.106 -0.151  0.092
 H          0.270 -0.234 -0.167   -0.253  0.013  0.210    0.122  0.380 -0.203
 H          0.352 -0.102 -0.041    0.197 -0.080 -0.153   -0.160 -0.037 -0.430
 H         -0.033  0.036  0.006    0.004  0.302  0.122    0.001 -0.134 -0.049
 H         -0.066 -0.002  0.025   -0.084 -0.050  0.296    0.010  0.018 -0.156
 H          0.044  0.004 -0.015   -0.060 -0.016 -0.021    0.061  0.021  0.049
 H          0.005 -0.024  0.001   -0.024  0.052 -0.036    0.031 -0.066  0.034
 TransDip   0.000  0.000  0.000    0.000  0.000  0.000    0.000  0.000  0.000

 Mode:                31                     32                     33
 Frequency:      1464.25                1470.26                1476.22
 Force Cnst:      1.3594                 1.3744                 1.3606
 Red. Mass:       1.0762                 1.0792                 1.0597
 IR Active:          YES                    YES                    YES
 IR Intens:        0.000                  0.000                  0.000
 Raman Active:       YES                    YES                    YES
               X      Y      Z        X      Y      Z        X      Y      Z
 C          0.009  0.011 -0.010   -0.024  0.009 -0.013   -0.016  0.023  0.024
 C         -0.004 -0.031 -0.009   -0.045 -0.004 -0.028   -0.032 -0.006  0.018
 C         -0.017 -0.023 -0.008    0.000 -0.016 -0.019    0.006 -0.023  0.033
 C          0.011 -0.027 -0.055    0.011  0.020  0.041    0.007 -0.001 -0.006
 C          0.000 -0.003  0.001    0.003  0.000  0.001    0.011 -0.004  0.009
 O          0.001  0.001  0.003    0.000 -0.001 -0.003    0.003 -0.001  0.001
 H         -0.109  0.069  0.055    0.233  0.183 -0.234    0.386 -0.216 -0.179
 H          0.008 -0.105 -0.033    0.407 -0.084  0.249    0.102  0.199  0.128
 H          0.013  0.028  0.147   -0.169 -0.200  0.240   -0.159 -0.205 -0.345
 H         -0.006  0.030 -0.023   -0.001 -0.002 -0.002    0.000 -0.007  0.060
 H          0.240  0.318  0.167    0.138  0.322  0.083    0.163 -0.096  0.126
 H          0.249 -0.003 -0.207    0.160 -0.191 -0.068    0.160  0.375 -0.230
 H         -0.248  0.095  0.177   -0.127  0.091  0.335   -0.233 -0.004 -0.384
 H         -0.028  0.473  0.177   -0.008 -0.256 -0.091   -0.030  0.013 -0.003
 H         -0.039 -0.073  0.523    0.008  0.046 -0.281    0.010 -0.005  0.027
 H         -0.062 -0.015 -0.016    0.020  0.004  0.005   -0.114 -0.033 -0.067
 H         -0.028  0.050 -0.031    0.003 -0.008  0.027   -0.045  0.111 -0.061
 TransDip   0.000  0.000  0.000    0.000  0.000  0.000    0.000  0.000  0.000

 Mode:                34                     35                     36
 Frequency:      1500.94                1759.62                2949.03
 Force Cnst:      1.4458                 1.9108                 5.4585
 Red. Mass:       1.0893                 1.0475                 1.0653
 IR Active:          YES                    YES                    YES
 IR Intens:        0.000                  0.000                  0.000
 Raman Active:       YES                    YES                    YES
               X      Y      Z        X      Y      Z        X      Y      Z
 C         -0.005  0.014  0.007    0.000 -0.001  0.001    0.000  0.002 -0.001
 C          0.002 -0.002  0.003    0.018  0.008 -0.045   -0.001  0.000  0.000
 C          0.000 -0.003  0.004   -0.005  0.000  0.006    0.008 -0.003 -0.005
 C          0.002 -0.006 -0.012   -0.001 -0.002 -0.020    0.000  0.007 -0.005
 C         -0.068  0.029 -0.037   -0.019  0.000 -0.007    0.033 -0.061  0.016
 O         -0.004  0.002 -0.003   -0.009  0.001 -0.012    0.001  0.000  0.003
 H          0.111 -0.084 -0.044   -0.012  0.010  0.005   -0.008 -0.002 -0.010
 H          0.038  0.014  0.032    0.004 -0.018 -0.007   -0.013 -0.003  0.018
 H         -0.072 -0.089 -0.087    0.005  0.007  0.011    0.021 -0.013  0.001
 H         -0.017  0.010 -0.016    0.244 -0.088  0.961   -0.003 -0.001 -0.001
 H          0.009 -0.002  0.008   -0.022  0.029 -0.013   -0.084 -0.002  0.125
 H          0.012  0.040 -0.020    0.004 -0.018  0.006   -0.035 -0.018 -0.050
 H         -0.026  0.000 -0.036    0.012 -0.004  0.016    0.020  0.053 -0.010
 H         -0.017  0.100  0.031   -0.012  0.001 -0.026   -0.005 -0.031  0.065
 H         -0.005 -0.014  0.099    0.002 -0.006  0.015   -0.003 -0.049 -0.007
 H          0.605  0.184  0.277    0.008  0.010  0.006   -0.152  0.905 -0.153
 H          0.257 -0.571  0.229   -0.013 -0.007 -0.021   -0.230 -0.178 -0.081
 TransDip   0.000  0.000  0.000    0.000  0.000  0.000    0.000  0.000  0.000

 Mode:                37                     38                     39
 Frequency:      2949.58                2957.54                2989.09
 Force Cnst:      5.3616                 5.3798                 5.5828
 Red. Mass:       1.0460                 1.0439                 1.0605
 IR Active:          YES                    YES                    YES
 IR Intens:        0.000                  0.000                  0.000
 Raman Active:       YES                    YES                    YES
               X      Y      Z        X      Y      Z        X      Y      Z
 C         -0.006 -0.007  0.007    0.027  0.037 -0.032    0.001  0.002 -0.001
 C          0.000  0.000 -0.001    0.001  0.000 -0.001    0.001  0.000  0.000
 C          0.045 -0.017 -0.030    0.009 -0.004 -0.006    0.002  0.000 -0.001
 C          0.000 -0.001  0.002   -0.001  0.001  0.003    0.009 -0.029 -0.059
 C         -0.005  0.010 -0.002   -0.002  0.004 -0.001    0.009  0.015  0.003
 O          0.000  0.000 -0.001    0.000  0.000  0.000    0.000  0.000  0.000
 H          0.039  0.017  0.061   -0.189 -0.084 -0.295   -0.008 -0.004 -0.011
 H          0.094  0.028 -0.142   -0.447 -0.145  0.680   -0.019 -0.008  0.026
 H         -0.066  0.042  0.001    0.309 -0.210  0.000    0.010 -0.007  0.000
 H         -0.004 -0.002  0.006   -0.006  0.001  0.006   -0.005  0.000  0.005
 H         -0.466 -0.008  0.693   -0.094  0.000  0.138   -0.018  0.001  0.023
 H         -0.189 -0.095 -0.272   -0.039 -0.019 -0.055   -0.006 -0.001 -0.008
 H          0.115  0.307 -0.061    0.022  0.064 -0.012    0.000  0.004 -0.001
 H          0.005  0.013 -0.027    0.007  0.018 -0.035   -0.106 -0.309  0.651
 H          0.001 -0.006  0.000    0.001 -0.022  0.000    0.010  0.650  0.048
 H          0.025 -0.146  0.025    0.009 -0.058  0.009    0.018 -0.077  0.014
 H          0.038  0.029  0.013    0.019  0.014  0.007   -0.141 -0.094 -0.052
 TransDip   0.000  0.000  0.000    0.000  0.000  0.000    0.000  0.000  0.000

 Mode:                40                     41                     42
 Frequency:      3009.58                3023.84                3030.26
 Force Cnst:      5.8433                 5.8589                 5.8965
 Red. Mass:       1.0950                 1.0875                 1.0899
 IR Active:          YES                    YES                    YES
 IR Intens:        0.000                  0.000                  0.000
 Raman Active:       YES                    YES                    YES
               X      Y      Z        X      Y      Z        X      Y      Z
 C         -0.002  0.001  0.001    0.002 -0.003 -0.008   -0.038  0.035  0.069
 C          0.001  0.000  0.000   -0.001  0.001  0.001   -0.001 -0.001  0.002
 C          0.000  0.000 -0.001   -0.003 -0.029  0.080   -0.001 -0.004  0.008
 C          0.004  0.012 -0.022    0.000  0.001 -0.001    0.000  0.000  0.000
 C         -0.058 -0.061 -0.016    0.000  0.000  0.000    0.001  0.003  0.000
 O         -0.001  0.000 -0.001    0.000  0.000  0.000    0.000  0.000  0.000
 H         -0.006 -0.002 -0.006    0.041  0.016  0.057   -0.326 -0.138 -0.444
 H          0.006  0.002 -0.011   -0.027 -0.008  0.040    0.274  0.101 -0.413
 H          0.024 -0.016  0.001   -0.042  0.029 -0.004    0.516 -0.369  0.032
 H          0.008 -0.003  0.001    0.002 -0.001 -0.002    0.003  0.002 -0.003
 H         -0.004  0.000  0.005    0.272 -0.003 -0.384    0.029 -0.002 -0.040
 H          0.002  0.001  0.003   -0.398 -0.191 -0.504   -0.036 -0.016 -0.044
 H          0.001  0.002  0.000    0.178  0.526 -0.069    0.020  0.060 -0.009
 H         -0.043 -0.118  0.261   -0.002 -0.005  0.010   -0.001  0.001 -0.004
 H         -0.002 -0.032 -0.006    0.000 -0.003  0.000    0.001  0.000  0.000
 H         -0.057  0.239 -0.044    0.000  0.002  0.000    0.003 -0.018  0.003
 H          0.738  0.485  0.251    0.003  0.002  0.001   -0.020 -0.013 -0.006
 TransDip   0.000  0.000  0.000    0.000  0.000  0.000    0.000  0.000  0.000

 Mode:                43                     44                     45
 Frequency:      3039.28                3058.66                3061.06
 Force Cnst:      6.0184                 6.0770                 6.0864
 Red. Mass:       1.1058                 1.1025                 1.1025
 IR Active:          YES                    YES                    YES
 IR Intens:        0.000                  0.000                  0.000
 Raman Active:       YES                    YES                    YES
               X      Y      Z        X      Y      Z        X      Y      Z
 C         -0.004  0.001 -0.002    0.019 -0.004  0.012   -0.074  0.016 -0.049
 C          0.000 -0.001  0.001   -0.001 -0.001  0.000   -0.001  0.000 -0.001
 C          0.003  0.005  0.003   -0.050 -0.069 -0.028   -0.012 -0.017 -0.009
 C         -0.008 -0.082  0.039    0.000 -0.006  0.003    0.001  0.003 -0.001
 C         -0.009 -0.020 -0.002    0.000 -0.002  0.000    0.001  0.002  0.000
 O          0.000  0.000  0.000    0.000  0.000  0.000    0.000  0.000  0.000
 H          0.019  0.009  0.027   -0.094 -0.043 -0.139    0.385  0.185  0.572
 H          0.003  0.003 -0.004    0.003 -0.001  0.004   -0.026  0.001  0.003
 H          0.028 -0.019  0.001   -0.139  0.101 -0.001    0.524 -0.380  0.007
 H          0.003 -0.003 -0.003    0.000 -0.001  0.000    0.000  0.000  0.000
 H          0.003  0.000 -0.002    0.006 -0.016 -0.033   -0.004 -0.004 -0.001
 H         -0.027 -0.011 -0.037    0.359  0.163  0.484    0.102  0.043  0.135
 H         -0.017 -0.042  0.006    0.229  0.684 -0.120    0.056  0.164 -0.028
 H          0.089  0.240 -0.550    0.005  0.017 -0.038   -0.002 -0.005  0.015
 H          0.007  0.747  0.078    0.003  0.060  0.008    0.000 -0.020 -0.001
 H         -0.030  0.138 -0.022   -0.004  0.015 -0.002    0.002 -0.014  0.002
 H          0.145  0.094  0.048    0.009  0.006  0.003   -0.013 -0.009 -0.004
 TransDip   0.000  0.000  0.000    0.000  0.000  0.000    0.000  0.000  0.000

 STANDARD THERMODYNAMIC QUANTITIES AT   298.15 K  AND     1.00 ATM

   This Molecule has  1 Imaginary Frequencies
   Zero point vibrational energy:       91.051 kcal/mol

   Atom    1 Element C  Has Mass   12.00000
   Atom    2 Element C  Has Mass   12.00000
   Atom    3 Element C  Has Mass   12.00000
   Atom    4 Element C  Has Mass   12.00000
   Atom    5 Element C  Has Mass   12.00000
   Atom    6 Element O  Has Mass   15.99491
   Atom    7 Element H  Has Mass    1.00783
   Atom    8 Element H  Has Mass    1.00783
   Atom    9 Element H  Has Mass    1.00783
   Atom   10 Element H  Has Mass    1.00783
   Atom   11 Element H  Has Mass    1.00783
   Atom   12 Element H  Has Mass    1.00783
   Atom   13 Element H  Has Mass    1.00783
   Atom   14 Element H  Has Mass    1.00783
   Atom   15 Element H  Has Mass    1.00783
   Atom   16 Element H  Has Mass    1.00783
   Atom   17 Element H  Has Mass    1.00783
   Molecular Mass:    87.081040 amu
   Principal axes and moments of inertia in atomic units:
                             1           2           3
    Eigenvalues --      358.61025   718.75891   778.28209
          X               0.99917    -0.01193     0.03893
          Y               0.01118     0.99975     0.01947
          Z              -0.03916    -0.01902     0.99905
   Rotational Symmetry Number is   1
   The Molecule is an Asymmetric Top
   Translational Enthalpy:        0.889 kcal/mol
   Rotational Enthalpy:           0.889 kcal/mol
   Vibrational Enthalpy:         93.822 kcal/mol
   gas constant (RT):             0.592 kcal/mol
   Translational Entropy:        39.306  cal/mol.K
   Rotational Entropy:           26.797  cal/mol.K
   Vibrational Entropy:          15.556  cal/mol.K

   Total Enthalpy:               96.192 kcal/mol
   Total Entropy:                81.659  cal/mol.K
Archival summary:
1\1\node85\FREQ\ProcedureUnspecified\BasisUnspecified\1511(2)\edames\FriApr1101:55:042014FriApr1101:55:042014\0\\#,FREQ,ProcedureUnspecified,BasisUnspecified,\\0,2\C\H,1,1.27857\O,2,1.3091,1,132.742\C,3,1.4127,2,96.4532,1,-4.23115,0\H,4,1.09974,3,108.806,2,145.199,0\H,4,1.10373,3,111.064,2,-95.7936,0\C,1,1.51039,2,110.199,3,-137.112,0\H,7,1.09667,1,111.402,2,52.9372,0\H,7,1.09719,1,111.622,2,-68.9547,0\H,7,1.10323,1,109.608,2,172.015,0\C,1,1.51525,2,105.497,3,98.4003,0\H,11,1.09675,1,111.465,2,68.487,0\H,11,1.09707,1,111.512,2,-52.8766,0\H,11,1.10236,1,109.582,2,-172.275,0\C,4,1.53536,3,104.566,2,24.1828,0\H,15,1.09823,4,109.693,3,80.6686,0\H,15,1.09973,4,114.141,3,-157.389,0\\\@

 Total job time:  94031.81s(wall), 93499.26s(cpu) 
 Fri Apr 11 01:55:04 2014

        *************************************************************
        *                                                           *
        *  Thank you very much for using Q-Chem.  Have a nice day.  *
        *                                                           *
        *************************************************************


0 sent ACK to 0 
now end server 0 ... 
cleanup process ... done
remove work dirs /tmp/qchem14054.0 -- /tmp/qchem14054.3
rm -rf /tmp/qchem14054.0
rm -rf /tmp/qchem14054.1
rm -rf /tmp/qchem14054.2
rm -rf /tmp/qchem14054.3
rm -rf /tmp/qchem14054
